<event>
 7    1  0.5664398E-009  0.4614232E+02  0.7816164E-02  0.1320468E+00
        -11   -1    0    0    0    0  0.00000000000E+00  0.00000000000E+00  0.45593999997E+02  0.45594000000E+02  0.51100000000E-03 0. -1.
         11   -1    0    0    0    0 -0.00000000000E+00 -0.00000000000E+00 -0.45593999997E+02  0.45594000000E+02  0.51100000000E-03 0.  1.
    9900012    2    1    2    0    0 -0.25892761508E+02 -0.36640161789E+02  0.40220723369E+01  0.46142316296E+02  0.99999866445E+01 0.  0.
        -12    1    1    2    0    0  0.25892761508E+02  0.36640161789E+02 -0.40220723369E+01  0.45045683704E+02  0.00000000000E+00 0.  1.
         11    1    3    3    0    0 -0.14135867024E+02 -0.24088461794E+02  0.49486749469E+01  0.28364874618E+02  0.51100000000E-03 0.  1.
        -11    1    3    3    0    0 -0.52734348813E+01 -0.48660776761E+01  0.17223510985E+01  0.73793171069E+01  0.51100000000E-03 0. -1.
        -12    1    3    3    0    0 -0.64834596031E+01 -0.76856223186E+01 -0.26489537084E+01  0.10398124571E+02  0.00000000000E+00 0.  1.
</event>
<event>
 7    1  0.5664398E-009  0.4614232E+02  0.7816164E-02  0.1320468E+00
        -11   -1    0    0    0    0  0.00000000000E+00  0.00000000000E+00  0.45593999997E+02  0.45594000000E+02  0.51100000000E-03 0. -1.
         11   -1    0    0    0    0 -0.00000000000E+00 -0.00000000000E+00 -0.45593999997E+02  0.45594000000E+02  0.51100000000E-03 0.  1.
    9900012    2    1    2    0    0 -0.46555676415E+01  0.12529108642E+02  0.43016980730E+02  0.46142317581E+02  0.99999983583E+01 0.  0.
        -12    1    1    2    0    0  0.46555676415E+01 -0.12529108642E+02 -0.43016980730E+02  0.45045682419E+02  0.00000000000E+00 0.  1.
         11    1    3    3    0    0 -0.51682756723E+01  0.56440408003E+01  0.17587575819E+02  0.19180435173E+02  0.51100000000E-03 0. -1.
        -11    1    3    3    0    0 -0.16892495775E+01  0.11204063874E+01  0.25101029952E+01  0.32263744227E+01  0.51100000000E-03 0.  1.
        -12    1    3    3    0    0  0.22019576082E+01  0.57646614540E+01  0.22919301916E+02  0.23735507985E+02  0.00000000000E+00 0.  1.
</event>
<event>
 7    1  0.7587274E-009  0.4614232E+02  0.7816164E-02  0.1320468E+00
        -11   -1    0    0    0    0  0.00000000000E+00  0.00000000000E+00  0.45593999997E+02  0.45594000000E+02  0.51100000000E-03 0. -1.
         11   -1    0    0    0    0 -0.00000000000E+00 -0.00000000000E+00 -0.45593999997E+02  0.45594000000E+02  0.51100000000E-03 0.  1.
    9900012    2    1    2    0    0 -0.22868647477E+02  0.13155467839E+01  0.38786690209E+02  0.46142322758E+02  0.10000045569E+02 0.  0.
        -12    1    1    2    0    0  0.22868647477E+02 -0.13155467839E+01 -0.38786690209E+02  0.45045677242E+02  0.00000000000E+00 0.  1.
         11    1    3    3    0    0 -0.11700404394E+02 -0.24249944157E+01  0.19900392619E+02  0.23212188340E+02  0.51100000000E-03 0. -1.
        -11    1    3    3    0    0 -0.18379192038E+00  0.74357901036E+00  0.45916566379E+01  0.46551047417E+01  0.51100000000E-03 0.  1.
         12    1    3    3    0    0 -0.10984451163E+02  0.29969621893E+01  0.14294640952E+02  0.18275029676E+02  0.00000000000E+00 0. -1.
</event>
<event>
 7    1  0.5664398E-009  0.4614232E+02  0.7816164E-02  0.1320468E+00
        -11   -1    0    0    0    0  0.00000000000E+00  0.00000000000E+00  0.45593999997E+02  0.45594000000E+02  0.51100000000E-03 0. -1.
         11   -1    0    0    0    0 -0.00000000000E+00 -0.00000000000E+00 -0.45593999997E+02  0.45594000000E+02  0.51100000000E-03 0.  1.
    9900012    2    1    2    0    0  0.18934892585E+02  0.19856428876E+02  0.35725419817E+02  0.46142317122E+02  0.99999941686E+01 0.  0.
        -12    1    1    2    0    0 -0.18934892585E+02 -0.19856428876E+02 -0.35725419817E+02  0.45045682878E+02  0.00000000000E+00 0.  1.
         11    1    3    3    0    0  0.11304422405E+01  0.49876678186E+01  0.38695858083E+01  0.64131446667E+01  0.51100000000E-03 0. -1.
        -11    1    3    3    0    0  0.86425525497E+01  0.99859926895E+01  0.15581519268E+02  0.20425413277E+02  0.51100000000E-03 0.  1.
        -12    1    3    3    0    0  0.91618977947E+01  0.48827683677E+01  0.16274314741E+02  0.19303759178E+02  0.00000000000E+00 0.  1.
</event>
<event>
 7    1  0.5664398E-009  0.4614232E+02  0.7816164E-02  0.1320468E+00
        -11   -1    0    0    0    0  0.00000000000E+00  0.00000000000E+00  0.45593999997E+02  0.45594000000E+02  0.51100000000E-03 0.  1.
         11   -1    0    0    0    0 -0.00000000000E+00 -0.00000000000E+00 -0.45593999997E+02  0.45594000000E+02  0.51100000000E-03 0. -1.
    9900012    2    1    2    0    0 -0.14191171580E+02 -0.42258899330E+02  0.64737568018E+01  0.46142318182E+02  0.10000003834E+02 0.  0.
        -12    1    1    2    0    0  0.14191171580E+02  0.42258899330E+02 -0.64737568018E+01  0.45045681818E+02  0.00000000000E+00 0.  1.
         11    1    3    3    0    0 -0.12523643523E+02 -0.30814335302E+02  0.27993096740E+01  0.33379650120E+02  0.51100000000E-03 0. -1.
        -11    1    3    3    0    0 -0.54340074465E+00 -0.10869951274E+02  0.37134205867E+01  0.11499592070E+02  0.51100000000E-03 0.  1.
        -12    1    3    3    0    0 -0.11241273118E+01 -0.57461275367E+00 -0.38973458919E-01  0.12630759915E+01  0.00000000000E+00 0.  1.
</event>
<event>
 7    1  0.5664398E-009  0.4614232E+02  0.7816164E-02  0.1320468E+00
        -11   -1    0    0    0    0  0.00000000000E+00  0.00000000000E+00  0.45593999997E+02  0.45594000000E+02  0.51100000000E-03 0. -1.
         11   -1    0    0    0    0 -0.00000000000E+00 -0.00000000000E+00 -0.45593999997E+02  0.45594000000E+02  0.51100000000E-03 0.  1.
    9900012    2    1    2    0    0 -0.11687177701E+02  0.27053911468E+02  0.34067715562E+02  0.46142317721E+02  0.99999996339E+01 0.  0.
        -12    1    1    2    0    0  0.11687177701E+02 -0.27053911468E+02 -0.34067715562E+02  0.45045682279E+02  0.00000000000E+00 0.  1.
         11    1    3    3    0    0 -0.26493276493E+01  0.35535008963E+01  0.76093372342E+01  0.88061523391E+01  0.51100000000E-03 0. -1.
        -11    1    3    3    0    0 -0.75380678141E+01  0.10378494969E+02  0.15887974980E+02  0.20419681031E+02  0.51100000000E-03 0.  1.
         12    1    3    3    0    0 -0.14997822379E+01  0.13121915603E+02  0.10570403349E+02  0.16916484351E+02  0.00000000000E+00 0. -1.
</event>
<event>
 7    1  0.5664398E-009  0.4614232E+02  0.7816164E-02  0.1320468E+00
        -11   -1    0    0    0    0  0.00000000000E+00  0.00000000000E+00  0.45593999997E+02  0.45594000000E+02  0.51100000000E-03 0. -1.
         11   -1    0    0    0    0 -0.00000000000E+00 -0.00000000000E+00 -0.45593999997E+02  0.45594000000E+02  0.51100000000E-03 0.  1.
    9900012    2    1    2    0    0 -0.33954985659E+02 -0.14451191301E+02 -0.25832837103E+02  0.46142318143E+02  0.10000003485E+02 0.  0.
         12    1    1    2    0    0  0.33954985659E+02  0.14451191301E+02  0.25832837103E+02  0.45045681857E+02  0.00000000000E+00 0. -1.
         11    1    3    3    0    0 -0.48742932291E+01 -0.47337872314E+01 -0.41569658963E+01  0.79654153539E+01  0.51100000000E-03 0. -1.
        -11    1    3    3    0    0 -0.26159179288E+02 -0.10398182978E+02 -0.17919209277E+02  0.33369491030E+02  0.51100000000E-03 0.  1.
         12    1    3    3    0    0 -0.29215131424E+01  0.68077890875E+00 -0.37566619302E+01  0.48074117591E+01  0.00000000000E+00 0. -1.
</event>
<event>
 7    1  0.5664398E-009  0.4614232E+02  0.7816164E-02  0.1320468E+00
        -11   -1    0    0    0    0  0.00000000000E+00  0.00000000000E+00  0.45593999997E+02  0.45594000000E+02  0.51100000000E-03 0. -1.
         11   -1    0    0    0    0 -0.00000000000E+00 -0.00000000000E+00 -0.45593999997E+02  0.45594000000E+02  0.51100000000E-03 0.  1.
    9900012    2    1    2    0    0 -0.19426567045E+02  0.36133644750E+02  0.18603271102E+02  0.46142317790E+02  0.10000000265E+02 0.  0.
        -12    1    1    2    0    0  0.19426567045E+02 -0.36133644750E+02 -0.18603271102E+02  0.45045682210E+02  0.00000000000E+00 0.  1.
         11    1    3    3    0    0 -0.13201400685E+02  0.20898328286E+02  0.72831443715E+01  0.25769386826E+02  0.51100000000E-03 0.  1.
        -11    1    3    3    0    0 -0.40576306268E+01  0.10159196811E+02  0.51401739504E+01  0.12086977896E+02  0.51100000000E-03 0. -1.
        -12    1    3    3    0    0 -0.21675357327E+01  0.50761196526E+01  0.61799527805E+01  0.82859530682E+01  0.00000000000E+00 0.  1.
</event>
<event>
 7    1  0.5664398E-009  0.4614232E+02  0.7816164E-02  0.1320468E+00
        -11   -1    0    0    0    0  0.00000000000E+00  0.00000000000E+00  0.45593999997E+02  0.45594000000E+02  0.51100000000E-03 0. -1.
         11   -1    0    0    0    0 -0.00000000000E+00 -0.00000000000E+00 -0.45593999997E+02  0.45594000000E+02  0.51100000000E-03 0.  1.
    9900012    2    1    2    0    0 -0.35311582356E+02  0.49935702051E+01 -0.27518537105E+02  0.46142317896E+02  0.10000001229E+02 0.  0.
         12    1    1    2    0    0  0.35311582356E+02 -0.49935702051E+01  0.27518537105E+02  0.45045682104E+02  0.00000000000E+00 0. -1.
         11    1    3    3    0    0 -0.59732635176E+00  0.30697184565E+00  0.12085620040E+00  0.68237597176E+00  0.51100000000E-03 0. -1.
        -11    1    3    3    0    0 -0.65171830358E+01 -0.34523102792E+00 -0.15304237851E+01  0.67033615752E+01  0.51100000000E-03 0.  1.
        -12    1    3    3    0    0 -0.28197072968E+02  0.50318293874E+01 -0.26108969520E+02  0.38756580349E+02  0.00000000000E+00 0.  1.
</event>
<event>
 7    1  0.5664398E-009  0.4614232E+02  0.7816164E-02  0.1320468E+00
        -11   -1    0    0    0    0  0.00000000000E+00  0.00000000000E+00  0.45593999997E+02  0.45594000000E+02  0.51100000000E-03 0. -1.
         11   -1    0    0    0    0 -0.00000000000E+00 -0.00000000000E+00 -0.45593999997E+02  0.45594000000E+02  0.51100000000E-03 0.  1.
    9900012    2    1    2    0    0  0.86602544309E+01  0.21989829410E+02  0.38347893198E+02  0.46142317444E+02  0.99999971048E+01 0.  0.
        -12    1    1    2    0    0 -0.86602544309E+01 -0.21989829410E+02 -0.38347893198E+02  0.45045682556E+02  0.00000000000E+00 0.  1.
         11    1    3    3    0    0  0.17734361265E+01  0.37498628788E+01  0.92669260233E+01  0.10152953535E+02  0.51100000000E-03 0. -1.
        -11    1    3    3    0    0  0.60925324819E+01  0.53717751489E+01  0.89744795029E+01  0.12104387754E+02  0.51100000000E-03 0.  1.
         12    1    3    3    0    0  0.79428582252E+00  0.12868191382E+02  0.20106487671E+02  0.23884976154E+02  0.00000000000E+00 0. -1.
</event>
<event>
 7    1  0.5664398E-009  0.4614232E+02  0.7816164E-02  0.1320468E+00
        -11   -1    0    0    0    0  0.00000000000E+00  0.00000000000E+00  0.45593999997E+02  0.45594000000E+02  0.51100000000E-03 0. -1.
         11   -1    0    0    0    0 -0.00000000000E+00 -0.00000000000E+00 -0.45593999997E+02  0.45594000000E+02  0.51100000000E-03 0.  1.
    9900012    2    1    2    0    0  0.31956390289E+02  0.10583401250E+02  0.29931492103E+02  0.46142317833E+02  0.10000000657E+02 0.  0.
        -12    1    1    2    0    0 -0.31956390289E+02 -0.10583401250E+02 -0.29931492103E+02  0.45045682167E+02  0.00000000000E+00 0.  1.
         11    1    3    3    0    0  0.13372497085E+02  0.56047168820E+01  0.12535731881E+02  0.19167188204E+02  0.51100000000E-03 0. -1.
        -11    1    3    3    0    0  0.98489451565E+01  0.41395820663E+01  0.50203898166E+01  0.11804328636E+02  0.51100000000E-03 0.  1.
         12    1    3    3    0    0  0.87349480481E+01  0.83910230159E+00  0.12375370406E+02  0.15170800993E+02  0.00000000000E+00 0. -1.
</event>
<event>
 7    1  0.5664398E-009  0.4614232E+02  0.7816164E-02  0.1320468E+00
        -11   -1    0    0    0    0  0.00000000000E+00  0.00000000000E+00  0.45593999997E+02  0.45594000000E+02  0.51100000000E-03 0. -1.
         11   -1    0    0    0    0 -0.00000000000E+00 -0.00000000000E+00 -0.45593999997E+02  0.45594000000E+02  0.51100000000E-03 0.  1.
    9900012    2    1    2    0    0 -0.11297794454E+01 -0.12089725796E+01 -0.45015280274E+02  0.46142317916E+02  0.10000001413E+02 0.  0.
         12    1    1    2    0    0  0.11297794454E+01  0.12089725796E+01  0.45015280274E+02  0.45045682084E+02  0.00000000000E+00 0. -1.
         11    1    3    3    0    0 -0.31512074035E+01  0.45175428188E+00 -0.17268922193E+02  0.17559893621E+02  0.51100000000E-03 0. -1.
        -11    1    3    3    0    0  0.28875316721E+01 -0.28412099376E+00 -0.26125979891E+02  0.26286600949E+02  0.51100000000E-03 0.  1.
         12    1    3    3    0    0 -0.86610371390E+00 -0.13766058677E+01 -0.16203781894E+01  0.22958233458E+01  0.00000000000E+00 0. -1.
</event>
<event>
 7    1  0.5664398E-009  0.4614232E+02  0.7816164E-02  0.1320468E+00
        -11   -1    0    0    0    0  0.00000000000E+00  0.00000000000E+00  0.45593999997E+02  0.45594000000E+02  0.51100000000E-03 0.  1.
         11   -1    0    0    0    0 -0.00000000000E+00 -0.00000000000E+00 -0.45593999997E+02  0.45594000000E+02  0.51100000000E-03 0. -1.
    9900012    2    1    2    0    0 -0.40243571811E+02 -0.14433747256E+02  0.14185743090E+02  0.46142318309E+02  0.10000004998E+02 0.  0.
        -12    1    1    2    0    0  0.40243571811E+02  0.14433747256E+02 -0.14185743090E+02  0.45045681691E+02  0.00000000000E+00 0.  1.
         11    1    3    3    0    0 -0.15122867764E+01  0.33789392725E-01  0.18460396186E-01  0.15127769381E+01  0.51100000000E-03 0.  1.
        -11    1    3    3    0    0 -0.13056195200E+02 -0.88063447291E+01  0.78163141663E+01  0.17581544528E+02  0.51100000000E-03 0. -1.
         12    1    3    3    0    0 -0.25675089835E+02 -0.56611919195E+01  0.63509685274E+01  0.27047996843E+02  0.00000000000E+00 0. -1.
</event>
<event>
 7    1  0.5664398E-009  0.4614232E+02  0.7816164E-02  0.1320468E+00
        -11   -1    0    0    0    0  0.00000000000E+00  0.00000000000E+00  0.45593999997E+02  0.45594000000E+02  0.51100000000E-03 0. -1.
         11   -1    0    0    0    0 -0.00000000000E+00 -0.00000000000E+00 -0.45593999997E+02  0.45594000000E+02  0.51100000000E-03 0.  1.
    9900012    2    1    2    0    0  0.22785262216E+02  0.22814105357E+02 -0.31455713130E+02  0.46142318009E+02  0.10000002263E+02 0.  0.
         12    1    1    2    0    0 -0.22785262216E+02 -0.22814105357E+02  0.31455713130E+02  0.45045681991E+02  0.00000000000E+00 0. -1.
         11    1    3    3    0    0  0.59330445087E+01  0.34099389481E+01 -0.11025790556E+02  0.12976777659E+02  0.51100000000E-03 0. -1.
        -11    1    3    3    0    0  0.56325810984E+01  0.82908928471E+01 -0.10474068830E+02  0.14497275335E+02  0.51100000000E-03 0.  1.
         12    1    3    3    0    0  0.11219636609E+02  0.11113273562E+02 -0.99558537450E+01  0.18668265015E+02  0.00000000000E+00 0. -1.
</event>
<event>
 7    1  0.5664398E-009  0.4614232E+02  0.7816164E-02  0.1320468E+00
        -11   -1    0    0    0    0  0.00000000000E+00  0.00000000000E+00  0.45593999997E+02  0.45594000000E+02  0.51100000000E-03 0. -1.
         11   -1    0    0    0    0 -0.00000000000E+00 -0.00000000000E+00 -0.45593999997E+02  0.45594000000E+02  0.51100000000E-03 0.  1.
    9900012    2    1    2    0    0 -0.27961608544E+02 -0.31627942528E+02 -0.15714172789E+02  0.46142317329E+02  0.99999960557E+01 0.  0.
         12    1    1    2    0    0  0.27961608544E+02  0.31627942528E+02  0.15714172789E+02  0.45045682671E+02  0.00000000000E+00 0. -1.
         11    1    3    3    0    0 -0.55968380054E+00 -0.20825652219E+01 -0.79013315015E-01  0.21579080669E+01  0.51100000000E-03 0. -1.
        -11    1    3    3    0    0 -0.59814051016E+01 -0.78894672186E+01 -0.35587591663E+00  0.99069444286E+01  0.51100000000E-03 0.  1.
        -12    1    3    3    0    0 -0.21420519642E+02 -0.21655910087E+02 -0.15279283557E+02  0.34077464833E+02  0.00000000000E+00 0.  1.
</event>
<event>
 7    1  0.5664398E-009  0.4614232E+02  0.7816164E-02  0.1320468E+00
        -11   -1    0    0    0    0  0.00000000000E+00  0.00000000000E+00  0.45593999997E+02  0.45594000000E+02  0.51100000000E-03 0.  1.
         11   -1    0    0    0    0 -0.00000000000E+00 -0.00000000000E+00 -0.45593999997E+02  0.45594000000E+02  0.51100000000E-03 0. -1.
    9900012    2    1    2    0    0 -0.17671352991E+02  0.37658488165E+02  0.17282216984E+02  0.46142317951E+02  0.10000001730E+02 0.  0.
        -12    1    1    2    0    0  0.17671352991E+02 -0.37658488165E+02 -0.17282216984E+02  0.45045682049E+02  0.00000000000E+00 0.  1.
         11    1    3    3    0    0 -0.95472613904E+01  0.23357656340E+02  0.54743002496E+01  0.25820501026E+02  0.51100000000E-03 0. -1.
        -11    1    3    3    0    0 -0.39759449784E+01  0.62699398138E+01  0.43613657525E+01  0.86105630030E+01  0.51100000000E-03 0.  1.
         12    1    3    3    0    0 -0.41481466219E+01  0.80308920109E+01  0.74465509820E+01  0.11711253922E+02  0.00000000000E+00 0. -1.
</event>
<event>
 7    1  0.5664398E-009  0.4614232E+02  0.7816164E-02  0.1320468E+00
        -11   -1    0    0    0    0  0.00000000000E+00  0.00000000000E+00  0.45593999997E+02  0.45594000000E+02  0.51100000000E-03 0.  1.
         11   -1    0    0    0    0 -0.00000000000E+00 -0.00000000000E+00 -0.45593999997E+02  0.45594000000E+02  0.51100000000E-03 0. -1.
    9900012    2    1    2    0    0  0.76035323151E+01 -0.23484269034E+02 -0.37680082375E+02  0.46142320923E+02  0.10000028832E+02 0.  0.
         12    1    1    2    0    0 -0.76035323151E+01  0.23484269034E+02  0.37680082375E+02  0.45045679077E+02  0.00000000000E+00 0. -1.
         11    1    3    3    0    0  0.25979509817E+01 -0.58361986293E+01 -0.89817730520E+01  0.11021924113E+02  0.51100000000E-03 0. -1.
        -11    1    3    3    0    0  0.85355853603E+00 -0.60699124425E+01 -0.34463178190E+01  0.70320342722E+01  0.51100000000E-03 0.  1.
         12    1    3    3    0    0  0.41520227974E+01 -0.11578157962E+02 -0.25251991504E+02  0.28088362537E+02  0.00000000000E+00 0. -1.
</event>
<event>
 7    1  0.5664398E-009  0.4614232E+02  0.7816164E-02  0.1320468E+00
        -11   -1    0    0    0    0  0.00000000000E+00  0.00000000000E+00  0.45593999997E+02  0.45594000000E+02  0.51100000000E-03 0. -1.
         11   -1    0    0    0    0 -0.00000000000E+00 -0.00000000000E+00 -0.45593999997E+02  0.45594000000E+02  0.51100000000E-03 0.  1.
    9900012    2    1    2    0    0  0.25568995880E+01  0.37923038775E+02  0.24174756016E+02  0.46142318366E+02  0.10000005512E+02 0.  0.
        -12    1    1    2    0    0 -0.25568995880E+01 -0.37923038775E+02 -0.24174756016E+02  0.45045681634E+02  0.00000000000E+00 0.  1.
         11    1    3    3    0    0  0.41667138347E+01  0.27136373949E+02  0.18814719617E+02  0.33282697754E+02  0.51100000000E-03 0. -1.
        -11    1    3    3    0    0  0.35640309285E+00  0.25172591968E+01  0.32046621585E+01  0.40906572626E+01  0.51100000000E-03 0.  1.
        -12    1    3    3    0    0 -0.19662173395E+01  0.82694056301E+01  0.21553742407E+01  0.87689633491E+01  0.00000000000E+00 0.  1.
</event>
<event>
 7    1  0.5664398E-009  0.4614232E+02  0.7816164E-02  0.1320468E+00
        -11   -1    0    0    0    0  0.00000000000E+00  0.00000000000E+00  0.45593999997E+02  0.45594000000E+02  0.51100000000E-03 0. -1.
         11   -1    0    0    0    0 -0.00000000000E+00 -0.00000000000E+00 -0.45593999997E+02  0.45594000000E+02  0.51100000000E-03 0.  1.
    9900012    2    1    2    0    0  0.24844106430E+02  0.28048967952E+02 -0.25002785686E+02  0.46142317415E+02  0.99999968474E+01 0.  0.
         12    1    1    2    0    0 -0.24844106430E+02 -0.28048967952E+02  0.25002785686E+02  0.45045682585E+02  0.00000000000E+00 0. -1.
         11    1    3    3    0    0  0.14074186856E+02  0.10026653945E+02 -0.13305169740E+02  0.21809265624E+02  0.51100000000E-03 0.  1.
        -11    1    3    3    0    0 -0.17381654639E+00  0.11776356253E+01 -0.11028717416E+01  0.16227643691E+01  0.51100000000E-03 0. -1.
        -12    1    3    3    0    0  0.10943736121E+02  0.16844678382E+02 -0.10594744204E+02  0.22710287423E+02  0.00000000000E+00 0.  1.
</event>
<event>
 7    1  0.5664398E-009  0.4614231E+02  0.7816164E-02  0.1320468E+00
        -11   -1    0    0    0    0  0.00000000000E+00  0.00000000000E+00  0.45593999997E+02  0.45594000000E+02  0.51100000000E-03 0. -1.
         11   -1    0    0    0    0 -0.00000000000E+00 -0.00000000000E+00 -0.45593999997E+02  0.45594000000E+02  0.51100000000E-03 0.  1.
    9900012    2    1    2    0    0 -0.28757826910E+02  0.30026932586E+02 -0.17334488427E+02  0.46142314545E+02  0.99999706743E+01 0.  0.
         12    1    1    2    0    0  0.28757826910E+02 -0.30026932586E+02  0.17334488427E+02  0.45045685455E+02  0.00000000000E+00 0. -1.
         11    1    3    3    0    0 -0.39504509967E+00  0.34179230943E+01 -0.31697042148E+01  0.46781710080E+01  0.51100000000E-03 0. -1.
        -11    1    3    3    0    0 -0.13822951188E+02  0.12229082746E+02 -0.79065509200E+01  0.20078296543E+02  0.51100000000E-03 0.  1.
         12    1    3    3    0    0 -0.14539830622E+02  0.14379926745E+02 -0.62582332918E+01  0.21385846994E+02  0.00000000000E+00 0. -1.
</event>
<event>
 7    1  0.5664398E-009  0.4614232E+02  0.7816164E-02  0.1320468E+00
        -11   -1    0    0    0    0  0.00000000000E+00  0.00000000000E+00  0.45593999997E+02  0.45594000000E+02  0.51100000000E-03 0. -1.
         11   -1    0    0    0    0 -0.00000000000E+00 -0.00000000000E+00 -0.45593999997E+02  0.45594000000E+02  0.51100000000E-03 0.  1.
    9900012    2    1    2    0    0 -0.19911482041E+02 -0.31412385334E+02  0.25414729812E+02  0.46142316957E+02  0.99999926637E+01 0.  0.
        -12    1    1    2    0    0  0.19911482041E+02  0.31412385334E+02 -0.25414729812E+02  0.45045683043E+02  0.00000000000E+00 0.  1.
         11    1    3    3    0    0 -0.14197180107E+02 -0.15760264280E+02  0.13847934772E+02  0.25332018295E+02  0.51100000000E-03 0. -1.
        -11    1    3    3    0    0 -0.28301150781E+01 -0.11585902271E+02  0.60450737944E+01  0.13371073264E+02  0.51100000000E-03 0.  1.
        -12    1    3    3    0    0 -0.28841868556E+01 -0.40662187830E+01  0.55217212453E+01  0.74392253978E+01  0.00000000000E+00 0.  1.
</event>
<event>
 7    1  0.5664398E-009  0.4614232E+02  0.7816164E-02  0.1320468E+00
        -11   -1    0    0    0    0  0.00000000000E+00  0.00000000000E+00  0.45593999997E+02  0.45594000000E+02  0.51100000000E-03 0. -1.
         11   -1    0    0    0    0 -0.00000000000E+00 -0.00000000000E+00 -0.45593999997E+02  0.45594000000E+02  0.51100000000E-03 0.  1.
    9900012    2    1    2    0    0 -0.17417860430E+02  0.29768806669E+02 -0.28974980561E+02  0.46142320840E+02  0.10000028075E+02 0.  0.
         12    1    1    2    0    0  0.17417860430E+02 -0.29768806669E+02  0.28974980561E+02  0.45045679160E+02  0.00000000000E+00 0. -1.
         11    1    3    3    0    0  0.51704701328E+00  0.13806113860E+01 -0.49719659110E+00  0.15558374351E+01  0.51100000000E-03 0. -1.
        -11    1    3    3    0    0 -0.10699334396E+02  0.17402322415E+02 -0.12741599784E+02  0.24076231999E+02  0.51100000000E-03 0.  1.
        -12    1    3    3    0    0 -0.72355730479E+01  0.10985872868E+02 -0.15736184186E+02  0.20510251406E+02  0.00000000000E+00 0.  1.
</event>
<event>
 7    1  0.5664398E-009  0.4614232E+02  0.7816164E-02  0.1320468E+00
        -11   -1    0    0    0    0  0.00000000000E+00  0.00000000000E+00  0.45593999997E+02  0.45594000000E+02  0.51100000000E-03 0. -1.
         11   -1    0    0    0    0 -0.00000000000E+00 -0.00000000000E+00 -0.45593999997E+02  0.45594000000E+02  0.51100000000E-03 0.  1.
    9900012    2    1    2    0    0 -0.17649066347E+02  0.39164212535E+02 -0.13556858628E+02  0.46142317607E+02  0.99999985973E+01 0.  0.
         12    1    1    2    0    0  0.17649066347E+02 -0.39164212535E+02  0.13556858628E+02  0.45045682393E+02  0.00000000000E+00 0. -1.
         11    1    3    3    0    0 -0.22147760801E+00  0.37006994367E+01 -0.21040483545E+01  0.42627747291E+01  0.51100000000E-03 0. -1.
        -11    1    3    3    0    0 -0.65187090549E+00  0.77072068125E+01 -0.96933468667E+00  0.77952281894E+01  0.51100000000E-03 0.  1.
        -12    1    3    3    0    0 -0.16775717833E+02  0.27756306285E+02 -0.10483475587E+02  0.34084314689E+02  0.00000000000E+00 0.  1.
</event>
<event>
 7    1  0.5664398E-009  0.4614232E+02  0.7816164E-02  0.1320468E+00
        -11   -1    0    0    0    0  0.00000000000E+00  0.00000000000E+00  0.45593999997E+02  0.45594000000E+02  0.51100000000E-03 0. -1.
         11   -1    0    0    0    0 -0.00000000000E+00 -0.00000000000E+00 -0.45593999997E+02  0.45594000000E+02  0.51100000000E-03 0.  1.
    9900012    2    1    2    0    0 -0.12383059825E+02 -0.13641994003E+02 -0.41105586770E+02  0.46142318357E+02  0.10000005433E+02 0.  0.
         12    1    1    2    0    0  0.12383059825E+02  0.13641994003E+02  0.41105586770E+02  0.45045681643E+02  0.00000000000E+00 0. -1.
         11    1    3    3    0    0 -0.40031952575E+01 -0.25802716522E+00 -0.60872988629E+01  0.72902234530E+01  0.51100000000E-03 0. -1.
        -11    1    3    3    0    0  0.38274504746E+00 -0.36400334181E+01 -0.91223407236E+01  0.98292134779E+01  0.51100000000E-03 0.  1.
         12    1    3    3    0    0 -0.87626096154E+01 -0.97439334194E+01 -0.25895947183E+02  0.29022881426E+02  0.00000000000E+00 0. -1.
</event>
<event>
 7    1  0.5664398E-009  0.4614232E+02  0.7816164E-02  0.1320468E+00
        -11   -1    0    0    0    0  0.00000000000E+00  0.00000000000E+00  0.45593999997E+02  0.45594000000E+02  0.51100000000E-03 0. -1.
         11   -1    0    0    0    0 -0.00000000000E+00 -0.00000000000E+00 -0.45593999997E+02  0.45594000000E+02  0.51100000000E-03 0.  1.
    9900012    2    1    2    0    0 -0.31239957572E+02  0.12167966865E+02  0.30085197431E+02  0.46142317951E+02  0.10000001733E+02 0.  0.
        -12    1    1    2    0    0  0.31239957572E+02 -0.12167966865E+02 -0.30085197431E+02  0.45045682049E+02  0.00000000000E+00 0.  1.
         11    1    3    3    0    0 -0.17052069446E+02  0.85114434980E+01  0.17696508620E+02  0.26007386651E+02  0.51100000000E-03 0. -1.
        -11    1    3    3    0    0 -0.81209361987E+01 -0.51037173528E+00  0.86644455590E+01  0.11886239992E+02  0.51100000000E-03 0.  1.
        -12    1    3    3    0    0 -0.60669519276E+01  0.41668951024E+01  0.37242432523E+01  0.82486913076E+01  0.00000000000E+00 0.  1.
</event>
<event>
 7    1  0.5664398E-009  0.4614232E+02  0.7816164E-02  0.1320468E+00
        -11   -1    0    0    0    0  0.00000000000E+00  0.00000000000E+00  0.45593999997E+02  0.45594000000E+02  0.51100000000E-03 0. -1.
         11   -1    0    0    0    0 -0.00000000000E+00 -0.00000000000E+00 -0.45593999997E+02  0.45594000000E+02  0.51100000000E-03 0.  1.
    9900012    2    1    2    0    0 -0.11791901081E+02 -0.23199413874E+02 -0.36767536817E+02  0.46142317645E+02  0.99999989447E+01 0.  0.
         12    1    1    2    0    0  0.11791901081E+02  0.23199413874E+02  0.36767536817E+02  0.45045682355E+02  0.00000000000E+00 0. -1.
         11    1    3    3    0    0 -0.30916608578E+01 -0.97088273285E+01 -0.10390223358E+02  0.14552540556E+02  0.51100000000E-03 0. -1.
        -11    1    3    3    0    0 -0.81815174217E+01 -0.14064615585E+02 -0.26121837776E+02  0.30775006872E+02  0.51100000000E-03 0.  1.
        -12    1    3    3    0    0 -0.51872280183E+00  0.57402903906E+00 -0.25547568229E+00  0.81477021734E+00  0.00000000000E+00 0.  1.
</event>
<event>
 7    1  0.5664398E-009  0.4614232E+02  0.7816164E-02  0.1320468E+00
        -11   -1    0    0    0    0  0.00000000000E+00  0.00000000000E+00  0.45593999997E+02  0.45594000000E+02  0.51100000000E-03 0. -1.
         11   -1    0    0    0    0 -0.00000000000E+00 -0.00000000000E+00 -0.45593999997E+02  0.45594000000E+02  0.51100000000E-03 0.  1.
    9900012    2    1    2    0    0  0.36696919579E+02 -0.27301610588E+01  0.25980681767E+02  0.46142317509E+02  0.99999976990E+01 0.  0.
        -12    1    1    2    0    0 -0.36696919579E+02  0.27301610588E+01 -0.25980681767E+02  0.45045682491E+02  0.00000000000E+00 0.  1.
         11    1    3    3    0    0  0.12668975923E+02 -0.98280185126E+00  0.55769151770E+01  0.13876989355E+02  0.51100000000E-03 0. -1.
        -11    1    3    3    0    0  0.13325052629E+02  0.65467986691E+00  0.74107994952E+01  0.15261244468E+02  0.51100000000E-03 0.  1.
        -12    1    3    3    0    0  0.10702891028E+02 -0.24020390745E+01  0.12992967095E+02  0.17004083686E+02  0.00000000000E+00 0.  1.
</event>
<event>
 7    1  0.5664398E-009  0.4614232E+02  0.7816164E-02  0.1320468E+00
        -11   -1    0    0    0    0  0.00000000000E+00  0.00000000000E+00  0.45593999997E+02  0.45594000000E+02  0.51100000000E-03 0.  1.
         11   -1    0    0    0    0 -0.00000000000E+00 -0.00000000000E+00 -0.45593999997E+02  0.45594000000E+02  0.51100000000E-03 0. -1.
    9900012    2    1    2    0    0  0.86426851301E+01  0.43844227982E+02  0.56657839496E+01  0.46142318283E+02  0.10000004757E+02 0.  0.
        -12    1    1    2    0    0 -0.86426851301E+01 -0.43844227982E+02 -0.56657839496E+01  0.45045681717E+02  0.00000000000E+00 0.  1.
         11    1    3    3    0    0  0.70185896434E+01  0.24995567445E+02  0.21481617831E+01  0.26050980630E+02  0.51100000000E-03 0. -1.
        -11    1    3    3    0    0  0.35219531232E+01  0.10814476549E+02  0.32620763623E+01  0.11832083471E+02  0.51100000000E-03 0.  1.
        -12    1    3    3    0    0 -0.18978576365E+01  0.80341839884E+01  0.25554580416E+00  0.82592541809E+01  0.00000000000E+00 0.  1.
</event>
<event>
 7    1  0.5664398E-009  0.4614231E+02  0.7816164E-02  0.1320468E+00
        -11   -1    0    0    0    0  0.00000000000E+00  0.00000000000E+00  0.45593999997E+02  0.45594000000E+02  0.51100000000E-03 0. -1.
         11   -1    0    0    0    0 -0.00000000000E+00 -0.00000000000E+00 -0.45593999997E+02  0.45594000000E+02  0.51100000000E-03 0.  1.
    9900012    2    1    2    0    0  0.14714884429E+02  0.88560916882E+01 -0.41643197530E+02  0.46142311146E+02  0.99999396807E+01 0.  0.
         12    1    1    2    0    0 -0.14714884429E+02 -0.88560916882E+01  0.41643197530E+02  0.45045688854E+02  0.00000000000E+00 0. -1.
         11    1    3    3    0    0  0.10020990563E+01 -0.57582992183E+00 -0.50688281220E+01  0.51989231009E+01  0.51100000000E-03 0. -1.
        -11    1    3    3    0    0  0.61599461682E+01  0.89098119809E+01 -0.21391531062E+02  0.23977641413E+02  0.51100000000E-03 0.  1.
        -12    1    3    3    0    0  0.75528392050E+01  0.52210962921E+00 -0.15182838347E+02  0.16965746632E+02  0.00000000000E+00 0.  1.
</event>
<event>
 7    1  0.5664398E-009  0.4614232E+02  0.7816164E-02  0.1320468E+00
        -11   -1    0    0    0    0  0.00000000000E+00  0.00000000000E+00  0.45593999997E+02  0.45594000000E+02  0.51100000000E-03 0. -1.
         11   -1    0    0    0    0 -0.00000000000E+00 -0.00000000000E+00 -0.45593999997E+02  0.45594000000E+02  0.51100000000E-03 0.  1.
    9900012    2    1    2    0    0 -0.30533459437E+02  0.59973169325E+01 -0.32570746443E+02  0.46142317860E+02  0.10000000906E+02 0.  0.
         12    1    1    2    0    0  0.30533459437E+02 -0.59973169325E+01  0.32570746443E+02  0.45045682140E+02  0.00000000000E+00 0. -1.
         11    1    3    3    0    0 -0.16115665150E+01  0.11102711938E+01 -0.38787634714E+01  0.43444971037E+01  0.51100000000E-03 0. -1.
        -11    1    3    3    0    0 -0.19376829873E+02  0.30294242071E+01 -0.13681490199E+02  0.23912802456E+02  0.51100000000E-03 0.  1.
        -12    1    3    3    0    0 -0.95450630487E+01  0.18576215316E+01 -0.15010492772E+02  0.17885018301E+02  0.00000000000E+00 0.  1.
</event>
<event>
 7    1  0.5664398E-009  0.4614232E+02  0.7816164E-02  0.1320468E+00
        -11   -1    0    0    0    0  0.00000000000E+00  0.00000000000E+00  0.45593999997E+02  0.45594000000E+02  0.51100000000E-03 0. -1.
         11   -1    0    0    0    0 -0.00000000000E+00 -0.00000000000E+00 -0.45593999997E+02  0.45594000000E+02  0.51100000000E-03 0.  1.
    9900012    2    1    2    0    0  0.20820378530E+01  0.24581446530E+02  0.37689932988E+02  0.46142318256E+02  0.10000004515E+02 0.  0.
        -12    1    1    2    0    0 -0.20820378530E+01 -0.24581446530E+02 -0.37689932988E+02  0.45045681744E+02  0.00000000000E+00 0.  1.
         11    1    3    3    0    0  0.99731449399E+00  0.13537617629E+02  0.26675960257E+02  0.29931063849E+02  0.51100000000E-03 0. -1.
        -11    1    3    3    0    0  0.15806229292E+01  0.13495596159E+01  0.28515034364E+01  0.35285623291E+01  0.51100000000E-03 0.  1.
        -12    1    3    3    0    0 -0.49589957020E+00  0.96942692854E+01  0.81624692949E+01  0.12682692078E+02  0.00000000000E+00 0.  1.
</event>
<event>
 7    1  0.5664398E-009  0.4614232E+02  0.7816164E-02  0.1320468E+00
        -11   -1    0    0    0    0  0.00000000000E+00  0.00000000000E+00  0.45593999997E+02  0.45594000000E+02  0.51100000000E-03 0. -1.
         11   -1    0    0    0    0 -0.00000000000E+00 -0.00000000000E+00 -0.45593999997E+02  0.45594000000E+02  0.51100000000E-03 0.  1.
    9900012    2    1    2    0    0 -0.26234365056E+02  0.10301974408E+02 -0.35138879494E+02  0.46142318312E+02  0.10000005026E+02 0.  0.
         12    1    1    2    0    0  0.26234365056E+02 -0.10301974408E+02  0.35138879494E+02  0.45045681688E+02  0.00000000000E+00 0. -1.
         11    1    3    3    0    0 -0.15875046482E+02  0.38861274758E+01 -0.16427598642E+02  0.23172938635E+02  0.51100000000E-03 0. -1.
        -11    1    3    3    0    0 -0.15436531241E+01  0.40998597359E-01 -0.62012067353E+01  0.63905798710E+01  0.51100000000E-03 0.  1.
         12    1    3    3    0    0 -0.88156654502E+01  0.63748483349E+01 -0.12510074116E+02  0.16578799806E+02  0.00000000000E+00 0. -1.
</event>
<event>
 7    1  0.5664398E-009  0.4614232E+02  0.7816164E-02  0.1320468E+00
        -11   -1    0    0    0    0  0.00000000000E+00  0.00000000000E+00  0.45593999997E+02  0.45594000000E+02  0.51100000000E-03 0. -1.
         11   -1    0    0    0    0 -0.00000000000E+00 -0.00000000000E+00 -0.45593999997E+02  0.45594000000E+02  0.51100000000E-03 0.  1.
    9900012    2    1    2    0    0 -0.32947791524E+02  0.26094285378E+02 -0.16206318066E+02  0.46142318287E+02  0.10000004800E+02 0.  0.
         12    1    1    2    0    0  0.32947791524E+02 -0.26094285378E+02  0.16206318066E+02  0.45045681713E+02  0.00000000000E+00 0. -1.
         11    1    3    3    0    0 -0.41156234076E+01  0.26343544711E+01 -0.26628370218E+01  0.55649690725E+01  0.51100000000E-03 0. -1.
        -11    1    3    3    0    0 -0.28463463478E+01  0.65332872445E+01 -0.13460189409E+01  0.72523993961E+01  0.51100000000E-03 0.  1.
        -12    1    3    3    0    0 -0.25985821769E+02  0.16926643662E+02 -0.12197462103E+02  0.33324949819E+02  0.00000000000E+00 0.  1.
</event>
<event>
 7    1  0.5664398E-009  0.4614232E+02  0.7816164E-02  0.1320468E+00
        -11   -1    0    0    0    0  0.00000000000E+00  0.00000000000E+00  0.45593999997E+02  0.45594000000E+02  0.51100000000E-03 0. -1.
         11   -1    0    0    0    0 -0.00000000000E+00 -0.00000000000E+00 -0.45593999997E+02  0.45594000000E+02  0.51100000000E-03 0.  1.
    9900012    2    1    2    0    0 -0.19483143726E+02 -0.11779343152E+02  0.38868594451E+02  0.46142318197E+02  0.10000003972E+02 0.  0.
        -12    1    1    2    0    0  0.19483143726E+02  0.11779343152E+02 -0.38868594451E+02  0.45045681803E+02  0.00000000000E+00 0.  1.
         11    1    3    3    0    0 -0.81726478462E+01 -0.49076513949E+01  0.13807274325E+02  0.16778499325E+02  0.51100000000E-03 0. -1.
        -11    1    3    3    0    0 -0.12232938709E+02 -0.68034155920E+01  0.21279594745E+02  0.25470618484E+02  0.51100000000E-03 0.  1.
         12    1    3    3    0    0  0.92244282950E+00 -0.68276165243E-01  0.37817253802E+01  0.38932003879E+01  0.00000000000E+00 0. -1.
</event>
<event>
 7    1  0.5664398E-009  0.4614232E+02  0.7816164E-02  0.1320468E+00
        -11   -1    0    0    0    0  0.00000000000E+00  0.00000000000E+00  0.45593999997E+02  0.45594000000E+02  0.51100000000E-03 0.  1.
         11   -1    0    0    0    0 -0.00000000000E+00 -0.00000000000E+00 -0.45593999997E+02  0.45594000000E+02  0.51100000000E-03 0. -1.
    9900012    2    1    2    0    0  0.33127018214E+02  0.28904931243E+02 -0.98091307685E+01  0.46142318383E+02  0.10000005670E+02 0.  0.
        -12    1    1    2    0    0 -0.33127018214E+02 -0.28904931243E+02  0.98091307685E+01  0.45045681617E+02  0.00000000000E+00 0.  1.
         11    1    3    3    0    0  0.78214992123E+00  0.28269328819E+00  0.16303091301E+00  0.84749827975E+00  0.51100000000E-03 0. -1.
        -11    1    3    3    0    0 -0.33432355556E+00  0.18480690763E+01 -0.91072691784E+00  0.20872362901E+01  0.51100000000E-03 0.  1.
         12    1    3    3    0    0  0.32679191848E+02  0.26774168879E+02 -0.90614347637E+01  0.43207583813E+02  0.00000000000E+00 0. -1.
</event>
<event>
 7    1  0.5664398E-009  0.4614232E+02  0.7816164E-02  0.1320468E+00
        -11   -1    0    0    0    0  0.00000000000E+00  0.00000000000E+00  0.45593999997E+02  0.45594000000E+02  0.51100000000E-03 0. -1.
         11   -1    0    0    0    0 -0.00000000000E+00 -0.00000000000E+00 -0.45593999997E+02  0.45594000000E+02  0.51100000000E-03 0.  1.
    9900012    2    1    2    0    0 -0.11253578914E+02  0.22013860399E+02 -0.37654487070E+02  0.46142317804E+02  0.10000000390E+02 0.  0.
         12    1    1    2    0    0  0.11253578914E+02 -0.22013860399E+02  0.37654487070E+02  0.45045682196E+02  0.00000000000E+00 0. -1.
         11    1    3    3    0    0 -0.68968406991E+01  0.10726923867E+02 -0.20492066781E+02  0.24136240563E+02  0.51100000000E-03 0. -1.
        -11    1    3    3    0    0 -0.27969946428E+01  0.89646592766E+01 -0.16715982905E+02  0.19173220380E+02  0.51100000000E-03 0.  1.
        -12    1    3    3    0    0 -0.15597435721E+01  0.23222772552E+01 -0.44643738330E+00  0.28328568615E+01  0.00000000000E+00 0.  1.
</event>
<event>
 7    1  0.5664398E-009  0.4614232E+02  0.7816164E-02  0.1320468E+00
        -11   -1    0    0    0    0  0.00000000000E+00  0.00000000000E+00  0.45593999997E+02  0.45594000000E+02  0.51100000000E-03 0. -1.
         11   -1    0    0    0    0 -0.00000000000E+00 -0.00000000000E+00 -0.45593999997E+02  0.45594000000E+02  0.51100000000E-03 0.  1.
    9900012    2    1    2    0    0 -0.98032969030E+01 -0.35304378444E+02  0.26203234472E+02  0.46142320248E+02  0.10000022678E+02 0.  0.
        -12    1    1    2    0    0  0.98032969030E+01  0.35304378444E+02 -0.26203234472E+02  0.45045679752E+02  0.00000000000E+00 0.  1.
         11    1    3    3    0    0 -0.19838973633E+01 -0.35336000463E+01  0.21571370465E+01  0.45907971567E+01  0.51100000000E-03 0. -1.
        -11    1    3    3    0    0  0.43509700120E+00 -0.89377634870E+00 -0.62649774533E+00  0.11750086161E+01  0.51100000000E-03 0.  1.
        -12    1    3    3    0    0 -0.82544965410E+01 -0.30877002049E+02  0.24672595171E+02  0.40376514475E+02  0.00000000000E+00 0.  1.
</event>
<event>
 7    1  0.5664398E-009  0.4614232E+02  0.7816164E-02  0.1320468E+00
        -11   -1    0    0    0    0  0.00000000000E+00  0.00000000000E+00  0.45593999997E+02  0.45594000000E+02  0.51100000000E-03 0. -1.
         11   -1    0    0    0    0 -0.00000000000E+00 -0.00000000000E+00 -0.45593999997E+02  0.45594000000E+02  0.51100000000E-03 0.  1.
    9900012    2    1    2    0    0 -0.17730274741E+02  0.24395136745E+01 -0.41337630500E+02  0.46142316914E+02  0.99999922765E+01 0.  0.
         12    1    1    2    0    0  0.17730274741E+02 -0.24395136745E+01  0.41337630500E+02  0.45045683086E+02  0.00000000000E+00 0. -1.
         11    1    3    3    0    0 -0.17563357706E+01  0.14666586689E+00 -0.10593166220E+01  0.20563020650E+01  0.51100000000E-03 0. -1.
        -11    1    3    3    0    0 -0.10046541766E+01 -0.20735255583E+01 -0.44349015294E+01  0.49977184887E+01  0.51100000000E-03 0.  1.
        -12    1    3    3    0    0 -0.14969284793E+02  0.43663733659E+01 -0.35843412348E+02  0.39088296360E+02  0.00000000000E+00 0.  1.
</event>
<event>
 7    1  0.5664398E-009  0.4614232E+02  0.7816164E-02  0.1320468E+00
        -11   -1    0    0    0    0  0.00000000000E+00  0.00000000000E+00  0.45593999997E+02  0.45594000000E+02  0.51100000000E-03 0. -1.
         11   -1    0    0    0    0 -0.00000000000E+00 -0.00000000000E+00 -0.45593999997E+02  0.45594000000E+02  0.51100000000E-03 0.  1.
    9900012    2    1    2    0    0  0.26469758531E+02 -0.12299915346E+02 -0.34310019382E+02  0.46142318029E+02  0.10000002440E+02 0.  0.
         12    1    1    2    0    0 -0.26469758531E+02  0.12299915346E+02  0.34310019382E+02  0.45045681971E+02  0.00000000000E+00 0. -1.
         11    1    3    3    0    0  0.36603126475E+01 -0.16678531670E+01 -0.88724464124E+01  0.97416594308E+01  0.51100000000E-03 0. -1.
        -11    1    3    3    0    0  0.83663045558E+01 -0.54802520526E+01 -0.14290814714E+02  0.17442924065E+02  0.51100000000E-03 0.  1.
         12    1    3    3    0    0  0.14443141328E+02 -0.51518101267E+01 -0.11146758256E+02  0.18957734533E+02  0.00000000000E+00 0. -1.
</event>
<event>
 7    1  0.5664398E-009  0.4614231E+02  0.7816164E-02  0.1320468E+00
        -11   -1    0    0    0    0  0.00000000000E+00  0.00000000000E+00  0.45593999997E+02  0.45594000000E+02  0.51100000000E-03 0. -1.
         11   -1    0    0    0    0 -0.00000000000E+00 -0.00000000000E+00 -0.45593999997E+02  0.45594000000E+02  0.51100000000E-03 0.  1.
    9900012    2    1    2    0    0 -0.12103764966E+02  0.42081233173E+02  0.10572727867E+02  0.46142313345E+02  0.99999597267E+01 0.  0.
        -12    1    1    2    0    0  0.12103764966E+02 -0.42081233173E+02 -0.10572727867E+02  0.45045686655E+02  0.00000000000E+00 0.  1.
         11    1    3    3    0    0 -0.33312680240E+01  0.97499903874E+01  0.11158075773E+01  0.10363623209E+02  0.51100000000E-03 0. -1.
        -11    1    3    3    0    0 -0.84312975327E+01  0.15647862880E+02  0.39683989733E+01  0.18212374405E+02  0.51100000000E-03 0.  1.
        -12    1    3    3    0    0 -0.34119940881E+00  0.16683379906E+02  0.54885213167E+01  0.17566315731E+02  0.00000000000E+00 0.  1.
</event>
<event>
 7    1  0.5664398E-009  0.4614232E+02  0.7816164E-02  0.1320468E+00
        -11   -1    0    0    0    0  0.00000000000E+00  0.00000000000E+00  0.45593999997E+02  0.45594000000E+02  0.51100000000E-03 0. -1.
         11   -1    0    0    0    0 -0.00000000000E+00 -0.00000000000E+00 -0.45593999997E+02  0.45594000000E+02  0.51100000000E-03 0.  1.
    9900012    2    1    2    0    0 -0.76260720809E+01  0.19020184060E+01  0.44354691303E+02  0.46142319963E+02  0.10000020077E+02 0.  0.
        -12    1    1    2    0    0  0.76260720809E+01 -0.19020184060E+01 -0.44354691303E+02  0.45045680037E+02  0.00000000000E+00 0.  1.
         11    1    3    3    0    0 -0.71808508377E+01  0.20482071028E+01  0.27171463265E+02  0.28178860647E+02  0.51100000000E-03 0. -1.
        -11    1    3    3    0    0  0.16043890494E+01  0.17873454519E+01  0.86354016372E+01  0.89631930518E+01  0.51100000000E-03 0.  1.
        -12    1    3    3    0    0 -0.20496102927E+01 -0.19335341487E+01  0.85478264007E+01  0.90002662645E+01  0.00000000000E+00 0.  1.
</event>
<event>
 7    1  0.5664398E-009  0.4614232E+02  0.7816164E-02  0.1320468E+00
        -11   -1    0    0    0    0  0.00000000000E+00  0.00000000000E+00  0.45593999997E+02  0.45594000000E+02  0.51100000000E-03 0. -1.
         11   -1    0    0    0    0 -0.00000000000E+00 -0.00000000000E+00 -0.45593999997E+02  0.45594000000E+02  0.51100000000E-03 0.  1.
    9900012    2    1    2    0    0  0.28901823275E+02  0.32124913042E+02 -0.12719593932E+02  0.46142317672E+02  0.99999991855E+01 0.  0.
         12    1    1    2    0    0 -0.28901823275E+02 -0.32124913042E+02  0.12719593932E+02  0.45045682328E+02  0.00000000000E+00 0. -1.
         11    1    3    3    0    0  0.14197704287E+02  0.15566815832E+02 -0.51449527084E+01  0.21688040501E+02  0.51100000000E-03 0. -1.
        -11    1    3    3    0    0  0.10154379744E+02  0.61657997372E+01 -0.44658871557E+01  0.12691440531E+02  0.51100000000E-03 0.  1.
         12    1    3    3    0    0  0.45497392445E+01  0.10392297473E+02 -0.31087540681E+01  0.11762836640E+02  0.00000000000E+00 0. -1.
</event>
<event>
 7    1  0.5664398E-009  0.4614232E+02  0.7816164E-02  0.1320468E+00
        -11   -1    0    0    0    0  0.00000000000E+00  0.00000000000E+00  0.45593999997E+02  0.45594000000E+02  0.51100000000E-03 0. -1.
         11   -1    0    0    0    0 -0.00000000000E+00 -0.00000000000E+00 -0.45593999997E+02  0.45594000000E+02  0.51100000000E-03 0.  1.
    9900012    2    1    2    0    0 -0.33251384175E+02 -0.19476088877E+02 -0.23326828525E+02  0.46142317449E+02  0.99999971507E+01 0.  0.
         12    1    1    2    0    0  0.33251384175E+02  0.19476088877E+02  0.23326828525E+02  0.45045682551E+02  0.00000000000E+00 0. -1.
         11    1    3    3    0    0 -0.85032508579E+01 -0.84325816304E+01 -0.72719107775E+01  0.14010510152E+02  0.51100000000E-03 0. -1.
        -11    1    3    3    0    0 -0.63424522267E+01 -0.37552515416E+01 -0.14027474665E+01  0.75030870383E+01  0.51100000000E-03 0.  1.
        -12    1    3    3    0    0 -0.18405681090E+02 -0.72882557050E+01 -0.14652170281E+02  0.24628720258E+02  0.00000000000E+00 0.  1.
</event>
<event>
 7    1  0.5664398E-009  0.4614232E+02  0.7816164E-02  0.1320468E+00
        -11   -1    0    0    0    0  0.00000000000E+00  0.00000000000E+00  0.45593999997E+02  0.45594000000E+02  0.51100000000E-03 0. -1.
         11   -1    0    0    0    0 -0.00000000000E+00 -0.00000000000E+00 -0.45593999997E+02  0.45594000000E+02  0.51100000000E-03 0.  1.
    9900012    2    1    2    0    0 -0.82550311677E+00  0.35370175998E+02 -0.27881581430E+02  0.46142318869E+02  0.10000010104E+02 0.  0.
         12    1    1    2    0    0  0.82550311677E+00 -0.35370175998E+02  0.27881581430E+02  0.45045681131E+02  0.00000000000E+00 0. -1.
         11    1    3    3    0    0  0.26064932024E+01  0.89776953757E+01 -0.43520528165E+01  0.10311798342E+02  0.51100000000E-03 0. -1.
        -11    1    3    3    0    0 -0.98982472979E+00  0.15854522272E+02 -0.11247829361E+02  0.19464308235E+02  0.51100000000E-03 0.  1.
        -12    1    3    3    0    0 -0.24421715894E+01  0.10537958350E+02 -0.12281699252E+02  0.16366212292E+02  0.00000000000E+00 0.  1.
</event>
<event>
 7    1  0.5664398E-009  0.4614232E+02  0.7816164E-02  0.1320468E+00
        -11   -1    0    0    0    0  0.00000000000E+00  0.00000000000E+00  0.45593999997E+02  0.45594000000E+02  0.51100000000E-03 0. -1.
         11   -1    0    0    0    0 -0.00000000000E+00 -0.00000000000E+00 -0.45593999997E+02  0.45594000000E+02  0.51100000000E-03 0.  1.
    9900012    2    1    2    0    0 -0.23527379052E+02  0.11314062383E+02 -0.36709236214E+02  0.46142316566E+02  0.99999890984E+01 0.  0.
         12    1    1    2    0    0  0.23527379052E+02 -0.11314062383E+02  0.36709236214E+02  0.45045683434E+02  0.00000000000E+00 0. -1.
         11    1    3    3    0    0 -0.17374654164E+01  0.10847657748E+01 -0.14599108421E+00  0.20534888646E+01  0.51100000000E-03 0. -1.
        -11    1    3    3    0    0 -0.30317058019E+01  0.29766917053E+01 -0.41239216207E+01  0.59210356672E+01  0.51100000000E-03 0.  1.
        -12    1    3    3    0    0 -0.18758207834E+02  0.72526049026E+01 -0.32439323509E+02  0.38167792034E+02  0.00000000000E+00 0.  1.
</event>
<event>
 7    1  0.5664398E-009  0.4614232E+02  0.7816164E-02  0.1320468E+00
        -11   -1    0    0    0    0  0.00000000000E+00  0.00000000000E+00  0.45593999997E+02  0.45594000000E+02  0.51100000000E-03 0. -1.
         11   -1    0    0    0    0 -0.00000000000E+00 -0.00000000000E+00 -0.45593999997E+02  0.45594000000E+02  0.51100000000E-03 0.  1.
    9900012    2    1    2    0    0  0.45455422502E+01  0.37767264088E+02  0.24126443640E+02  0.46142317923E+02  0.10000001481E+02 0.  0.
        -12    1    1    2    0    0 -0.45455422502E+01 -0.37767264088E+02 -0.24126443640E+02  0.45045682077E+02  0.00000000000E+00 0.  1.
         11    1    3    3    0    0  0.56394916111E+01  0.15210579542E+02  0.82339138499E+01  0.18192386682E+02  0.51100000000E-03 0. -1.
        -11    1    3    3    0    0 -0.91593574079E+00  0.14815002606E+01  0.38566351844E+00  0.17839612983E+01  0.51100000000E-03 0.  1.
        -12    1    3    3    0    0 -0.17801362009E+00  0.21075184285E+02  0.15506866272E+02  0.26165969943E+02  0.00000000000E+00 0.  1.
</event>
<event>
 7    1  0.5664398E-009  0.4614232E+02  0.7816164E-02  0.1320468E+00
        -11   -1    0    0    0    0  0.00000000000E+00  0.00000000000E+00  0.45593999997E+02  0.45594000000E+02  0.51100000000E-03 0. -1.
         11   -1    0    0    0    0 -0.00000000000E+00 -0.00000000000E+00 -0.45593999997E+02  0.45594000000E+02  0.51100000000E-03 0.  1.
    9900012    2    1    2    0    0 -0.19813047266E+02  0.96444658360E+00  0.40442878162E+02  0.46142318817E+02  0.10000009629E+02 0.  0.
        -12    1    1    2    0    0  0.19813047266E+02 -0.96444658360E+00 -0.40442878162E+02  0.45045681183E+02  0.00000000000E+00 0.  1.
         11    1    3    3    0    0 -0.47418052844E+01  0.41526735674E+01  0.13044950719E+02  0.14487931345E+02  0.51100000000E-03 0. -1.
        -11    1    3    3    0    0 -0.99709994179E+01 -0.21909172653E+01  0.14361143767E+02  0.17619971578E+02  0.51100000000E-03 0.  1.
        -12    1    3    3    0    0 -0.51002425637E+01 -0.99730971852E+00  0.13036783676E+02  0.14034415894E+02  0.00000000000E+00 0.  1.
</event>
<event>
 7    1  0.5664398E-009  0.4614232E+02  0.7816164E-02  0.1320468E+00
        -11   -1    0    0    0    0  0.00000000000E+00  0.00000000000E+00  0.45593999997E+02  0.45594000000E+02  0.51100000000E-03 0. -1.
         11   -1    0    0    0    0 -0.00000000000E+00 -0.00000000000E+00 -0.45593999997E+02  0.45594000000E+02  0.51100000000E-03 0.  1.
    9900012    2    1    2    0    0  0.10705793946E+02 -0.63427849911E+01 -0.43292821632E+02  0.46142319294E+02  0.10000013974E+02 0.  0.
         12    1    1    2    0    0 -0.10705793946E+02  0.63427849911E+01  0.43292821632E+02  0.45045680706E+02  0.00000000000E+00 0. -1.
         11    1    3    3    0    0  0.18712187350E+01  0.19815243073E+01 -0.88313314018E+01  0.92423110056E+01  0.51100000000E-03 0. -1.
        -11    1    3    3    0    0  0.30437171262E+01 -0.13311615630E+01 -0.15818633274E+02  0.16163705143E+02  0.51100000000E-03 0.  1.
         12    1    3    3    0    0  0.57908580849E+01 -0.69931477355E+01 -0.18642856956E+02  0.20736303145E+02  0.00000000000E+00 0. -1.
</event>
<event>
 7    1  0.5664398E-009  0.4614232E+02  0.7816164E-02  0.1320468E+00
        -11   -1    0    0    0    0  0.00000000000E+00  0.00000000000E+00  0.45593999997E+02  0.45594000000E+02  0.51100000000E-03 0. -1.
         11   -1    0    0    0    0 -0.00000000000E+00 -0.00000000000E+00 -0.45593999997E+02  0.45594000000E+02  0.51100000000E-03 0.  1.
    9900012    2    1    2    0    0  0.22223087783E+02  0.20403908745E+02  0.33450388250E+02  0.46142316558E+02  0.99999890332E+01 0.  0.
        -12    1    1    2    0    0 -0.22223087783E+02 -0.20403908745E+02 -0.33450388250E+02  0.45045683442E+02  0.00000000000E+00 0.  1.
         11    1    3    3    0    0  0.21716898741E+01  0.27629969495E+01  0.41931211784E+01  0.54710743488E+01  0.51100000000E-03 0. -1.
        -11    1    3    3    0    0  0.11949137000E+02  0.11978937637E+02  0.11861464480E+02  0.20663280520E+02  0.51100000000E-03 0.  1.
        -12    1    3    3    0    0  0.81022609089E+01  0.56619741579E+01  0.17395802591E+02  0.20007961690E+02  0.00000000000E+00 0.  1.
</event>
<event>
 7    1  0.5664398E-009  0.4614232E+02  0.7816164E-02  0.1320468E+00
        -11   -1    0    0    0    0  0.00000000000E+00  0.00000000000E+00  0.45593999997E+02  0.45594000000E+02  0.51100000000E-03 0. -1.
         11   -1    0    0    0    0 -0.00000000000E+00 -0.00000000000E+00 -0.45593999997E+02  0.45594000000E+02  0.51100000000E-03 0.  1.
    9900012    2    1    2    0    0  0.11719792033E+02 -0.25468937933E+02 -0.35257525816E+02  0.46142318171E+02  0.10000003738E+02 0.  0.
         12    1    1    2    0    0 -0.11719792033E+02  0.25468937933E+02  0.35257525816E+02  0.45045681829E+02  0.00000000000E+00 0. -1.
         11    1    3    3    0    0  0.32288917904E+01 -0.66555792597E+01 -0.43678266936E+01  0.85907152067E+01  0.51100000000E-03 0. -1.
        -11    1    3    3    0    0  0.28103017442E+01 -0.12442763054E+02 -0.19883224700E+02  0.23623352282E+02  0.51100000000E-03 0.  1.
        -12    1    3    3    0    0  0.56805984986E+01 -0.63705956194E+01 -0.11006474423E+02  0.13928250682E+02  0.00000000000E+00 0.  1.
</event>
<event>
 7    1  0.5664398E-009  0.4614232E+02  0.7816164E-02  0.1320468E+00
        -11   -1    0    0    0    0  0.00000000000E+00  0.00000000000E+00  0.45593999997E+02  0.45594000000E+02  0.51100000000E-03 0. -1.
         11   -1    0    0    0    0 -0.00000000000E+00 -0.00000000000E+00 -0.45593999997E+02  0.45594000000E+02  0.51100000000E-03 0.  1.
    9900012    2    1    2    0    0  0.41424015150E+02  0.17576490031E+01 -0.17608951329E+02  0.46142317320E+02  0.99999959784E+01 0.  0.
         12    1    1    2    0    0 -0.41424015150E+02 -0.17576490031E+01  0.17608951329E+02  0.45045682680E+02  0.00000000000E+00 0. -1.
         11    1    3    3    0    0  0.10988998951E+00 -0.10928327389E+01 -0.33024204081E+00  0.11469172907E+01  0.51100000000E-03 0. -1.
        -11    1    3    3    0    0  0.49033044439E+01 -0.59446199734E-02 -0.97678870970E+00  0.49996546134E+01  0.51100000000E-03 0.  1.
        -12    1    3    3    0    0  0.36410820717E+02  0.28564263620E+01 -0.16301920578E+02  0.39995745416E+02  0.00000000000E+00 0.  1.
</event>
<event>
 7    1  0.5664398E-009  0.4614232E+02  0.7816164E-02  0.1320468E+00
        -11   -1    0    0    0    0  0.00000000000E+00  0.00000000000E+00  0.45593999997E+02  0.45594000000E+02  0.51100000000E-03 0. -1.
         11   -1    0    0    0    0 -0.00000000000E+00 -0.00000000000E+00 -0.45593999997E+02  0.45594000000E+02  0.51100000000E-03 0.  1.
    9900012    2    1    2    0    0  0.85580974234E+01 -0.19950299129E+01  0.44180223714E+02  0.46142319371E+02  0.10000014684E+02 0.  0.
        -12    1    1    2    0    0 -0.85580974234E+01  0.19950299129E+01 -0.44180223714E+02  0.45045680629E+02  0.00000000000E+00 0.  1.
         11    1    3    3    0    0  0.35652709682E+01 -0.25112933572E+00  0.21824220648E+02  0.22114945855E+02  0.51100000000E-03 0. -1.
        -11    1    3    3    0    0  0.81178662459E+00  0.19663233707E+00 -0.31488091305E+00  0.89264329402E+00  0.51100000000E-03 0.  1.
        -12    1    3    3    0    0  0.41810398306E+01 -0.19405329142E+01  0.22670883979E+02  0.23134730222E+02  0.00000000000E+00 0.  1.
</event>
<event>
 7    1  0.5664398E-009  0.4614232E+02  0.7816164E-02  0.1320468E+00
        -11   -1    0    0    0    0  0.00000000000E+00  0.00000000000E+00  0.45593999997E+02  0.45594000000E+02  0.51100000000E-03 0. -1.
         11   -1    0    0    0    0 -0.00000000000E+00 -0.00000000000E+00 -0.45593999997E+02  0.45594000000E+02  0.51100000000E-03 0.  1.
    9900012    2    1    2    0    0 -0.42801433204E+01 -0.42991442635E+02  0.12748722720E+02  0.46142315438E+02  0.99999788188E+01 0.  0.
        -12    1    1    2    0    0  0.42801433204E+01  0.42991442635E+02 -0.12748722720E+02  0.45045684562E+02  0.00000000000E+00 0.  1.
         11    1    3    3    0    0 -0.21553722501E+00 -0.31338478465E+02  0.97311933752E+01  0.32815283231E+02  0.51100000000E-03 0. -1.
        -11    1    3    3    0    0 -0.44808357561E+01 -0.11180474161E+02  0.34893545914E+01  0.12540194866E+02  0.51100000000E-03 0.  1.
         12    1    3    3    0    0  0.41622966064E+00 -0.47249000844E+00 -0.47182524652E+00  0.78683734135E+00  0.00000000000E+00 0. -1.
</event>
<event>
 7    1  0.5664398E-009  0.4614232E+02  0.7816164E-02  0.1320468E+00
        -11   -1    0    0    0    0  0.00000000000E+00  0.00000000000E+00  0.45593999997E+02  0.45594000000E+02  0.51100000000E-03 0. -1.
         11   -1    0    0    0    0 -0.00000000000E+00 -0.00000000000E+00 -0.45593999997E+02  0.45594000000E+02  0.51100000000E-03 0.  1.
    9900012    2    1    2    0    0  0.22200027437E+01 -0.11292973139E+02  0.43550588910E+02  0.46142318199E+02  0.10000003992E+02 0.  0.
        -12    1    1    2    0    0 -0.22200027437E+01  0.11292973139E+02 -0.43550588910E+02  0.45045681801E+02  0.00000000000E+00 0.  1.
         11    1    3    3    0    0  0.26650016669E+01 -0.32686954474E+01  0.76557367355E+01  0.87405325374E+01  0.51100000000E-03 0.  1.
        -11    1    3    3    0    0 -0.18246553481E+01 -0.80799927229E+01  0.34328328379E+02  0.35313591989E+02  0.51100000000E-03 0. -1.
         12    1    3    3    0    0  0.13796564250E+01  0.55715030867E-01  0.15665237951E+01  0.20881936730E+01  0.00000000000E+00 0. -1.
</event>
<event>
 7    1  0.5664398E-009  0.4614232E+02  0.7816164E-02  0.1320468E+00
        -11   -1    0    0    0    0  0.00000000000E+00  0.00000000000E+00  0.45593999997E+02  0.45594000000E+02  0.51100000000E-03 0. -1.
         11   -1    0    0    0    0 -0.00000000000E+00 -0.00000000000E+00 -0.45593999997E+02  0.45594000000E+02  0.51100000000E-03 0.  1.
    9900012    2    1    2    0    0  0.49878334433E+00 -0.29732940097E+02 -0.33835144175E+02  0.46142317710E+02  0.99999995326E+01 0.  0.
         12    1    1    2    0    0 -0.49878334433E+00  0.29732940097E+02  0.33835144175E+02  0.45045682290E+02  0.00000000000E+00 0. -1.
         11    1    3    3    0    0 -0.20693880885E+01 -0.58020536227E+01 -0.96162737304E+01  0.11420110070E+02  0.51100000000E-03 0. -1.
        -11    1    3    3    0    0  0.11159419118E+01 -0.71141441304E+01 -0.35256866454E+01  0.80179074353E+01  0.51100000000E-03 0.  1.
        -12    1    3    3    0    0  0.14522295210E+01 -0.16816742344E+02 -0.20693183799E+02  0.26704300204E+02  0.00000000000E+00 0.  1.
</event>
<event>
 7    1  0.5664398E-009  0.4614232E+02  0.7816164E-02  0.1320468E+00
        -11   -1    0    0    0    0  0.00000000000E+00  0.00000000000E+00  0.45593999997E+02  0.45594000000E+02  0.51100000000E-03 0. -1.
         11   -1    0    0    0    0 -0.00000000000E+00 -0.00000000000E+00 -0.45593999997E+02  0.45594000000E+02  0.51100000000E-03 0.  1.
    9900012    2    1    2    0    0  0.27906133467E+02  0.14636244801E+02  0.32189152433E+02  0.46142317839E+02  0.10000000714E+02 0.  0.
        -12    1    1    2    0    0 -0.27906133467E+02 -0.14636244801E+02 -0.32189152433E+02  0.45045682161E+02  0.00000000000E+00 0.  1.
         11    1    3    3    0    0  0.15390492058E+02  0.66845366040E+01  0.16247882464E+02  0.23356882502E+02  0.51100000000E-03 0. -1.
        -11    1    3    3    0    0  0.44391946449E+01  0.32482004824E+01  0.17114537109E+01  0.57607577223E+01  0.51100000000E-03 0.  1.
         12    1    3    3    0    0  0.80764467641E+01  0.47035077148E+01  0.14229816258E+02  0.17024677615E+02  0.00000000000E+00 0. -1.
</event>
<event>
 7    1  0.5664398E-009  0.4614232E+02  0.7816164E-02  0.1320468E+00
        -11   -1    0    0    0    0  0.00000000000E+00  0.00000000000E+00  0.45593999997E+02  0.45594000000E+02  0.51100000000E-03 0. -1.
         11   -1    0    0    0    0 -0.00000000000E+00 -0.00000000000E+00 -0.45593999997E+02  0.45594000000E+02  0.51100000000E-03 0.  1.
    9900012    2    1    2    0    0  0.41966828062E+01  0.29165648627E+02  0.34071487494E+02  0.46142318004E+02  0.10000002219E+02 0.  0.
        -12    1    1    2    0    0 -0.41966828062E+01 -0.29165648627E+02 -0.34071487494E+02  0.45045681996E+02  0.00000000000E+00 0.  1.
         11    1    3    3    0    0  0.26483604540E+01  0.12897327030E+02  0.20562506217E+02  0.24416623841E+02  0.51100000000E-03 0. -1.
        -11    1    3    3    0    0  0.71666011656E+00  0.67666017064E+01  0.27274992349E+01  0.73307402568E+01  0.51100000000E-03 0.  1.
        -12    1    3    3    0    0  0.83166223567E+00  0.95017198908E+01  0.10781482042E+02  0.14394953907E+02  0.00000000000E+00 0.  1.
</event>
<event>
 7    1  0.5664398E-009  0.4614232E+02  0.7816164E-02  0.1320468E+00
        -11   -1    0    0    0    0  0.00000000000E+00  0.00000000000E+00  0.45593999997E+02  0.45594000000E+02  0.51100000000E-03 0.  1.
         11   -1    0    0    0    0 -0.00000000000E+00 -0.00000000000E+00 -0.45593999997E+02  0.45594000000E+02  0.51100000000E-03 0. -1.
    9900012    2    1    2    0    0  0.27405779445E+02  0.25601091065E+02 -0.24952373668E+02  0.46142316940E+02  0.99999925145E+01 0.  0.
         12    1    1    2    0    0 -0.27405779445E+02 -0.25601091065E+02  0.24952373668E+02  0.45045683060E+02  0.00000000000E+00 0. -1.
         11    1    3    3    0    0  0.13138199289E+01 -0.74133880448E-01 -0.53770267609E+00  0.14215284263E+01  0.51100000000E-03 0. -1.
        -11    1    3    3    0    0  0.13353274025E+02  0.18563221559E+02 -0.15447702916E+02  0.27595917224E+02  0.51100000000E-03 0.  1.
        -12    1    3    3    0    0  0.12738685491E+02  0.71120033861E+01 -0.89669680757E+01  0.17124871290E+02  0.00000000000E+00 0.  1.
</event>
<event>
 7    1  0.5664398E-009  0.4614232E+02  0.7816164E-02  0.1320468E+00
        -11   -1    0    0    0    0  0.00000000000E+00  0.00000000000E+00  0.45593999997E+02  0.45594000000E+02  0.51100000000E-03 0. -1.
         11   -1    0    0    0    0 -0.00000000000E+00 -0.00000000000E+00 -0.45593999997E+02  0.45594000000E+02  0.51100000000E-03 0.  1.
    9900012    2    1    2    0    0  0.93786048486E+01  0.13728845739E+02 -0.41864949640E+02  0.46142318269E+02  0.10000004632E+02 0.  0.
         12    1    1    2    0    0 -0.93786048486E+01 -0.13728845739E+02  0.41864949640E+02  0.45045681731E+02  0.00000000000E+00 0. -1.
         11    1    3    3    0    0  0.43966492505E+01  0.89437077680E+01 -0.14428992014E+02  0.17536141083E+02  0.51100000000E-03 0. -1.
        -11    1    3    3    0    0  0.49613272882E+01  0.47195509468E+01 -0.19454353856E+02  0.20624277292E+02  0.51100000000E-03 0.  1.
         12    1    3    3    0    0  0.20628309926E-01  0.65587024595E-01 -0.79816037700E+01  0.79818998946E+01  0.00000000000E+00 0. -1.
</event>
<event>
 7    1  0.5664398E-009  0.4614232E+02  0.7816164E-02  0.1320468E+00
        -11   -1    0    0    0    0  0.00000000000E+00  0.00000000000E+00  0.45593999997E+02  0.45594000000E+02  0.51100000000E-03 0. -1.
         11   -1    0    0    0    0 -0.00000000000E+00 -0.00000000000E+00 -0.45593999997E+02  0.45594000000E+02  0.51100000000E-03 0.  1.
    9900012    2    1    2    0    0 -0.18095681825E+02 -0.18768418882E+02  0.36734265980E+02  0.46142317131E+02  0.99999942522E+01 0.  0.
        -12    1    1    2    0    0  0.18095681825E+02  0.18768418882E+02 -0.36734265980E+02  0.45045682869E+02  0.00000000000E+00 0.  1.
         11    1    3    3    0    0 -0.78713031464E+01 -0.73216585542E+01  0.22419694537E+02  0.24863764811E+02  0.51100000000E-03 0. -1.
        -11    1    3    3    0    0 -0.10399599932E+02 -0.10667349314E+02  0.13181050534E+02  0.19891810214E+02  0.51100000000E-03 0.  1.
         12    1    3    3    0    0  0.17522125330E+00 -0.77941101309E+00  0.11335209097E+01  0.13867421057E+01  0.00000000000E+00 0. -1.
</event>
<event>
 7    1  0.5905707E-009  0.4614232E+02  0.7816164E-02  0.1320468E+00
        -11   -1    0    0    0    0  0.00000000000E+00  0.00000000000E+00  0.45593999997E+02  0.45594000000E+02  0.51100000000E-03 0. -1.
         11   -1    0    0    0    0 -0.00000000000E+00 -0.00000000000E+00 -0.45593999997E+02  0.45594000000E+02  0.51100000000E-03 0.  1.
    9900012    2    1    2    0    0  0.20327550930E+02 -0.15501103439E+02  0.37089353296E+02  0.46142315828E+02  0.99999823682E+01 0.  0.
        -12    1    1    2    0    0 -0.20327550930E+02  0.15501103439E+02 -0.37089353296E+02  0.45045684172E+02  0.00000000000E+00 0.  1.
         11    1    3    3    0    0  0.71597001132E+00 -0.36222624320E+01  0.79497965693E+01  0.87654243444E+01  0.51100000000E-03 0. -1.
        -11    1    3    3    0    0  0.36940986642E+01 -0.57985854415E+00  0.32584781645E+01  0.49598670428E+01  0.51100000000E-03 0.  1.
         12    1    3    3    0    0  0.15917482255E+02 -0.11298982463E+02  0.25881078562E+02  0.32417024440E+02  0.00000000000E+00 0. -1.
</event>
<event>
 7    1  0.5664398E-009  0.4614232E+02  0.7816164E-02  0.1320468E+00
        -11   -1    0    0    0    0  0.00000000000E+00  0.00000000000E+00  0.45593999997E+02  0.45594000000E+02  0.51100000000E-03 0. -1.
         11   -1    0    0    0    0 -0.00000000000E+00 -0.00000000000E+00 -0.45593999997E+02  0.45594000000E+02  0.51100000000E-03 0.  1.
    9900012    2    1    2    0    0 -0.42707810755E+02  0.94444667499E+01 -0.10768398934E+02  0.46142317995E+02  0.10000002131E+02 0.  0.
         12    1    1    2    0    0  0.42707810755E+02 -0.94444667499E+01  0.10768398934E+02  0.45045682005E+02  0.00000000000E+00 0. -1.
         11    1    3    3    0    0 -0.14236859236E+02  0.32470193452E+01 -0.97553028969E+00  0.14634990780E+02  0.51100000000E-03 0. -1.
        -11    1    3    3    0    0 -0.18879557128E+02  0.10034228702E+01 -0.76284149330E+01  0.20387183461E+02  0.51100000000E-03 0.  1.
        -12    1    3    3    0    0 -0.95913943911E+01  0.51940245344E+01 -0.21644537113E+01  0.11120143754E+02  0.00000000000E+00 0.  1.
</event>
<event>
 7    1  0.5664398E-009  0.4614232E+02  0.7816164E-02  0.1320468E+00
        -11   -1    0    0    0    0  0.00000000000E+00  0.00000000000E+00  0.45593999997E+02  0.45594000000E+02  0.51100000000E-03 0.  1.
         11   -1    0    0    0    0 -0.00000000000E+00 -0.00000000000E+00 -0.45593999997E+02  0.45594000000E+02  0.51100000000E-03 0. -1.
    9900012    2    1    2    0    0 -0.33782206380E+02  0.28602725553E+02  0.83522526539E+01  0.46142317617E+02  0.99999986868E+01 0.  0.
        -12    1    1    2    0    0  0.33782206380E+02 -0.28602725553E+02 -0.83522526539E+01  0.45045682383E+02  0.00000000000E+00 0.  1.
         11    1    3    3    0    0 -0.75571117967E+01  0.51515558348E+01 -0.14760948500E+01  0.92643036702E+01  0.51100000000E-03 0. -1.
        -11    1    3    3    0    0 -0.11933173738E+02  0.95300868128E+01  0.18211223390E+01  0.15379846454E+02  0.51100000000E-03 0.  1.
        -12    1    3    3    0    0 -0.14291920845E+02  0.13921082905E+02  0.80072251649E+01  0.21498167493E+02  0.00000000000E+00 0.  1.
</event>
<event>
 7    1  0.5664398E-009  0.4614232E+02  0.7816164E-02  0.1320468E+00
        -11   -1    0    0    0    0  0.00000000000E+00  0.00000000000E+00  0.45593999997E+02  0.45594000000E+02  0.51100000000E-03 0. -1.
         11   -1    0    0    0    0 -0.00000000000E+00 -0.00000000000E+00 -0.45593999997E+02  0.45594000000E+02  0.51100000000E-03 0.  1.
    9900012    2    1    2    0    0  0.33503933739E+02  0.42997328474E-01 -0.30109767170E+02  0.46142317591E+02  0.99999984446E+01 0.  0.
         12    1    1    2    0    0 -0.33503933739E+02 -0.42997328474E-01  0.30109767170E+02  0.45045682409E+02  0.00000000000E+00 0. -1.
         11    1    3    3    0    0  0.81690291619E+01  0.33363184127E+01 -0.57170179687E+01  0.10514197673E+02  0.51100000000E-03 0. -1.
        -11    1    3    3    0    0  0.14264890708E+02 -0.17300996019E+01 -0.10506776607E+02  0.17800918697E+02  0.51100000000E-03 0.  1.
        -12    1    3    3    0    0  0.11070013869E+02 -0.15632214823E+01 -0.13885972594E+02  0.17827201220E+02  0.00000000000E+00 0.  1.
</event>
<event>
 7    1  0.5664398E-009  0.4614232E+02  0.7816164E-02  0.1320468E+00
        -11   -1    0    0    0    0  0.00000000000E+00  0.00000000000E+00  0.45593999997E+02  0.45594000000E+02  0.51100000000E-03 0. -1.
         11   -1    0    0    0    0 -0.00000000000E+00 -0.00000000000E+00 -0.45593999997E+02  0.45594000000E+02  0.51100000000E-03 0.  1.
    9900012    2    1    2    0    0 -0.41347770186E+02 -0.14090462676E+02 -0.10997010248E+02  0.46142317941E+02  0.10000001638E+02 0.  0.
         12    1    1    2    0    0  0.41347770186E+02  0.14090462676E+02  0.10997010248E+02  0.45045682059E+02  0.00000000000E+00 0. -1.
         11    1    3    3    0    0 -0.28690435436E+01  0.13319855776E+01 -0.15105816045E+01  0.35053464135E+01  0.51100000000E-03 0. -1.
        -11    1    3    3    0    0 -0.10803890871E+02 -0.53465805448E+01 -0.38163432148E+01  0.12644147154E+02  0.51100000000E-03 0.  1.
        -12    1    3    3    0    0 -0.27674835772E+02 -0.10075867709E+02 -0.56700854285E+01  0.29992824373E+02  0.00000000000E+00 0.  1.
</event>
<event>
 7    1  0.5664398E-009  0.4614232E+02  0.7816164E-02  0.1320468E+00
        -11   -1    0    0    0    0  0.00000000000E+00  0.00000000000E+00  0.45593999997E+02  0.45594000000E+02  0.51100000000E-03 0. -1.
         11   -1    0    0    0    0 -0.00000000000E+00 -0.00000000000E+00 -0.45593999997E+02  0.45594000000E+02  0.51100000000E-03 0.  1.
    9900012    2    1    2    0    0  0.47223426034E+01 -0.21067521681E+02  0.39534447490E+02  0.46142317324E+02  0.99999960101E+01 0.  0.
        -12    1    1    2    0    0 -0.47223426034E+01  0.21067521681E+02 -0.39534447490E+02  0.45045682676E+02  0.00000000000E+00 0.  1.
         11    1    3    3    0    0 -0.33454503327E-01  0.43569051706E+00 -0.47470634473E-02  0.43699911462E+00  0.51100000000E-03 0. -1.
        -11    1    3    3    0    0  0.47830606587E+01 -0.73399238538E+01  0.15435397788E+02  0.17748342361E+02  0.51100000000E-03 0.  1.
         12    1    3    3    0    0 -0.27263551961E-01 -0.14163288345E+02  0.24103796766E+02  0.27956975848E+02  0.00000000000E+00 0. -1.
</event>
<event>
 7    1  0.5664398E-009  0.4614232E+02  0.7816164E-02  0.1320468E+00
        -11   -1    0    0    0    0  0.00000000000E+00  0.00000000000E+00  0.45593999997E+02  0.45594000000E+02  0.51100000000E-03 0. -1.
         11   -1    0    0    0    0 -0.00000000000E+00 -0.00000000000E+00 -0.45593999997E+02  0.45594000000E+02  0.51100000000E-03 0.  1.
    9900012    2    1    2    0    0 -0.11849693480E+02  0.31245215410E+02  0.30206536181E+02  0.46142317080E+02  0.99999937922E+01 0.  0.
        -12    1    1    2    0    0  0.11849693480E+02 -0.31245215410E+02 -0.30206536181E+02  0.45045682920E+02  0.00000000000E+00 0.  1.
         11    1    3    3    0    0  0.27655653712E-01  0.74034672325E-01 -0.33316076333E+00  0.34240666353E+00  0.51100000000E-03 0. -1.
        -11    1    3    3    0    0 -0.34113249918E+01  0.53508689299E+01  0.26968215769E+01  0.68950549950E+01  0.51100000000E-03 0.  1.
         12    1    3    3    0    0 -0.84660241423E+01  0.25820311808E+02  0.27842875368E+02  0.38904855422E+02  0.00000000000E+00 0. -1.
</event>
<event>
 7    1  0.5664398E-009  0.4614232E+02  0.7816164E-02  0.1320468E+00
        -11   -1    0    0    0    0  0.00000000000E+00  0.00000000000E+00  0.45593999997E+02  0.45594000000E+02  0.51100000000E-03 0. -1.
         11   -1    0    0    0    0 -0.00000000000E+00 -0.00000000000E+00 -0.45593999997E+02  0.45594000000E+02  0.51100000000E-03 0.  1.
    9900012    2    1    2    0    0 -0.33909188758E+02 -0.18901874791E+02  0.22847310097E+02  0.46142317282E+02  0.99999956309E+01 0.  0.
        -12    1    1    2    0    0  0.33909188758E+02  0.18901874791E+02 -0.22847310097E+02  0.45045682718E+02  0.00000000000E+00 0.  1.
         11    1    3    3    0    0 -0.47091047223E+01 -0.28612617916E+01  0.11572649879E+01  0.56304306087E+01  0.51100000000E-03 0.  1.
        -11    1    3    3    0    0 -0.20920530510E+02 -0.14124304662E+02  0.19013756910E+02  0.31602017833E+02  0.51100000000E-03 0. -1.
         12    1    3    3    0    0 -0.82795535255E+01 -0.19163083379E+01  0.26762881989E+01  0.89098688403E+01  0.00000000000E+00 0. -1.
</event>
<event>
 7    1  0.5664398E-009  0.4614232E+02  0.7816164E-02  0.1320468E+00
        -11   -1    0    0    0    0  0.00000000000E+00  0.00000000000E+00  0.45593999997E+02  0.45594000000E+02  0.51100000000E-03 0. -1.
         11   -1    0    0    0    0 -0.00000000000E+00 -0.00000000000E+00 -0.45593999997E+02  0.45594000000E+02  0.51100000000E-03 0.  1.
    9900012    2    1    2    0    0  0.17717938116E+02 -0.39719959585E+02  0.11726593612E+02  0.46142317429E+02  0.99999969738E+01 0.  0.
        -12    1    1    2    0    0 -0.17717938116E+02  0.39719959585E+02 -0.11726593612E+02  0.45045682571E+02  0.00000000000E+00 0.  1.
         11    1    3    3    0    0  0.11818303109E+02 -0.33215325339E+02  0.10713303666E+02  0.36847048748E+02  0.51100000000E-03 0. -1.
        -11    1    3    3    0    0  0.20363410293E+01 -0.34620649744E+01 -0.72124547577E+00  0.40807810492E+01  0.51100000000E-03 0.  1.
         12    1    3    3    0    0  0.38632939780E+01 -0.30425692715E+01  0.17345354212E+01  0.52144876316E+01  0.00000000000E+00 0. -1.
</event>
<event>
 7    1  0.5664398E-009  0.4614232E+02  0.7816164E-02  0.1320468E+00
        -11   -1    0    0    0    0  0.00000000000E+00  0.00000000000E+00  0.45593999997E+02  0.45594000000E+02  0.51100000000E-03 0. -1.
         11   -1    0    0    0    0 -0.00000000000E+00 -0.00000000000E+00 -0.45593999997E+02  0.45594000000E+02  0.51100000000E-03 0.  1.
    9900012    2    1    2    0    0  0.24031874802E+02 -0.64132432514E+01  0.37555994410E+02  0.46142318613E+02  0.10000007771E+02 0.  0.
        -12    1    1    2    0    0 -0.24031874802E+02  0.64132432514E+01 -0.37555994410E+02  0.45045681387E+02  0.00000000000E+00 0.  1.
         11    1    3    3    0    0  0.16109884186E+02 -0.45401702969E+01  0.25522993178E+02  0.30521544781E+02  0.51100000000E-03 0. -1.
        -11    1    3    3    0    0 -0.30389402778E+00 -0.22810962401E+00  0.39607615313E+01  0.39789468141E+01  0.51100000000E-03 0.  1.
        -12    1    3    3    0    0  0.82258846443E+01 -0.16449633304E+01  0.80722397000E+01  0.11641827018E+02  0.00000000000E+00 0.  1.
</event>
<event>
 7    1  0.5664398E-009  0.4614232E+02  0.7816164E-02  0.1320468E+00
        -11   -1    0    0    0    0  0.00000000000E+00  0.00000000000E+00  0.45593999997E+02  0.45594000000E+02  0.51100000000E-03 0. -1.
         11   -1    0    0    0    0 -0.00000000000E+00 -0.00000000000E+00 -0.45593999997E+02  0.45594000000E+02  0.51100000000E-03 0.  1.
    9900012    2    1    2    0    0 -0.84442828812E+01  0.64812796054E+01  0.43769860578E+02  0.46142316592E+02  0.99999893357E+01 0.  0.
        -12    1    1    2    0    0  0.84442828812E+01 -0.64812796054E+01 -0.43769860578E+02  0.45045683408E+02  0.00000000000E+00 0.  1.
         11    1    3    3    0    0 -0.83336856508E+00  0.17576722287E+01  0.16840250083E+02  0.16952225162E+02  0.51100000000E-03 0. -1.
        -11    1    3    3    0    0 -0.60976258428E+01  0.43610656725E-01  0.17865185994E+02  0.18877177057E+02  0.51100000000E-03 0.  1.
        -12    1    3    3    0    0 -0.15132884732E+01  0.46799967200E+01  0.90644245012E+01  0.10312914372E+02  0.00000000000E+00 0.  1.
</event>
<event>
 7    1  0.5664398E-009  0.4614232E+02  0.7816164E-02  0.1320468E+00
        -11   -1    0    0    0    0  0.00000000000E+00  0.00000000000E+00  0.45593999997E+02  0.45594000000E+02  0.51100000000E-03 0. -1.
         11   -1    0    0    0    0 -0.00000000000E+00 -0.00000000000E+00 -0.45593999997E+02  0.45594000000E+02  0.51100000000E-03 0.  1.
    9900012    2    1    2    0    0 -0.57951228441E+01 -0.77947177552E+01 -0.43986048334E+02  0.46142317391E+02  0.99999966275E+01 0.  0.
         12    1    1    2    0    0  0.57951228441E+01  0.77947177552E+01  0.43986048334E+02  0.45045682609E+02  0.00000000000E+00 0. -1.
         11    1    3    3    0    0 -0.21645933959E+01  0.23241681695E+00 -0.21486740412E+02  0.21596747346E+02  0.51100000000E-03 0. -1.
        -11    1    3    3    0    0 -0.12356972699E+01 -0.71521916751E+01 -0.16349705451E+02  0.17888366669E+02  0.51100000000E-03 0.  1.
         12    1    3    3    0    0 -0.23948321783E+01 -0.87494289699E+00 -0.61496024708E+01  0.66572033756E+01  0.00000000000E+00 0. -1.
</event>
<event>
 7    1  0.6190213E-009  0.4614232E+02  0.7816164E-02  0.1320468E+00
        -11   -1    0    0    0    0  0.00000000000E+00  0.00000000000E+00  0.45593999997E+02  0.45594000000E+02  0.51100000000E-03 0. -1.
         11   -1    0    0    0    0 -0.00000000000E+00 -0.00000000000E+00 -0.45593999997E+02  0.45594000000E+02  0.51100000000E-03 0.  1.
    9900012    2    1    2    0    0 -0.18259783385E+02  0.12143323777E+02 -0.39347598761E+02  0.46142317300E+02  0.99999957925E+01 0.  0.
         12    1    1    2    0    0  0.18259783385E+02 -0.12143323777E+02  0.39347598761E+02  0.45045682700E+02  0.00000000000E+00 0. -1.
         11    1    3    3    0    0 -0.37545204240E+01  0.16524568256E+01 -0.32763426366E+01  0.52499008094E+01  0.51100000000E-03 0. -1.
        -11    1    3    3    0    0 -0.76063452045E+01  0.40862558767E+01 -0.10212065590E+02  0.13373117001E+02  0.51100000000E-03 0.  1.
        -12    1    3    3    0    0 -0.68989177569E+01  0.64046110752E+01 -0.25859190535E+02  0.27519299489E+02  0.00000000000E+00 0.  1.
</event>
<event>
 7    1  0.5664398E-009  0.4614232E+02  0.7816164E-02  0.1320468E+00
        -11   -1    0    0    0    0  0.00000000000E+00  0.00000000000E+00  0.45593999997E+02  0.45594000000E+02  0.51100000000E-03 0. -1.
         11   -1    0    0    0    0 -0.00000000000E+00 -0.00000000000E+00 -0.45593999997E+02  0.45594000000E+02  0.51100000000E-03 0.  1.
    9900012    2    1    2    0    0 -0.62194231730E+00  0.12458646092E+02  0.43284048099E+02  0.46142317692E+02  0.99999993740E+01 0.  0.
        -12    1    1    2    0    0  0.62194231730E+00 -0.12458646092E+02 -0.43284048099E+02  0.45045682308E+02  0.00000000000E+00 0.  1.
         11    1    3    3    0    0 -0.11122609742E+01  0.83116129278E+01  0.23113708880E+02  0.24587874499E+02  0.51100000000E-03 0. -1.
        -11    1    3    3    0    0  0.22049726082E+01  0.39260744484E+01  0.18846517408E+02  0.19376975601E+02  0.51100000000E-03 0.  1.
        -12    1    3    3    0    0 -0.17146539513E+01  0.22095871585E+00  0.13238218113E+01  0.21774675921E+01  0.00000000000E+00 0.  1.
</event>
<event>
 7    1  0.5664398E-009  0.4614232E+02  0.7816164E-02  0.1320468E+00
        -11   -1    0    0    0    0  0.00000000000E+00  0.00000000000E+00  0.45593999997E+02  0.45594000000E+02  0.51100000000E-03 0. -1.
         11   -1    0    0    0    0 -0.00000000000E+00 -0.00000000000E+00 -0.45593999997E+02  0.45594000000E+02  0.51100000000E-03 0.  1.
    9900012    2    1    2    0    0 -0.14295419762E+02  0.78052227454E+01  0.41998011714E+02  0.46142317452E+02  0.99999971797E+01 0.  0.
        -12    1    1    2    0    0  0.14295419762E+02 -0.78052227454E+01 -0.41998011714E+02  0.45045682548E+02  0.00000000000E+00 0.  1.
         11    1    3    3    0    0 -0.10787290026E+01  0.21911898490E+01  0.10511885918E+02  0.10791881904E+02  0.51100000000E-03 0. -1.
        -11    1    3    3    0    0 -0.54571681809E+01  0.18695960807E+01  0.21004693022E+02  0.21782405819E+02  0.51100000000E-03 0.  1.
        -12    1    3    3    0    0 -0.77595225789E+01  0.37444368157E+01  0.10481432774E+02  0.13568029729E+02  0.00000000000E+00 0.  1.
</event>
<event>
 7    1  0.5664398E-009  0.4614232E+02  0.7816164E-02  0.1320468E+00
        -11   -1    0    0    0    0  0.00000000000E+00  0.00000000000E+00  0.45593999997E+02  0.45594000000E+02  0.51100000000E-03 0. -1.
         11   -1    0    0    0    0 -0.00000000000E+00 -0.00000000000E+00 -0.45593999997E+02  0.45594000000E+02  0.51100000000E-03 0.  1.
    9900012    2    1    2    0    0  0.30369235101E+02 -0.24179950419E+02  0.22850665905E+02  0.46142319017E+02  0.10000011452E+02 0.  0.
        -12    1    1    2    0    0 -0.30369235101E+02  0.24179950419E+02 -0.22850665905E+02  0.45045680983E+02  0.00000000000E+00 0.  1.
         11    1    3    3    0    0  0.93476020272E+01 -0.66483866048E+01  0.75328681476E+01  0.13723075854E+02  0.51100000000E-03 0. -1.
        -11    1    3    3    0    0  0.13119415179E+02 -0.15700062264E+02  0.11060358187E+02  0.23258171321E+02  0.51100000000E-03 0.  1.
        -12    1    3    3    0    0  0.79022178953E+01 -0.18315015510E+01  0.42574395709E+01  0.91610718421E+01  0.00000000000E+00 0.  1.
</event>
<event>
 7    1  0.5664398E-009  0.4614232E+02  0.7816164E-02  0.1320468E+00
        -11   -1    0    0    0    0  0.00000000000E+00  0.00000000000E+00  0.45593999997E+02  0.45594000000E+02  0.51100000000E-03 0. -1.
         11   -1    0    0    0    0 -0.00000000000E+00 -0.00000000000E+00 -0.45593999997E+02  0.45594000000E+02  0.51100000000E-03 0.  1.
    9900012    2    1    2    0    0  0.62086405593E+01 -0.26847041273E+02  0.35634289846E+02  0.46142318125E+02  0.10000003321E+02 0.  0.
        -12    1    1    2    0    0 -0.62086405593E+01  0.26847041273E+02 -0.35634289846E+02  0.45045681875E+02  0.00000000000E+00 0.  1.
         11    1    3    3    0    0  0.39179980802E+00 -0.17726241618E+02  0.21750440320E+02  0.28061625102E+02  0.51100000000E-03 0. -1.
        -11    1    3    3    0    0 -0.22789181668E+00 -0.15329672107E+01  0.67102861802E+00  0.16888465935E+01  0.51100000000E-03 0.  1.
        -12    1    3    3    0    0  0.60447325679E+01 -0.75878324443E+01  0.13212820909E+02  0.16391846430E+02  0.00000000000E+00 0.  1.
</event>
<event>
 7    1  0.5664398E-009  0.4614232E+02  0.7816164E-02  0.1320468E+00
        -11   -1    0    0    0    0  0.00000000000E+00  0.00000000000E+00  0.45593999997E+02  0.45594000000E+02  0.51100000000E-03 0. -1.
         11   -1    0    0    0    0 -0.00000000000E+00 -0.00000000000E+00 -0.45593999997E+02  0.45594000000E+02  0.51100000000E-03 0.  1.
    9900012    2    1    2    0    0 -0.90879492470E+01  0.15143485477E+02  0.41439082631E+02  0.46142317152E+02  0.99999944468E+01 0.  0.
        -12    1    1    2    0    0  0.90879492470E+01 -0.15143485477E+02 -0.41439082631E+02  0.45045682848E+02  0.00000000000E+00 0.  1.
         11    1    3    3    0    0 -0.85534515879E+01  0.10539755067E+02  0.30291092201E+02  0.33193346290E+02  0.51100000000E-03 0. -1.
        -11    1    3    3    0    0 -0.19445778859E+01  0.25874378644E+01  0.93701868559E+01  0.99134565027E+01  0.51100000000E-03 0.  1.
        -12    1    3    3    0    0  0.14100802268E+01  0.20162925460E+01  0.17778035743E+01  0.30355143594E+01  0.00000000000E+00 0.  1.
</event>
<event>
 7    1  0.5664398E-009  0.4614232E+02  0.7816164E-02  0.1320468E+00
        -11   -1    0    0    0    0  0.00000000000E+00  0.00000000000E+00  0.45593999997E+02  0.45594000000E+02  0.51100000000E-03 0. -1.
         11   -1    0    0    0    0 -0.00000000000E+00 -0.00000000000E+00 -0.45593999997E+02  0.45594000000E+02  0.51100000000E-03 0.  1.
    9900012    2    1    2    0    0  0.13064336706E+02 -0.37979805342E+02 -0.20395364427E+02  0.46142318770E+02  0.10000009201E+02 0.  0.
         12    1    1    2    0    0 -0.13064336706E+02  0.37979805342E+02  0.20395364427E+02  0.45045681230E+02  0.00000000000E+00 0. -1.
         11    1    3    3    0    0  0.56925252579E+01 -0.82104277963E+01 -0.88936365875E+01  0.13375826719E+02  0.51100000000E-03 0. -1.
        -11    1    3    3    0    0  0.46159791095E+01 -0.16936568304E+02 -0.67549777243E+01  0.18809155573E+02  0.51100000000E-03 0.  1.
         12    1    3    3    0    0  0.27558323382E+01 -0.12832809242E+02 -0.47467501153E+01  0.13957336478E+02  0.00000000000E+00 0. -1.
</event>
<event>
 7    1  0.5664398E-009  0.4614232E+02  0.7816164E-02  0.1320468E+00
        -11   -1    0    0    0    0  0.00000000000E+00  0.00000000000E+00  0.45593999997E+02  0.45594000000E+02  0.51100000000E-03 0. -1.
         11   -1    0    0    0    0 -0.00000000000E+00 -0.00000000000E+00 -0.45593999997E+02  0.45594000000E+02  0.51100000000E-03 0.  1.
    9900012    2    1    2    0    0 -0.11948737903E+02  0.86039770092E+00  0.43423505285E+02  0.46142318377E+02  0.10000005615E+02 0.  0.
        -12    1    1    2    0    0  0.11948737903E+02 -0.86039770092E+00 -0.43423505285E+02  0.45045681623E+02  0.00000000000E+00 0.  1.
         11    1    3    3    0    0 -0.70046057210E+01 -0.98622442016E+00  0.20632963256E+02  0.21811838824E+02  0.51100000000E-03 0. -1.
        -11    1    3    3    0    0 -0.30446582929E+01 -0.17620979334E+01  0.16221245595E+02  0.16598305401E+02  0.51100000000E-03 0.  1.
        -12    1    3    3    0    0 -0.18994738887E+01  0.36087200545E+01  0.65692964336E+01  0.77321741521E+01  0.00000000000E+00 0.  1.
</event>
<event>
 7    1  0.6578790E-009  0.4614232E+02  0.7816164E-02  0.1320468E+00
        -11   -1    0    0    0    0  0.00000000000E+00  0.00000000000E+00  0.45593999997E+02  0.45594000000E+02  0.51100000000E-03 0. -1.
         11   -1    0    0    0    0 -0.00000000000E+00 -0.00000000000E+00 -0.45593999997E+02  0.45594000000E+02  0.51100000000E-03 0.  1.
    9900012    2    1    2    0    0 -0.16950301679E+02  0.11522058842E+01  0.41718979134E+02  0.46142317350E+02  0.99999962478E+01 0.  0.
        -12    1    1    2    0    0  0.16950301679E+02 -0.11522058842E+01 -0.41718979134E+02  0.45045682650E+02  0.00000000000E+00 0.  1.
         11    1    3    3    0    0 -0.48569365970E+01 -0.12622722725E+01  0.20916613314E+02  0.21510180780E+02  0.51100000000E-03 0. -1.
        -11    1    3    3    0    0 -0.12966460844E+01  0.14146920482E+01  0.12989760648E+01  0.23173225363E+01  0.51100000000E-03 0.  1.
         12    1    3    3    0    0 -0.10796718998E+02  0.99978610851E+00  0.19503389755E+02  0.22314814033E+02  0.00000000000E+00 0. -1.
</event>
<event>
 7    1  0.5664398E-009  0.4614232E+02  0.7816164E-02  0.1320468E+00
        -11   -1    0    0    0    0  0.00000000000E+00  0.00000000000E+00  0.45593999997E+02  0.45594000000E+02  0.51100000000E-03 0. -1.
         11   -1    0    0    0    0 -0.00000000000E+00 -0.00000000000E+00 -0.45593999997E+02  0.45594000000E+02  0.51100000000E-03 0.  1.
    9900012    2    1    2    0    0  0.60283216452E+01  0.12576900161E+02  0.42832165825E+02  0.46142317535E+02  0.99999979346E+01 0.  0.
        -12    1    1    2    0    0 -0.60283216452E+01 -0.12576900161E+02 -0.42832165825E+02  0.45045682465E+02  0.00000000000E+00 0.  1.
         11    1    3    3    0    0  0.83285051465E+00  0.68745352266E+00  0.11328855577E+02  0.11380210950E+02  0.51100000000E-03 0.  1.
        -11    1    3    3    0    0 -0.85907295190E-01  0.81908819449E+01  0.19120010909E+02  0.20800787113E+02  0.51100000000E-03 0. -1.
         12    1    3    3    0    0  0.52813784257E+01  0.36985646938E+01  0.12383299340E+02  0.13961319472E+02  0.00000000000E+00 0. -1.
</event>
<event>
 7    1  0.5664398E-009  0.4614232E+02  0.7816164E-02  0.1320468E+00
        -11   -1    0    0    0    0  0.00000000000E+00  0.00000000000E+00  0.45593999997E+02  0.45594000000E+02  0.51100000000E-03 0. -1.
         11   -1    0    0    0    0 -0.00000000000E+00 -0.00000000000E+00 -0.45593999997E+02  0.45594000000E+02  0.51100000000E-03 0.  1.
    9900012    2    1    2    0    0 -0.13410394710E+02  0.32030383630E+02  0.28693715159E+02  0.46142318171E+02  0.10000003737E+02 0.  0.
        -12    1    1    2    0    0  0.13410394710E+02 -0.32030383630E+02 -0.28693715159E+02  0.45045681829E+02  0.00000000000E+00 0.  1.
         11    1    3    3    0    0 -0.43618544718E+01  0.14065455380E+02  0.84145796976E+01  0.16960777141E+02  0.51100000000E-03 0. -1.
        -11    1    3    3    0    0 -0.60584572782E+01  0.96154979897E+01  0.74638015087E+01  0.13596728997E+02  0.51100000000E-03 0.  1.
         12    1    3    3    0    0 -0.29900829603E+01  0.83494302607E+01  0.12815333953E+02  0.15584812033E+02  0.00000000000E+00 0. -1.
</event>
<event>
 7    1  0.5664398E-009  0.4614231E+02  0.7816164E-02  0.1320468E+00
        -11   -1    0    0    0    0  0.00000000000E+00  0.00000000000E+00  0.45593999997E+02  0.45594000000E+02  0.51100000000E-03 0. -1.
         11   -1    0    0    0    0 -0.00000000000E+00 -0.00000000000E+00 -0.45593999997E+02  0.45594000000E+02  0.51100000000E-03 0.  1.
    9900012    2    1    2    0    0 -0.18398894648E+02  0.34188217516E+02 -0.22842075029E+02  0.46142312827E+02  0.99999550107E+01 0.  0.
         12    1    1    2    0    0  0.18398894648E+02 -0.34188217516E+02  0.22842075029E+02  0.45045687173E+02  0.00000000000E+00 0. -1.
         11    1    3    3    0    0 -0.16806749608E+01  0.10858391835E+02 -0.74763906054E+01  0.13290062390E+02  0.51100000000E-03 0. -1.
        -11    1    3    3    0    0 -0.40539239208E+00  0.26989753894E+01 -0.12353135336E+01  0.29957988804E+01  0.51100000000E-03 0.  1.
         12    1    3    3    0    0 -0.16312827295E+02  0.20630850292E+02 -0.14130370890E+02  0.29856451557E+02  0.00000000000E+00 0. -1.
</event>
<event>
 7    1  0.5664398E-009  0.4614232E+02  0.7816164E-02  0.1320468E+00
        -11   -1    0    0    0    0  0.00000000000E+00  0.00000000000E+00  0.45593999997E+02  0.45594000000E+02  0.51100000000E-03 0. -1.
         11   -1    0    0    0    0 -0.00000000000E+00 -0.00000000000E+00 -0.45593999997E+02  0.45594000000E+02  0.51100000000E-03 0.  1.
    9900012    2    1    2    0    0  0.40725182477E+02 -0.16593123065E+02 -0.97591594056E+01  0.46142318596E+02  0.10000007613E+02 0.  0.
         12    1    1    2    0    0 -0.40725182477E+02  0.16593123065E+02  0.97591594056E+01  0.45045681404E+02  0.00000000000E+00 0. -1.
         11    1    3    3    0    0  0.50097861364E+01  0.74083771960E+00 -0.24961901112E+01  0.56460395846E+01  0.51100000000E-03 0. -1.
        -11    1    3    3    0    0  0.22374814779E+02 -0.94757528835E+01 -0.54996440423E+01  0.24913215649E+02  0.51100000000E-03 0.  1.
        -12    1    3    3    0    0  0.13340581562E+02 -0.78582079009E+01 -0.17633252521E+01  0.15583063363E+02  0.00000000000E+00 0.  1.
</event>
<event>
 7    1  0.5664398E-009  0.4614232E+02  0.7816164E-02  0.1320468E+00
        -11   -1    0    0    0    0  0.00000000000E+00  0.00000000000E+00  0.45593999997E+02  0.45594000000E+02  0.51100000000E-03 0. -1.
         11   -1    0    0    0    0 -0.00000000000E+00 -0.00000000000E+00 -0.45593999997E+02  0.45594000000E+02  0.51100000000E-03 0.  1.
    9900012    2    1    2    0    0 -0.32530328100E+01  0.22459207463E+02  0.38911633592E+02  0.46142318174E+02  0.10000003766E+02 0.  0.
        -12    1    1    2    0    0  0.32530328100E+01 -0.22459207463E+02 -0.38911633592E+02  0.45045681826E+02  0.00000000000E+00 0.  1.
         11    1    3    3    0    0  0.69061606700E+00  0.77219264506E+00  0.30484850521E+00  0.10798911544E+01  0.51100000000E-03 0. -1.
        -11    1    3    3    0    0 -0.19752727648E+01  0.46860078196E+01  0.15464763394E+02  0.16279412732E+02  0.51100000000E-03 0.  1.
         12    1    3    3    0    0 -0.19683761122E+01  0.17001006999E+02  0.23142021693E+02  0.28783014288E+02  0.00000000000E+00 0. -1.
</event>
<event>
 7    1  0.5664398E-009  0.4614232E+02  0.7816164E-02  0.1320468E+00
        -11   -1    0    0    0    0  0.00000000000E+00  0.00000000000E+00  0.45593999997E+02  0.45594000000E+02  0.51100000000E-03 0. -1.
         11   -1    0    0    0    0 -0.00000000000E+00 -0.00000000000E+00 -0.45593999997E+02  0.45594000000E+02  0.51100000000E-03 0.  1.
    9900012    2    1    2    0    0 -0.35612360305E+02 -0.12212274066E+02 -0.24733248983E+02  0.46142318191E+02  0.10000003919E+02 0.  0.
         12    1    1    2    0    0  0.35612360305E+02  0.12212274066E+02  0.24733248983E+02  0.45045681809E+02  0.00000000000E+00 0. -1.
         11    1    3    3    0    0 -0.17947726100E+02 -0.80056962188E+01 -0.82185348133E+01  0.21301557662E+02  0.51100000000E-03 0. -1.
        -11    1    3    3    0    0 -0.45280945862E+01 -0.25113662183E+01 -0.33577160674E+01  0.61712930828E+01  0.51100000000E-03 0.  1.
         12    1    3    3    0    0 -0.13136539619E+02 -0.16952116290E+01 -0.13156998103E+02  0.18669467446E+02  0.00000000000E+00 0. -1.
</event>
<event>
 7    1  0.5664398E-009  0.4614232E+02  0.7816164E-02  0.1320468E+00
        -11   -1    0    0    0    0  0.00000000000E+00  0.00000000000E+00  0.45593999997E+02  0.45594000000E+02  0.51100000000E-03 0. -1.
         11   -1    0    0    0    0 -0.00000000000E+00 -0.00000000000E+00 -0.45593999997E+02  0.45594000000E+02  0.51100000000E-03 0.  1.
    9900012    2    1    2    0    0  0.62511379236E+01 -0.62916860069E+00 -0.44605391627E+02  0.46142317180E+02  0.99999947050E+01 0.  0.
         12    1    1    2    0    0 -0.62511379236E+01  0.62916860069E+00  0.44605391627E+02  0.45045682820E+02  0.00000000000E+00 0. -1.
         11    1    3    3    0    0 -0.11248651450E+01 -0.27465750276E+00 -0.17177490478E+01  0.20715743748E+01  0.51100000000E-03 0. -1.
        -11    1    3    3    0    0  0.70624357373E+01 -0.28380630661E+01 -0.30789588369E+02  0.31716420868E+02  0.51100000000E-03 0.  1.
        -12    1    3    3    0    0  0.31356733133E+00  0.24835519681E+01 -0.12098054210E+02  0.12354321937E+02  0.00000000000E+00 0.  1.
</event>
<event>
 7    1  0.8656416E-009  0.4614232E+02  0.7816164E-02  0.1320468E+00
        -11   -1    0    0    0    0  0.00000000000E+00  0.00000000000E+00  0.45593999997E+02  0.45594000000E+02  0.51100000000E-03 0. -1.
         11   -1    0    0    0    0 -0.00000000000E+00 -0.00000000000E+00 -0.45593999997E+02  0.45594000000E+02  0.51100000000E-03 0.  1.
    9900012    2    1    2    0    0 -0.21458614376E+02 -0.31758269563E+01 -0.39478545113E+02  0.46142317277E+02  0.99999955827E+01 0.  0.
         12    1    1    2    0    0  0.21458614376E+02  0.31758269563E+01  0.39478545113E+02  0.45045682723E+02  0.00000000000E+00 0. -1.
         11    1    3    3    0    0  0.38951724648E-02  0.20717518429E+00  0.24374417799E+00  0.31991907536E+00  0.51100000000E-03 0. -1.
        -11    1    3    3    0    0 -0.49762381280E+01  0.15454197000E+01 -0.58784166551E+01  0.78553835417E+01  0.51100000000E-03 0.  1.
        -12    1    3    3    0    0 -0.16486271420E+02 -0.49284218406E+01 -0.33843872636E+02  0.37967014660E+02  0.00000000000E+00 0.  1.
</event>
<event>
 7    1  0.5664398E-009  0.4614232E+02  0.7816164E-02  0.1320468E+00
        -11   -1    0    0    0    0  0.00000000000E+00  0.00000000000E+00  0.45593999997E+02  0.45594000000E+02  0.51100000000E-03 0. -1.
         11   -1    0    0    0    0 -0.00000000000E+00 -0.00000000000E+00 -0.45593999997E+02  0.45594000000E+02  0.51100000000E-03 0.  1.
    9900012    2    1    2    0    0  0.18963932528E+02 -0.16295551060E+02 -0.37469157521E+02  0.46142317781E+02  0.10000000181E+02 0.  0.
         12    1    1    2    0    0 -0.18963932528E+02  0.16295551060E+02  0.37469157521E+02  0.45045682219E+02  0.00000000000E+00 0. -1.
         11    1    3    3    0    0  0.36388711124E+01 -0.56287458121E+00 -0.29230542618E+01  0.47013250521E+01  0.51100000000E-03 0. -1.
        -11    1    3    3    0    0  0.13196403429E+02 -0.97219088854E+01 -0.22869332391E+02  0.28136576553E+02  0.51100000000E-03 0.  1.
         12    1    3    3    0    0  0.21286579864E+01 -0.60107675933E+01 -0.11676770868E+02  0.13304416176E+02  0.00000000000E+00 0. -1.
</event>
<event>
 7    1  0.5664398E-009  0.4614232E+02  0.7816164E-02  0.1320468E+00
        -11   -1    0    0    0    0  0.00000000000E+00  0.00000000000E+00  0.45593999997E+02  0.45594000000E+02  0.51100000000E-03 0. -1.
         11   -1    0    0    0    0 -0.00000000000E+00 -0.00000000000E+00 -0.45593999997E+02  0.45594000000E+02  0.51100000000E-03 0.  1.
    9900012    2    1    2    0    0 -0.65629079819E+01 -0.24420847572E+02  0.37278196699E+02  0.46142317561E+02  0.99999981727E+01 0.  0.
        -12    1    1    2    0    0  0.65629079819E+01  0.24420847572E+02 -0.37278196699E+02  0.45045682439E+02  0.00000000000E+00 0.  1.
         11    1    3    3    0    0 -0.16359252794E+01 -0.68718683355E+01  0.98703050066E+01  0.12137617028E+02  0.51100000000E-03 0. -1.
        -11    1    3    3    0    0  0.12890445281E+01  0.19868584252E+00  0.21623627448E+01  0.25252573653E+01  0.51100000000E-03 0.  1.
         12    1    3    3    0    0 -0.62160272307E+01 -0.17747665079E+02  0.25245528947E+02  0.31479443167E+02  0.00000000000E+00 0. -1.
</event>
<event>
 7    1  0.5664398E-009  0.4614232E+02  0.7816164E-02  0.1320468E+00
        -11   -1    0    0    0    0  0.00000000000E+00  0.00000000000E+00  0.45593999997E+02  0.45594000000E+02  0.51100000000E-03 0. -1.
         11   -1    0    0    0    0 -0.00000000000E+00 -0.00000000000E+00 -0.45593999997E+02  0.45594000000E+02  0.51100000000E-03 0.  1.
    9900012    2    1    2    0    0  0.15099138672E+02 -0.33947063172E+00  0.42438358922E+02  0.46142317222E+02  0.99999950853E+01 0.  0.
        -12    1    1    2    0    0 -0.15099138672E+02  0.33947063172E+00 -0.42438358922E+02  0.45045682778E+02  0.00000000000E+00 0.  1.
         11    1    3    3    0    0  0.71828480130E+01 -0.33277318231E+01  0.26167602929E+02  0.27338810288E+02  0.51100000000E-03 0. -1.
        -11    1    3    3    0    0  0.65497827786E+01  0.40359095631E+01  0.13617891462E+02  0.15640818028E+02  0.51100000000E-03 0.  1.
        -12    1    3    3    0    0  0.13665078803E+01 -0.10476483717E+01  0.26528645308E+01  0.31626889061E+01  0.00000000000E+00 0.  1.
</event>
<event>
 7    1  0.5664398E-009  0.4614232E+02  0.7816164E-02  0.1320468E+00
        -11   -1    0    0    0    0  0.00000000000E+00  0.00000000000E+00  0.45593999997E+02  0.45594000000E+02  0.51100000000E-03 0.  1.
         11   -1    0    0    0    0 -0.00000000000E+00 -0.00000000000E+00 -0.45593999997E+02  0.45594000000E+02  0.51100000000E-03 0. -1.
    9900012    2    1    2    0    0  0.40485738454E+01  0.44369290494E+02 -0.66399250691E+01  0.46142317698E+02  0.99999994274E+01 0.  0.
         12    1    1    2    0    0 -0.40485738454E+01 -0.44369290494E+02  0.66399250691E+01  0.45045682302E+02  0.00000000000E+00 0. -1.
         11    1    3    3    0    0  0.44876024247E+01  0.16441155593E+02 -0.86448029460E+00  0.17064509931E+02  0.51100000000E-03 0. -1.
        -11    1    3    3    0    0 -0.26745264850E+01  0.13624232377E+02 -0.14060103634E+01  0.13955273741E+02  0.51100000000E-03 0.  1.
         12    1    3    3    0    0  0.22354979057E+01  0.14303902523E+02 -0.43694344111E+01  0.15122534026E+02  0.00000000000E+00 0. -1.
</event>
<event>
 7    1  0.5664398E-009  0.4614232E+02  0.7816164E-02  0.1320468E+00
        -11   -1    0    0    0    0  0.00000000000E+00  0.00000000000E+00  0.45593999997E+02  0.45594000000E+02  0.51100000000E-03 0. -1.
         11   -1    0    0    0    0 -0.00000000000E+00 -0.00000000000E+00 -0.45593999997E+02  0.45594000000E+02  0.51100000000E-03 0.  1.
    9900012    2    1    2    0    0 -0.20402085119E+02  0.23936696152E+02 -0.32247528017E+02  0.46142316932E+02  0.99999924397E+01 0.  0.
         12    1    1    2    0    0  0.20402085119E+02 -0.23936696152E+02  0.32247528017E+02  0.45045683068E+02  0.00000000000E+00 0. -1.
         11    1    3    3    0    0 -0.78972810729E+01  0.82455401220E+01 -0.88139505012E+01  0.14423650854E+02  0.51100000000E-03 0. -1.
        -11    1    3    3    0    0 -0.50554707766E+01  0.58442666548E+01 -0.40181397580E+01  0.87096891380E+01  0.51100000000E-03 0.  1.
         12    1    3    3    0    0 -0.74493332693E+01  0.98468893752E+01 -0.19415437758E+02  0.23008976940E+02  0.00000000000E+00 0. -1.
</event>
<event>
 7    1  0.5664398E-009  0.4614232E+02  0.7816164E-02  0.1320468E+00
        -11   -1    0    0    0    0  0.00000000000E+00  0.00000000000E+00  0.45593999997E+02  0.45594000000E+02  0.51100000000E-03 0. -1.
         11   -1    0    0    0    0 -0.00000000000E+00 -0.00000000000E+00 -0.45593999997E+02  0.45594000000E+02  0.51100000000E-03 0.  1.
    9900012    2    1    2    0    0 -0.25905464793E+02  0.12772352034E+02  0.34567142941E+02  0.46142318146E+02  0.10000003509E+02 0.  0.
        -12    1    1    2    0    0  0.25905464793E+02 -0.12772352034E+02 -0.34567142941E+02  0.45045681854E+02  0.00000000000E+00 0.  1.
         11    1    3    3    0    0 -0.14938604068E+02  0.58272350275E+01  0.20961454321E+02  0.26391307794E+02  0.51100000000E-03 0. -1.
        -11    1    3    3    0    0 -0.23948709507E+01 -0.79046699221E+00  0.11656633267E+01  0.27783117516E+01  0.51100000000E-03 0.  1.
         12    1    3    3    0    0 -0.85719897744E+01  0.77355839983E+01  0.12440025293E+02  0.16972698601E+02  0.00000000000E+00 0. -1.
</event>
<event>
 7    1  0.5664398E-009  0.4614232E+02  0.7816164E-02  0.1320468E+00
        -11   -1    0    0    0    0  0.00000000000E+00  0.00000000000E+00  0.45593999997E+02  0.45594000000E+02  0.51100000000E-03 0. -1.
         11   -1    0    0    0    0 -0.00000000000E+00 -0.00000000000E+00 -0.45593999997E+02  0.45594000000E+02  0.51100000000E-03 0.  1.
    9900012    2    1    2    0    0  0.13706158340E+02 -0.54617738962E+01  0.42560825359E+02  0.46142316458E+02  0.99999881168E+01 0.  0.
        -12    1    1    2    0    0 -0.13706158340E+02  0.54617738962E+01 -0.42560825359E+02  0.45045683542E+02  0.00000000000E+00 0.  1.
         11    1    3    3    0    0  0.11418908037E+01 -0.10877845728E+01  0.85990123007E+01  0.87424368853E+01  0.51100000000E-03 0. -1.
        -11    1    3    3    0    0  0.71619044350E+01  0.12581932205E+01  0.21496228252E+02  0.22692812841E+02  0.51100000000E-03 0.  1.
        -12    1    3    3    0    0  0.54023631012E+01 -0.56321825439E+01  0.12465584806E+02  0.14707066731E+02  0.00000000000E+00 0.  1.
</event>
<event>
 7    1  0.5664398E-009  0.4614232E+02  0.7816164E-02  0.1320468E+00
        -11   -1    0    0    0    0  0.00000000000E+00  0.00000000000E+00  0.45593999997E+02  0.45594000000E+02  0.51100000000E-03 0. -1.
         11   -1    0    0    0    0 -0.00000000000E+00 -0.00000000000E+00 -0.45593999997E+02  0.45594000000E+02  0.51100000000E-03 0.  1.
    9900012    2    1    2    0    0 -0.18121368075E+02  0.16437162695E+02 -0.37822601344E+02  0.46142317956E+02  0.10000001779E+02 0.  0.
         12    1    1    2    0    0  0.18121368075E+02 -0.16437162695E+02  0.37822601344E+02  0.45045682044E+02  0.00000000000E+00 0. -1.
         11    1    3    3    0    0  0.75069476384E+00  0.27029353741E+01 -0.32290520510E+01  0.42774033798E+01  0.51100000000E-03 0. -1.
        -11    1    3    3    0    0 -0.41327026444E+01  0.47700614445E+01 -0.99643102045E+01  0.11794922443E+02  0.51100000000E-03 0.  1.
         12    1    3    3    0    0 -0.14739360195E+02  0.89641658760E+01 -0.24629239088E+02  0.30069992133E+02  0.00000000000E+00 0. -1.
</event>
<event>
 7    1  0.5664398E-009  0.4614232E+02  0.7816164E-02  0.1320468E+00
        -11   -1    0    0    0    0  0.00000000000E+00  0.00000000000E+00  0.45593999997E+02  0.45594000000E+02  0.51100000000E-03 0.  1.
         11   -1    0    0    0    0 -0.00000000000E+00 -0.00000000000E+00 -0.45593999997E+02  0.45594000000E+02  0.51100000000E-03 0. -1.
    9900012    2    1    2    0    0 -0.43653216202E+02  0.41225238961E+01  0.10320613231E+02  0.46142317127E+02  0.99999942144E+01 0.  0.
        -12    1    1    2    0    0  0.43653216202E+02 -0.41225238961E+01 -0.10320613231E+02  0.45045682873E+02  0.00000000000E+00 0.  1.
         11    1    3    3    0    0 -0.83558224141E+01  0.88205947349E+00  0.17506508492E+01  0.85826904749E+01  0.51100000000E-03 0. -1.
        -11    1    3    3    0    0 -0.31990638529E+02  0.37863560447E+01  0.10257022252E+02  0.33807454079E+02  0.51100000000E-03 0.  1.
        -12    1    3    3    0    0 -0.33067552594E+01 -0.54589162210E+00 -0.16870598705E+01  0.37521725727E+01  0.00000000000E+00 0.  1.
</event>
<event>
 7    1  0.5664398E-009  0.4614232E+02  0.7816164E-02  0.1320468E+00
        -11   -1    0    0    0    0  0.00000000000E+00  0.00000000000E+00  0.45593999997E+02  0.45594000000E+02  0.51100000000E-03 0. -1.
         11   -1    0    0    0    0 -0.00000000000E+00 -0.00000000000E+00 -0.45593999997E+02  0.45594000000E+02  0.51100000000E-03 0.  1.
    9900012    2    1    2    0    0  0.77463614039E+00  0.13984397276E+02 -0.42812962957E+02  0.46142320679E+02  0.10000026606E+02 0.  0.
         12    1    1    2    0    0 -0.77463614039E+00 -0.13984397276E+02  0.42812962957E+02  0.45045679321E+02  0.00000000000E+00 0. -1.
         11    1    3    3    0    0  0.36884342180E+00  0.49718728460E+01 -0.14537598865E+02  0.15368713221E+02  0.51100000000E-03 0.  1.
        -11    1    3    3    0    0  0.37244865932E+01  0.17966456726E+01 -0.11275793106E+02  0.12010130994E+02  0.51100000000E-03 0. -1.
         12    1    3    3    0    0 -0.33186938746E+01  0.72158787575E+01 -0.16999570987E+02  0.18763476464E+02  0.00000000000E+00 0. -1.
</event>
<event>
 7    1  0.5664398E-009  0.4614232E+02  0.7816164E-02  0.1320468E+00
        -11   -1    0    0    0    0  0.00000000000E+00  0.00000000000E+00  0.45593999997E+02  0.45594000000E+02  0.51100000000E-03 0. -1.
         11   -1    0    0    0    0 -0.00000000000E+00 -0.00000000000E+00 -0.45593999997E+02  0.45594000000E+02  0.51100000000E-03 0.  1.
    9900012    2    1    2    0    0  0.19818815144E+02  0.26412371014E+02 -0.30638450189E+02  0.46142318672E+02  0.10000008309E+02 0.  0.
         12    1    1    2    0    0 -0.19818815144E+02 -0.26412371014E+02  0.30638450189E+02  0.45045681328E+02  0.00000000000E+00 0. -1.
         11    1    3    3    0    0  0.23201261308E+01  0.75915577545E+01 -0.73052076348E+01  0.10787993013E+02  0.51100000000E-03 0. -1.
        -11    1    3    3    0    0  0.50670129593E+00  0.33154243296E+01 -0.16310358475E+01  0.37294856060E+01  0.51100000000E-03 0.  1.
        -12    1    3    3    0    0  0.16991987718E+02  0.15505388930E+02 -0.21702206706E+02  0.31624840053E+02  0.00000000000E+00 0.  1.
</event>
<event>
 7    1  0.5664398E-009  0.4614232E+02  0.7816164E-02  0.1320468E+00
        -11   -1    0    0    0    0  0.00000000000E+00  0.00000000000E+00  0.45593999997E+02  0.45594000000E+02  0.51100000000E-03 0. -1.
         11   -1    0    0    0    0 -0.00000000000E+00 -0.00000000000E+00 -0.45593999997E+02  0.45594000000E+02  0.51100000000E-03 0.  1.
    9900012    2    1    2    0    0  0.25216866808E+02 -0.34457032505E+02 -0.14350456951E+02  0.46142322345E+02  0.10000041799E+02 0.  0.
         12    1    1    2    0    0 -0.25216866808E+02  0.34457032505E+02  0.14350456951E+02  0.45045677655E+02  0.00000000000E+00 0. -1.
         11    1    3    3    0    0  0.40300772469E+01 -0.91721608047E+01 -0.70607306077E+01  0.12256588980E+02  0.51100000000E-03 0. -1.
        -11    1    3    3    0    0  0.12480806735E+02 -0.15886367147E+02 -0.55940133024E+01  0.20962828602E+02  0.51100000000E-03 0.  1.
         12    1    3    3    0    0  0.87059828262E+01 -0.93985045535E+01 -0.16957130411E+01  0.12922904764E+02  0.00000000000E+00 0. -1.
</event>
<event>
 7    1  0.5664398E-009  0.4614232E+02  0.7816164E-02  0.1320468E+00
        -11   -1    0    0    0    0  0.00000000000E+00  0.00000000000E+00  0.45593999997E+02  0.45594000000E+02  0.51100000000E-03 0.  1.
         11   -1    0    0    0    0 -0.00000000000E+00 -0.00000000000E+00 -0.45593999997E+02  0.45594000000E+02  0.51100000000E-03 0. -1.
    9900012    2    1    2    0    0  0.16297868050E+02 -0.41930997915E+02  0.22987886266E+01  0.46142317429E+02  0.99999969757E+01 0.  0.
         12    1    1    2    0    0 -0.16297868050E+02  0.41930997915E+02 -0.22987886266E+01  0.45045682571E+02  0.00000000000E+00 0. -1.
         11    1    3    3    0    0  0.60876549914E+01 -0.17348554617E+02  0.24805830721E+01  0.18552228525E+02  0.51100000000E-03 0. -1.
        -11    1    3    3    0    0  0.78578219468E+01 -0.22602389093E+02  0.16924138506E+01  0.23989114684E+02  0.51100000000E-03 0.  1.
         12    1    3    3    0    0  0.23523911121E+01 -0.19800542051E+01 -0.18742082960E+01  0.36009742205E+01  0.00000000000E+00 0. -1.
</event>
<event>
 7    1  0.5664398E-009  0.4614232E+02  0.7816164E-02  0.1320468E+00
        -11   -1    0    0    0    0  0.00000000000E+00  0.00000000000E+00  0.45593999997E+02  0.45594000000E+02  0.51100000000E-03 0. -1.
         11   -1    0    0    0    0 -0.00000000000E+00 -0.00000000000E+00 -0.45593999997E+02  0.45594000000E+02  0.51100000000E-03 0.  1.
    9900012    2    1    2    0    0 -0.32905564978E+02  0.65323415259E+01 -0.30061034356E+02  0.46142317866E+02  0.10000000960E+02 0.  0.
         12    1    1    2    0    0  0.32905564978E+02 -0.65323415259E+01  0.30061034356E+02  0.45045682134E+02  0.00000000000E+00 0. -1.
         11    1    3    3    0    0 -0.22336426638E+02  0.22620174354E+01 -0.17283709542E+02  0.28333007141E+02  0.51100000000E-03 0. -1.
        -11    1    3    3    0    0 -0.45650111140E+01  0.31456643069E+01 -0.30623057729E+01  0.63334230327E+01  0.51100000000E-03 0.  1.
        -12    1    3    3    0    0 -0.60041272258E+01  0.11246597836E+01 -0.97150190412E+01  0.11475887693E+02  0.00000000000E+00 0.  1.
</event>
<event>
 7    1  0.5664398E-009  0.4614232E+02  0.7816164E-02  0.1320468E+00
        -11   -1    0    0    0    0  0.00000000000E+00  0.00000000000E+00  0.45593999997E+02  0.45594000000E+02  0.51100000000E-03 0. -1.
         11   -1    0    0    0    0 -0.00000000000E+00 -0.00000000000E+00 -0.45593999997E+02  0.45594000000E+02  0.51100000000E-03 0.  1.
    9900012    2    1    2    0    0  0.27259385819E+02  0.18168849336E+01  0.35815335887E+02  0.46142317957E+02  0.10000001782E+02 0.  0.
        -12    1    1    2    0    0 -0.27259385819E+02 -0.18168849336E+01 -0.35815335887E+02  0.45045682043E+02  0.00000000000E+00 0.  1.
         11    1    3    3    0    0  0.19188590246E+02  0.54182917357E+00  0.22755332035E+02  0.29770802992E+02  0.51100000000E-03 0. -1.
        -11    1    3    3    0    0  0.23428469850E+01 -0.41677026289E+00  0.85843273331E+01  0.89080472310E+01  0.51100000000E-03 0.  1.
         12    1    3    3    0    0  0.57279485875E+01  0.16918260229E+01  0.44756765190E+01  0.74634677340E+01  0.00000000000E+00 0. -1.
</event>
<event>
 7    1  0.5664398E-009  0.4614232E+02  0.7816164E-02  0.1320468E+00
        -11   -1    0    0    0    0  0.00000000000E+00  0.00000000000E+00  0.45593999997E+02  0.45594000000E+02  0.51100000000E-03 0. -1.
         11   -1    0    0    0    0 -0.00000000000E+00 -0.00000000000E+00 -0.45593999997E+02  0.45594000000E+02  0.51100000000E-03 0.  1.
    9900012    2    1    2    0    0 -0.21940493285E+02  0.19522090974E+00  0.39340692359E+02  0.46142318386E+02  0.10000005701E+02 0.  0.
        -12    1    1    2    0    0  0.21940493285E+02 -0.19522090974E+00 -0.39340692359E+02  0.45045681614E+02  0.00000000000E+00 0.  1.
         11    1    3    3    0    0 -0.91894116538E+01  0.60453962304E+00  0.15932882855E+02  0.18402921263E+02  0.51100000000E-03 0. -1.
        -11    1    3    3    0    0  0.41508131539E+00 -0.15633057855E+01  0.33288516164E+01  0.37010094329E+01  0.51100000000E-03 0.  1.
         12    1    3    3    0    0 -0.13166162946E+02  0.11539870722E+01  0.20078957887E+02  0.24038387690E+02  0.00000000000E+00 0. -1.
</event>
<event>
 7    1  0.5664398E-009  0.4614232E+02  0.7816164E-02  0.1320468E+00
        -11   -1    0    0    0    0  0.00000000000E+00  0.00000000000E+00  0.45593999997E+02  0.45594000000E+02  0.51100000000E-03 0. -1.
         11   -1    0    0    0    0 -0.00000000000E+00 -0.00000000000E+00 -0.45593999997E+02  0.45594000000E+02  0.51100000000E-03 0.  1.
    9900012    2    1    2    0    0  0.15287476908E+02 -0.18713406197E+02 -0.38015983336E+02  0.46142317513E+02  0.99999977364E+01 0.  0.
         12    1    1    2    0    0 -0.15287476908E+02  0.18713406197E+02  0.38015983336E+02  0.45045682487E+02  0.00000000000E+00 0. -1.
         11    1    3    3    0    0  0.64699582276E+01 -0.10627919765E+02 -0.16811511942E+02  0.20915065671E+02  0.51100000000E-03 0. -1.
        -11    1    3    3    0    0  0.39228681840E+01 -0.74046632839E+01 -0.10473986638E+02  0.13413512943E+02  0.51100000000E-03 0.  1.
         12    1    3    3    0    0  0.48946504963E+01 -0.68082314815E+00 -0.10730484757E+02  0.11813738898E+02  0.00000000000E+00 0. -1.
</event>
<event>
 7    1  0.5664398E-009  0.4614232E+02  0.7816164E-02  0.1320468E+00
        -11   -1    0    0    0    0  0.00000000000E+00  0.00000000000E+00  0.45593999997E+02  0.45594000000E+02  0.51100000000E-03 0. -1.
         11   -1    0    0    0    0 -0.00000000000E+00 -0.00000000000E+00 -0.45593999997E+02  0.45594000000E+02  0.51100000000E-03 0.  1.
    9900012    2    1    2    0    0 -0.11604193146E+02  0.27055662648E+02 -0.34094681261E+02  0.46142317963E+02  0.10000001844E+02 0.  0.
         12    1    1    2    0    0  0.11604193146E+02 -0.27055662648E+02  0.34094681261E+02  0.45045682037E+02  0.00000000000E+00 0. -1.
         11    1    3    3    0    0 -0.68288535107E+00  0.13934522230E+02 -0.14174461175E+02  0.19888504018E+02  0.51100000000E-03 0. -1.
        -11    1    3    3    0    0 -0.42666971224E+01  0.57938806240E+01 -0.80005276898E+01  0.10760213780E+02  0.51100000000E-03 0.  1.
         12    1    3    3    0    0 -0.66546106725E+01  0.73272597936E+01 -0.11919692395E+02  0.15493600166E+02  0.00000000000E+00 0. -1.
</event>
<event>
 7    1  0.5664398E-009  0.4614232E+02  0.7816164E-02  0.1320468E+00
        -11   -1    0    0    0    0  0.00000000000E+00  0.00000000000E+00  0.45593999997E+02  0.45594000000E+02  0.51100000000E-03 0. -1.
         11   -1    0    0    0    0 -0.00000000000E+00 -0.00000000000E+00 -0.45593999997E+02  0.45594000000E+02  0.51100000000E-03 0.  1.
    9900012    2    1    2    0    0  0.12777893431E+02 -0.46456896937E+01 -0.42944807327E+02  0.46142317969E+02  0.10000001898E+02 0.  0.
         12    1    1    2    0    0 -0.12777893431E+02  0.46456896937E+01  0.42944807327E+02  0.45045682031E+02  0.00000000000E+00 0. -1.
         11    1    3    3    0    0  0.32044188513E+01  0.99015731198E+00 -0.72999858290E+01  0.80335860636E+01  0.51100000000E-03 0. -1.
        -11    1    3    3    0    0  0.10184486054E+02 -0.61409129978E+01 -0.35290368484E+02  0.37240363541E+02  0.51100000000E-03 0.  1.
        -12    1    3    3    0    0 -0.61101147439E+00  0.50506599207E+00 -0.35445301370E+00  0.86836836487E+00  0.00000000000E+00 0.  1.
</event>
<event>
 7    1  0.5664398E-009  0.4614232E+02  0.7816164E-02  0.1320468E+00
        -11   -1    0    0    0    0  0.00000000000E+00  0.00000000000E+00  0.45593999997E+02  0.45594000000E+02  0.51100000000E-03 0. -1.
         11   -1    0    0    0    0 -0.00000000000E+00 -0.00000000000E+00 -0.45593999997E+02  0.45594000000E+02  0.51100000000E-03 0.  1.
    9900012    2    1    2    0    0 -0.34718995854E+02  0.14728150949E+02  0.24633033199E+02  0.46142318431E+02  0.10000006105E+02 0.  0.
        -12    1    1    2    0    0  0.34718995854E+02 -0.14728150949E+02 -0.24633033199E+02  0.45045681569E+02  0.00000000000E+00 0.  1.
         11    1    3    3    0    0 -0.24590877576E+02  0.81495661907E+01  0.14325036892E+02  0.29602928424E+02  0.51100000000E-03 0. -1.
        -11    1    3    3    0    0 -0.10548966962E+00 -0.27331655094E+00 -0.29831403137E+00  0.41811664623E+00  0.51100000000E-03 0.  1.
        -12    1    3    3    0    0 -0.10022628608E+02  0.68519013094E+01  0.10606310338E+02  0.16121273360E+02  0.00000000000E+00 0.  1.
</event>
<event>
 7    1  0.5664398E-009  0.4614232E+02  0.7816164E-02  0.1320468E+00
        -11   -1    0    0    0    0  0.00000000000E+00  0.00000000000E+00  0.45593999997E+02  0.45594000000E+02  0.51100000000E-03 0. -1.
         11   -1    0    0    0    0 -0.00000000000E+00 -0.00000000000E+00 -0.45593999997E+02  0.45594000000E+02  0.51100000000E-03 0.  1.
    9900012    2    1    2    0    0  0.30624870242E+02  0.19343146178E+02 -0.26778226395E+02  0.46142318850E+02  0.10000009931E+02 0.  0.
         12    1    1    2    0    0 -0.30624870242E+02 -0.19343146178E+02  0.26778226395E+02  0.45045681150E+02  0.00000000000E+00 0. -1.
         11    1    3    3    0    0  0.21421302813E+00 -0.33825268203E+00 -0.77777064481E+00  0.87477399102E+00  0.51100000000E-03 0. -1.
        -11    1    3    3    0    0  0.38898952907E+01  0.48902053321E+01 -0.19978559304E+01  0.65602455855E+01  0.51100000000E-03 0.  1.
        -12    1    3    3    0    0  0.26520761923E+02  0.14791193528E+02 -0.24002599819E+02  0.38707299274E+02  0.00000000000E+00 0.  1.
</event>
<event>
 7    1  0.5664398E-009  0.4614232E+02  0.7816164E-02  0.1320468E+00
        -11   -1    0    0    0    0  0.00000000000E+00  0.00000000000E+00  0.45593999997E+02  0.45594000000E+02  0.51100000000E-03 0. -1.
         11   -1    0    0    0    0 -0.00000000000E+00 -0.00000000000E+00 -0.45593999997E+02  0.45594000000E+02  0.51100000000E-03 0.  1.
    9900012    2    1    2    0    0  0.39414047764E+02  0.14647017060E+02 -0.16158938655E+02  0.46142316873E+02  0.99999918990E+01 0.  0.
         12    1    1    2    0    0 -0.39414047764E+02 -0.14647017060E+02  0.16158938655E+02  0.45045683127E+02  0.00000000000E+00 0. -1.
         11    1    3    3    0    0 -0.27390897197E+00 -0.53577771602E+00 -0.78180805373E-01  0.60679187978E+00  0.51100000000E-03 0. -1.
        -11    1    3    3    0    0  0.17715792120E+02  0.78824335074E+01 -0.85151154367E+01  0.21177564534E+02  0.51100000000E-03 0.  1.
         12    1    3    3    0    0  0.21972164617E+02  0.73003612689E+01 -0.75656424130E+01  0.24357960459E+02  0.00000000000E+00 0. -1.
</event>
<event>
 7    1  0.5664398E-009  0.4614232E+02  0.7816164E-02  0.1320468E+00
        -11   -1    0    0    0    0  0.00000000000E+00  0.00000000000E+00  0.45593999997E+02  0.45594000000E+02  0.51100000000E-03 0.  1.
         11   -1    0    0    0    0 -0.00000000000E+00 -0.00000000000E+00 -0.45593999997E+02  0.45594000000E+02  0.51100000000E-03 0. -1.
    9900012    2    1    2    0    0 -0.42284204896E+02  0.48856589876E+01  0.14740749991E+02  0.46142319211E+02  0.10000013221E+02 0.  0.
         12    1    1    2    0    0  0.42284204896E+02 -0.48856589876E+01 -0.14740749991E+02  0.45045680789E+02  0.00000000000E+00 0. -1.
         11    1    3    3    0    0 -0.42182282887E+01  0.11793785971E+01  0.33919361842E+01  0.55398208554E+01  0.51100000000E-03 0. -1.
        -11    1    3    3    0    0 -0.24246959371E+02  0.32182131259E+01  0.10871047187E+02  0.26766613564E+02  0.51100000000E-03 0.  1.
        -12    1    3    3    0    0 -0.13819017236E+02  0.48806726460E+00  0.47776662009E+00  0.13835884792E+02  0.00000000000E+00 0.  1.
</event>
<event>
 7    1  0.5664398E-009  0.4614232E+02  0.7816164E-02  0.1320468E+00
        -11   -1    0    0    0    0  0.00000000000E+00  0.00000000000E+00  0.45593999997E+02  0.45594000000E+02  0.51100000000E-03 0.  1.
         11   -1    0    0    0    0 -0.00000000000E+00 -0.00000000000E+00 -0.45593999997E+02  0.45594000000E+02  0.51100000000E-03 0. -1.
    9900012    2    1    2    0    0 -0.24711770620E+02  0.32262127222E+02  0.19431859768E+02  0.46142316144E+02  0.99999852504E+01 0.  0.
        -12    1    1    2    0    0  0.24711770620E+02 -0.32262127222E+02 -0.19431859768E+02  0.45045683856E+02  0.00000000000E+00 0.  1.
         11    1    3    3    0    0 -0.49935893102E+01  0.80357646285E+01  0.30240701156E+01  0.99324945351E+01  0.51100000000E-03 0. -1.
        -11    1    3    3    0    0 -0.28876649214E+01  0.92301717565E+01  0.38823987451E+01  0.10421501793E+02  0.51100000000E-03 0.  1.
         12    1    3    3    0    0 -0.16830516388E+02  0.14996190837E+02  0.12525390907E+02  0.25788319815E+02  0.00000000000E+00 0. -1.
</event>
<event>
 7    1  0.5664398E-009  0.4614232E+02  0.7816164E-02  0.1320468E+00
        -11   -1    0    0    0    0  0.00000000000E+00  0.00000000000E+00  0.45593999997E+02  0.45594000000E+02  0.51100000000E-03 0. -1.
         11   -1    0    0    0    0 -0.00000000000E+00 -0.00000000000E+00 -0.45593999997E+02  0.45594000000E+02  0.51100000000E-03 0.  1.
    9900012    2    1    2    0    0 -0.19840096978E+01 -0.77955327573E+01 -0.44321630731E+02  0.46142316788E+02  0.99999911221E+01 0.  0.
         12    1    1    2    0    0  0.19840096978E+01  0.77955327573E+01  0.44321630731E+02  0.45045683212E+02  0.00000000000E+00 0. -1.
         11    1    3    3    0    0 -0.16030070816E+01 -0.73986646278E+01 -0.35779087084E+02  0.36571203737E+02  0.51100000000E-03 0. -1.
        -11    1    3    3    0    0 -0.10060648306E+01 -0.64460328401E+00 -0.87778212377E+01  0.88587711213E+01  0.51100000000E-03 0.  1.
         12    1    3    3    0    0  0.62506221444E+00  0.24773515457E+00  0.23527759101E+00  0.71234192882E+00  0.00000000000E+00 0. -1.
</event>
<event>
 7    1  0.5664398E-009  0.4614232E+02  0.7816164E-02  0.1320468E+00
        -11   -1    0    0    0    0  0.00000000000E+00  0.00000000000E+00  0.45593999997E+02  0.45594000000E+02  0.51100000000E-03 0. -1.
         11   -1    0    0    0    0 -0.00000000000E+00 -0.00000000000E+00 -0.45593999997E+02  0.45594000000E+02  0.51100000000E-03 0.  1.
    9900012    2    1    2    0    0  0.17346812133E+02  0.60507657031E+01 -0.41128935055E+02  0.46142323675E+02  0.10000053930E+02 0.  0.
         12    1    1    2    0    0 -0.17346812133E+02 -0.60507657031E+01  0.41128935055E+02  0.45045676325E+02  0.00000000000E+00 0. -1.
         11    1    3    3    0    0  0.75409085679E+01 -0.10638366772E+01 -0.12440614985E+02  0.14586498963E+02  0.51100000000E-03 0. -1.
        -11    1    3    3    0    0  0.21647085096E+01 -0.15084044833E+00 -0.85875342735E+01  0.88574522822E+01  0.51100000000E-03 0.  1.
        -12    1    3    3    0    0  0.76411950558E+01  0.72654428286E+01 -0.20100785796E+02  0.22698372431E+02  0.00000000000E+00 0.  1.
</event>
<event>
 7    1  0.5664398E-009  0.4614232E+02  0.7816164E-02  0.1320468E+00
        -11   -1    0    0    0    0  0.00000000000E+00  0.00000000000E+00  0.45593999997E+02  0.45594000000E+02  0.51100000000E-03 0. -1.
         11   -1    0    0    0    0 -0.00000000000E+00 -0.00000000000E+00 -0.45593999997E+02  0.45594000000E+02  0.51100000000E-03 0.  1.
    9900012    2    1    2    0    0 -0.12677159844E+02  0.24375996428E+02 -0.35696131116E+02  0.46142319183E+02  0.10000012968E+02 0.  0.
         12    1    1    2    0    0  0.12677159844E+02 -0.24375996428E+02  0.35696131116E+02  0.45045680817E+02  0.00000000000E+00 0. -1.
         11    1    3    3    0    0 -0.71685279025E+01  0.97231715095E+01 -0.19150906003E+02  0.22642549713E+02  0.51100000000E-03 0. -1.
        -11    1    3    3    0    0 -0.59850797012E+01  0.84338047618E+01 -0.11594927994E+02  0.15536814256E+02  0.51100000000E-03 0.  1.
         12    1    3    3    0    0  0.47644775921E+00  0.62190201565E+01 -0.49502971196E+01  0.79629552144E+01  0.00000000000E+00 0. -1.
</event>
<event>
 7    1  0.5664398E-009  0.4614231E+02  0.7816164E-02  0.1320468E+00
        -11   -1    0    0    0    0  0.00000000000E+00  0.00000000000E+00  0.45593999997E+02  0.45594000000E+02  0.51100000000E-03 0. -1.
         11   -1    0    0    0    0 -0.00000000000E+00 -0.00000000000E+00 -0.45593999997E+02  0.45594000000E+02  0.51100000000E-03 0.  1.
    9900012    2    1    2    0    0  0.16716660190E+02 -0.28592736534E+02  0.30530680526E+02  0.46142314704E+02  0.99999721218E+01 0.  0.
        -12    1    1    2    0    0 -0.16716660190E+02  0.28592736534E+02 -0.30530680526E+02  0.45045685296E+02  0.00000000000E+00 0.  1.
         11    1    3    3    0    0  0.50881293359E+01 -0.10094943723E+02  0.11997692982E+02  0.16484586317E+02  0.51100000000E-03 0. -1.
        -11    1    3    3    0    0  0.67854782588E+01 -0.42924342222E+01  0.79047191906E+01  0.11267310792E+02  0.51100000000E-03 0.  1.
         12    1    3    3    0    0  0.48430525954E+01 -0.14205358590E+02  0.10628268353E+02  0.18390417594E+02  0.00000000000E+00 0. -1.
</event>
<event>
 7    1  0.5664398E-009  0.4614232E+02  0.7816164E-02  0.1320468E+00
        -11   -1    0    0    0    0  0.00000000000E+00  0.00000000000E+00  0.45593999997E+02  0.45594000000E+02  0.51100000000E-03 0. -1.
         11   -1    0    0    0    0 -0.00000000000E+00 -0.00000000000E+00 -0.45593999997E+02  0.45594000000E+02  0.51100000000E-03 0.  1.
    9900012    2    1    2    0    0 -0.35931800376E+02  0.22041133712E+02 -0.15881049547E+02  0.46142316652E+02  0.99999898883E+01 0.  0.
         12    1    1    2    0    0  0.35931800376E+02 -0.22041133712E+02  0.15881049547E+02  0.45045683348E+02  0.00000000000E+00 0. -1.
         11    1    3    3    0    0 -0.46214450496E+01  0.27527460916E+01 -0.11172064207E+01  0.54939526608E+01  0.51100000000E-03 0. -1.
        -11    1    3    3    0    0 -0.30384377031E+02  0.19330255300E+02 -0.12363487624E+02  0.38075253958E+02  0.51100000000E-03 0.  1.
         12    1    3    3    0    0 -0.92597829550E+00 -0.41867679051E-01 -0.24003555023E+01  0.25731100333E+01  0.00000000000E+00 0. -1.
</event>
<event>
 7    1  0.5664398E-009  0.4614232E+02  0.7816164E-02  0.1320468E+00
        -11   -1    0    0    0    0  0.00000000000E+00  0.00000000000E+00  0.45593999997E+02  0.45594000000E+02  0.51100000000E-03 0. -1.
         11   -1    0    0    0    0 -0.00000000000E+00 -0.00000000000E+00 -0.45593999997E+02  0.45594000000E+02  0.51100000000E-03 0.  1.
    9900012    2    1    2    0    0  0.26030218398E+01 -0.31851328586E+02 -0.31746349741E+02  0.46142316774E+02  0.99999910024E+01 0.  0.
         12    1    1    2    0    0 -0.26030218398E+01  0.31851328586E+02  0.31746349741E+02  0.45045683226E+02  0.00000000000E+00 0. -1.
         11    1    3    3    0    0  0.17848459437E+01 -0.11889493745E+02 -0.90522996095E+01  0.15049580228E+02  0.51100000000E-03 0. -1.
        -11    1    3    3    0    0  0.38130849787E+01 -0.73613239520E+01 -0.93763284189E+01  0.12515759756E+02  0.51100000000E-03 0.  1.
        -12    1    3    3    0    0 -0.29949090826E+01 -0.12600510889E+02 -0.13317721713E+02  0.18576976791E+02  0.00000000000E+00 0.  1.
</event>
<event>
 7    1  0.5664398E-009  0.4614232E+02  0.7816164E-02  0.1320468E+00
        -11   -1    0    0    0    0  0.00000000000E+00  0.00000000000E+00  0.45593999997E+02  0.45594000000E+02  0.51100000000E-03 0.  1.
         11   -1    0    0    0    0 -0.00000000000E+00 -0.00000000000E+00 -0.45593999997E+02  0.45594000000E+02  0.51100000000E-03 0. -1.
    9900012    2    1    2    0    0  0.25250717692E+02 -0.32813671710E+02  0.17741975563E+02  0.46142317722E+02  0.99999996447E+01 0.  0.
         12    1    1    2    0    0 -0.25250717692E+02  0.32813671710E+02 -0.17741975563E+02  0.45045682278E+02  0.00000000000E+00 0. -1.
         11    1    3    3    0    0  0.16588058421E+02 -0.21815439860E+02  0.12646201244E+02  0.30182834602E+02  0.51100000000E-03 0.  1.
        -11    1    3    3    0    0  0.31221803157E+01 -0.17685247233E+01 -0.81339722896E+00  0.36793076704E+01  0.51100000000E-03 0. -1.
         12    1    3    3    0    0  0.55404789546E+01 -0.92297071266E+01  0.59091715474E+01  0.12280175449E+02  0.00000000000E+00 0. -1.
</event>
<event>
 7    1  0.5664398E-009  0.4614232E+02  0.7816164E-02  0.1320468E+00
        -11   -1    0    0    0    0  0.00000000000E+00  0.00000000000E+00  0.45593999997E+02  0.45594000000E+02  0.51100000000E-03 0. -1.
         11   -1    0    0    0    0 -0.00000000000E+00 -0.00000000000E+00 -0.45593999997E+02  0.45594000000E+02  0.51100000000E-03 0.  1.
    9900012    2    1    2    0    0 -0.14248082756E+02  0.54758782787E+00 -0.42729448696E+02  0.46142317627E+02  0.99999987746E+01 0.  0.
         12    1    1    2    0    0  0.14248082756E+02 -0.54758782787E+00  0.42729448696E+02  0.45045682373E+02  0.00000000000E+00 0. -1.
         11    1    3    3    0    0 -0.16622181891E+01  0.80426432506E+00 -0.15532927755E+01  0.24129917365E+01  0.51100000000E-03 0. -1.
        -11    1    3    3    0    0 -0.10920140884E+02  0.27313799345E+01 -0.30050789086E+02  0.32089871271E+02  0.51100000000E-03 0.  1.
         12    1    3    3    0    0 -0.16657236825E+01 -0.29880564317E+01 -0.11125366834E+02  0.11639454619E+02  0.00000000000E+00 0. -1.
</event>
<event>
 7    1  0.5664399E-009  0.4614232E+02  0.7816164E-02  0.1320468E+00
        -11   -1    0    0    0    0  0.00000000000E+00  0.00000000000E+00  0.45593999997E+02  0.45594000000E+02  0.51100000000E-03 0. -1.
         11   -1    0    0    0    0 -0.00000000000E+00 -0.00000000000E+00 -0.45593999997E+02  0.45594000000E+02  0.51100000000E-03 0.  1.
    9900012    2    1    2    0    0  0.16998582290E+02 -0.10069841746E+02  0.40481600486E+02  0.46142317737E+02  0.99999997818E+01 0.  0.
        -12    1    1    2    0    0 -0.16998582290E+02  0.10069841746E+02 -0.40481600486E+02  0.45045682263E+02  0.00000000000E+00 0.  1.
         11    1    3    3    0    0  0.20832596771E+01 -0.59255783977E+00  0.72860544246E+00  0.22851612258E+01  0.51100000000E-03 0. -1.
        -11    1    3    3    0    0  0.17005731519E+01 -0.31787828021E+00  0.12576073448E+01  0.21388249440E+01  0.51100000000E-03 0.  1.
         12    1    3    3    0    0  0.13214749460E+02 -0.91594056259E+01  0.38495387698E+02  0.41718331567E+02  0.00000000000E+00 0. -1.
</event>
<event>
 7    1  0.5664398E-009  0.4614232E+02  0.7816164E-02  0.1320468E+00
        -11   -1    0    0    0    0  0.00000000000E+00  0.00000000000E+00  0.45593999997E+02  0.45594000000E+02  0.51100000000E-03 0. -1.
         11   -1    0    0    0    0 -0.00000000000E+00 -0.00000000000E+00 -0.45593999997E+02  0.45594000000E+02  0.51100000000E-03 0.  1.
    9900012    2    1    2    0    0  0.41097904672E+02  0.48026190186E+00 -0.18434887386E+02  0.46142317711E+02  0.99999995457E+01 0.  0.
         12    1    1    2    0    0 -0.41097904672E+02 -0.48026190186E+00  0.18434887386E+02  0.45045682289E+02  0.00000000000E+00 0. -1.
         11    1    3    3    0    0  0.16216618161E+02  0.11840818775E+01 -0.78521420539E+01  0.18056491619E+02  0.51100000000E-03 0. -1.
        -11    1    3    3    0    0  0.24628585957E+02 -0.15362794843E+01 -0.89752173973E+01  0.26257987898E+02  0.51100000000E-03 0.  1.
         12    1    3    3    0    0  0.25270055406E+00  0.83245950869E+00 -0.16075279346E+01  0.18278381942E+01  0.00000000000E+00 0. -1.
</event>
<event>
 7    1  0.5664398E-009  0.4614232E+02  0.7816164E-02  0.1320468E+00
        -11   -1    0    0    0    0  0.00000000000E+00  0.00000000000E+00  0.45593999997E+02  0.45594000000E+02  0.51100000000E-03 0.  1.
         11   -1    0    0    0    0 -0.00000000000E+00 -0.00000000000E+00 -0.45593999997E+02  0.45594000000E+02  0.51100000000E-03 0. -1.
    9900012    2    1    2    0    0 -0.24561633129E+02  0.22772014763E+02  0.30121006039E+02  0.46142317820E+02  0.10000000533E+02 0.  0.
        -12    1    1    2    0    0  0.24561633129E+02 -0.22772014763E+02 -0.30121006039E+02  0.45045682180E+02  0.00000000000E+00 0.  1.
         11    1    3    3    0    0 -0.63606769099E+01  0.98179394707E+01  0.77833822876E+01  0.14051020828E+02  0.51100000000E-03 0. -1.
        -11    1    3    3    0    0 -0.18617110708E+01  0.16548189318E+00  0.43091721222E+00  0.19180829682E+01  0.51100000000E-03 0.  1.
        -12    1    3    3    0    0 -0.16339245148E+02  0.12788593399E+02  0.21906706539E+02  0.30173214024E+02  0.00000000000E+00 0.  1.
</event>
<event>
 7    1  0.5664398E-009  0.4614232E+02  0.7816164E-02  0.1320468E+00
        -11   -1    0    0    0    0  0.00000000000E+00  0.00000000000E+00  0.45593999997E+02  0.45594000000E+02  0.51100000000E-03 0. -1.
         11   -1    0    0    0    0 -0.00000000000E+00 -0.00000000000E+00 -0.45593999997E+02  0.45594000000E+02  0.51100000000E-03 0.  1.
    9900012    2    1    2    0    0  0.42161226388E+00  0.65654992689E+01  0.44562652079E+02  0.46142317656E+02  0.99999990396E+01 0.  0.
        -12    1    1    2    0    0 -0.42161226388E+00 -0.65654992689E+01 -0.44562652079E+02  0.45045682344E+02  0.00000000000E+00 0.  1.
         11    1    3    3    0    0 -0.47404319832E+00 -0.15796354738E+01  0.53295690593E+01  0.55789131381E+01  0.51100000000E-03 0. -1.
        -11    1    3    3    0    0  0.72862654021E+00 -0.76588863592E+00  0.84560268781E+01  0.85218467988E+01  0.51100000000E-03 0.  1.
         12    1    3    3    0    0  0.16702892199E+00  0.89110233786E+01  0.30777056141E+02  0.32041557719E+02  0.00000000000E+00 0. -1.
</event>
<event>
 7    1  0.5664398E-009  0.4614232E+02  0.7816164E-02  0.1320468E+00
        -11   -1    0    0    0    0  0.00000000000E+00  0.00000000000E+00  0.45593999997E+02  0.45594000000E+02  0.51100000000E-03 0. -1.
         11   -1    0    0    0    0 -0.00000000000E+00 -0.00000000000E+00 -0.45593999997E+02  0.45594000000E+02  0.51100000000E-03 0.  1.
    9900012    2    1    2    0    0 -0.42464641193E+02  0.11390539551E+01  0.14985669077E+02  0.46142317929E+02  0.10000001530E+02 0.  0.
        -12    1    1    2    0    0  0.42464641193E+02 -0.11390539551E+01 -0.14985669077E+02  0.45045682071E+02  0.00000000000E+00 0.  1.
         11    1    3    3    0    0 -0.24693042858E+02 -0.15538031315E+01  0.91838818159E+01  0.26391368953E+02  0.51100000000E-03 0. -1.
        -11    1    3    3    0    0 -0.78672110226E+00  0.16793930612E+01  0.38133470030E+00  0.18933323960E+01  0.51100000000E-03 0.  1.
        -12    1    3    3    0    0 -0.16984877233E+02  0.10134640253E+01  0.54204525611E+01  0.17857616580E+02  0.00000000000E+00 0.  1.
</event>
<event>
 7    1  0.5664398E-009  0.4614232E+02  0.7816164E-02  0.1320468E+00
        -11   -1    0    0    0    0  0.00000000000E+00  0.00000000000E+00  0.45593999997E+02  0.45594000000E+02  0.51100000000E-03 0. -1.
         11   -1    0    0    0    0 -0.00000000000E+00 -0.00000000000E+00 -0.45593999997E+02  0.45594000000E+02  0.51100000000E-03 0.  1.
    9900012    2    1    2    0    0 -0.48042861400E+01  0.36361693328E+02 -0.26150709092E+02  0.46142317710E+02  0.99999995325E+01 0.  0.
         12    1    1    2    0    0  0.48042861400E+01 -0.36361693328E+02  0.26150709092E+02  0.45045682290E+02  0.00000000000E+00 0. -1.
         11    1    3    3    0    0  0.78060907050E-01  0.55691370575E+01 -0.41236318854E+01  0.69300592536E+01  0.51100000000E-03 0. -1.
        -11    1    3    3    0    0 -0.71319879416E+01  0.20841278051E+02 -0.12924916572E+02  0.25539725751E+02  0.51100000000E-03 0.  1.
         12    1    3    3    0    0  0.22496408945E+01  0.99512782190E+01 -0.91021606346E+01  0.13672532705E+02  0.00000000000E+00 0. -1.
</event>
<event>
 7    1  0.5664398E-009  0.4614232E+02  0.7816164E-02  0.1320468E+00
        -11   -1    0    0    0    0  0.00000000000E+00  0.00000000000E+00  0.45593999997E+02  0.45594000000E+02  0.51100000000E-03 0. -1.
         11   -1    0    0    0    0 -0.00000000000E+00 -0.00000000000E+00 -0.45593999997E+02  0.45594000000E+02  0.51100000000E-03 0.  1.
    9900012    2    1    2    0    0 -0.12222168259E+01  0.45005837106E+02 -0.14471592362E+01  0.46142318105E+02  0.10000003132E+02 0.  0.
         12    1    1    2    0    0  0.12222168259E+01 -0.45005837106E+02  0.14471592362E+01  0.45045681895E+02  0.00000000000E+00 0. -1.
         11    1    3    3    0    0  0.98710908705E+00  0.35523298336E+01  0.17554942175E+01  0.40835268831E+01  0.51100000000E-03 0. -1.
        -11    1    3    3    0    0 -0.90599414385E+00  0.46077334506E+01  0.14087261596E+01  0.49027076799E+01  0.51100000000E-03 0.  1.
        -12    1    3    3    0    0 -0.13033317691E+01  0.36845773822E+02 -0.46113796134E+01  0.37156083542E+02  0.00000000000E+00 0.  1.
</event>
<event>
 7    1  0.5664398E-009  0.4614232E+02  0.7816164E-02  0.1320468E+00
        -11   -1    0    0    0    0  0.00000000000E+00  0.00000000000E+00  0.45593999997E+02  0.45594000000E+02  0.51100000000E-03 0. -1.
         11   -1    0    0    0    0 -0.00000000000E+00 -0.00000000000E+00 -0.45593999997E+02  0.45594000000E+02  0.51100000000E-03 0.  1.
    9900012    2    1    2    0    0  0.74149587411E+01 -0.22226786833E+02  0.38472091880E+02  0.46142317414E+02  0.99999968306E+01 0.  0.
        -12    1    1    2    0    0 -0.74149587411E+01  0.22226786833E+02 -0.38472091880E+02  0.45045682586E+02  0.00000000000E+00 0.  1.
         11    1    3    3    0    0  0.55798774987E+01 -0.18768673537E+02  0.23885482441E+02  0.30885504867E+02  0.51100000000E-03 0. -1.
        -11    1    3    3    0    0  0.32077773622E+00  0.15539209933E+00  0.38499857348E+00  0.52466105563E+00  0.51100000000E-03 0.  1.
         12    1    3    3    0    0  0.15143035061E+01 -0.36135053956E+01  0.14201610866E+02  0.14732151491E+02  0.00000000000E+00 0. -1.
</event>
<event>
 7    1  0.5664398E-009  0.4614232E+02  0.7816164E-02  0.1320468E+00
        -11   -1    0    0    0    0  0.00000000000E+00  0.00000000000E+00  0.45593999997E+02  0.45594000000E+02  0.51100000000E-03 0. -1.
         11   -1    0    0    0    0 -0.00000000000E+00 -0.00000000000E+00 -0.45593999997E+02  0.45594000000E+02  0.51100000000E-03 0.  1.
    9900012    2    1    2    0    0 -0.16547432883E+02 -0.13837274046E+02 -0.39545237890E+02  0.46142317323E+02  0.99999960013E+01 0.  0.
         12    1    1    2    0    0  0.16547432883E+02  0.13837274046E+02  0.39545237890E+02  0.45045682677E+02  0.00000000000E+00 0. -1.
         11    1    3    3    0    0 -0.71503225268E+01 -0.62379367066E+01 -0.94906149576E+01  0.13420534234E+02  0.51100000000E-03 0. -1.
        -11    1    3    3    0    0 -0.55696035956E+01 -0.37142213996E+01 -0.10772056818E+02  0.12682788856E+02  0.51100000000E-03 0.  1.
        -12    1    3    3    0    0 -0.38275067611E+01 -0.38851159401E+01 -0.19282566115E+02  0.20038994233E+02  0.00000000000E+00 0.  1.
</event>
<event>
 7    1  0.5664398E-009  0.4614232E+02  0.7816164E-02  0.1320468E+00
        -11   -1    0    0    0    0  0.00000000000E+00  0.00000000000E+00  0.45593999997E+02  0.45594000000E+02  0.51100000000E-03 0. -1.
         11   -1    0    0    0    0 -0.00000000000E+00 -0.00000000000E+00 -0.45593999997E+02  0.45594000000E+02  0.51100000000E-03 0.  1.
    9900012    2    1    2    0    0  0.93539214953E+01 -0.28835320477E+02  0.33318793179E+02  0.46142317263E+02  0.99999954556E+01 0.  0.
        -12    1    1    2    0    0 -0.93539214953E+01  0.28835320477E+02 -0.33318793179E+02  0.45045682737E+02  0.00000000000E+00 0.  1.
         11    1    3    3    0    0  0.46806377121E+01 -0.48354837618E+01  0.42529936754E+01  0.79610444080E+01  0.51100000000E-03 0.  1.
        -11    1    3    3    0    0  0.77270999143E+00 -0.13862557693E+01  0.34037290025E+01  0.37555501824E+01  0.51100000000E-03 0. -1.
         12    1    3    3    0    0  0.39005737918E+01 -0.22613580946E+02  0.25662070501E+02  0.34425722672E+02  0.00000000000E+00 0. -1.
</event>
<event>
 7    1  0.5664398E-009  0.4614232E+02  0.7816164E-02  0.1320468E+00
        -11   -1    0    0    0    0  0.00000000000E+00  0.00000000000E+00  0.45593999997E+02  0.45594000000E+02  0.51100000000E-03 0.  1.
         11   -1    0    0    0    0 -0.00000000000E+00 -0.00000000000E+00 -0.45593999997E+02  0.45594000000E+02  0.51100000000E-03 0. -1.
    9900012    2    1    2    0    0 -0.16605611600E+02 -0.32590615763E+02 -0.26291042622E+02  0.46142317693E+02  0.99999993755E+01 0.  0.
         12    1    1    2    0    0  0.16605611600E+02  0.32590615763E+02  0.26291042622E+02  0.45045682307E+02  0.00000000000E+00 0. -1.
         11    1    3    3    0    0 -0.12515166336E+02 -0.25243229056E+02 -0.21886117282E+02  0.35677053292E+02  0.51100000000E-03 0. -1.
        -11    1    3    3    0    0 -0.18710656485E+01 -0.61569783876E+01 -0.46435950218E+01  0.79355053093E+01  0.51100000000E-03 0.  1.
         12    1    3    3    0    0 -0.22193796160E+01 -0.11904083186E+01  0.23866968264E+00  0.25297590918E+01  0.00000000000E+00 0. -1.
</event>
<event>
 7    1  0.5664398E-009  0.4614232E+02  0.7816164E-02  0.1320468E+00
        -11   -1    0    0    0    0  0.00000000000E+00  0.00000000000E+00  0.45593999997E+02  0.45594000000E+02  0.51100000000E-03 0. -1.
         11   -1    0    0    0    0 -0.00000000000E+00 -0.00000000000E+00 -0.45593999997E+02  0.45594000000E+02  0.51100000000E-03 0.  1.
    9900012    2    1    2    0    0  0.36097588980E+02  0.79344676869E+01 -0.25751152108E+02  0.46142317160E+02  0.99999945176E+01 0.  0.
         12    1    1    2    0    0 -0.36097588980E+02 -0.79344676869E+01  0.25751152108E+02  0.45045682840E+02  0.00000000000E+00 0. -1.
         11    1    3    3    0    0  0.18714559153E+02  0.29681201960E+01 -0.12619866465E+02  0.22766323631E+02  0.51100000000E-03 0. -1.
        -11    1    3    3    0    0  0.16043544061E+02  0.64269634180E+01 -0.12366957349E+02  0.21251889308E+02  0.51100000000E-03 0.  1.
         12    1    3    3    0    0  0.13394857650E+01 -0.14606159270E+01 -0.76432829408E+00  0.21241042211E+01  0.00000000000E+00 0. -1.
</event>
<event>
 7    1  0.5664398E-009  0.4614232E+02  0.7816164E-02  0.1320468E+00
        -11   -1    0    0    0    0  0.00000000000E+00  0.00000000000E+00  0.45593999997E+02  0.45594000000E+02  0.51100000000E-03 0. -1.
         11   -1    0    0    0    0 -0.00000000000E+00 -0.00000000000E+00 -0.45593999997E+02  0.45594000000E+02  0.51100000000E-03 0.  1.
    9900012    2    1    2    0    0 -0.22851819476E+02  0.15504302435E+02  0.35588263267E+02  0.46142317303E+02  0.99999958204E+01 0.  0.
        -12    1    1    2    0    0  0.22851819476E+02 -0.15504302435E+02 -0.35588263267E+02  0.45045682697E+02  0.00000000000E+00 0.  1.
         11    1    3    3    0    0 -0.10733848355E+02  0.81435213275E+01  0.16524329042E+02  0.21321019926E+02  0.51100000000E-03 0. -1.
        -11    1    3    3    0    0 -0.46666737828E+01  0.90989923559E+00  0.11350223631E+02  0.12305825350E+02  0.51100000000E-03 0.  1.
        -12    1    3    3    0    0 -0.74512973379E+01  0.64508818717E+01  0.77137105937E+01  0.12515472027E+02  0.00000000000E+00 0.  1.
</event>
<event>
 7    1  0.5664398E-009  0.4614232E+02  0.7816164E-02  0.1320468E+00
        -11   -1    0    0    0    0  0.00000000000E+00  0.00000000000E+00  0.45593999997E+02  0.45594000000E+02  0.51100000000E-03 0. -1.
         11   -1    0    0    0    0 -0.00000000000E+00 -0.00000000000E+00 -0.45593999997E+02  0.45594000000E+02  0.51100000000E-03 0.  1.
    9900012    2    1    2    0    0  0.16631804166E+02  0.16783710495E+02  0.38351057292E+02  0.46142318263E+02  0.10000004573E+02 0.  0.
        -12    1    1    2    0    0 -0.16631804166E+02 -0.16783710495E+02 -0.38351057292E+02  0.45045681737E+02  0.00000000000E+00 0.  1.
         11    1    3    3    0    0  0.17685585056E+01 -0.91300374041E+00  0.28220635375E+01  0.34533198359E+01  0.51100000000E-03 0. -1.
        -11    1    3    3    0    0  0.63381772460E+01  0.44836975268E+01  0.14286494498E+02  0.16259765054E+02  0.51100000000E-03 0.  1.
         12    1    3    3    0    0  0.85250684144E+01  0.13213016709E+02  0.21242499256E+02  0.26429233373E+02  0.00000000000E+00 0. -1.
</event>
<event>
 7    1  0.5664398E-009  0.4614232E+02  0.7816164E-02  0.1320468E+00
        -11   -1    0    0    0    0  0.00000000000E+00  0.00000000000E+00  0.45593999997E+02  0.45594000000E+02  0.51100000000E-03 0. -1.
         11   -1    0    0    0    0 -0.00000000000E+00 -0.00000000000E+00 -0.45593999997E+02  0.45594000000E+02  0.51100000000E-03 0.  1.
    9900012    2    1    2    0    0 -0.10887718645E+02 -0.29052368060E+02  0.32657781209E+02  0.46142321176E+02  0.10000031144E+02 0.  0.
        -12    1    1    2    0    0  0.10887718645E+02  0.29052368060E+02 -0.32657781209E+02  0.45045678824E+02  0.00000000000E+00 0.  1.
         11    1    3    3    0    0 -0.34752739328E+01 -0.55062958416E+01  0.78647354268E+01  0.10210332335E+02  0.51100000000E-03 0. -1.
        -11    1    3    3    0    0 -0.68086912941E+01 -0.23691369461E+02  0.21901330430E+02  0.32974346679E+02  0.51100000000E-03 0.  1.
        -12    1    3    3    0    0 -0.60375341763E+00  0.14529724240E+00  0.28917153525E+01  0.29576421618E+01  0.00000000000E+00 0.  1.
</event>
<event>
 7    1  0.5664398E-009  0.4614232E+02  0.7816164E-02  0.1320468E+00
        -11   -1    0    0    0    0  0.00000000000E+00  0.00000000000E+00  0.45593999997E+02  0.45594000000E+02  0.51100000000E-03 0. -1.
         11   -1    0    0    0    0 -0.00000000000E+00 -0.00000000000E+00 -0.45593999997E+02  0.45594000000E+02  0.51100000000E-03 0.  1.
    9900012    2    1    2    0    0 -0.13487265350E+02  0.11972110783E+02 -0.41278029620E+02  0.46142317715E+02  0.99999995829E+01 0.  0.
         12    1    1    2    0    0  0.13487265350E+02 -0.11972110783E+02  0.41278029620E+02  0.45045682285E+02  0.00000000000E+00 0. -1.
         11    1    3    3    0    0 -0.26255829120E+01  0.56823392809E+00 -0.23376882508E+01  0.35610900078E+01  0.51100000000E-03 0. -1.
        -11    1    3    3    0    0  0.19480837537E-01  0.14779695365E+01 -0.10000266089E+02  0.10108911690E+02  0.51100000000E-03 0.  1.
        -12    1    3    3    0    0 -0.10881163275E+02  0.99259073184E+01 -0.28940075280E+02  0.32472316018E+02  0.00000000000E+00 0.  1.
</event>
<event>
 7    1  0.5664398E-009  0.4614232E+02  0.7816164E-02  0.1320468E+00
        -11   -1    0    0    0    0  0.00000000000E+00  0.00000000000E+00  0.45593999997E+02  0.45594000000E+02  0.51100000000E-03 0. -1.
         11   -1    0    0    0    0 -0.00000000000E+00 -0.00000000000E+00 -0.45593999997E+02  0.45594000000E+02  0.51100000000E-03 0.  1.
    9900012    2    1    2    0    0 -0.44982909096E+02  0.12860205196E+01  0.19993826405E+01  0.46142317738E+02  0.99999997898E+01 0.  0.
         12    1    1    2    0    0  0.44982909096E+02 -0.12860205196E+01 -0.19993826405E+01  0.45045682262E+02  0.00000000000E+00 0. -1.
         11    1    3    3    0    0 -0.17588695564E+01 -0.36892584794E+00  0.11033527604E+01  0.21088186202E+01  0.51100000000E-03 0. -1.
        -11    1    3    3    0    0 -0.25914742271E+02  0.39362392254E+01  0.32649486643E+01  0.26414536457E+02  0.51100000000E-03 0.  1.
        -12    1    3    3    0    0 -0.17309297268E+02 -0.22812928578E+01 -0.23689187842E+01  0.17618962660E+02  0.00000000000E+00 0.  1.
</event>
<event>
 7    1  0.5664398E-009  0.4614232E+02  0.7816164E-02  0.1320468E+00
        -11   -1    0    0    0    0  0.00000000000E+00  0.00000000000E+00  0.45593999997E+02  0.45594000000E+02  0.51100000000E-03 0. -1.
         11   -1    0    0    0    0 -0.00000000000E+00 -0.00000000000E+00 -0.45593999997E+02  0.45594000000E+02  0.51100000000E-03 0.  1.
    9900012    2    1    2    0    0  0.31357907135E+02 -0.21452344548E+02  0.24199012429E+02  0.46142316200E+02  0.99999857635E+01 0.  0.
        -12    1    1    2    0    0 -0.31357907135E+02  0.21452344548E+02 -0.24199012429E+02  0.45045683800E+02  0.00000000000E+00 0.  1.
         11    1    3    3    0    0  0.12658491344E+02 -0.88861539375E+01  0.53002469049E+01  0.16349120845E+02  0.51100000000E-03 0. -1.
        -11    1    3    3    0    0  0.89623922530E+01 -0.84050416717E+01  0.11868069821E+02  0.17082748079E+02  0.51100000000E-03 0.  1.
        -12    1    3    3    0    0  0.97370235380E+01 -0.41611489388E+01  0.70306957035E+01  0.12710447276E+02  0.00000000000E+00 0.  1.
</event>
<event>
 7    1  0.5664398E-009  0.4614232E+02  0.7816164E-02  0.1320468E+00
        -11   -1    0    0    0    0  0.00000000000E+00  0.00000000000E+00  0.45593999997E+02  0.45594000000E+02  0.51100000000E-03 0. -1.
         11   -1    0    0    0    0 -0.00000000000E+00 -0.00000000000E+00 -0.45593999997E+02  0.45594000000E+02  0.51100000000E-03 0.  1.
    9900012    2    1    2    0    0 -0.54140886489E+00 -0.28826629800E+02 -0.34609909223E+02  0.46142317348E+02  0.99999962311E+01 0.  0.
         12    1    1    2    0    0  0.54140886489E+00  0.28826629800E+02  0.34609909223E+02  0.45045682652E+02  0.00000000000E+00 0. -1.
         11    1    3    3    0    0 -0.23480730732E+01 -0.54237747602E+01 -0.11465954201E+02  0.12899569210E+02  0.51100000000E-03 0. -1.
        -11    1    3    3    0    0 -0.20560122449E-01 -0.23997496182E+01 -0.81708803012E+00  0.25351240717E+01  0.51100000000E-03 0.  1.
        -12    1    3    3    0    0  0.18272243308E+01 -0.21003105422E+02 -0.22326866991E+02  0.30707624066E+02  0.00000000000E+00 0.  1.
</event>
<event>
 7    1  0.7338554E-009  0.4614232E+02  0.7816164E-02  0.1320468E+00
        -11   -1    0    0    0    0  0.00000000000E+00  0.00000000000E+00  0.45593999997E+02  0.45594000000E+02  0.51100000000E-03 0.  1.
         11   -1    0    0    0    0 -0.00000000000E+00 -0.00000000000E+00 -0.45593999997E+02  0.45594000000E+02  0.51100000000E-03 0. -1.
    9900012    2    1    2    0    0 -0.10478171612E+02 -0.22031041458E+02  0.37867585114E+02  0.46142324620E+02  0.10000062548E+02 0.  0.
        -12    1    1    2    0    0  0.10478171612E+02  0.22031041458E+02 -0.37867585114E+02  0.45045675380E+02  0.00000000000E+00 0.  1.
         11    1    3    3    0    0 -0.80744440391E+01 -0.76561555044E+01  0.16061660053E+02  0.19539454638E+02  0.51100000000E-03 0. -1.
        -11    1    3    3    0    0  0.21590816626E+00  0.14609416880E+00  0.13826234249E+01  0.14069853015E+01  0.51100000000E-03 0.  1.
         12    1    3    3    0    0 -0.26196357390E+01 -0.14520980122E+02  0.20423301636E+02  0.25195884681E+02  0.00000000000E+00 0. -1.
</event>
<event>
 7    1  0.5664398E-009  0.4614232E+02  0.7816164E-02  0.1320468E+00
        -11   -1    0    0    0    0  0.00000000000E+00  0.00000000000E+00  0.45593999997E+02  0.45594000000E+02  0.51100000000E-03 0.  1.
         11   -1    0    0    0    0 -0.00000000000E+00 -0.00000000000E+00 -0.45593999997E+02  0.45594000000E+02  0.51100000000E-03 0. -1.
    9900012    2    1    2    0    0 -0.17441371039E+02 -0.41136407615E+02 -0.57190936365E+01  0.46142317774E+02  0.10000000118E+02 0.  0.
        -12    1    1    2    0    0  0.17441371039E+02  0.41136407615E+02  0.57190936365E+01  0.45045682226E+02  0.00000000000E+00 0.  1.
         11    1    3    3    0    0 -0.11382106466E+02 -0.21821787666E+02 -0.33380775678E+01  0.24837180328E+02  0.51100000000E-03 0. -1.
        -11    1    3    3    0    0 -0.33024186755E+01 -0.15364984610E+02  0.44219975432E+00  0.15722094709E+02  0.51100000000E-03 0.  1.
         12    1    3    3    0    0 -0.27568458974E+01 -0.39496353394E+01 -0.28232158230E+01  0.55830427366E+01  0.00000000000E+00 0. -1.
</event>
<event>
 7    1  0.5664398E-009  0.4614232E+02  0.7816164E-02  0.1320468E+00
        -11   -1    0    0    0    0  0.00000000000E+00  0.00000000000E+00  0.45593999997E+02  0.45594000000E+02  0.51100000000E-03 0. -1.
         11   -1    0    0    0    0 -0.00000000000E+00 -0.00000000000E+00 -0.45593999997E+02  0.45594000000E+02  0.51100000000E-03 0.  1.
    9900012    2    1    2    0    0  0.11917088294E+02  0.33984956025E+02  0.27057701204E+02  0.46142318477E+02  0.10000006532E+02 0.  0.
        -12    1    1    2    0    0 -0.11917088294E+02 -0.33984956025E+02 -0.27057701204E+02  0.45045681523E+02  0.00000000000E+00 0.  1.
         11    1    3    3    0    0  0.75469155359E-01  0.22768594152E+01  0.24563905765E+01  0.33501700428E+01  0.51100000000E-03 0. -1.
        -11    1    3    3    0    0  0.10039649409E+01 -0.28470758058E+00  0.16558571530E+01  0.19572601210E+01  0.51100000000E-03 0.  1.
         12    1    3    3    0    0  0.10837654198E+02  0.31992804190E+02  0.22945453474E+02  0.40834888314E+02  0.00000000000E+00 0. -1.
</event>
<event>
 7    1  0.5664398E-009  0.4614232E+02  0.7816164E-02  0.1320468E+00
        -11   -1    0    0    0    0  0.00000000000E+00  0.00000000000E+00  0.45593999997E+02  0.45594000000E+02  0.51100000000E-03 0. -1.
         11   -1    0    0    0    0 -0.00000000000E+00 -0.00000000000E+00 -0.45593999997E+02  0.45594000000E+02  0.51100000000E-03 0.  1.
    9900012    2    1    2    0    0  0.63190606374E+01  0.64527512084E+01  0.44130997477E+02  0.46142318034E+02  0.10000002490E+02 0.  0.
        -12    1    1    2    0    0 -0.63190606374E+01 -0.64527512084E+01 -0.44130997477E+02  0.45045681966E+02  0.00000000000E+00 0.  1.
         11    1    3    3    0    0  0.11113587258E+01 -0.40295833457E+00  0.26295488622E+02  0.26322048092E+02  0.51100000000E-03 0. -1.
        -11    1    3    3    0    0  0.16537940979E+01  0.16048797601E+01  0.47037968608E+01  0.52379747166E+01  0.51100000000E-03 0.  1.
         12    1    3    3    0    0  0.35539078138E+01  0.52508297829E+01  0.13131711994E+02  0.14582295226E+02  0.00000000000E+00 0. -1.
</event>
<event>
 7    1  0.5664398E-009  0.4614231E+02  0.7816164E-02  0.1320468E+00
        -11   -1    0    0    0    0  0.00000000000E+00  0.00000000000E+00  0.45593999997E+02  0.45594000000E+02  0.51100000000E-03 0. -1.
         11   -1    0    0    0    0 -0.00000000000E+00 -0.00000000000E+00 -0.45593999997E+02  0.45594000000E+02  0.51100000000E-03 0.  1.
    9900012    2    1    2    0    0 -0.11619379657E+02 -0.22073760740E+02 -0.37508040333E+02  0.46142312232E+02  0.99999495826E+01 0.  0.
         12    1    1    2    0    0  0.11619379657E+02  0.22073760740E+02  0.37508040333E+02  0.45045687768E+02  0.00000000000E+00 0. -1.
         11    1    3    3    0    0 -0.42602417585E+01 -0.11952373126E+02 -0.21882440797E+02  0.25295258423E+02  0.51100000000E-03 0. -1.
        -11    1    3    3    0    0 -0.51361823794E+01 -0.93004798031E+01 -0.15025944485E+02  0.18402671054E+02  0.51100000000E-03 0.  1.
        -12    1    3    3    0    0 -0.22229555191E+01 -0.82090781103E+00 -0.59965505182E+00  0.24443827554E+01  0.00000000000E+00 0.  1.
</event>
<event>
 7    1  0.5664398E-009  0.4614232E+02  0.7816164E-02  0.1320468E+00
        -11   -1    0    0    0    0  0.00000000000E+00  0.00000000000E+00  0.45593999997E+02  0.45594000000E+02  0.51100000000E-03 0.  1.
         11   -1    0    0    0    0 -0.00000000000E+00 -0.00000000000E+00 -0.45593999997E+02  0.45594000000E+02  0.51100000000E-03 0. -1.
    9900012    2    1    2    0    0  0.43882738029E+02 -0.73285096801E+01 -0.70506439874E+01  0.46142319500E+02  0.10000015860E+02 0.  0.
         12    1    1    2    0    0 -0.43882738029E+02  0.73285096801E+01  0.70506439874E+01  0.45045680500E+02  0.00000000000E+00 0. -1.
         11    1    3    3    0    0  0.14391901387E+02  0.93903287443E+00 -0.11583565584E+01  0.14468946004E+02  0.51100000000E-03 0. -1.
        -11    1    3    3    0    0  0.23078156244E+02 -0.87097020306E+01 -0.41512789899E+01  0.25013862609E+02  0.51100000000E-03 0.  1.
         12    1    3    3    0    0  0.64126803973E+01  0.44215947612E+00 -0.17410084390E+01  0.66595108878E+01  0.00000000000E+00 0. -1.
</event>
<event>
 7    1  0.5664398E-009  0.4614232E+02  0.7816164E-02  0.1320468E+00
        -11   -1    0    0    0    0  0.00000000000E+00  0.00000000000E+00  0.45593999997E+02  0.45594000000E+02  0.51100000000E-03 0. -1.
         11   -1    0    0    0    0 -0.00000000000E+00 -0.00000000000E+00 -0.45593999997E+02  0.45594000000E+02  0.51100000000E-03 0.  1.
    9900012    2    1    2    0    0 -0.20714665701E+02  0.26927687199E+02  0.29578976259E+02  0.46142317083E+02  0.99999938132E+01 0.  0.
        -12    1    1    2    0    0  0.20714665701E+02 -0.26927687199E+02 -0.29578976259E+02  0.45045682917E+02  0.00000000000E+00 0.  1.
         11    1    3    3    0    0 -0.15228844022E+02  0.21685327999E+02  0.18073580660E+02  0.32075309177E+02  0.51100000000E-03 0. -1.
        -11    1    3    3    0    0 -0.16550943595E+00  0.15409546307E+01  0.15824896026E+01  0.22149961965E+01  0.51100000000E-03 0.  1.
         12    1    3    3    0    0 -0.53203122432E+01  0.37014045694E+01  0.99229059958E+01  0.11852011709E+02  0.00000000000E+00 0. -1.
</event>
<event>
 7    1  0.5664398E-009  0.4614232E+02  0.7816164E-02  0.1320468E+00
        -11   -1    0    0    0    0  0.00000000000E+00  0.00000000000E+00  0.45593999997E+02  0.45594000000E+02  0.51100000000E-03 0. -1.
         11   -1    0    0    0    0 -0.00000000000E+00 -0.00000000000E+00 -0.45593999997E+02  0.45594000000E+02  0.51100000000E-03 0.  1.
    9900012    2    1    2    0    0 -0.25872251813E+02 -0.30874178678E+02 -0.20162468393E+02  0.46142318136E+02  0.10000003414E+02 0.  0.
         12    1    1    2    0    0  0.25872251813E+02  0.30874178678E+02  0.20162468393E+02  0.45045681864E+02  0.00000000000E+00 0. -1.
         11    1    3    3    0    0 -0.13373594021E+02 -0.92897881411E+01 -0.55617325992E+01  0.17207151145E+02  0.51100000000E-03 0. -1.
        -11    1    3    3    0    0 -0.77980250571E+01 -0.14757970930E+02 -0.99010498602E+01  0.19407155623E+02  0.51100000000E-03 0.  1.
         12    1    3    3    0    0 -0.47006327348E+01 -0.68264196072E+01 -0.46996859332E+01  0.95280113682E+01  0.00000000000E+00 0. -1.
</event>
<event>
 7    1  0.5664398E-009  0.4614232E+02  0.7816164E-02  0.1320468E+00
        -11   -1    0    0    0    0  0.00000000000E+00  0.00000000000E+00  0.45593999997E+02  0.45594000000E+02  0.51100000000E-03 0. -1.
         11   -1    0    0    0    0 -0.00000000000E+00 -0.00000000000E+00 -0.45593999997E+02  0.45594000000E+02  0.51100000000E-03 0.  1.
    9900012    2    1    2    0    0  0.23811602568E+02  0.33072938507E+01 -0.38094394558E+02  0.46142317563E+02  0.99999981910E+01 0.  0.
         12    1    1    2    0    0 -0.23811602568E+02 -0.33072938507E+01  0.38094394558E+02  0.45045682437E+02  0.00000000000E+00 0. -1.
         11    1    3    3    0    0  0.69789372124E+01 -0.22519225485E+01 -0.91034582313E+01  0.11689725053E+02  0.51100000000E-03 0. -1.
        -11    1    3    3    0    0  0.91371052853E+01  0.82262980020E+00 -0.11030065827E+02  0.14346629054E+02  0.51100000000E-03 0.  1.
         12    1    3    3    0    0  0.76955600705E+01  0.47365865990E+01 -0.17960870499E+02  0.20105963456E+02  0.00000000000E+00 0. -1.
</event>
<event>
 7    1  0.8537813E-009  0.4614232E+02  0.7816164E-02  0.1320468E+00
        -11   -1    0    0    0    0  0.00000000000E+00  0.00000000000E+00  0.45593999997E+02  0.45594000000E+02  0.51100000000E-03 0. -1.
         11   -1    0    0    0    0 -0.00000000000E+00 -0.00000000000E+00 -0.45593999997E+02  0.45594000000E+02  0.51100000000E-03 0.  1.
    9900012    2    1    2    0    0  0.15195870219E+02 -0.46192334427E+01  0.42152836463E+02  0.46142318617E+02  0.10000007809E+02 0.  0.
        -12    1    1    2    0    0 -0.15195870219E+02  0.46192334427E+01 -0.42152836463E+02  0.45045681383E+02  0.00000000000E+00 0.  1.
         11    1    3    3    0    0  0.17563401759E+01  0.54314116771E+00  0.69322011579E+01  0.71718300521E+01  0.51100000000E-03 0. -1.
        -11    1    3    3    0    0  0.44712335361E+00  0.13299679844E+01  0.79535037399E+01  0.80763207053E+01  0.51100000000E-03 0.  1.
         12    1    3    3    0    0  0.12992406689E+02 -0.64923425948E+01  0.27267131566E+02  0.30894167860E+02  0.00000000000E+00 0. -1.
</event>
<event>
 7    1  0.5664398E-009  0.4614232E+02  0.7816164E-02  0.1320468E+00
        -11   -1    0    0    0    0  0.00000000000E+00  0.00000000000E+00  0.45593999997E+02  0.45594000000E+02  0.51100000000E-03 0. -1.
         11   -1    0    0    0    0 -0.00000000000E+00 -0.00000000000E+00 -0.45593999997E+02  0.45594000000E+02  0.51100000000E-03 0.  1.
    9900012    2    1    2    0    0 -0.11831772055E+02  0.42369886158E+02  0.96909940332E+01  0.46142318205E+02  0.10000004052E+02 0.  0.
        -12    1    1    2    0    0  0.11831772055E+02 -0.42369886158E+02 -0.96909940332E+01  0.45045681795E+02  0.00000000000E+00 0.  1.
         11    1    3    3    0    0 -0.89296102148E+00  0.96680743109E+01  0.12936270993E+01  0.97950248391E+01  0.51100000000E-03 0. -1.
        -11    1    3    3    0    0 -0.35983917416E+01  0.76518142996E+01  0.54921670533E+01  0.10082786540E+02  0.51100000000E-03 0.  1.
        -12    1    3    3    0    0 -0.73404192921E+01  0.25049997547E+02  0.29051998806E+01  0.26264506827E+02  0.00000000000E+00 0.  1.
</event>
<event>
 7    1  0.5664398E-009  0.4614232E+02  0.7816164E-02  0.1320468E+00
        -11   -1    0    0    0    0  0.00000000000E+00  0.00000000000E+00  0.45593999997E+02  0.45594000000E+02  0.51100000000E-03 0. -1.
         11   -1    0    0    0    0 -0.00000000000E+00 -0.00000000000E+00 -0.45593999997E+02  0.45594000000E+02  0.51100000000E-03 0.  1.
    9900012    2    1    2    0    0 -0.68931432532E+01 -0.25116550501E+02  0.36752644268E+02  0.46142318813E+02  0.10000009589E+02 0.  0.
        -12    1    1    2    0    0  0.68931432532E+01  0.25116550501E+02 -0.36752644268E+02  0.45045681187E+02  0.00000000000E+00 0.  1.
         11    1    3    3    0    0 -0.14164755223E+01 -0.36886292438E+01  0.56265522208E+01  0.68753529915E+01  0.51100000000E-03 0. -1.
        -11    1    3    3    0    0 -0.98416307748E+00 -0.49168608819E+01  0.18264946202E+01  0.53366825607E+01  0.51100000000E-03 0.  1.
        -12    1    3    3    0    0 -0.44925046534E+01 -0.16511060375E+02  0.29299597427E+02  0.33930283260E+02  0.00000000000E+00 0.  1.
</event>
<event>
 7    1  0.5664398E-009  0.4614232E+02  0.7816164E-02  0.1320468E+00
        -11   -1    0    0    0    0  0.00000000000E+00  0.00000000000E+00  0.45593999997E+02  0.45594000000E+02  0.51100000000E-03 0. -1.
         11   -1    0    0    0    0 -0.00000000000E+00 -0.00000000000E+00 -0.45593999997E+02  0.45594000000E+02  0.51100000000E-03 0.  1.
    9900012    2    1    2    0    0  0.29439158099E+02 -0.87240223211E+01 -0.32959686746E+02  0.46142317128E+02  0.99999942237E+01 0.  0.
         12    1    1    2    0    0 -0.29439158099E+02  0.87240223211E+01  0.32959686746E+02  0.45045682872E+02  0.00000000000E+00 0. -1.
         11    1    3    3    0    0  0.16796442902E+02 -0.63890114112E+01 -0.23313460341E+02  0.29435648359E+02  0.51100000000E-03 0.  1.
        -11    1    3    3    0    0  0.75619211223E+01 -0.32906138919E+01 -0.73612073544E+01  0.11054327877E+02  0.51100000000E-03 0. -1.
        -12    1    3    3    0    0  0.50807940749E+01  0.95560298201E+00 -0.22850190503E+01  0.56523408913E+01  0.00000000000E+00 0.  1.
</event>
<event>
 7    1  0.5664398E-009  0.4614232E+02  0.7816164E-02  0.1320468E+00
        -11   -1    0    0    0    0  0.00000000000E+00  0.00000000000E+00  0.45593999997E+02  0.45594000000E+02  0.51100000000E-03 0. -1.
         11   -1    0    0    0    0 -0.00000000000E+00 -0.00000000000E+00 -0.45593999997E+02  0.45594000000E+02  0.51100000000E-03 0.  1.
    9900012    2    1    2    0    0  0.59544466931E+00 -0.15507770073E+02  0.42287920565E+02  0.46142315272E+02  0.99999772986E+01 0.  0.
        -12    1    1    2    0    0 -0.59544466931E+00  0.15507770073E+02 -0.42287920565E+02  0.45045684728E+02  0.00000000000E+00 0.  1.
         11    1    3    3    0    0 -0.15194765010E+01 -0.13995354139E+01  0.10344110811E+02  0.10548371293E+02  0.51100000000E-03 0.  1.
        -11    1    3    3    0    0  0.44905981301E+01 -0.95257402996E+01  0.21970471493E+02  0.24364047646E+02  0.51100000000E-03 0. -1.
        -12    1    3    3    0    0 -0.23756769598E+01 -0.45824943591E+01  0.99733382606E+01  0.11229896332E+02  0.00000000000E+00 0.  1.
</event>
<event>
 7    1  0.5664398E-009  0.4614232E+02  0.7816164E-02  0.1320468E+00
        -11   -1    0    0    0    0  0.00000000000E+00  0.00000000000E+00  0.45593999997E+02  0.45594000000E+02  0.51100000000E-03 0. -1.
         11   -1    0    0    0    0 -0.00000000000E+00 -0.00000000000E+00 -0.45593999997E+02  0.45594000000E+02  0.51100000000E-03 0.  1.
    9900012    2    1    2    0    0  0.26107919372E+02 -0.95424403056E+01 -0.35446183771E+02  0.46142316912E+02  0.99999922594E+01 0.  0.
         12    1    1    2    0    0 -0.26107919372E+02  0.95424403056E+01  0.35446183771E+02  0.45045683088E+02  0.00000000000E+00 0. -1.
         11    1    3    3    0    0  0.11878545054E+02 -0.51787962808E+00 -0.11080123287E+02  0.16252297199E+02  0.51100000000E-03 0. -1.
        -11    1    3    3    0    0  0.25516859662E+01 -0.10531668408E-01 -0.39316147600E+01  0.46870894026E+01  0.51100000000E-03 0.  1.
        -12    1    3    3    0    0  0.11677688351E+02 -0.90140290091E+01 -0.20434445724E+02  0.25202930311E+02  0.00000000000E+00 0.  1.
</event>
<event>
 7    1  0.5827761E-009  0.4614232E+02  0.7816164E-02  0.1320468E+00
        -11   -1    0    0    0    0  0.00000000000E+00  0.00000000000E+00  0.45593999997E+02  0.45594000000E+02  0.51100000000E-03 0. -1.
         11   -1    0    0    0    0 -0.00000000000E+00 -0.00000000000E+00 -0.45593999997E+02  0.45594000000E+02  0.51100000000E-03 0.  1.
    9900012    2    1    2    0    0  0.19946788806E+02 -0.15189269533E+02  0.37423592091E+02  0.46142317215E+02  0.99999950196E+01 0.  0.
        -12    1    1    2    0    0 -0.19946788806E+02  0.15189269533E+02 -0.37423592091E+02  0.45045682785E+02  0.00000000000E+00 0.  1.
         11    1    3    3    0    0  0.48079699872E+01 -0.49916717284E+01  0.13109172707E+02  0.14828478390E+02  0.51100000000E-03 0. -1.
        -11    1    3    3    0    0  0.90165220850E+00 -0.10211357855E+01  0.68518746758E+01  0.69859775143E+01  0.51100000000E-03 0.  1.
         12    1    3    3    0    0  0.14237166611E+02 -0.91764620186E+01  0.17462544708E+02  0.24327861311E+02  0.00000000000E+00 0. -1.
</event>
<event>
 7    1  0.5664398E-009  0.4614232E+02  0.7816164E-02  0.1320468E+00
        -11   -1    0    0    0    0  0.00000000000E+00  0.00000000000E+00  0.45593999997E+02  0.45594000000E+02  0.51100000000E-03 0. -1.
         11   -1    0    0    0    0 -0.00000000000E+00 -0.00000000000E+00 -0.45593999997E+02  0.45594000000E+02  0.51100000000E-03 0.  1.
    9900012    2    1    2    0    0 -0.42684507728E+01  0.17933368863E+02 -0.41100949689E+02  0.46142318119E+02  0.10000003266E+02 0.  0.
         12    1    1    2    0    0  0.42684507728E+01 -0.17933368863E+02  0.41100949689E+02  0.45045681881E+02  0.00000000000E+00 0. -1.
         11    1    3    3    0    0  0.90199609755E+00  0.12011923357E+01 -0.14464189651E+00  0.15090995748E+01  0.51100000000E-03 0. -1.
        -11    1    3    3    0    0 -0.21343116657E+01  0.11450130704E+02 -0.26965980534E+02  0.29373881015E+02  0.51100000000E-03 0.  1.
        -12    1    3    3    0    0 -0.30361352047E+01  0.52820458231E+01 -0.13990327258E+02  0.15259337530E+02  0.00000000000E+00 0.  1.
</event>
<event>
 7    1  0.5664398E-009  0.4614232E+02  0.7816164E-02  0.1320468E+00
        -11   -1    0    0    0    0  0.00000000000E+00  0.00000000000E+00  0.45593999997E+02  0.45594000000E+02  0.51100000000E-03 0. -1.
         11   -1    0    0    0    0 -0.00000000000E+00 -0.00000000000E+00 -0.45593999997E+02  0.45594000000E+02  0.51100000000E-03 0.  1.
    9900012    2    1    2    0    0  0.43389819827E+01  0.10201904098E+02 -0.43660140422E+02  0.46142317926E+02  0.10000001504E+02 0.  0.
         12    1    1    2    0    0 -0.43389819827E+01 -0.10201904098E+02  0.43660140422E+02  0.45045682074E+02  0.00000000000E+00 0. -1.
         11    1    3    3    0    0  0.11885919889E+01  0.15972010942E+01 -0.11675159124E+01  0.23080069146E+01  0.51100000000E-03 0. -1.
        -11    1    3    3    0    0  0.32140036953E+01  0.45468603250E+01 -0.33615054003E+02  0.34073092235E+02  0.51100000000E-03 0.  1.
        -12    1    3    3    0    0 -0.63613701407E-01  0.40578426785E+01 -0.88775705066E+01  0.97612187767E+01  0.00000000000E+00 0.  1.
</event>
<event>
 7    1  0.6308464E-009  0.4614232E+02  0.7816164E-02  0.1320468E+00
        -11   -1    0    0    0    0  0.00000000000E+00  0.00000000000E+00  0.45593999997E+02  0.45594000000E+02  0.51100000000E-03 0. -1.
         11   -1    0    0    0    0 -0.00000000000E+00 -0.00000000000E+00 -0.45593999997E+02  0.45594000000E+02  0.51100000000E-03 0.  1.
    9900012    2    1    2    0    0 -0.90412095502E+01  0.51804590916E+01  0.43823885143E+02  0.46142317237E+02  0.99999952222E+01 0.  0.
        -12    1    1    2    0    0  0.90412095502E+01 -0.51804590916E+01 -0.43823885143E+02  0.45045682763E+02  0.00000000000E+00 0.  1.
         11    1    3    3    0    0 -0.29056251025E+01  0.19242008033E+01  0.43139900088E+01  0.55457836259E+01  0.51100000000E-03 0. -1.
        -11    1    3    3    0    0  0.11397501102E+01  0.11508744932E+01  0.46704987806E+01  0.49433896805E+01  0.51100000000E-03 0.  1.
         12    1    3    3    0    0 -0.72753345579E+01  0.21053837951E+01  0.34839396354E+02  0.35653143931E+02  0.00000000000E+00 0. -1.
</event>
<event>
 7    1  0.5664398E-009  0.4614232E+02  0.7816164E-02  0.1320468E+00
        -11   -1    0    0    0    0  0.00000000000E+00  0.00000000000E+00  0.45593999997E+02  0.45594000000E+02  0.51100000000E-03 0. -1.
         11   -1    0    0    0    0 -0.00000000000E+00 -0.00000000000E+00 -0.45593999997E+02  0.45594000000E+02  0.51100000000E-03 0.  1.
    9900012    2    1    2    0    0  0.13859575206E+02  0.39260112769E+01  0.42680348286E+02  0.46142317418E+02  0.99999968725E+01 0.  0.
        -12    1    1    2    0    0 -0.13859575206E+02 -0.39260112769E+01 -0.42680348286E+02  0.45045682582E+02  0.00000000000E+00 0.  1.
         11    1    3    3    0    0  0.57632022043E+01  0.28132753994E+01  0.17998965236E+02  0.19107374701E+02  0.51100000000E-03 0. -1.
        -11    1    3    3    0    0  0.25039215868E+01  0.86353408429E+00  0.12221013160E+01  0.29169926835E+01  0.51100000000E-03 0.  1.
        -12    1    3    3    0    0  0.55924514147E+01  0.24920179323E+00  0.23459281734E+02  0.24117950034E+02  0.00000000000E+00 0.  1.
</event>
<event>
 7    1  0.5664398E-009  0.4614232E+02  0.7816164E-02  0.1320468E+00
        -11   -1    0    0    0    0  0.00000000000E+00  0.00000000000E+00  0.45593999997E+02  0.45594000000E+02  0.51100000000E-03 0. -1.
         11   -1    0    0    0    0 -0.00000000000E+00 -0.00000000000E+00 -0.45593999997E+02  0.45594000000E+02  0.51100000000E-03 0.  1.
    9900012    2    1    2    0    0 -0.35782005538E+02  0.23282128456E+02 -0.14377206465E+02  0.46142317726E+02  0.99999996801E+01 0.  0.
        -12    1    1    2    0    0  0.35782005538E+02 -0.23282128456E+02  0.14377206465E+02  0.45045682274E+02  0.00000000000E+00 0.  1.
         11    1    3    3    0    0 -0.16285245763E+01  0.15770876917E+01 -0.78163240808E-01  0.22683490993E+01  0.51100000000E-03 0. -1.
        -11    1    3    3    0    0 -0.53998844462E-01  0.90294178813E+00 -0.18097659870E+01  0.20232332878E+01  0.51100000000E-03 0.  1.
         12    1    3    3    0    0 -0.34099482117E+02  0.20802098977E+02 -0.12489277237E+02  0.41850735339E+02  0.00000000000E+00 0. -1.
</event>
<event>
 7    1  0.5664398E-009  0.4614232E+02  0.7816164E-02  0.1320468E+00
        -11   -1    0    0    0    0  0.00000000000E+00  0.00000000000E+00  0.45593999997E+02  0.45594000000E+02  0.51100000000E-03 0. -1.
         11   -1    0    0    0    0 -0.00000000000E+00 -0.00000000000E+00 -0.45593999997E+02  0.45594000000E+02  0.51100000000E-03 0.  1.
    9900012    2    1    2    0    0 -0.18444164403E+02 -0.26746993043E+02  0.31201353411E+02  0.46142319940E+02  0.10000019871E+02 0.  0.
        -12    1    1    2    0    0  0.18444164403E+02  0.26746993043E+02 -0.31201353411E+02  0.45045680060E+02  0.00000000000E+00 0.  1.
         11    1    3    3    0    0 -0.28018225996E+01 -0.77407183069E+00  0.30770799965E+01  0.42329444415E+01  0.51100000000E-03 0. -1.
        -11    1    3    3    0    0 -0.10509599562E+01  0.21838039585E+00  0.12344297400E+01  0.16358556999E+01  0.51100000000E-03 0.  1.
        -12    1    3    3    0    0 -0.14591381847E+02 -0.26191301608E+02  0.26889843675E+02  0.40273519799E+02  0.00000000000E+00 0.  1.
</event>
<event>
 7    1  0.5664398E-009  0.4614232E+02  0.7816164E-02  0.1320468E+00
        -11   -1    0    0    0    0  0.00000000000E+00  0.00000000000E+00  0.45593999997E+02  0.45594000000E+02  0.51100000000E-03 0. -1.
         11   -1    0    0    0    0 -0.00000000000E+00 -0.00000000000E+00 -0.45593999997E+02  0.45594000000E+02  0.51100000000E-03 0.  1.
    9900012    2    1    2    0    0 -0.41360948152E+02  0.33800595915E+01  0.17520296062E+02  0.46142316422E+02  0.99999877889E+01 0.  0.
        -12    1    1    2    0    0  0.41360948152E+02 -0.33800595915E+01 -0.17520296062E+02  0.45045683578E+02  0.00000000000E+00 0.  1.
         11    1    3    3    0    0 -0.27650130658E+01 -0.17247110992E+01  0.30109671964E+01  0.44368738261E+01  0.51100000000E-03 0. -1.
        -11    1    3    3    0    0 -0.73985801324E+01  0.17635736870E+01  0.15694694995E+01  0.77661068043E+01  0.51100000000E-03 0.  1.
         12    1    3    3    0    0 -0.31197354954E+02  0.33411970037E+01  0.12939859366E+02  0.33939335792E+02  0.00000000000E+00 0. -1.
</event>
<event>
 7    1  0.5664398E-009  0.4614232E+02  0.7816164E-02  0.1320468E+00
        -11   -1    0    0    0    0  0.00000000000E+00  0.00000000000E+00  0.45593999997E+02  0.45594000000E+02  0.51100000000E-03 0. -1.
         11   -1    0    0    0    0 -0.00000000000E+00 -0.00000000000E+00 -0.45593999997E+02  0.45594000000E+02  0.51100000000E-03 0.  1.
    9900012    2    1    2    0    0  0.34456862751E+02  0.28717417393E+02 -0.41410168507E+01  0.46142317933E+02  0.10000001567E+02 0.  0.
         12    1    1    2    0    0 -0.34456862751E+02 -0.28717417393E+02  0.41410168507E+01  0.45045682067E+02  0.00000000000E+00 0. -1.
         11    1    3    3    0    0  0.14301781984E+02  0.15934129569E+02 -0.35522237526E+01  0.21703818717E+02  0.51100000000E-03 0. -1.
        -11    1    3    3    0    0  0.18532892810E+02  0.96928503047E+01 -0.10518444544E+00  0.20914839875E+02  0.51100000000E-03 0.  1.
         12    1    3    3    0    0  0.16221879557E+01  0.30904375195E+01 -0.48360865273E+00  0.35236593415E+01  0.00000000000E+00 0. -1.
</event>
<event>
 7    1  0.5664398E-009  0.4614232E+02  0.7816164E-02  0.1320468E+00
        -11   -1    0    0    0    0  0.00000000000E+00  0.00000000000E+00  0.45593999997E+02  0.45594000000E+02  0.51100000000E-03 0. -1.
         11   -1    0    0    0    0 -0.00000000000E+00 -0.00000000000E+00 -0.45593999997E+02  0.45594000000E+02  0.51100000000E-03 0.  1.
    9900012    2    1    2    0    0  0.26685966581E+02 -0.15048126729E+02 -0.33023121640E+02  0.46142317707E+02  0.99999995046E+01 0.  0.
         12    1    1    2    0    0 -0.26685966581E+02  0.15048126729E+02  0.33023121640E+02  0.45045682293E+02  0.00000000000E+00 0. -1.
         11    1    3    3    0    0  0.51433368377E+01 -0.20680012185E+01 -0.11611829424E+02  0.12867211263E+02  0.51100000000E-03 0.  1.
        -11    1    3    3    0    0  0.10584820588E+02 -0.84848395156E+01 -0.10274681892E+02  0.17017638400E+02  0.51100000000E-03 0. -1.
        -12    1    3    3    0    0  0.10957809155E+02 -0.44952859946E+01 -0.11136610325E+02  0.16257468044E+02  0.00000000000E+00 0.  1.
</event>
<event>
 7    1  0.5664398E-009  0.4614232E+02  0.7816164E-02  0.1320468E+00
        -11   -1    0    0    0    0  0.00000000000E+00  0.00000000000E+00  0.45593999997E+02  0.45594000000E+02  0.51100000000E-03 0. -1.
         11   -1    0    0    0    0 -0.00000000000E+00 -0.00000000000E+00 -0.45593999997E+02  0.45594000000E+02  0.51100000000E-03 0.  1.
    9900012    2    1    2    0    0 -0.11502899783E+02  0.34174327372E+02  0.26998373229E+02  0.46142317501E+02  0.99999976309E+01 0.  0.
        -12    1    1    2    0    0  0.11502899783E+02 -0.34174327372E+02 -0.26998373229E+02  0.45045682499E+02  0.00000000000E+00 0.  1.
         11    1    3    3    0    0 -0.77872891017E+01  0.19203568437E+02  0.10777120692E+02  0.23357338096E+02  0.51100000000E-03 0. -1.
        -11    1    3    3    0    0 -0.30106035217E+01  0.40201518679E+01  0.48293239846E+01  0.69676197525E+01  0.51100000000E-03 0.  1.
         12    1    3    3    0    0 -0.70500715914E+00  0.10950607067E+02  0.11391928552E+02  0.15817359652E+02  0.00000000000E+00 0. -1.
</event>
<event>
 7    1  0.7568595E-009  0.4614232E+02  0.7816164E-02  0.1320468E+00
        -11   -1    0    0    0    0  0.00000000000E+00  0.00000000000E+00  0.45593999997E+02  0.45594000000E+02  0.51100000000E-03 0. -1.
         11   -1    0    0    0    0 -0.00000000000E+00 -0.00000000000E+00 -0.45593999997E+02  0.45594000000E+02  0.51100000000E-03 0.  1.
    9900012    2    1    2    0    0 -0.16990610564E+02  0.17301527283E+01 -0.41682603361E+02  0.46142315426E+02  0.99999787040E+01 0.  0.
         12    1    1    2    0    0  0.16990610564E+02 -0.17301527283E+01  0.41682603361E+02  0.45045684574E+02  0.00000000000E+00 0. -1.
         11    1    3    3    0    0  0.92175559479E-01  0.19666411866E+01 -0.43606734143E+01  0.47845215830E+01  0.51100000000E-03 0. -1.
        -11    1    3    3    0    0 -0.12034872522E+01 -0.63197712711E+00 -0.69635996814E+01  0.70950332937E+01  0.51100000000E-03 0.  1.
        -12    1    3    3    0    0 -0.15879298871E+02  0.39548866878E+00 -0.30358330265E+02  0.34262760549E+02  0.00000000000E+00 0.  1.
</event>
<event>
 7    1  0.5664398E-009  0.4614232E+02  0.7816164E-02  0.1320468E+00
        -11   -1    0    0    0    0  0.00000000000E+00  0.00000000000E+00  0.45593999997E+02  0.45594000000E+02  0.51100000000E-03 0. -1.
         11   -1    0    0    0    0 -0.00000000000E+00 -0.00000000000E+00 -0.45593999997E+02  0.45594000000E+02  0.51100000000E-03 0.  1.
    9900012    2    1    2    0    0  0.68521457561E+01 -0.58077667589E+01  0.44141040364E+02  0.46142317626E+02  0.99999987656E+01 0.  0.
        -12    1    1    2    0    0 -0.68521457561E+01  0.58077667589E+01 -0.44141040364E+02  0.45045682374E+02  0.00000000000E+00 0.  1.
         11    1    3    3    0    0  0.52305848237E+01 -0.50140472973E+01  0.15615513109E+02  0.17214643122E+02  0.51100000000E-03 0. -1.
        -11    1    3    3    0    0  0.31301129752E+01 -0.28929933730E+00  0.16430217302E+02  0.16728219935E+02  0.51100000000E-03 0.  1.
         12    1    3    3    0    0 -0.15085520428E+01 -0.50442012426E+00  0.12095309952E+02  0.12199454569E+02  0.00000000000E+00 0. -1.
</event>
<event>
 7    1  0.5664398E-009  0.4614232E+02  0.7816164E-02  0.1320468E+00
        -11   -1    0    0    0    0  0.00000000000E+00  0.00000000000E+00  0.45593999997E+02  0.45594000000E+02  0.51100000000E-03 0. -1.
         11   -1    0    0    0    0 -0.00000000000E+00 -0.00000000000E+00 -0.45593999997E+02  0.45594000000E+02  0.51100000000E-03 0.  1.
    9900012    2    1    2    0    0  0.70506564686E+01 -0.53565129830E+01 -0.44166836977E+02  0.46142317892E+02  0.10000001195E+02 0.  0.
         12    1    1    2    0    0 -0.70506564686E+01  0.53565129830E+01  0.44166836977E+02  0.45045682108E+02  0.00000000000E+00 0. -1.
         11    1    3    3    0    0 -0.34927989991E-01 -0.38077481918E+01 -0.18259579844E+02  0.18652410638E+02  0.51100000000E-03 0. -1.
        -11    1    3    3    0    0  0.53977965486E+01 -0.75103064829E+00 -0.24635426297E+02  0.25231022249E+02  0.51100000000E-03 0.  1.
         12    1    3    3    0    0  0.16877879101E+01 -0.79773414294E+00 -0.12718308355E+01  0.22588850051E+01  0.00000000000E+00 0. -1.
</event>
<event>
 7    1  0.5664398E-009  0.4614232E+02  0.7816164E-02  0.1320468E+00
        -11   -1    0    0    0    0  0.00000000000E+00  0.00000000000E+00  0.45593999997E+02  0.45594000000E+02  0.51100000000E-03 0. -1.
         11   -1    0    0    0    0 -0.00000000000E+00 -0.00000000000E+00 -0.45593999997E+02  0.45594000000E+02  0.51100000000E-03 0.  1.
    9900012    2    1    2    0    0 -0.37391637212E+02 -0.10894641491E+02 -0.22633730678E+02  0.46142317510E+02  0.99999977083E+01 0.  0.
         12    1    1    2    0    0  0.37391637212E+02  0.10894641491E+02  0.22633730678E+02  0.45045682490E+02  0.00000000000E+00 0. -1.
         11    1    3    3    0    0 -0.94281444029E+01 -0.51952500931E+01 -0.72203372911E+01  0.12962013781E+02  0.51100000000E-03 0. -1.
        -11    1    3    3    0    0 -0.69648393986E+01 -0.25572966089E+01 -0.92791855830E+00  0.74772847282E+01  0.51100000000E-03 0.  1.
        -12    1    3    3    0    0 -0.20998653410E+02 -0.31420947891E+01 -0.14485474829E+02  0.25703019000E+02  0.00000000000E+00 0.  1.
</event>
<event>
 7    1  0.9577297E-009  0.4614232E+02  0.7816164E-02  0.1320468E+00
        -11   -1    0    0    0    0  0.00000000000E+00  0.00000000000E+00  0.45593999997E+02  0.45594000000E+02  0.51100000000E-03 0. -1.
         11   -1    0    0    0    0 -0.00000000000E+00 -0.00000000000E+00 -0.45593999997E+02  0.45594000000E+02  0.51100000000E-03 0.  1.
    9900012    2    1    2    0    0 -0.14422612800E+02  0.11265556287E+02  0.41160528693E+02  0.46142316070E+02  0.99999845792E+01 0.  0.
        -12    1    1    2    0    0  0.14422612800E+02 -0.11265556287E+02 -0.41160528693E+02  0.45045683930E+02  0.00000000000E+00 0.  1.
         11    1    3    3    0    0 -0.24469064593E+01  0.30136174294E+00  0.10945808053E+02  0.11220021582E+02  0.51100000000E-03 0. -1.
        -11    1    3    3    0    0  0.82971049312E+00  0.79536222329E+00  0.22893267222E+01  0.25616474524E+01  0.51100000000E-03 0.  1.
         12    1    3    3    0    0 -0.12805416834E+02  0.10168832321E+02  0.27925393918E+02  0.32360647035E+02  0.00000000000E+00 0. -1.
</event>
<event>
 7    1  0.5664398E-009  0.4614232E+02  0.7816164E-02  0.1320468E+00
        -11   -1    0    0    0    0  0.00000000000E+00  0.00000000000E+00  0.45593999997E+02  0.45594000000E+02  0.51100000000E-03 0. -1.
         11   -1    0    0    0    0 -0.00000000000E+00 -0.00000000000E+00 -0.45593999997E+02  0.45594000000E+02  0.51100000000E-03 0.  1.
    9900012    2    1    2    0    0 -0.16125887377E+02  0.18967724502E+02 -0.37540571591E+02  0.46142319498E+02  0.10000015841E+02 0.  0.
         12    1    1    2    0    0  0.16125887377E+02 -0.18967724502E+02  0.37540571591E+02  0.45045680502E+02  0.00000000000E+00 0. -1.
         11    1    3    3    0    0 -0.11993993173E+02  0.10968801869E+02 -0.25588857515E+02  0.30314354947E+02  0.51100000000E-03 0. -1.
        -11    1    3    3    0    0 -0.38139079232E+01  0.64524076276E+01 -0.12109250054E+02  0.14241256790E+02  0.51100000000E-03 0.  1.
         12    1    3    3    0    0 -0.31798628028E+00  0.15465150049E+01  0.15753597725E+00  0.15867077610E+01  0.00000000000E+00 0. -1.
</event>
<event>
 7    1  0.5664398E-009  0.4614232E+02  0.7816164E-02  0.1320468E+00
        -11   -1    0    0    0    0  0.00000000000E+00  0.00000000000E+00  0.45593999997E+02  0.45594000000E+02  0.51100000000E-03 0. -1.
         11   -1    0    0    0    0 -0.00000000000E+00 -0.00000000000E+00 -0.45593999997E+02  0.45594000000E+02  0.51100000000E-03 0.  1.
    9900012    2    1    2    0    0 -0.18937845692E+02 -0.32012142674E+02 -0.25410514320E+02  0.46142317454E+02  0.99999971992E+01 0.  0.
         12    1    1    2    0    0  0.18937845692E+02  0.32012142674E+02  0.25410514320E+02  0.45045682546E+02  0.00000000000E+00 0. -1.
         11    1    3    3    0    0 -0.74969140851E+01 -0.96060855184E+01 -0.81695179055E+01  0.14670433629E+02  0.51100000000E-03 0. -1.
        -11    1    3    3    0    0  0.23259354069E+00 -0.61444865544E+01 -0.55919083705E+01  0.83113328809E+01  0.51100000000E-03 0.  1.
        -12    1    3    3    0    0 -0.11673525147E+02 -0.16261570601E+02 -0.11649088044E+02  0.23160550944E+02  0.00000000000E+00 0.  1.
</event>
<event>
 7    1  0.5664398E-009  0.4614232E+02  0.7816164E-02  0.1320468E+00
        -11   -1    0    0    0    0  0.00000000000E+00  0.00000000000E+00  0.45593999997E+02  0.45594000000E+02  0.51100000000E-03 0. -1.
         11   -1    0    0    0    0 -0.00000000000E+00 -0.00000000000E+00 -0.45593999997E+02  0.45594000000E+02  0.51100000000E-03 0.  1.
    9900012    2    1    2    0    0  0.68504612539E+01  0.57424166948E+01  0.44149851925E+02  0.46142316590E+02  0.99999893205E+01 0.  0.
        -12    1    1    2    0    0 -0.68504612539E+01 -0.57424166948E+01 -0.44149851925E+02  0.45045683410E+02  0.00000000000E+00 0.  1.
         11    1    3    3    0    0 -0.11061882704E+01 -0.33446266206E+00  0.10850200615E+02  0.10911570529E+02  0.51100000000E-03 0. -1.
        -11    1    3    3    0    0  0.56336981201E+01  0.51570180218E+01  0.30656765340E+02  0.31593838810E+02  0.51100000000E-03 0.  1.
        -12    1    3    3    0    0  0.23229514041E+01  0.91986133508E+00  0.26428859697E+01  0.36369072507E+01  0.00000000000E+00 0.  1.
</event>
<event>
 7    1  0.6047368E-009  0.4614232E+02  0.7816164E-02  0.1320468E+00
        -11   -1    0    0    0    0  0.00000000000E+00  0.00000000000E+00  0.45593999997E+02  0.45594000000E+02  0.51100000000E-03 0. -1.
         11   -1    0    0    0    0 -0.00000000000E+00 -0.00000000000E+00 -0.45593999997E+02  0.45594000000E+02  0.51100000000E-03 0.  1.
    9900012    2    1    2    0    0 -0.10873978282E+02 -0.18467212655E+02 -0.39621107326E+02  0.46142317713E+02  0.99999995605E+01 0.  0.
         12    1    1    2    0    0  0.10873978282E+02  0.18467212655E+02  0.39621107326E+02  0.45045682287E+02  0.00000000000E+00 0. -1.
         11    1    3    3    0    0  0.58283706384E+00 -0.17743457990E+01 -0.97983018081E+00  0.21090446894E+01  0.51100000000E-03 0. -1.
        -11    1    3    3    0    0 -0.23679793733E+01 -0.59068944245E+01 -0.74294848291E+01  0.97824318623E+01  0.51100000000E-03 0.  1.
        -12    1    3    3    0    0 -0.90888359725E+01 -0.10785972432E+02 -0.31211792317E+02  0.34250841161E+02  0.00000000000E+00 0.  1.
</event>
<event>
 7    1  0.5664398E-009  0.4614232E+02  0.7816164E-02  0.1320468E+00
        -11   -1    0    0    0    0  0.00000000000E+00  0.00000000000E+00  0.45593999997E+02  0.45594000000E+02  0.51100000000E-03 0. -1.
         11   -1    0    0    0    0 -0.00000000000E+00 -0.00000000000E+00 -0.45593999997E+02  0.45594000000E+02  0.51100000000E-03 0.  1.
    9900012    2    1    2    0    0  0.43739311068E+02  0.10754879974E+02 -0.56459885953E+00  0.46142317101E+02  0.99999939839E+01 0.  0.
        -12    1    1    2    0    0 -0.43739311068E+02 -0.10754879974E+02  0.56459885953E+00  0.45045682899E+02  0.00000000000E+00 0.  1.
         11    1    3    3    0    0  0.10684725383E+02  0.43871755786E+01  0.27938487280E+01  0.11883444663E+02  0.51100000000E-03 0. -1.
        -11    1    3    3    0    0  0.37696600103E+01  0.13619188229E+01 -0.20943219525E+01  0.45223162401E+01  0.51100000000E-03 0.  1.
         12    1    3    3    0    0  0.29284925674E+02  0.50057855725E+01 -0.12641256350E+01  0.29736556199E+02  0.00000000000E+00 0. -1.
</event>
<event>
 7    1  0.5664398E-009  0.4614232E+02  0.7816164E-02  0.1320468E+00
        -11   -1    0    0    0    0  0.00000000000E+00  0.00000000000E+00  0.45593999997E+02  0.45594000000E+02  0.51100000000E-03 0. -1.
         11   -1    0    0    0    0 -0.00000000000E+00 -0.00000000000E+00 -0.45593999997E+02  0.45594000000E+02  0.51100000000E-03 0.  1.
    9900012    2    1    2    0    0  0.27949959452E+02  0.34347763031E+02  0.82549724972E+01  0.46142316194E+02  0.99999857099E+01 0.  0.
        -12    1    1    2    0    0 -0.27949959452E+02 -0.34347763031E+02 -0.82549724972E+01  0.45045683806E+02  0.00000000000E+00 0.  1.
         11    1    3    3    0    0  0.91771616322E+01  0.67201280695E+01  0.10566898052E+01  0.11423528811E+02  0.51100000000E-03 0. -1.
        -11    1    3    3    0    0  0.16562249711E+02  0.23925056699E+02  0.40484973020E+01  0.29378679075E+02  0.51100000000E-03 0.  1.
        -12    1    3    3    0    0  0.22105481082E+01  0.37025782630E+01  0.31497853900E+01  0.53401083075E+01  0.00000000000E+00 0.  1.
</event>
<event>
 7    1  0.5664398E-009  0.4614232E+02  0.7816164E-02  0.1320468E+00
        -11   -1    0    0    0    0  0.00000000000E+00  0.00000000000E+00  0.45593999997E+02  0.45594000000E+02  0.51100000000E-03 0.  1.
         11   -1    0    0    0    0 -0.00000000000E+00 -0.00000000000E+00 -0.45593999997E+02  0.45594000000E+02  0.51100000000E-03 0. -1.
    9900012    2    1    2    0    0  0.44655835378E+02  0.58562018237E+01  0.82119991367E+00  0.46142322045E+02  0.10000039066E+02 0.  0.
        -12    1    1    2    0    0 -0.44655835378E+02 -0.58562018237E+01 -0.82119991367E+00  0.45045677955E+02  0.00000000000E+00 0.  1.
         11    1    3    3    0    0  0.35212015520E+02  0.29820749201E+01  0.27913845678E+01  0.35448140091E+02  0.51100000000E-03 0. -1.
        -11    1    3    3    0    0  0.52971795350E+01 -0.11168665985E+00 -0.17492308214E+01  0.55796409978E+01  0.51100000000E-03 0.  1.
         12    1    3    3    0    0  0.41466403227E+01  0.29858135635E+01 -0.22095383265E+00  0.51145409567E+01  0.00000000000E+00 0. -1.
</event>
<event>
 7    1  0.5664398E-009  0.4614232E+02  0.7816164E-02  0.1320468E+00
        -11   -1    0    0    0    0  0.00000000000E+00  0.00000000000E+00  0.45593999997E+02  0.45594000000E+02  0.51100000000E-03 0. -1.
         11   -1    0    0    0    0 -0.00000000000E+00 -0.00000000000E+00 -0.45593999997E+02  0.45594000000E+02  0.51100000000E-03 0.  1.
    9900012    2    1    2    0    0 -0.24645310205E+02 -0.16246759623E+02 -0.34025945700E+02  0.46142317697E+02  0.99999994180E+01 0.  0.
         12    1    1    2    0    0  0.24645310205E+02  0.16246759623E+02  0.34025945700E+02  0.45045682303E+02  0.00000000000E+00 0. -1.
         11    1    3    3    0    0 -0.80732590889E+01 -0.75254589347E+01 -0.17576435305E+02  0.20754303717E+02  0.51100000000E-03 0. -1.
        -11    1    3    3    0    0 -0.44367783332E+01 -0.23093356313E+01 -0.74578515207E+01  0.89798431279E+01  0.51100000000E-03 0.  1.
        -12    1    3    3    0    0 -0.12135272783E+02 -0.64119650570E+01 -0.89916588744E+01  0.16408170852E+02  0.00000000000E+00 0.  1.
</event>
<event>
 7    1  0.5664398E-009  0.4614232E+02  0.7816164E-02  0.1320468E+00
        -11   -1    0    0    0    0  0.00000000000E+00  0.00000000000E+00  0.45593999997E+02  0.45594000000E+02  0.51100000000E-03 0. -1.
         11   -1    0    0    0    0 -0.00000000000E+00 -0.00000000000E+00 -0.45593999997E+02  0.45594000000E+02  0.51100000000E-03 0.  1.
    9900012    2    1    2    0    0  0.26594006322E+02 -0.44605132766E+00 -0.36354825090E+02  0.46142318283E+02  0.10000004755E+02 0.  0.
         12    1    1    2    0    0 -0.26594006322E+02  0.44605132766E+00  0.36354825090E+02  0.45045681717E+02  0.00000000000E+00 0. -1.
         11    1    3    3    0    0  0.19859899276E+02  0.42950301300E+00 -0.26024489628E+02  0.32739488890E+02  0.51100000000E-03 0. -1.
        -11    1    3    3    0    0  0.62559760881E+01  0.65580296601E+00 -0.99211683615E+01  0.11747208020E+02  0.51100000000E-03 0.  1.
         12    1    3    3    0    0  0.47813095753E+00 -0.15313573067E+01 -0.40916710059E+00  0.16556213726E+01  0.00000000000E+00 0. -1.
</event>
<event>
 7    1  0.5664398E-009  0.4614232E+02  0.7816164E-02  0.1320468E+00
        -11   -1    0    0    0    0  0.00000000000E+00  0.00000000000E+00  0.45593999997E+02  0.45594000000E+02  0.51100000000E-03 0. -1.
         11   -1    0    0    0    0 -0.00000000000E+00 -0.00000000000E+00 -0.45593999997E+02  0.45594000000E+02  0.51100000000E-03 0.  1.
    9900012    2    1    2    0    0 -0.51645901953E+01 -0.22035724125E+02  0.38946981186E+02  0.46142317930E+02  0.10000001544E+02 0.  0.
        -12    1    1    2    0    0  0.51645901953E+01  0.22035724125E+02 -0.38946981186E+02  0.45045682070E+02  0.00000000000E+00 0.  1.
         11    1    3    3    0    0 -0.15232095918E+01 -0.20037479469E+02  0.31852017351E+02  0.37661276672E+02  0.51100000000E-03 0. -1.
        -11    1    3    3    0    0 -0.25341991536E+01 -0.23407256825E+01  0.57513863483E+01  0.67066837751E+01  0.51100000000E-03 0.  1.
        -12    1    3    3    0    0 -0.11071814498E+01  0.34248102702E+00  0.13435774870E+01  0.17743574838E+01  0.00000000000E+00 0.  1.
</event>
<event>
 7    1  0.5664398E-009  0.4614232E+02  0.7816164E-02  0.1320468E+00
        -11   -1    0    0    0    0  0.00000000000E+00  0.00000000000E+00  0.45593999997E+02  0.45594000000E+02  0.51100000000E-03 0. -1.
         11   -1    0    0    0    0 -0.00000000000E+00 -0.00000000000E+00 -0.45593999997E+02  0.45594000000E+02  0.51100000000E-03 0.  1.
    9900012    2    1    2    0    0 -0.16084472720E+02  0.34694719180E+02  0.23805036659E+02  0.46142316833E+02  0.99999915335E+01 0.  0.
        -12    1    1    2    0    0  0.16084472720E+02 -0.34694719180E+02 -0.23805036659E+02  0.45045683167E+02  0.00000000000E+00 0.  1.
         11    1    3    3    0    0 -0.71350886304E+01  0.12496871782E+02  0.10593581809E+02  0.17869114972E+02  0.51100000000E-03 0. -1.
        -11    1    3    3    0    0 -0.88601948047E+01  0.17067034265E+02  0.76218091882E+01  0.20685228694E+02  0.51100000000E-03 0.  1.
        -12    1    3    3    0    0 -0.89189284764E-01  0.51308131338E+01  0.55896456616E+01  0.75879731658E+01  0.00000000000E+00 0.  1.
</event>
<event>
 7    1  0.5664398E-009  0.4614232E+02  0.7816164E-02  0.1320468E+00
        -11   -1    0    0    0    0  0.00000000000E+00  0.00000000000E+00  0.45593999997E+02  0.45594000000E+02  0.51100000000E-03 0. -1.
         11   -1    0    0    0    0 -0.00000000000E+00 -0.00000000000E+00 -0.45593999997E+02  0.45594000000E+02  0.51100000000E-03 0.  1.
    9900012    2    1    2    0    0  0.36176995789E+02  0.40776565409E+01 -0.26527555116E+02  0.46142317769E+02  0.10000000072E+02 0.  0.
         12    1    1    2    0    0 -0.36176995789E+02 -0.40776565409E+01  0.26527555116E+02  0.45045682231E+02  0.00000000000E+00 0. -1.
         11    1    3    3    0    0  0.18049539649E+01 -0.30777237799E+00 -0.43464616622E+01  0.47163875895E+01  0.51100000000E-03 0. -1.
        -11    1    3    3    0    0  0.24216409551E+02  0.24836100616E+01 -0.18019922946E+02  0.30287298224E+02  0.51100000000E-03 0.  1.
         12    1    3    3    0    0  0.10155632273E+02  0.19018188574E+01 -0.41611705081E+01  0.11138631955E+02  0.00000000000E+00 0. -1.
</event>
<event>
 7    1  0.5664398E-009  0.4614232E+02  0.7816164E-02  0.1320468E+00
        -11   -1    0    0    0    0  0.00000000000E+00  0.00000000000E+00  0.45593999997E+02  0.45594000000E+02  0.51100000000E-03 0. -1.
         11   -1    0    0    0    0 -0.00000000000E+00 -0.00000000000E+00 -0.45593999997E+02  0.45594000000E+02  0.51100000000E-03 0.  1.
    9900012    2    1    2    0    0 -0.78994179751E+01 -0.12559518360E+02  0.42532001611E+02  0.46142318000E+02  0.10000002178E+02 0.  0.
        -12    1    1    2    0    0  0.78994179751E+01  0.12559518360E+02 -0.42532001611E+02  0.45045682000E+02  0.00000000000E+00 0.  1.
         11    1    3    3    0    0 -0.55297260007E+01 -0.60053175768E+01  0.14481877769E+02  0.16624274204E+02  0.51100000000E-03 0. -1.
        -11    1    3    3    0    0 -0.10313829451E+01  0.73882356712E+00  0.15654577002E+01  0.20150109467E+01  0.51100000000E-03 0.  1.
        -12    1    3    3    0    0 -0.13383090293E+01 -0.72930243506E+01  0.26484666142E+02  0.27503032849E+02  0.00000000000E+00 0.  1.
</event>
<event>
 7    1  0.5664398E-009  0.4614232E+02  0.7816164E-02  0.1320468E+00
        -11   -1    0    0    0    0  0.00000000000E+00  0.00000000000E+00  0.45593999997E+02  0.45594000000E+02  0.51100000000E-03 0. -1.
         11   -1    0    0    0    0 -0.00000000000E+00 -0.00000000000E+00 -0.45593999997E+02  0.45594000000E+02  0.51100000000E-03 0.  1.
    9900012    2    1    2    0    0 -0.15195834781E+02  0.19713792876E+02 -0.37544193252E+02  0.46142317952E+02  0.10000001737E+02 0.  0.
         12    1    1    2    0    0  0.15195834781E+02 -0.19713792876E+02  0.37544193252E+02  0.45045682048E+02  0.00000000000E+00 0. -1.
         11    1    3    3    0    0 -0.10394986220E+01  0.23293286699E+01 -0.48659390673E+01  0.54939687572E+01  0.51100000000E-03 0. -1.
        -11    1    3    3    0    0 -0.99440469720E+01  0.14365252201E+02 -0.30232329451E+02  0.34917592776E+02  0.51100000000E-03 0.  1.
         12    1    3    3    0    0 -0.42122891869E+01  0.30192120045E+01 -0.24459247343E+01  0.57307564185E+01  0.00000000000E+00 0. -1.
</event>
<event>
 7    1  0.5664398E-009  0.4614232E+02  0.7816164E-02  0.1320468E+00
        -11   -1    0    0    0    0  0.00000000000E+00  0.00000000000E+00  0.45593999997E+02  0.45594000000E+02  0.51100000000E-03 0. -1.
         11   -1    0    0    0    0 -0.00000000000E+00 -0.00000000000E+00 -0.45593999997E+02  0.45594000000E+02  0.51100000000E-03 0.  1.
    9900012    2    1    2    0    0  0.17539683625E+02  0.32963511486E+02 -0.25196824350E+02  0.46142317094E+02  0.99999939169E+01 0.  0.
         12    1    1    2    0    0 -0.17539683625E+02 -0.32963511486E+02  0.25196824350E+02  0.45045682906E+02  0.00000000000E+00 0. -1.
         11    1    3    3    0    0  0.51639809418E+01  0.52981679519E+01 -0.44184048224E+01  0.86174000865E+01  0.51100000000E-03 0. -1.
        -11    1    3    3    0    0  0.12984628111E+02  0.22005217578E+02 -0.17213753973E+02  0.30808172519E+02  0.51100000000E-03 0.  1.
         12    1    3    3    0    0 -0.60892542777E+00  0.56601259559E+01 -0.35646655549E+01  0.67167444890E+01  0.00000000000E+00 0. -1.
</event>
<event>
 7    1  0.5664398E-009  0.4614232E+02  0.7816164E-02  0.1320468E+00
        -11   -1    0    0    0    0  0.00000000000E+00  0.00000000000E+00  0.45593999997E+02  0.45594000000E+02  0.51100000000E-03 0. -1.
         11   -1    0    0    0    0 -0.00000000000E+00 -0.00000000000E+00 -0.45593999997E+02  0.45594000000E+02  0.51100000000E-03 0.  1.
    9900012    2    1    2    0    0  0.35069230848E+02  0.23857524599E+02  0.15168417377E+02  0.46142319652E+02  0.10000017242E+02 0.  0.
        -12    1    1    2    0    0 -0.35069230848E+02 -0.23857524599E+02 -0.15168417377E+02  0.45045680348E+02  0.00000000000E+00 0.  1.
         11    1    3    3    0    0  0.23875727377E+02  0.12323182529E+02  0.61657448450E+01  0.27566784274E+02  0.51100000000E-03 0. -1.
        -11    1    3    3    0    0  0.25829151013E+01  0.20174119283E+01  0.28481330715E+01  0.43420344958E+01  0.51100000000E-03 0.  1.
         12    1    3    3    0    0  0.86105883696E+01  0.95169301420E+01  0.61545394604E+01  0.14233500882E+02  0.00000000000E+00 0. -1.
</event>
<event>
 7    1  0.5664398E-009  0.4614232E+02  0.7816164E-02  0.1320468E+00
        -11   -1    0    0    0    0  0.00000000000E+00  0.00000000000E+00  0.45593999997E+02  0.45594000000E+02  0.51100000000E-03 0.  1.
         11   -1    0    0    0    0 -0.00000000000E+00 -0.00000000000E+00 -0.45593999997E+02  0.45594000000E+02  0.51100000000E-03 0. -1.
    9900012    2    1    2    0    0 -0.33854928259E+02 -0.25228050630E+02  0.15700402118E+02  0.46142319489E+02  0.10000015760E+02 0.  0.
        -12    1    1    2    0    0  0.33854928259E+02  0.25228050630E+02 -0.15700402118E+02  0.45045680511E+02  0.00000000000E+00 0.  1.
         11    1    3    3    0    0 -0.44752089387E+01 -0.25007411502E+01  0.14802485463E+01  0.53359476539E+01  0.51100000000E-03 0. -1.
        -11    1    3    3    0    0 -0.23292407430E+02 -0.13239754904E+02  0.81557483169E+01  0.28006134768E+02  0.51100000000E-03 0.  1.
        -12    1    3    3    0    0 -0.60873118903E+01 -0.94875545762E+01  0.60644052546E+01  0.12800237067E+02  0.00000000000E+00 0.  1.
</event>
<event>
 7    1  0.5664398E-009  0.4614232E+02  0.7816164E-02  0.1320468E+00
        -11   -1    0    0    0    0  0.00000000000E+00  0.00000000000E+00  0.45593999997E+02  0.45594000000E+02  0.51100000000E-03 0. -1.
         11   -1    0    0    0    0 -0.00000000000E+00 -0.00000000000E+00 -0.45593999997E+02  0.45594000000E+02  0.51100000000E-03 0.  1.
    9900012    2    1    2    0    0 -0.19719562590E+02 -0.30852540210E+01 -0.40382343091E+02  0.46142316803E+02  0.99999912631E+01 0.  0.
         12    1    1    2    0    0  0.19719562590E+02  0.30852540210E+01  0.40382343091E+02  0.45045683197E+02  0.00000000000E+00 0. -1.
         11    1    3    3    0    0 -0.69956698201E+01  0.10448447440E+01 -0.91912755269E+01  0.11597872341E+02  0.51100000000E-03 0. -1.
        -11    1    3    3    0    0 -0.64818328038E+01 -0.45686773434E+00 -0.21406319863E+02  0.22370816144E+02  0.51100000000E-03 0.  1.
        -12    1    3    3    0    0 -0.62420599666E+01 -0.36732310306E+01 -0.97847477017E+01  0.12173628318E+02  0.00000000000E+00 0.  1.
</event>
<event>
 7    1  0.5664398E-009  0.4614232E+02  0.7816164E-02  0.1320468E+00
        -11   -1    0    0    0    0  0.00000000000E+00  0.00000000000E+00  0.45593999997E+02  0.45594000000E+02  0.51100000000E-03 0. -1.
         11   -1    0    0    0    0 -0.00000000000E+00 -0.00000000000E+00 -0.45593999997E+02  0.45594000000E+02  0.51100000000E-03 0.  1.
    9900012    2    1    2    0    0 -0.79511480697E+01 -0.84621241601E+00 -0.44330313337E+02  0.46142317503E+02  0.99999976457E+01 0.  0.
         12    1    1    2    0    0  0.79511480697E+01  0.84621241601E+00  0.44330313337E+02  0.45045682497E+02  0.00000000000E+00 0. -1.
         11    1    3    3    0    0 -0.25479716007E+01  0.24798049891E+01 -0.78419085675E+01  0.86102916503E+01  0.51100000000E-03 0.  1.
        -11    1    3    3    0    0 -0.49294866836E+01  0.23594526902E+00 -0.16463303360E+02  0.17187084305E+02  0.51100000000E-03 0. -1.
        -12    1    3    3    0    0 -0.47368978538E+00 -0.35619626741E+01 -0.20025101410E+02  0.20344941548E+02  0.00000000000E+00 0.  1.
</event>
<event>
 7    1  0.5664398E-009  0.4614231E+02  0.7816164E-02  0.1320468E+00
        -11   -1    0    0    0    0  0.00000000000E+00  0.00000000000E+00  0.45593999997E+02  0.45594000000E+02  0.51100000000E-03 0. -1.
         11   -1    0    0    0    0 -0.00000000000E+00 -0.00000000000E+00 -0.45593999997E+02  0.45594000000E+02  0.51100000000E-03 0.  1.
    9900012    2    1    2    0    0  0.19375850131E+02 -0.14249329032E+02 -0.38087359486E+02  0.46142313205E+02  0.99999584576E+01 0.  0.
         12    1    1    2    0    0 -0.19375850131E+02  0.14249329032E+02  0.38087359486E+02  0.45045686795E+02  0.00000000000E+00 0. -1.
         11    1    3    3    0    0  0.44152261962E+01 -0.15071757956E+01 -0.72525900375E+01  0.86235644461E+01  0.51100000000E-03 0. -1.
        -11    1    3    3    0    0  0.14335775502E+02 -0.84723345800E+01 -0.27122138241E+02  0.31826173120E+02  0.51100000000E-03 0.  1.
        -12    1    3    3    0    0  0.62484843314E+00 -0.42698186559E+01 -0.37126312081E+01  0.56925756390E+01  0.00000000000E+00 0.  1.
</event>
<event>
 7    1  0.5664398E-009  0.4614232E+02  0.7816164E-02  0.1320468E+00
        -11   -1    0    0    0    0  0.00000000000E+00  0.00000000000E+00  0.45593999997E+02  0.45594000000E+02  0.51100000000E-03 0. -1.
         11   -1    0    0    0    0 -0.00000000000E+00 -0.00000000000E+00 -0.45593999997E+02  0.45594000000E+02  0.51100000000E-03 0.  1.
    9900012    2    1    2    0    0 -0.17111123939E+02  0.54862438459E+01  0.41306457315E+02  0.46142324848E+02  0.10000064626E+02 0.  0.
        -12    1    1    2    0    0  0.17111123939E+02 -0.54862438459E+01 -0.41306457315E+02  0.45045675152E+02  0.00000000000E+00 0.  1.
         11    1    3    3    0    0  0.84346617506E+00  0.72871640766E+00  0.59473554899E+01  0.60509090537E+01  0.51100000000E-03 0. -1.
        -11    1    3    3    0    0 -0.24653683011E+00 -0.67515413715E-01  0.32939746750E-02  0.25563616935E+00  0.51100000000E-03 0.  1.
         12    1    3    3    0    0 -0.17708053283E+02  0.48250428519E+01  0.35355807850E+02  0.39835779625E+02  0.00000000000E+00 0. -1.
</event>
<event>
 7    1  0.5664398E-009  0.4614232E+02  0.7816164E-02  0.1320468E+00
        -11   -1    0    0    0    0  0.00000000000E+00  0.00000000000E+00  0.45593999997E+02  0.45594000000E+02  0.51100000000E-03 0. -1.
         11   -1    0    0    0    0 -0.00000000000E+00 -0.00000000000E+00 -0.45593999997E+02  0.45594000000E+02  0.51100000000E-03 0.  1.
    9900012    2    1    2    0    0 -0.25146165304E+02  0.36856223972E+02  0.61969851380E+01  0.46142317635E+02  0.99999988458E+01 0.  0.
         12    1    1    2    0    0  0.25146165304E+02 -0.36856223972E+02 -0.61969851380E+01  0.45045682365E+02  0.00000000000E+00 0. -1.
         11    1    3    3    0    0 -0.22323887391E+00 -0.17116424997E+00  0.94002745042E-01  0.29659664949E+00  0.51100000000E-03 0. -1.
        -11    1    3    3    0    0 -0.45116820482E+01  0.31550459999E+01 -0.11886237972E+01  0.56322657037E+01  0.51100000000E-03 0.  1.
        -12    1    3    3    0    0 -0.20411244382E+02  0.33872342222E+02  0.72916061902E+01  0.40213455281E+02  0.00000000000E+00 0.  1.
</event>
<event>
 7    1  0.5664398E-009  0.4614232E+02  0.7816164E-02  0.1320468E+00
        -11   -1    0    0    0    0  0.00000000000E+00  0.00000000000E+00  0.45593999997E+02  0.45594000000E+02  0.51100000000E-03 0. -1.
         11   -1    0    0    0    0 -0.00000000000E+00 -0.00000000000E+00 -0.45593999997E+02  0.45594000000E+02  0.51100000000E-03 0.  1.
    9900012    2    1    2    0    0  0.24722020409E+02 -0.17892966285E+02 -0.33132716819E+02  0.46142318083E+02  0.10000002932E+02 0.  0.
         12    1    1    2    0    0 -0.24722020409E+02  0.17892966285E+02  0.33132716819E+02  0.45045681917E+02  0.00000000000E+00 0. -1.
         11    1    3    3    0    0  0.54393134634E+01 -0.49648791590E+01 -0.39413387378E+01  0.83528622234E+01  0.51100000000E-03 0.  1.
        -11    1    3    3    0    0  0.10471734939E+02 -0.10156615252E+02 -0.20036766140E+02  0.24784795009E+02  0.51100000000E-03 0. -1.
         12    1    3    3    0    0  0.88109720059E+01 -0.27714718747E+01 -0.91546119412E+01  0.13004660850E+02  0.00000000000E+00 0. -1.
</event>
<event>
 7    1  0.5664398E-009  0.4614232E+02  0.7816164E-02  0.1320468E+00
        -11   -1    0    0    0    0  0.00000000000E+00  0.00000000000E+00  0.45593999997E+02  0.45594000000E+02  0.51100000000E-03 0. -1.
         11   -1    0    0    0    0 -0.00000000000E+00 -0.00000000000E+00 -0.45593999997E+02  0.45594000000E+02  0.51100000000E-03 0.  1.
    9900012    2    1    2    0    0 -0.13014180496E+02  0.34588578476E+02 -0.25756062761E+02  0.46142318477E+02  0.10000006526E+02 0.  0.
         12    1    1    2    0    0  0.13014180496E+02 -0.34588578476E+02  0.25756062761E+02  0.45045681523E+02  0.00000000000E+00 0. -1.
         11    1    3    3    0    0 -0.28645097527E+01  0.37373375488E+01 -0.62105440934E+01  0.77938415608E+01  0.51100000000E-03 0. -1.
        -11    1    3    3    0    0 -0.96924528472E+01  0.25817643807E+02 -0.18441342363E+02  0.33174952635E+02  0.51100000000E-03 0.  1.
         12    1    3    3    0    0 -0.45721789572E+00  0.50335971202E+01 -0.11041763044E+01  0.51735242808E+01  0.00000000000E+00 0. -1.
</event>
<event>
 7    1  0.5664398E-009  0.4614232E+02  0.7816164E-02  0.1320468E+00
        -11   -1    0    0    0    0  0.00000000000E+00  0.00000000000E+00  0.45593999997E+02  0.45594000000E+02  0.51100000000E-03 0. -1.
         11   -1    0    0    0    0 -0.00000000000E+00 -0.00000000000E+00 -0.45593999997E+02  0.45594000000E+02  0.51100000000E-03 0.  1.
    9900012    2    1    2    0    0  0.28060890211E+01 -0.10002947899E+02  0.43831272497E+02  0.46142317067E+02  0.99999936663E+01 0.  0.
        -12    1    1    2    0    0 -0.28060890211E+01  0.10002947899E+02 -0.43831272497E+02  0.45045682933E+02  0.00000000000E+00 0.  1.
         11    1    3    3    0    0 -0.24059965318E+01 -0.58783268276E+01  0.15425459186E+02  0.16681976411E+02  0.51100000000E-03 0. -1.
        -11    1    3    3    0    0  0.11587633662E+01  0.54732170546E+00  0.90504705196E+01  0.91407499952E+01  0.51100000000E-03 0.  1.
         12    1    3    3    0    0  0.40533221867E+01 -0.46719427764E+01  0.19355342791E+02  0.20319590661E+02  0.00000000000E+00 0. -1.
</event>
<event>
 7    1  0.5664398E-009  0.4614232E+02  0.7816164E-02  0.1320468E+00
        -11   -1    0    0    0    0  0.00000000000E+00  0.00000000000E+00  0.45593999997E+02  0.45594000000E+02  0.51100000000E-03 0. -1.
         11   -1    0    0    0    0 -0.00000000000E+00 -0.00000000000E+00 -0.45593999997E+02  0.45594000000E+02  0.51100000000E-03 0.  1.
    9900012    2    1    2    0    0  0.22010233527E+02 -0.25765838333E+02  0.29678016092E+02  0.46142318253E+02  0.10000004485E+02 0.  0.
        -12    1    1    2    0    0 -0.22010233527E+02  0.25765838333E+02 -0.29678016092E+02  0.45045681747E+02  0.00000000000E+00 0.  1.
         11    1    3    3    0    0  0.45509498668E+01 -0.11783574496E+01  0.61960335745E+01  0.77775640972E+01  0.51100000000E-03 0. -1.
        -11    1    3    3    0    0  0.42657553382E+01 -0.73980450363E+01  0.50817495871E+01  0.99373999664E+01  0.51100000000E-03 0.  1.
        -12    1    3    3    0    0  0.13193528322E+02 -0.17189435847E+02  0.18400232930E+02  0.28427354189E+02  0.00000000000E+00 0.  1.
</event>
<event>
 7    1  0.5664398E-009  0.4614232E+02  0.7816164E-02  0.1320468E+00
        -11   -1    0    0    0    0  0.00000000000E+00  0.00000000000E+00  0.45593999997E+02  0.45594000000E+02  0.51100000000E-03 0. -1.
         11   -1    0    0    0    0 -0.00000000000E+00 -0.00000000000E+00 -0.45593999997E+02  0.45594000000E+02  0.51100000000E-03 0.  1.
    9900012    2    1    2    0    0 -0.14545874657E+02 -0.16158844844E+02 -0.39451523059E+02  0.46142318654E+02  0.10000008146E+02 0.  0.
         12    1    1    2    0    0  0.14545874657E+02  0.16158844844E+02  0.39451523059E+02  0.45045681346E+02  0.00000000000E+00 0. -1.
         11    1    3    3    0    0  0.68328292118E+00 -0.58648902117E+00 -0.14313075200E+01  0.16910015968E+01  0.51100000000E-03 0. -1.
        -11    1    3    3    0    0 -0.16458064114E+01  0.73467076995E+00 -0.32170330677E+01  0.36875089022E+01  0.51100000000E-03 0.  1.
         12    1    3    3    0    0 -0.13583351167E+02 -0.16307026593E+02 -0.34803182471E+02  0.40763808155E+02  0.00000000000E+00 0. -1.
</event>
<event>
 7    1  0.5664398E-009  0.4614232E+02  0.7816164E-02  0.1320468E+00
        -11   -1    0    0    0    0  0.00000000000E+00  0.00000000000E+00  0.45593999997E+02  0.45594000000E+02  0.51100000000E-03 0. -1.
         11   -1    0    0    0    0 -0.00000000000E+00 -0.00000000000E+00 -0.45593999997E+02  0.45594000000E+02  0.51100000000E-03 0.  1.
    9900012    2    1    2    0    0  0.94173727676E+01 -0.29183098342E+02 -0.32996568053E+02  0.46142316056E+02  0.99999844509E+01 0.  0.
         12    1    1    2    0    0 -0.94173727676E+01  0.29183098342E+02  0.32996568053E+02  0.45045683944E+02  0.00000000000E+00 0. -1.
         11    1    3    3    0    0  0.61732107396E+01 -0.84600983163E+01 -0.10293819047E+02  0.14684839297E+02  0.51100000000E-03 0. -1.
        -11    1    3    3    0    0  0.39772613157E+01 -0.16834025517E+02 -0.20840488464E+02  0.27083740184E+02  0.51100000000E-03 0.  1.
         12    1    3    3    0    0 -0.73309928773E+00 -0.38889745087E+01 -0.18622605426E+01  0.43737365745E+01  0.00000000000E+00 0. -1.
</event>
<event>
 7    1  0.5664398E-009  0.4614232E+02  0.7816164E-02  0.1320468E+00
        -11   -1    0    0    0    0  0.00000000000E+00  0.00000000000E+00  0.45593999997E+02  0.45594000000E+02  0.51100000000E-03 0. -1.
         11   -1    0    0    0    0 -0.00000000000E+00 -0.00000000000E+00 -0.45593999997E+02  0.45594000000E+02  0.51100000000E-03 0.  1.
    9900012    2    1    2    0    0  0.28661689179E+02 -0.89055301019E+01  0.33590363152E+02  0.46142318857E+02  0.10000009992E+02 0.  0.
        -12    1    1    2    0    0 -0.28661689179E+02  0.89055301019E+01 -0.33590363152E+02  0.45045681143E+02  0.00000000000E+00 0.  1.
         11    1    3    3    0    0  0.22369463273E+02 -0.60347185365E+01  0.21645616103E+02  0.31707150797E+02  0.51100000000E-03 0. -1.
        -11    1    3    3    0    0  0.20975647248E-01  0.81494648918E+00  0.14963894461E+01  0.17040420750E+01  0.51100000000E-03 0.  1.
         12    1    3    3    0    0  0.62712502588E+01 -0.36857580546E+01  0.10448357603E+02  0.12731125985E+02  0.00000000000E+00 0. -1.
</event>
<event>
 7    1  0.5664398E-009  0.4614232E+02  0.7816164E-02  0.1320468E+00
        -11   -1    0    0    0    0  0.00000000000E+00  0.00000000000E+00  0.45593999997E+02  0.45594000000E+02  0.51100000000E-03 0.  1.
         11   -1    0    0    0    0 -0.00000000000E+00 -0.00000000000E+00 -0.45593999997E+02  0.45594000000E+02  0.51100000000E-03 0. -1.
    9900012    2    1    2    0    0 -0.28440778406E+02  0.33881687699E+02  0.85009817347E+01  0.46142319540E+02  0.10000016223E+02 0.  0.
        -12    1    1    2    0    0  0.28440778406E+02 -0.33881687699E+02 -0.85009817347E+01  0.45045680460E+02  0.00000000000E+00 0.  1.
         11    1    3    3    0    0  0.43166569492E+00  0.20656084270E+01 -0.13852775540E+00  0.21147727173E+01  0.51100000000E-03 0. -1.
        -11    1    3    3    0    0 -0.20141021112E+02  0.19290669379E+02  0.61235085282E+01  0.28553248737E+02  0.51100000000E-03 0.  1.
         12    1    3    3    0    0 -0.87314229888E+01  0.12525409893E+02  0.25160009619E+01  0.15474298086E+02  0.00000000000E+00 0. -1.
</event>
<event>
 7    1  0.5664398E-009  0.4614232E+02  0.7816164E-02  0.1320468E+00
        -11   -1    0    0    0    0  0.00000000000E+00  0.00000000000E+00  0.45593999997E+02  0.45594000000E+02  0.51100000000E-03 0. -1.
         11   -1    0    0    0    0 -0.00000000000E+00 -0.00000000000E+00 -0.45593999997E+02  0.45594000000E+02  0.51100000000E-03 0.  1.
    9900012    2    1    2    0    0 -0.23362905857E+02 -0.17655417478E+02 -0.34228267577E+02  0.46142318323E+02  0.10000005125E+02 0.  0.
         12    1    1    2    0    0  0.23362905857E+02  0.17655417478E+02  0.34228267577E+02  0.45045681677E+02  0.00000000000E+00 0. -1.
         11    1    3    3    0    0 -0.19554109415E+02 -0.13354849517E+02 -0.26347723914E+02  0.35424818367E+02  0.51100000000E-03 0. -1.
        -11    1    3    3    0    0 -0.14809917678E+01  0.73496168652E-01 -0.44509641766E+01  0.46914625295E+01  0.51100000000E-03 0.  1.
         12    1    3    3    0    0 -0.23278046745E+01 -0.43740641294E+01 -0.34295794864E+01  0.60260374264E+01  0.00000000000E+00 0. -1.
</event>
<event>
 7    1  0.5664398E-009  0.4614232E+02  0.7816164E-02  0.1320468E+00
        -11   -1    0    0    0    0  0.00000000000E+00  0.00000000000E+00  0.45593999997E+02  0.45594000000E+02  0.51100000000E-03 0. -1.
         11   -1    0    0    0    0 -0.00000000000E+00 -0.00000000000E+00 -0.45593999997E+02  0.45594000000E+02  0.51100000000E-03 0.  1.
    9900012    2    1    2    0    0  0.11446587537E+02 -0.22840206542E+02 -0.37100055973E+02  0.46142317029E+02  0.99999933200E+01 0.  0.
         12    1    1    2    0    0 -0.11446587537E+02  0.22840206542E+02  0.37100055973E+02  0.45045682971E+02  0.00000000000E+00 0. -1.
         11    1    3    3    0    0  0.69676610147E+01 -0.88478368354E+01 -0.20941553261E+02  0.23777745266E+02  0.51100000000E-03 0. -1.
        -11    1    3    3    0    0  0.42704653786E+00 -0.24761853205E+00 -0.25686269861E+01  0.26156315753E+01  0.51100000000E-03 0.  1.
        -12    1    3    3    0    0  0.40518799846E+01 -0.13744751175E+02 -0.13589875726E+02  0.19748940187E+02  0.00000000000E+00 0.  1.
</event>
<event>
 7    1  0.5664398E-009  0.4614232E+02  0.7816164E-02  0.1320468E+00
        -11   -1    0    0    0    0  0.00000000000E+00  0.00000000000E+00  0.45593999997E+02  0.45594000000E+02  0.51100000000E-03 0. -1.
         11   -1    0    0    0    0 -0.00000000000E+00 -0.00000000000E+00 -0.45593999997E+02  0.45594000000E+02  0.51100000000E-03 0.  1.
    9900012    2    1    2    0    0 -0.13514375724E+02  0.93975558321E+01 -0.41930433274E+02  0.46142316062E+02  0.99999845103E+01 0.  0.
         12    1    1    2    0    0  0.13514375724E+02 -0.93975558321E+01  0.41930433274E+02  0.45045683938E+02  0.00000000000E+00 0. -1.
         11    1    3    3    0    0 -0.10458638355E+01  0.17528291194E+00 -0.79669102742E+01  0.80371770442E+01  0.51100000000E-03 0. -1.
        -11    1    3    3    0    0 -0.36688254829E+01  0.71287118240E+01 -0.13000508554E+02  0.15273900471E+02  0.51100000000E-03 0.  1.
        -12    1    3    3    0    0 -0.87996864061E+01  0.20935610961E+01 -0.20963014446E+02  0.22831238547E+02  0.00000000000E+00 0.  1.
</event>
<event>
 7    1  0.5664398E-009  0.4614231E+02  0.7816164E-02  0.1320468E+00
        -11   -1    0    0    0    0  0.00000000000E+00  0.00000000000E+00  0.45593999997E+02  0.45594000000E+02  0.51100000000E-03 0. -1.
         11   -1    0    0    0    0 -0.00000000000E+00 -0.00000000000E+00 -0.45593999997E+02  0.45594000000E+02  0.51100000000E-03 0.  1.
    9900012    2    1    2    0    0 -0.44776882754E+02 -0.31672193984E+01 -0.37567850541E+01  0.46142312728E+02  0.99999541066E+01 0.  0.
         12    1    1    2    0    0  0.44776882754E+02  0.31672193984E+01  0.37567850541E+01  0.45045687272E+02  0.00000000000E+00 0. -1.
         11    1    3    3    0    0 -0.20231456360E+02 -0.35617092496E+01 -0.51291858936E+00  0.20548982577E+02  0.51100000000E-03 0. -1.
        -11    1    3    3    0    0 -0.20650248827E+02  0.82153296099E+00 -0.26025965451E+00  0.20668222671E+02  0.51100000000E-03 0.  1.
        -12    1    3    3    0    0 -0.38951775665E+01 -0.42704310984E+00 -0.29836068102E+01  0.49251074801E+01  0.00000000000E+00 0.  1.
</event>
<event>
 7    1  0.5664398E-009  0.4614232E+02  0.7816164E-02  0.1320468E+00
        -11   -1    0    0    0    0  0.00000000000E+00  0.00000000000E+00  0.45593999997E+02  0.45594000000E+02  0.51100000000E-03 0. -1.
         11   -1    0    0    0    0 -0.00000000000E+00 -0.00000000000E+00 -0.45593999997E+02  0.45594000000E+02  0.51100000000E-03 0.  1.
    9900012    2    1    2    0    0  0.26835938395E+02  0.89172535647E+01 -0.35063207644E+02  0.46142317288E+02  0.99999956869E+01 0.  0.
         12    1    1    2    0    0 -0.26835938395E+02 -0.89172535647E+01  0.35063207644E+02  0.45045682712E+02  0.00000000000E+00 0. -1.
         11    1    3    3    0    0  0.10288204750E+02  0.12122970317E+01 -0.98133685604E+01  0.14269513791E+02  0.51100000000E-03 0. -1.
        -11    1    3    3    0    0  0.16038554978E+02  0.53212494037E+01 -0.23111714263E+02  0.28630443193E+02  0.51100000000E-03 0.  1.
         12    1    3    3    0    0  0.50917866782E+00  0.23837071293E+01 -0.21381248204E+01  0.32423603041E+01  0.00000000000E+00 0. -1.
</event>
<event>
 7    1  0.5664398E-009  0.4614232E+02  0.7816164E-02  0.1320468E+00
        -11   -1    0    0    0    0  0.00000000000E+00  0.00000000000E+00  0.45593999997E+02  0.45594000000E+02  0.51100000000E-03 0.  1.
         11   -1    0    0    0    0 -0.00000000000E+00 -0.00000000000E+00 -0.45593999997E+02  0.45594000000E+02  0.51100000000E-03 0. -1.
    9900012    2    1    2    0    0  0.44930754133E+02 -0.10157002203E+01 -0.30510925869E+01  0.46142317855E+02  0.10000000858E+02 0.  0.
         12    1    1    2    0    0 -0.44930754133E+02  0.10157002203E+01  0.30510925869E+01  0.45045682145E+02  0.00000000000E+00 0. -1.
         11    1    3    3    0    0  0.55134317186E+01 -0.74787914926E+00 -0.17848522929E+01  0.58431969423E+01  0.51100000000E-03 0. -1.
        -11    1    3    3    0    0  0.34567812202E+02 -0.24940428569E+01  0.55111249101E+00  0.34662048633E+02  0.51100000000E-03 0.  1.
        -12    1    3    3    0    0  0.48495102126E+01  0.22262217859E+01 -0.18173527850E+01  0.56370722798E+01  0.00000000000E+00 0.  1.
</event>
<event>
 7    1  0.5664398E-009  0.4614232E+02  0.7816164E-02  0.1320468E+00
        -11   -1    0    0    0    0  0.00000000000E+00  0.00000000000E+00  0.45593999997E+02  0.45594000000E+02  0.51100000000E-03 0. -1.
         11   -1    0    0    0    0 -0.00000000000E+00 -0.00000000000E+00 -0.45593999997E+02  0.45594000000E+02  0.51100000000E-03 0.  1.
    9900012    2    1    2    0    0  0.16713250314E+02 -0.35326062430E+02  0.22402009943E+02  0.46142317939E+02  0.10000001620E+02 0.  0.
        -12    1    1    2    0    0 -0.16713250314E+02  0.35326062430E+02 -0.22402009943E+02  0.45045682061E+02  0.00000000000E+00 0.  1.
         11    1    3    3    0    0  0.96500369493E+01 -0.25442354373E+02  0.17167925541E+02  0.32174124336E+02  0.51100000000E-03 0. -1.
        -11    1    3    3    0    0  0.46016203257E+01 -0.35934006262E+01  0.40619463873E+01  0.71124430681E+01  0.51100000000E-03 0.  1.
         12    1    3    3    0    0  0.24615930392E+01 -0.62903074307E+01  0.11721380147E+01  0.68557505344E+01  0.00000000000E+00 0. -1.
</event>
<event>
 7    1  0.5664398E-009  0.4614232E+02  0.7816164E-02  0.1320468E+00
        -11   -1    0    0    0    0  0.00000000000E+00  0.00000000000E+00  0.45593999997E+02  0.45594000000E+02  0.51100000000E-03 0. -1.
         11   -1    0    0    0    0 -0.00000000000E+00 -0.00000000000E+00 -0.45593999997E+02  0.45594000000E+02  0.51100000000E-03 0.  1.
    9900012    2    1    2    0    0 -0.39095781866E+01 -0.24205129866E+02  0.37788094967E+02  0.46142320577E+02  0.10000025675E+02 0.  0.
        -12    1    1    2    0    0  0.39095781866E+01  0.24205129866E+02 -0.37788094967E+02  0.45045679423E+02  0.00000000000E+00 0.  1.
         11    1    3    3    0    0 -0.14970294392E+01 -0.84483103245E+01  0.10592198232E+02  0.13631203473E+02  0.51100000000E-03 0. -1.
        -11    1    3    3    0    0 -0.29743164648E+01 -0.99254397588E+01  0.10223636884E+02  0.14556224244E+02  0.51100000000E-03 0.  1.
        -12    1    3    3    0    0  0.56176771738E+00 -0.58313797830E+01  0.16972259852E+02  0.17954892860E+02  0.00000000000E+00 0.  1.
</event>
<event>
 7    1  0.5664398E-009  0.4614232E+02  0.7816164E-02  0.1320468E+00
        -11   -1    0    0    0    0  0.00000000000E+00  0.00000000000E+00  0.45593999997E+02  0.45594000000E+02  0.51100000000E-03 0. -1.
         11   -1    0    0    0    0 -0.00000000000E+00 -0.00000000000E+00 -0.45593999997E+02  0.45594000000E+02  0.51100000000E-03 0.  1.
    9900012    2    1    2    0    0  0.11603765967E+02  0.37356921467E+02  0.22336665299E+02  0.46142316713E+02  0.99999904388E+01 0.  0.
        -12    1    1    2    0    0 -0.11603765967E+02 -0.37356921467E+02 -0.22336665299E+02  0.45045683287E+02  0.00000000000E+00 0.  1.
         11    1    3    3    0    0  0.44784933093E+01  0.10964007249E+02  0.26266446681E+01  0.12131183774E+02  0.51100000000E-03 0. -1.
        -11    1    3    3    0    0  0.11614194930E+01  0.19056660373E+01  0.41456066825E+00  0.22698720433E+01  0.51100000000E-03 0.  1.
        -12    1    3    3    0    0  0.59638531646E+01  0.24487248181E+02  0.19295459963E+02  0.31741260895E+02  0.00000000000E+00 0.  1.
</event>
<event>
 7    1  0.5664398E-009  0.4614230E+02  0.7816164E-02  0.1320468E+00
        -11   -1    0    0    0    0  0.00000000000E+00  0.00000000000E+00  0.45593999997E+02  0.45594000000E+02  0.51100000000E-03 0.  1.
         11   -1    0    0    0    0 -0.00000000000E+00 -0.00000000000E+00 -0.45593999997E+02  0.45594000000E+02  0.51100000000E-03 0. -1.
    9900012    2    1    2    0    0 -0.27030924457E+02  0.31159555979E+02  0.18097683501E+02  0.46142301494E+02  0.99998516617E+01 0.  0.
         12    1    1    2    0    0  0.27030924457E+02 -0.31159555979E+02 -0.18097683501E+02  0.45045698506E+02  0.00000000000E+00 0. -1.
         11    1    3    3    0    0  0.83672565637E-01  0.71558025015E+00  0.44894143257E+00  0.84888448192E+00  0.51100000000E-03 0. -1.
        -11    1    3    3    0    0 -0.15154044670E+02  0.21298970018E+02  0.14568575536E+02  0.29925483908E+02  0.51100000000E-03 0.  1.
         12    1    3    3    0    0 -0.11960552353E+02  0.91450057104E+01  0.30801665318E+01  0.15367933104E+02  0.00000000000E+00 0. -1.
</event>
<event>
 7    1  0.5664398E-009  0.4614232E+02  0.7816164E-02  0.1320468E+00
        -11   -1    0    0    0    0  0.00000000000E+00  0.00000000000E+00  0.45593999997E+02  0.45594000000E+02  0.51100000000E-03 0. -1.
         11   -1    0    0    0    0 -0.00000000000E+00 -0.00000000000E+00 -0.45593999997E+02  0.45594000000E+02  0.51100000000E-03 0.  1.
    9900012    2    1    2    0    0  0.59067905770E+01 -0.38231511028E+02  0.23077581569E+02  0.46142318947E+02  0.10000010817E+02 0.  0.
        -12    1    1    2    0    0 -0.59067905770E+01  0.38231511028E+02 -0.23077581569E+02  0.45045681053E+02  0.00000000000E+00 0.  1.
         11    1    3    3    0    0 -0.85178631329E+00 -0.20706724579E+02  0.12866003197E+02  0.24393196208E+02  0.51100000000E-03 0. -1.
        -11    1    3    3    0    0  0.18493633014E+01 -0.27872500017E+01  0.38221899456E+00  0.33667489977E+01  0.51100000000E-03 0.  1.
         12    1    3    3    0    0  0.49092135889E+01 -0.14737536448E+02  0.98293593772E+01  0.18382373741E+02  0.00000000000E+00 0. -1.
</event>
<event>
 7    1  0.5664398E-009  0.4614232E+02  0.7816164E-02  0.1320468E+00
        -11   -1    0    0    0    0  0.00000000000E+00  0.00000000000E+00  0.45593999997E+02  0.45594000000E+02  0.51100000000E-03 0. -1.
         11   -1    0    0    0    0 -0.00000000000E+00 -0.00000000000E+00 -0.45593999997E+02  0.45594000000E+02  0.51100000000E-03 0.  1.
    9900012    2    1    2    0    0 -0.14115921298E+02 -0.14017463356E+02 -0.40414912395E+02  0.46142315890E+02  0.99999829388E+01 0.  0.
         12    1    1    2    0    0  0.14115921298E+02  0.14017463356E+02  0.40414912395E+02  0.45045684110E+02  0.00000000000E+00 0. -1.
         11    1    3    3    0    0 -0.23651252584E+00 -0.27190301749E+01 -0.37904114324E+01  0.46707903352E+01  0.51100000000E-03 0. -1.
        -11    1    3    3    0    0 -0.13887304018E+02 -0.11688692345E+02 -0.36807879414E+02  0.41040257417E+02  0.51100000000E-03 0.  1.
        -12    1    3    3    0    0  0.78952464869E-02  0.39025916437E+00  0.18337845132E+00  0.43126813782E+00  0.00000000000E+00 0.  1.
</event>
<event>
 7    1  0.5664398E-009  0.4614232E+02  0.7816164E-02  0.1320468E+00
        -11   -1    0    0    0    0  0.00000000000E+00  0.00000000000E+00  0.45593999997E+02  0.45594000000E+02  0.51100000000E-03 0. -1.
         11   -1    0    0    0    0 -0.00000000000E+00 -0.00000000000E+00 -0.45593999997E+02  0.45594000000E+02  0.51100000000E-03 0.  1.
    9900012    2    1    2    0    0  0.11267848545E+02  0.21237974900E+02 -0.38093272396E+02  0.46142318847E+02  0.10000009902E+02 0.  0.
         12    1    1    2    0    0 -0.11267848545E+02 -0.21237974900E+02  0.38093272396E+02  0.45045681153E+02  0.00000000000E+00 0. -1.
         11    1    3    3    0    0  0.92329041049E+00  0.10415678514E+01 -0.73135166440E+00  0.15723244860E+01  0.51100000000E-03 0. -1.
        -11    1    3    3    0    0  0.16087203208E+01 -0.62172336786E+00 -0.26002910517E+01  0.31202619812E+01  0.51100000000E-03 0.  1.
        -12    1    3    3    0    0  0.87358378136E+01  0.20818130417E+02 -0.34761629680E+02  0.41449732380E+02  0.00000000000E+00 0.  1.
</event>
<event>
 7    1  0.5664398E-009  0.4614231E+02  0.7816164E-02  0.1320468E+00
        -11   -1    0    0    0    0  0.00000000000E+00  0.00000000000E+00  0.45593999997E+02  0.45594000000E+02  0.51100000000E-03 0. -1.
         11   -1    0    0    0    0 -0.00000000000E+00 -0.00000000000E+00 -0.45593999997E+02  0.45594000000E+02  0.51100000000E-03 0.  1.
    9900012    2    1    2    0    0 -0.55391604015E+01 -0.15140671887E+02 -0.42061762982E+02  0.46142310436E+02  0.99999332016E+01 0.  0.
         12    1    1    2    0    0  0.55391604015E+01  0.15140671887E+02  0.42061762982E+02  0.45045689564E+02  0.00000000000E+00 0. -1.
         11    1    3    3    0    0 -0.48532765757E+01 -0.69824250153E+01 -0.25350870364E+02  0.26739019823E+02  0.51100000000E-03 0. -1.
        -11    1    3    3    0    0 -0.15159142663E+01 -0.46340651427E+01 -0.14155644265E+02  0.14971800848E+02  0.51100000000E-03 0.  1.
         12    1    3    3    0    0  0.83003044052E+00 -0.35241817288E+01 -0.25552483529E+01  0.44314897647E+01  0.00000000000E+00 0. -1.
</event>
<event>
 7    1  0.5664398E-009  0.4614232E+02  0.7816164E-02  0.1320468E+00
        -11   -1    0    0    0    0  0.00000000000E+00  0.00000000000E+00  0.45593999997E+02  0.45594000000E+02  0.51100000000E-03 0. -1.
         11   -1    0    0    0    0 -0.00000000000E+00 -0.00000000000E+00 -0.45593999997E+02  0.45594000000E+02  0.51100000000E-03 0.  1.
    9900012    2    1    2    0    0  0.19511146760E+02 -0.36607218211E+02 -0.17559620369E+02  0.46142317182E+02  0.99999947183E+01 0.  0.
         12    1    1    2    0    0 -0.19511146760E+02  0.36607218211E+02  0.17559620369E+02  0.45045682818E+02  0.00000000000E+00 0. -1.
         11    1    3    3    0    0  0.20905749030E+01 -0.59839490328E+01 -0.34258418900E+01  0.72051746938E+01  0.51100000000E-03 0. -1.
        -11    1    3    3    0    0  0.11481776448E+02 -0.11816310001E+02 -0.77475021921E+01  0.18206596687E+02  0.51100000000E-03 0.  1.
        -12    1    3    3    0    0  0.59387954094E+01 -0.18806959177E+02 -0.63862762870E+01  0.20730545801E+02  0.00000000000E+00 0.  1.
</event>
<event>
 7    1  0.5664398E-009  0.4614232E+02  0.7816164E-02  0.1320468E+00
        -11   -1    0    0    0    0  0.00000000000E+00  0.00000000000E+00  0.45593999997E+02  0.45594000000E+02  0.51100000000E-03 0. -1.
         11   -1    0    0    0    0 -0.00000000000E+00 -0.00000000000E+00 -0.45593999997E+02  0.45594000000E+02  0.51100000000E-03 0.  1.
    9900012    2    1    2    0    0 -0.50102330580E+01  0.14828317373E+02  0.42238988403E+02  0.46142316825E+02  0.99999914668E+01 0.  0.
        -12    1    1    2    0    0  0.50102330580E+01 -0.14828317373E+02 -0.42238988403E+02  0.45045683175E+02  0.00000000000E+00 0.  1.
         11    1    3    3    0    0 -0.64974373079E+00  0.33647729600E+00 -0.23516175069E+00  0.76856047031E+00  0.51100000000E-03 0. -1.
        -11    1    3    3    0    0 -0.38678312529E+01  0.50128338828E+01  0.19972544734E+02  0.20952116016E+02  0.51100000000E-03 0.  1.
         12    1    3    3    0    0 -0.49265807432E+00  0.94790061940E+01  0.22501605420E+02  0.24421640339E+02  0.00000000000E+00 0. -1.
</event>
<event>
 7    1  0.5664398E-009  0.4614232E+02  0.7816164E-02  0.1320468E+00
        -11   -1    0    0    0    0  0.00000000000E+00  0.00000000000E+00  0.45593999997E+02  0.45594000000E+02  0.51100000000E-03 0. -1.
         11   -1    0    0    0    0 -0.00000000000E+00 -0.00000000000E+00 -0.45593999997E+02  0.45594000000E+02  0.51100000000E-03 0.  1.
    9900012    2    1    2    0    0 -0.40484382176E+02  0.17037699938E+02  0.99922608861E+01  0.46142315446E+02  0.99999788858E+01 0.  0.
        -12    1    1    2    0    0  0.40484382176E+02 -0.17037699938E+02 -0.99922608861E+01  0.45045684554E+02  0.00000000000E+00 0.  1.
         11    1    3    3    0    0 -0.11325184550E+02  0.65893427888E+01  0.40958455014E+00  0.13109042805E+02  0.51100000000E-03 0. -1.
        -11    1    3    3    0    0 -0.14642787602E+02  0.76426900429E+01  0.27458275273E+01  0.16743999192E+02  0.51100000000E-03 0.  1.
        -12    1    3    3    0    0 -0.14516410023E+02  0.28056671063E+01  0.68368488086E+01  0.16289273449E+02  0.00000000000E+00 0.  1.
</event>
<event>
 7    1  0.5664398E-009  0.4614233E+02  0.7816164E-02  0.1320468E+00
        -11   -1    0    0    0    0  0.00000000000E+00  0.00000000000E+00  0.45593999997E+02  0.45594000000E+02  0.51100000000E-03 0. -1.
         11   -1    0    0    0    0 -0.00000000000E+00 -0.00000000000E+00 -0.45593999997E+02  0.45594000000E+02  0.51100000000E-03 0.  1.
    9900012    2    1    2    0    0 -0.44213376174E+02  0.61378972998E+01  0.60511011425E+01  0.46142331607E+02  0.10000126254E+02 0.  0.
        -12    1    1    2    0    0  0.44213376174E+02 -0.61378972998E+01 -0.60511011425E+01  0.45045668393E+02  0.00000000000E+00 0.  1.
         11    1    3    3    0    0 -0.59088477648E+01  0.10801263405E+01  0.14506060552E+01  0.61794346835E+01  0.51100000000E-03 0.  1.
        -11    1    3    3    0    0 -0.37490349973E+02  0.60537308087E+01  0.32767713019E+01  0.38117072661E+02  0.51100000000E-03 0. -1.
        -12    1    3    3    0    0 -0.81417843632E+00 -0.99595984946E+00  0.13237237854E+01  0.18458242625E+01  0.00000000000E+00 0.  1.
</event>
<event>
 7    1  0.5664398E-009  0.4614232E+02  0.7816164E-02  0.1320468E+00
        -11   -1    0    0    0    0  0.00000000000E+00  0.00000000000E+00  0.45593999997E+02  0.45594000000E+02  0.51100000000E-03 0. -1.
         11   -1    0    0    0    0 -0.00000000000E+00 -0.00000000000E+00 -0.45593999997E+02  0.45594000000E+02  0.51100000000E-03 0.  1.
    9900012    2    1    2    0    0  0.24673612846E+02  0.18451917381E+02 -0.32861118371E+02  0.46142317338E+02  0.99999961381E+01 0.  0.
         12    1    1    2    0    0 -0.24673612846E+02 -0.18451917381E+02  0.32861118371E+02  0.45045682662E+02  0.00000000000E+00 0. -1.
         11    1    3    3    0    0  0.53879395085E+01  0.69183685846E+01 -0.65379072676E+01  0.10937913317E+02  0.51100000000E-03 0. -1.
        -11    1    3    3    0    0  0.30712672396E+01  0.19394020939E+01 -0.86103687758E+01  0.93451813067E+01  0.51100000000E-03 0.  1.
         12    1    3    3    0    0  0.16214406098E+02  0.95941467022E+01 -0.17712842328E+02  0.25859222714E+02  0.00000000000E+00 0. -1.
</event>
<event>
 7    1  0.5664398E-009  0.4614231E+02  0.7816164E-02  0.1320468E+00
        -11   -1    0    0    0    0  0.00000000000E+00  0.00000000000E+00  0.45593999997E+02  0.45594000000E+02  0.51100000000E-03 0. -1.
         11   -1    0    0    0    0 -0.00000000000E+00 -0.00000000000E+00 -0.45593999997E+02  0.45594000000E+02  0.51100000000E-03 0.  1.
    9900012    2    1    2    0    0  0.30901893397E+02  0.70604883530E+01  0.32005253266E+02  0.46142314880E+02  0.99999737293E+01 0.  0.
        -12    1    1    2    0    0 -0.30901893397E+02 -0.70604883530E+01 -0.32005253266E+02  0.45045685120E+02  0.00000000000E+00 0.  1.
         11    1    3    3    0    0  0.11900862464E+02  0.40384289503E+01  0.93252051252E+01  0.15649245562E+02  0.51100000000E-03 0. -1.
        -11    1    3    3    0    0  0.15635345539E+02  0.37544870062E+01  0.21508729819E+02  0.26854900139E+02  0.51100000000E-03 0.  1.
        -12    1    3    3    0    0  0.33656853934E+01 -0.73242760341E+00  0.11713183222E+01  0.36381691788E+01  0.00000000000E+00 0.  1.
</event>
<event>
 7    1  0.5664398E-009  0.4614231E+02  0.7816164E-02  0.1320468E+00
        -11   -1    0    0    0    0  0.00000000000E+00  0.00000000000E+00  0.45593999997E+02  0.45594000000E+02  0.51100000000E-03 0. -1.
         11   -1    0    0    0    0 -0.00000000000E+00 -0.00000000000E+00 -0.45593999997E+02  0.45594000000E+02  0.51100000000E-03 0.  1.
    9900012    2    1    2    0    0  0.33279438528E+02  0.16036577173E+02  0.25776367806E+02  0.46142312377E+02  0.99999508996E+01 0.  0.
        -12    1    1    2    0    0 -0.33279438528E+02 -0.16036577173E+02 -0.25776367806E+02  0.45045687623E+02  0.00000000000E+00 0.  1.
         11    1    3    3    0    0  0.24650280455E+02  0.12367464824E+02  0.15602016111E+02  0.31686170795E+02  0.51100000000E-03 0. -1.
        -11    1    3    3    0    0  0.81416829596E+01  0.42165710311E+01  0.10209505841E+02  0.13722262294E+02  0.51100000000E-03 0.  1.
        -12    1    3    3    0    0  0.48747511360E+00 -0.54745868154E+00 -0.35154146532E-01  0.73387928734E+00  0.00000000000E+00 0.  1.
</event>
<event>
 7    1  0.5664398E-009  0.4614232E+02  0.7816164E-02  0.1320468E+00
        -11   -1    0    0    0    0  0.00000000000E+00  0.00000000000E+00  0.45593999997E+02  0.45594000000E+02  0.51100000000E-03 0. -1.
         11   -1    0    0    0    0 -0.00000000000E+00 -0.00000000000E+00 -0.45593999997E+02  0.45594000000E+02  0.51100000000E-03 0.  1.
    9900012    2    1    2    0    0 -0.15328630424E+01  0.25457475664E+02  0.37130587387E+02  0.46142320341E+02  0.10000023524E+02 0.  0.
        -12    1    1    2    0    0  0.15328630424E+01 -0.25457475664E+02 -0.37130587387E+02  0.45045679659E+02  0.00000000000E+00 0.  1.
         11    1    3    3    0    0 -0.32645903585E+01  0.20239337748E+02  0.28360319091E+02  0.34994228695E+02  0.51100000000E-03 0. -1.
        -11    1    3    3    0    0  0.93258349403E+00  0.15969028476E+01  0.26322784932E+00  0.18679132313E+01  0.51100000000E-03 0.  1.
        -12    1    3    3    0    0  0.79914382198E+00  0.36212350679E+01  0.85070404458E+01  0.92801784149E+01  0.00000000000E+00 0.  1.
</event>
<event>
 7    1  0.5664398E-009  0.4614232E+02  0.7816164E-02  0.1320468E+00
        -11   -1    0    0    0    0  0.00000000000E+00  0.00000000000E+00  0.45593999997E+02  0.45594000000E+02  0.51100000000E-03 0. -1.
         11   -1    0    0    0    0 -0.00000000000E+00 -0.00000000000E+00 -0.45593999997E+02  0.45594000000E+02  0.51100000000E-03 0.  1.
    9900012    2    1    2    0    0  0.40645054969E+02 -0.74839144040E+01  0.17918822975E+02  0.46142315578E+02  0.99999800908E+01 0.  0.
        -12    1    1    2    0    0 -0.40645054969E+02  0.74839144040E+01 -0.17918822975E+02  0.45045684422E+02  0.00000000000E+00 0.  1.
         11    1    3    3    0    0  0.18946443352E+02 -0.71542097450E+01  0.80225841744E+01  0.21783303006E+02  0.51100000000E-03 0. -1.
        -11    1    3    3    0    0  0.59063179279E+01  0.21229782422E+01  0.27365623536E+01  0.68469264534E+01  0.51100000000E-03 0.  1.
        -12    1    3    3    0    0  0.15792293690E+02 -0.24526829012E+01  0.71596764472E+01  0.17512086119E+02  0.00000000000E+00 0.  1.
</event>
<event>
 7    1  0.5664398E-009  0.4614231E+02  0.7816164E-02  0.1320468E+00
        -11   -1    0    0    0    0  0.00000000000E+00  0.00000000000E+00  0.45593999997E+02  0.45594000000E+02  0.51100000000E-03 0. -1.
         11   -1    0    0    0    0 -0.00000000000E+00 -0.00000000000E+00 -0.45593999997E+02  0.45594000000E+02  0.51100000000E-03 0.  1.
    9900012    2    1    2    0    0 -0.34617696561E+02  0.28817870985E+02  0.50913681220E+00  0.46142314040E+02  0.99999660688E+01 0.  0.
        -12    1    1    2    0    0  0.34617696561E+02 -0.28817870985E+02 -0.50913681220E+00  0.45045685960E+02  0.00000000000E+00 0.  1.
         11    1    3    3    0    0 -0.57064611933E+01  0.47297848725E+01 -0.16497913866E+01  0.75931795824E+01  0.51100000000E-03 0. -1.
        -11    1    3    3    0    0 -0.31075429542E+01 -0.95443799027E-01 -0.11603461560E+00  0.31111729338E+01  0.51100000000E-03 0.  1.
         12    1    3    3    0    0 -0.25803692414E+02  0.24183529912E+02  0.22749628144E+01  0.35437961524E+02  0.00000000000E+00 0. -1.
</event>
<event>
 7    1  0.5664398E-009  0.4614232E+02  0.7816164E-02  0.1320468E+00
        -11   -1    0    0    0    0  0.00000000000E+00  0.00000000000E+00  0.45593999997E+02  0.45594000000E+02  0.51100000000E-03 0. -1.
         11   -1    0    0    0    0 -0.00000000000E+00 -0.00000000000E+00 -0.45593999997E+02  0.45594000000E+02  0.51100000000E-03 0.  1.
    9900012    2    1    2    0    0  0.25094246393E+02 -0.23633286666E+02  0.28997587595E+02  0.46142317333E+02  0.99999960939E+01 0.  0.
        -12    1    1    2    0    0 -0.25094246393E+02  0.23633286666E+02 -0.28997587595E+02  0.45045682667E+02  0.00000000000E+00 0.  1.
         11    1    3    3    0    0  0.82908574660E+01 -0.13851925969E+02  0.14674642739E+02  0.21816491706E+02  0.51100000000E-03 0. -1.
        -11    1    3    3    0    0  0.98319736205E+00 -0.11689553048E+01  0.45678718403E+00  0.15942987016E+01  0.51100000000E-03 0.  1.
         12    1    3    3    0    0  0.15820191565E+02 -0.86124053918E+01  0.13866157672E+02  0.22731526925E+02  0.00000000000E+00 0. -1.
</event>
<event>
 7    1  0.5664398E-009  0.4614231E+02  0.7816164E-02  0.1320468E+00
        -11   -1    0    0    0    0  0.00000000000E+00  0.00000000000E+00  0.45593999997E+02  0.45594000000E+02  0.51100000000E-03 0. -1.
         11   -1    0    0    0    0 -0.00000000000E+00 -0.00000000000E+00 -0.45593999997E+02  0.45594000000E+02  0.51100000000E-03 0.  1.
    9900012    2    1    2    0    0 -0.34328263987E+02  0.18102470185E+02 -0.22868862768E+02  0.46142311866E+02  0.99999462460E+01 0.  0.
         12    1    1    2    0    0  0.34328263987E+02 -0.18102470185E+02  0.22868862768E+02  0.45045688134E+02  0.00000000000E+00 0. -1.
         11    1    3    3    0    0  0.18307150982E+00  0.11878169873E+01  0.20057123411E+00  0.12184635629E+01  0.51100000000E-03 0. -1.
        -11    1    3    3    0    0 -0.11113102976E+02  0.45219208564E+01 -0.84881922761E+01  0.14696878388E+02  0.51100000000E-03 0.  1.
         12    1    3    3    0    0 -0.23398232521E+02  0.12392732341E+02 -0.14581241726E+02  0.30226969915E+02  0.00000000000E+00 0. -1.
</event>
<event>
 7    1  0.5664398E-009  0.4614232E+02  0.7816164E-02  0.1320468E+00
        -11   -1    0    0    0    0  0.00000000000E+00  0.00000000000E+00  0.45593999997E+02  0.45594000000E+02  0.51100000000E-03 0. -1.
         11   -1    0    0    0    0 -0.00000000000E+00 -0.00000000000E+00 -0.45593999997E+02  0.45594000000E+02  0.51100000000E-03 0.  1.
    9900012    2    1    2    0    0 -0.91715111808E+01 -0.12361320098E+01  0.44084792542E+02  0.46142316820E+02  0.99999914161E+01 0.  0.
        -12    1    1    2    0    0  0.91715111808E+01  0.12361320098E+01 -0.44084792542E+02  0.45045683180E+02  0.00000000000E+00 0.  1.
         11    1    3    3    0    0 -0.11036912875E+01 -0.62479817698E+00  0.16807512510E+02  0.16855295436E+02  0.51100000000E-03 0. -1.
        -11    1    3    3    0    0 -0.88383648754E+01  0.35616388560E+00  0.19505944650E+02  0.21417876257E+02  0.51100000000E-03 0.  1.
        -12    1    3    3    0    0  0.77054498207E+00 -0.96749771839E+00  0.77713353820E+01  0.78691451267E+01  0.00000000000E+00 0.  1.
</event>
<event>
 7    1  0.5664398E-009  0.4614232E+02  0.7816164E-02  0.1320468E+00
        -11   -1    0    0    0    0  0.00000000000E+00  0.00000000000E+00  0.45593999997E+02  0.45594000000E+02  0.51100000000E-03 0. -1.
         11   -1    0    0    0    0 -0.00000000000E+00 -0.00000000000E+00 -0.45593999997E+02  0.45594000000E+02  0.51100000000E-03 0.  1.
    9900012    2    1    2    0    0  0.37069047241E+02  0.25358125684E+02  0.34589973746E+01  0.46142318027E+02  0.10000002425E+02 0.  0.
         12    1    1    2    0    0 -0.37069047241E+02 -0.25358125684E+02 -0.34589973746E+01  0.45045681973E+02  0.00000000000E+00 0. -1.
         11    1    3    3    0    0  0.10431913284E+02  0.63343656993E+01  0.28814706547E+01  0.12540011044E+02  0.51100000000E-03 0.  1.
        -11    1    3    3    0    0  0.36634756662E+01  0.39235327559E+01 -0.25318569358E+01  0.59351042997E+01  0.51100000000E-03 0. -1.
         12    1    3    3    0    0  0.22973658291E+02  0.15100227228E+02  0.31093836556E+01  0.27667202684E+02  0.00000000000E+00 0. -1.
</event>
<event>
 7    1  0.5664398E-009  0.4614232E+02  0.7816164E-02  0.1320468E+00
        -11   -1    0    0    0    0  0.00000000000E+00  0.00000000000E+00  0.45593999997E+02  0.45594000000E+02  0.51100000000E-03 0. -1.
         11   -1    0    0    0    0 -0.00000000000E+00 -0.00000000000E+00 -0.45593999997E+02  0.45594000000E+02  0.51100000000E-03 0.  1.
    9900012    2    1    2    0    0  0.20634853352E+02  0.31677288896E+02  0.24492155091E+02  0.46142318013E+02  0.10000002297E+02 0.  0.
        -12    1    1    2    0    0 -0.20634853352E+02 -0.31677288896E+02 -0.24492155091E+02  0.45045681987E+02  0.00000000000E+00 0.  1.
         11    1    3    3    0    0  0.12833409551E+01  0.37978503014E+01  0.38035821352E+01  0.55261078744E+01  0.51100000000E-03 0. -1.
        -11    1    3    3    0    0  0.42482240755E+01  0.39517384690E+01  0.43382036287E+00  0.58182338465E+01  0.51100000000E-03 0.  1.
        -12    1    3    3    0    0  0.15103288321E+02  0.23927700126E+02  0.20254752593E+02  0.34797976292E+02  0.00000000000E+00 0.  1.
</event>
<event>
 7    1  0.5664398E-009  0.4614232E+02  0.7816164E-02  0.1320468E+00
        -11   -1    0    0    0    0  0.00000000000E+00  0.00000000000E+00  0.45593999997E+02  0.45594000000E+02  0.51100000000E-03 0. -1.
         11   -1    0    0    0    0 -0.00000000000E+00 -0.00000000000E+00 -0.45593999997E+02  0.45594000000E+02  0.51100000000E-03 0.  1.
    9900012    2    1    2    0    0 -0.49047581341E+00  0.12566322767E+02  0.43254599083E+02  0.46142319006E+02  0.10000011351E+02 0.  0.
        -12    1    1    2    0    0  0.49047581341E+00 -0.12566322767E+02 -0.43254599083E+02  0.45045680994E+02  0.00000000000E+00 0.  1.
         11    1    3    3    0    0  0.18599496781E+01  0.99231426119E+01  0.26176678506E+02  0.28056134266E+02  0.51100000000E-03 0. -1.
        -11    1    3    3    0    0 -0.12952070099E+01  0.35166071763E+01  0.72306875549E+01  0.81441346998E+01  0.51100000000E-03 0.  1.
        -12    1    3    3    0    0 -0.10552184816E+01 -0.87342702144E+00  0.98472330223E+01  0.99420500401E+01  0.00000000000E+00 0.  1.
</event>
<event>
 7    1  0.5664398E-009  0.4614232E+02  0.7816164E-02  0.1320468E+00
        -11   -1    0    0    0    0  0.00000000000E+00  0.00000000000E+00  0.45593999997E+02  0.45594000000E+02  0.51100000000E-03 0. -1.
         11   -1    0    0    0    0 -0.00000000000E+00 -0.00000000000E+00 -0.45593999997E+02  0.45594000000E+02  0.51100000000E-03 0.  1.
    9900012    2    1    2    0    0  0.26834927415E+02  0.81508460593E+00 -0.36170924179E+02  0.46142318206E+02  0.10000004061E+02 0.  0.
         12    1    1    2    0    0 -0.26834927415E+02 -0.81508460593E+00  0.36170924179E+02  0.45045681794E+02  0.00000000000E+00 0. -1.
         11    1    3    3    0    0  0.24710790824E+01  0.13704229576E+01 -0.30886514562E+01  0.41861747447E+01  0.51100000000E-03 0. -1.
        -11    1    3    3    0    0  0.20161254568E+02  0.28929473271E+01 -0.26238538222E+02  0.33216053623E+02  0.51100000000E-03 0.  1.
        -12    1    3    3    0    0  0.42025937646E+01 -0.34482856787E+01 -0.68437345007E+01  0.87400898387E+01  0.00000000000E+00 0.  1.
</event>
<event>
 7    1  0.5664398E-009  0.4614232E+02  0.7816164E-02  0.1320468E+00
        -11   -1    0    0    0    0  0.00000000000E+00  0.00000000000E+00  0.45593999997E+02  0.45594000000E+02  0.51100000000E-03 0. -1.
         11   -1    0    0    0    0 -0.00000000000E+00 -0.00000000000E+00 -0.45593999997E+02  0.45594000000E+02  0.51100000000E-03 0.  1.
    9900012    2    1    2    0    0 -0.90044485487E+01 -0.94298527786E+01  0.43117414144E+02  0.46142316305E+02  0.99999867245E+01 0.  0.
        -12    1    1    2    0    0  0.90044485487E+01  0.94298527786E+01 -0.43117414144E+02  0.45045683695E+02  0.00000000000E+00 0.  1.
         11    1    3    3    0    0 -0.11399450079E+01 -0.30214345540E+01  0.17050081139E+02  0.17353207441E+02  0.51100000000E-03 0. -1.
        -11    1    3    3    0    0 -0.16568161734E+01 -0.14069383865E+01  0.83674911698E+00  0.23290909819E+01  0.51100000000E-03 0.  1.
         12    1    3    3    0    0 -0.62076873673E+01 -0.50014798381E+01  0.25230583887E+02  0.26460017882E+02  0.00000000000E+00 0. -1.
</event>
<event>
 7    1  0.5664398E-009  0.4614232E+02  0.7816164E-02  0.1320468E+00
        -11   -1    0    0    0    0  0.00000000000E+00  0.00000000000E+00  0.45593999997E+02  0.45594000000E+02  0.51100000000E-03 0. -1.
         11   -1    0    0    0    0 -0.00000000000E+00 -0.00000000000E+00 -0.45593999997E+02  0.45594000000E+02  0.51100000000E-03 0.  1.
    9900012    2    1    2    0    0 -0.25381345136E+02  0.18198139798E+02 -0.32461180028E+02  0.46142321164E+02  0.10000031032E+02 0.  0.
         12    1    1    2    0    0  0.25381345136E+02 -0.18198139798E+02  0.32461180028E+02  0.45045678836E+02  0.00000000000E+00 0. -1.
         11    1    3    3    0    0 -0.16881228907E+02  0.14179699603E+02 -0.16907468314E+02  0.27783128968E+02  0.51100000000E-03 0. -1.
        -11    1    3    3    0    0 -0.57048468557E+01  0.13811816041E+01 -0.85593080796E+01  0.10378569041E+02  0.51100000000E-03 0.  1.
        -12    1    3    3    0    0 -0.27952693733E+01  0.26372585901E+01 -0.69944036344E+01  0.79806231550E+01  0.00000000000E+00 0.  1.
</event>
<event>
 7    1  0.5664398E-009  0.4614232E+02  0.7816164E-02  0.1320468E+00
        -11   -1    0    0    0    0  0.00000000000E+00  0.00000000000E+00  0.45593999997E+02  0.45594000000E+02  0.51100000000E-03 0. -1.
         11   -1    0    0    0    0 -0.00000000000E+00 -0.00000000000E+00 -0.45593999997E+02  0.45594000000E+02  0.51100000000E-03 0.  1.
    9900012    2    1    2    0    0  0.19379211114E+02 -0.13734181096E+00 -0.40663753001E+02  0.46142317695E+02  0.99999993967E+01 0.  0.
         12    1    1    2    0    0 -0.19379211114E+02  0.13734181096E+00  0.40663753001E+02  0.45045682305E+02  0.00000000000E+00 0. -1.
         11    1    3    3    0    0  0.11212867234E+02  0.11394942923E+01 -0.18165235655E+02  0.21377619734E+02  0.51100000000E-03 0. -1.
        -11    1    3    3    0    0  0.33207325552E+01 -0.17117558434E+01 -0.33838686670E+01  0.50406289476E+01  0.51100000000E-03 0.  1.
        -12    1    3    3    0    0  0.48456113252E+01  0.43491974015E+00 -0.19114648679E+02  0.19724069013E+02  0.00000000000E+00 0.  1.
</event>
<event>
 7    1  0.5664398E-009  0.4614232E+02  0.7816164E-02  0.1320468E+00
        -11   -1    0    0    0    0  0.00000000000E+00  0.00000000000E+00  0.45593999997E+02  0.45594000000E+02  0.51100000000E-03 0. -1.
         11   -1    0    0    0    0 -0.00000000000E+00 -0.00000000000E+00 -0.45593999997E+02  0.45594000000E+02  0.51100000000E-03 0.  1.
    9900012    2    1    2    0    0  0.29728295580E+02  0.66393908524E+01 -0.33185244236E+02  0.46142317587E+02  0.99999984160E+01 0.  0.
         12    1    1    2    0    0 -0.29728295580E+02 -0.66393908524E+01  0.33185244236E+02  0.45045682413E+02  0.00000000000E+00 0. -1.
         11    1    3    3    0    0  0.18391100920E+02 -0.45127174880E+00 -0.17619111406E+02  0.25472913580E+02  0.51100000000E-03 0. -1.
        -11    1    3    3    0    0  0.18008144749E+01  0.19186848231E+01 -0.42058228963E+01  0.49611723131E+01  0.51100000000E-03 0.  1.
         12    1    3    3    0    0  0.95363801850E+01  0.51719777781E+01 -0.11360309934E+02  0.15708231695E+02  0.00000000000E+00 0. -1.
</event>
<event>
 7    1  0.5664398E-009  0.4614232E+02  0.7816164E-02  0.1320468E+00
        -11   -1    0    0    0    0  0.00000000000E+00  0.00000000000E+00  0.45593999997E+02  0.45594000000E+02  0.51100000000E-03 0. -1.
         11   -1    0    0    0    0 -0.00000000000E+00 -0.00000000000E+00 -0.45593999997E+02  0.45594000000E+02  0.51100000000E-03 0.  1.
    9900012    2    1    2    0    0 -0.66435302573E+01  0.75209558913E+01 -0.43913690066E+02  0.46142318220E+02  0.10000004185E+02 0.  0.
         12    1    1    2    0    0  0.66435302573E+01 -0.75209558913E+01  0.43913690066E+02  0.45045681780E+02  0.00000000000E+00 0. -1.
         11    1    3    3    0    0 -0.12760976147E+01  0.25743590438E+01 -0.42017162741E+01  0.50902032885E+01  0.51100000000E-03 0. -1.
        -11    1    3    3    0    0 -0.64814466182E-01  0.50979813265E+01 -0.19652227365E+02  0.20302799196E+02  0.51100000000E-03 0.  1.
        -12    1    3    3    0    0 -0.53026181763E+01 -0.15138447906E+00 -0.20059746427E+02  0.20749315735E+02  0.00000000000E+00 0.  1.
</event>
<event>
 7    1  0.5664398E-009  0.4614232E+02  0.7816164E-02  0.1320468E+00
        -11   -1    0    0    0    0  0.00000000000E+00  0.00000000000E+00  0.45593999997E+02  0.45594000000E+02  0.51100000000E-03 0. -1.
         11   -1    0    0    0    0 -0.00000000000E+00 -0.00000000000E+00 -0.45593999997E+02  0.45594000000E+02  0.51100000000E-03 0.  1.
    9900012    2    1    2    0    0  0.25154944501E+02  0.21160371585E+02  0.30799040910E+02  0.46142317860E+02  0.10000000903E+02 0.  0.
        -12    1    1    2    0    0 -0.25154944501E+02 -0.21160371585E+02 -0.30799040910E+02  0.45045682140E+02  0.00000000000E+00 0.  1.
         11    1    3    3    0    0  0.98314847477E+01  0.67903667655E+01  0.13764197136E+02  0.18226911318E+02  0.51100000000E-03 0. -1.
        -11    1    3    3    0    0  0.13898343218E+02  0.11735662259E+02  0.11214076553E+02  0.21369258903E+02  0.51100000000E-03 0.  1.
        -12    1    3    3    0    0  0.14251165351E+01  0.26343425612E+01  0.58207672212E+01  0.65461476390E+01  0.00000000000E+00 0.  1.
</event>
<event>
 7    1  0.5664398E-009  0.4614232E+02  0.7816164E-02  0.1320468E+00
        -11   -1    0    0    0    0  0.00000000000E+00  0.00000000000E+00  0.45593999997E+02  0.45594000000E+02  0.51100000000E-03 0. -1.
         11   -1    0    0    0    0 -0.00000000000E+00 -0.00000000000E+00 -0.45593999997E+02  0.45594000000E+02  0.51100000000E-03 0.  1.
    9900012    2    1    2    0    0 -0.13032003833E+02  0.19462366906E+02 -0.38477222006E+02  0.46142318045E+02  0.10000002593E+02 0.  0.
         12    1    1    2    0    0  0.13032003833E+02 -0.19462366906E+02  0.38477222006E+02  0.45045681955E+02  0.00000000000E+00 0. -1.
         11    1    3    3    0    0 -0.50927827234E+01  0.20852838757E+01 -0.52006003114E+01  0.75717295627E+01  0.51100000000E-03 0. -1.
        -11    1    3    3    0    0 -0.64153865129E+01  0.10001181290E+02 -0.18537571212E+02  0.22018682023E+02  0.51100000000E-03 0.  1.
         12    1    3    3    0    0 -0.15238345968E+01  0.73759017405E+01 -0.14739050482E+02  0.16551906460E+02  0.00000000000E+00 0. -1.
</event>
<event>
 7    1  0.5664398E-009  0.4614232E+02  0.7816164E-02  0.1320468E+00
        -11   -1    0    0    0    0  0.00000000000E+00  0.00000000000E+00  0.45593999997E+02  0.45594000000E+02  0.51100000000E-03 0. -1.
         11   -1    0    0    0    0 -0.00000000000E+00 -0.00000000000E+00 -0.45593999997E+02  0.45594000000E+02  0.51100000000E-03 0.  1.
    9900012    2    1    2    0    0 -0.23712117028E+02 -0.25046608322E+02 -0.28974408637E+02  0.46142318317E+02  0.10000005073E+02 0.  0.
         12    1    1    2    0    0  0.23712117028E+02  0.25046608322E+02  0.28974408637E+02  0.45045681683E+02  0.00000000000E+00 0. -1.
         11    1    3    3    0    0 -0.69363499141E+00 -0.11915882317E+01 -0.70572685246E+00  0.15488907859E+01  0.51100000000E-03 0. -1.
        -11    1    3    3    0    0 -0.15565975512E+02 -0.19647693621E+02 -0.25084483326E+02  0.35462131383E+02  0.51100000000E-03 0.  1.
        -12    1    3    3    0    0 -0.74525065246E+01 -0.42073264700E+01 -0.31841984582E+01  0.91312961481E+01  0.00000000000E+00 0.  1.
</event>
<event>
 7    1  0.5664398E-009  0.4614232E+02  0.7816164E-02  0.1320468E+00
        -11   -1    0    0    0    0  0.00000000000E+00  0.00000000000E+00  0.45593999997E+02  0.45594000000E+02  0.51100000000E-03 0. -1.
         11   -1    0    0    0    0 -0.00000000000E+00 -0.00000000000E+00 -0.45593999997E+02  0.45594000000E+02  0.51100000000E-03 0.  1.
    9900012    2    1    2    0    0  0.39713732070E+02  0.16437049285E+02  0.13481702594E+02  0.46142318642E+02  0.10000008033E+02 0.  0.
         12    1    1    2    0    0 -0.39713732070E+02 -0.16437049285E+02 -0.13481702594E+02  0.45045681358E+02  0.00000000000E+00 0. -1.
         11    1    3    3    0    0  0.12359270590E+02  0.59746610987E+01  0.69648786950E+01  0.15393429775E+02  0.51100000000E-03 0. -1.
        -11    1    3    3    0    0  0.99902276618E+01  0.63085104656E+01  0.22160648571E+00  0.11817405076E+02  0.51100000000E-03 0.  1.
        -12    1    3    3    0    0  0.17364233819E+02  0.41538777210E+01  0.62952174135E+01  0.18931483791E+02  0.00000000000E+00 0.  1.
</event>
<event>
 7    1  0.5664398E-009  0.4614232E+02  0.7816164E-02  0.1320468E+00
        -11   -1    0    0    0    0  0.00000000000E+00  0.00000000000E+00  0.45593999997E+02  0.45594000000E+02  0.51100000000E-03 0. -1.
         11   -1    0    0    0    0 -0.00000000000E+00 -0.00000000000E+00 -0.45593999997E+02  0.45594000000E+02  0.51100000000E-03 0.  1.
    9900012    2    1    2    0    0  0.83325900307E+01 -0.68737602983E+01 -0.43731371399E+02  0.46142317835E+02  0.10000000675E+02 0.  0.
         12    1    1    2    0    0 -0.83325900307E+01  0.68737602983E+01  0.43731371399E+02  0.45045682165E+02  0.00000000000E+00 0. -1.
         11    1    3    3    0    0  0.17304399860E+01 -0.50793575756E+01 -0.85297054581E+01  0.10077210496E+02  0.51100000000E-03 0. -1.
        -11    1    3    3    0    0  0.21786781868E+01 -0.25497798220E+01 -0.15559184000E+02  0.15916539284E+02  0.51100000000E-03 0.  1.
        -12    1    3    3    0    0  0.44234718580E+01  0.75537709934E+00 -0.19642481941E+02  0.20148568054E+02  0.00000000000E+00 0.  1.
</event>
<event>
 7    1  0.5664398E-009  0.4614232E+02  0.7816164E-02  0.1320468E+00
        -11   -1    0    0    0    0  0.00000000000E+00  0.00000000000E+00  0.45593999997E+02  0.45594000000E+02  0.51100000000E-03 0. -1.
         11   -1    0    0    0    0 -0.00000000000E+00 -0.00000000000E+00 -0.45593999997E+02  0.45594000000E+02  0.51100000000E-03 0.  1.
    9900012    2    1    2    0    0  0.85942700952E+01  0.32905735443E+02  0.29537507752E+02  0.46142320210E+02  0.10000022335E+02 0.  0.
        -12    1    1    2    0    0 -0.85942700952E+01 -0.32905735443E+02 -0.29537507752E+02  0.45045679790E+02  0.00000000000E+00 0.  1.
         11    1    3    3    0    0  0.61503231835E+01  0.10537428969E+02  0.78735761075E+01  0.14520918893E+02  0.51100000000E-03 0. -1.
        -11    1    3    3    0    0 -0.12385863042E+01  0.21322447604E+01  0.23592456568E+01  0.34127121299E+01  0.51100000000E-03 0.  1.
         12    1    3    3    0    0  0.36825332159E+01  0.20236061714E+02  0.19304685988E+02  0.28208689187E+02  0.00000000000E+00 0. -1.
</event>
<event>
 7    1  0.5664398E-009  0.4614232E+02  0.7816164E-02  0.1320468E+00
        -11   -1    0    0    0    0  0.00000000000E+00  0.00000000000E+00  0.45593999997E+02  0.45594000000E+02  0.51100000000E-03 0. -1.
         11   -1    0    0    0    0 -0.00000000000E+00 -0.00000000000E+00 -0.45593999997E+02  0.45594000000E+02  0.51100000000E-03 0.  1.
    9900012    2    1    2    0    0  0.20425571635E+02 -0.65943519137E+01 -0.39603333589E+02  0.46142317796E+02  0.10000000322E+02 0.  0.
         12    1    1    2    0    0 -0.20425571635E+02  0.65943519137E+01  0.39603333589E+02  0.45045682204E+02  0.00000000000E+00 0. -1.
         11    1    3    3    0    0  0.79034095579E+01 -0.98556165605E+00 -0.16577212421E+02  0.18391280171E+02  0.51100000000E-03 0. -1.
        -11    1    3    3    0    0  0.24484865799E+01 -0.40536487747E+01 -0.11065341387E+02  0.12036151178E+02  0.51100000000E-03 0.  1.
        -12    1    3    3    0    0  0.10073675497E+02 -0.15551414830E+01 -0.11960779781E+02  0.15714886447E+02  0.00000000000E+00 0.  1.
</event>
<event>
 7    1  0.5664398E-009  0.4614232E+02  0.7816164E-02  0.1320468E+00
        -11   -1    0    0    0    0  0.00000000000E+00  0.00000000000E+00  0.45593999997E+02  0.45594000000E+02  0.51100000000E-03 0. -1.
         11   -1    0    0    0    0 -0.00000000000E+00 -0.00000000000E+00 -0.45593999997E+02  0.45594000000E+02  0.51100000000E-03 0.  1.
    9900012    2    1    2    0    0  0.18391223036E+02  0.40233648420E+02 -0.84929364579E+01  0.46142317414E+02  0.99999968370E+01 0.  0.
         12    1    1    2    0    0 -0.18391223036E+02 -0.40233648420E+02  0.84929364579E+01  0.45045682586E+02  0.00000000000E+00 0. -1.
         11    1    3    3    0    0  0.26801225292E+01  0.61962504561E+01 -0.29300772460E+01  0.73594788820E+01  0.51100000000E-03 0. -1.
        -11    1    3    3    0    0  0.50507375653E+01  0.18042006290E+02  0.12724065954E+00  0.18736064992E+02  0.51100000000E-03 0.  1.
         12    1    3    3    0    0  0.10660362941E+02  0.15995391674E+02 -0.56900998714E+01  0.20046773540E+02  0.00000000000E+00 0. -1.
</event>
<event>
 7    1  0.5664398E-009  0.4614232E+02  0.7816164E-02  0.1320468E+00
        -11   -1    0    0    0    0  0.00000000000E+00  0.00000000000E+00  0.45593999997E+02  0.45594000000E+02  0.51100000000E-03 0. -1.
         11   -1    0    0    0    0 -0.00000000000E+00 -0.00000000000E+00 -0.45593999997E+02  0.45594000000E+02  0.51100000000E-03 0.  1.
    9900012    2    1    2    0    0  0.49108410162E+01 -0.10099498786E+01 -0.44765802813E+02  0.46142318079E+02  0.10000002897E+02 0.  0.
         12    1    1    2    0    0 -0.49108410162E+01  0.10099498786E+01  0.44765802813E+02  0.45045681921E+02  0.00000000000E+00 0. -1.
         11    1    3    3    0    0  0.51784208327E+01 -0.20942950403E+01 -0.24259324165E+02  0.24894114229E+02  0.51100000000E-03 0. -1.
        -11    1    3    3    0    0 -0.36645147277E+00 -0.20390976142E+01 -0.47089412555E+01  0.51445440781E+01  0.51100000000E-03 0.  1.
        -12    1    3    3    0    0  0.98871656277E-01  0.31234427760E+01 -0.15797537393E+02  0.16103659772E+02  0.00000000000E+00 0.  1.
</event>
<event>
 7    1  0.5664398E-009  0.4614232E+02  0.7816164E-02  0.1320468E+00
        -11   -1    0    0    0    0  0.00000000000E+00  0.00000000000E+00  0.45593999997E+02  0.45594000000E+02  0.51100000000E-03 0. -1.
         11   -1    0    0    0    0 -0.00000000000E+00 -0.00000000000E+00 -0.45593999997E+02  0.45594000000E+02  0.51100000000E-03 0.  1.
    9900012    2    1    2    0    0  0.17688023326E+02  0.14461613703E+02  0.38821502988E+02  0.46142317251E+02  0.99999953508E+01 0.  0.
        -12    1    1    2    0    0 -0.17688023326E+02 -0.14461613703E+02 -0.38821502988E+02  0.45045682749E+02  0.00000000000E+00 0.  1.
         11    1    3    3    0    0  0.10341813041E+02  0.39598192411E+01  0.14490653914E+02  0.18237662035E+02  0.51100000000E-03 0.  1.
        -11    1    3    3    0    0  0.62700163288E+01  0.50706616961E+01  0.15715720707E+02  0.17663764956E+02  0.51100000000E-03 0. -1.
        -12    1    3    3    0    0  0.10761939561E+01  0.54311327661E+01  0.86151283666E+01  0.10240890260E+02  0.00000000000E+00 0.  1.
</event>
<event>
 7    1  0.5664398E-009  0.4614232E+02  0.7816164E-02  0.1320468E+00
        -11   -1    0    0    0    0  0.00000000000E+00  0.00000000000E+00  0.45593999997E+02  0.45594000000E+02  0.51100000000E-03 0.  1.
         11   -1    0    0    0    0 -0.00000000000E+00 -0.00000000000E+00 -0.45593999997E+02  0.45594000000E+02  0.51100000000E-03 0. -1.
    9900012    2    1    2    0    0 -0.15610061260E+02  0.38101405251E+02  0.18268072841E+02  0.46142316744E+02  0.99999907254E+01 0.  0.
         12    1    1    2    0    0  0.15610061260E+02 -0.38101405251E+02 -0.18268072841E+02  0.45045683256E+02  0.00000000000E+00 0. -1.
         11    1    3    3    0    0 -0.24869137595E+01  0.17172996511E+01  0.20114114403E+01  0.36303766171E+01  0.51100000000E-03 0. -1.
        -11    1    3    3    0    0 -0.95844599759E+01  0.21608585098E+02  0.12984650414E+02  0.26970242298E+02  0.51100000000E-03 0.  1.
         12    1    3    3    0    0 -0.35386875246E+01  0.14775520503E+02  0.32720109866E+01  0.15541697829E+02  0.00000000000E+00 0. -1.
</event>
<event>
 7    1  0.5664398E-009  0.4614232E+02  0.7816164E-02  0.1320468E+00
        -11   -1    0    0    0    0  0.00000000000E+00  0.00000000000E+00  0.45593999997E+02  0.45594000000E+02  0.51100000000E-03 0. -1.
         11   -1    0    0    0    0 -0.00000000000E+00 -0.00000000000E+00 -0.45593999997E+02  0.45594000000E+02  0.51100000000E-03 0.  1.
    9900012    2    1    2    0    0  0.20281279190E+02  0.39857381606E+02 -0.54011352186E+01  0.46142318568E+02  0.10000007355E+02 0.  0.
         12    1    1    2    0    0 -0.20281279190E+02 -0.39857381606E+02  0.54011352186E+01  0.45045681432E+02  0.00000000000E+00 0. -1.
         11    1    3    3    0    0  0.74484351558E+01  0.18428595107E+02  0.21791667790E+01  0.19996026405E+02  0.51100000000E-03 0. -1.
        -11    1    3    3    0    0  0.25369560187E+01  0.50266117265E+01 -0.12050467495E+01  0.57580473443E+01  0.51100000000E-03 0.  1.
        -12    1    3    3    0    0  0.10295888015E+02  0.16402174773E+02 -0.63752552480E+01  0.20388244819E+02  0.00000000000E+00 0.  1.
</event>
<event>
 7    1  0.8041509E-009  0.4614232E+02  0.7816164E-02  0.1320468E+00
        -11   -1    0    0    0    0  0.00000000000E+00  0.00000000000E+00  0.45593999997E+02  0.45594000000E+02  0.51100000000E-03 0. -1.
         11   -1    0    0    0    0 -0.00000000000E+00 -0.00000000000E+00 -0.45593999997E+02  0.45594000000E+02  0.51100000000E-03 0.  1.
    9900012    2    1    2    0    0 -0.21216542463E+02  0.42423120613E+00 -0.39734014462E+02  0.46142317061E+02  0.99999936160E+01 0.  0.
         12    1    1    2    0    0  0.21216542463E+02 -0.42423120613E+00  0.39734014462E+02  0.45045682939E+02  0.00000000000E+00 0. -1.
         11    1    3    3    0    0 -0.37520239163E+01  0.24905936356E+01 -0.42720472584E+01  0.62073446952E+01  0.51100000000E-03 0. -1.
        -11    1    3    3    0    0 -0.20321207474E+01  0.12734221130E+01 -0.30354053543E+01  0.38684369629E+01  0.51100000000E-03 0.  1.
        -12    1    3    3    0    0 -0.15432397799E+02 -0.33397845424E+01 -0.32426561849E+02  0.36066535403E+02  0.00000000000E+00 0.  1.
</event>
<event>
 7    1  0.5664398E-009  0.4614232E+02  0.7816164E-02  0.1320468E+00
        -11   -1    0    0    0    0  0.00000000000E+00  0.00000000000E+00  0.45593999997E+02  0.45594000000E+02  0.51100000000E-03 0. -1.
         11   -1    0    0    0    0 -0.00000000000E+00 -0.00000000000E+00 -0.45593999997E+02  0.45594000000E+02  0.51100000000E-03 0.  1.
    9900012    2    1    2    0    0 -0.10804400376E+02  0.11501546535E+02 -0.42191147208E+02  0.46142317156E+02  0.99999944812E+01 0.  0.
         12    1    1    2    0    0  0.10804400376E+02 -0.11501546535E+02  0.42191147208E+02  0.45045682844E+02  0.00000000000E+00 0. -1.
         11    1    3    3    0    0 -0.84004831294E+01  0.60477587151E+01 -0.18251222054E+02  0.20982149771E+02  0.51100000000E-03 0. -1.
        -11    1    3    3    0    0  0.36852942066E+00 -0.71737081350E+00 -0.12891441784E+01  0.15206340098E+01  0.51100000000E-03 0.  1.
        -12    1    3    3    0    0 -0.27724466672E+01  0.61711586335E+01 -0.22650780975E+02  0.23639533375E+02  0.00000000000E+00 0.  1.
</event>
<event>
 7    1  0.5664398E-009  0.4614232E+02  0.7816164E-02  0.1320468E+00
        -11   -1    0    0    0    0  0.00000000000E+00  0.00000000000E+00  0.45593999997E+02  0.45594000000E+02  0.51100000000E-03 0. -1.
         11   -1    0    0    0    0 -0.00000000000E+00 -0.00000000000E+00 -0.45593999997E+02  0.45594000000E+02  0.51100000000E-03 0.  1.
    9900012    2    1    2    0    0 -0.11544131804E+02 -0.37333153277E+02  0.22407190358E+02  0.46142317716E+02  0.99999995852E+01 0.  0.
        -12    1    1    2    0    0  0.11544131804E+02  0.37333153277E+02 -0.22407190358E+02  0.45045682284E+02  0.00000000000E+00 0.  1.
         11    1    3    3    0    0 -0.78669294552E+01 -0.20338201599E+02  0.15118382024E+02  0.26534816725E+02  0.51100000000E-03 0. -1.
        -11    1    3    3    0    0 -0.20602020118E+00 -0.12397607946E+02  0.55936604067E+01  0.13602652834E+02  0.51100000000E-03 0.  1.
        -12    1    3    3    0    0 -0.34711821476E+01 -0.45973437317E+01  0.16951479269E+01  0.60048481566E+01  0.00000000000E+00 0.  1.
</event>
<event>
 7    1  0.5664398E-009  0.4614232E+02  0.7816164E-02  0.1320468E+00
        -11   -1    0    0    0    0  0.00000000000E+00  0.00000000000E+00  0.45593999997E+02  0.45594000000E+02  0.51100000000E-03 0. -1.
         11   -1    0    0    0    0 -0.00000000000E+00 -0.00000000000E+00 -0.45593999997E+02  0.45594000000E+02  0.51100000000E-03 0.  1.
    9900012    2    1    2    0    0  0.74315090715E+01  0.11595539153E+02 -0.42888570378E+02  0.46142319581E+02  0.10000016596E+02 0.  0.
         12    1    1    2    0    0 -0.74315090715E+01 -0.11595539153E+02  0.42888570378E+02  0.45045680419E+02  0.00000000000E+00 0. -1.
         11    1    3    3    0    0 -0.70118645851E+00  0.34644897344E+00 -0.73136126536E+00  0.10707842464E+01  0.51100000000E-03 0. -1.
        -11    1    3    3    0    0  0.82149992189E+01  0.83246461342E+01 -0.39216790665E+02  0.40923619289E+02  0.51100000000E-03 0.  1.
        -12    1    3    3    0    0 -0.82303688968E-01  0.29244440453E+01 -0.29404184480E+01  0.41479160455E+01  0.00000000000E+00 0.  1.
</event>
<event>
 7    1  0.5664398E-009  0.4614232E+02  0.7816164E-02  0.1320468E+00
        -11   -1    0    0    0    0  0.00000000000E+00  0.00000000000E+00  0.45593999997E+02  0.45594000000E+02  0.51100000000E-03 0. -1.
         11   -1    0    0    0    0 -0.00000000000E+00 -0.00000000000E+00 -0.45593999997E+02  0.45594000000E+02  0.51100000000E-03 0.  1.
    9900012    2    1    2    0    0  0.17491013553E+02  0.81617713322E+01 -0.40700899705E+02  0.46142319817E+02  0.10000018749E+02 0.  0.
         12    1    1    2    0    0 -0.17491013553E+02 -0.81617713322E+01  0.40700899705E+02  0.45045680183E+02  0.00000000000E+00 0. -1.
         11    1    3    3    0    0  0.93167477785E+01  0.41750710259E+01 -0.12557232224E+02  0.16183852713E+02  0.51100000000E-03 0. -1.
        -11    1    3    3    0    0  0.12375205318E+01  0.27545502108E+01 -0.59348925586E+01  0.66589754372E+01  0.51100000000E-03 0.  1.
         12    1    3    3    0    0  0.69367452423E+01  0.12321500956E+01 -0.22208774922E+02  0.23299491667E+02  0.00000000000E+00 0. -1.
</event>
<event>
 7    1  0.5664398E-009  0.4614232E+02  0.7816164E-02  0.1320468E+00
        -11   -1    0    0    0    0  0.00000000000E+00  0.00000000000E+00  0.45593999997E+02  0.45594000000E+02  0.51100000000E-03 0.  1.
         11   -1    0    0    0    0 -0.00000000000E+00 -0.00000000000E+00 -0.45593999997E+02  0.45594000000E+02  0.51100000000E-03 0. -1.
    9900012    2    1    2    0    0 -0.43446310772E+02  0.58899493898E+01 -0.10336350792E+02  0.46142316841E+02  0.99999916129E+01 0.  0.
         12    1    1    2    0    0  0.43446310772E+02 -0.58899493898E+01  0.10336350792E+02  0.45045683159E+02  0.00000000000E+00 0. -1.
         11    1    3    3    0    0 -0.71377641799E+01  0.32578139554E+01 -0.18945202521E+01  0.80715696431E+01  0.51100000000E-03 0. -1.
        -11    1    3    3    0    0 -0.29531075751E+01  0.51705919062E+00  0.12848262142E+01  0.32617438923E+01  0.51100000000E-03 0.  1.
        -12    1    3    3    0    0 -0.33355439017E+02  0.21150762438E+01 -0.97266567539E+01  0.34809003306E+02  0.00000000000E+00 0.  1.
</event>
<event>
 7    1  0.5664398E-009  0.4614232E+02  0.7816164E-02  0.1320468E+00
        -11   -1    0    0    0    0  0.00000000000E+00  0.00000000000E+00  0.45593999997E+02  0.45594000000E+02  0.51100000000E-03 0. -1.
         11   -1    0    0    0    0 -0.00000000000E+00 -0.00000000000E+00 -0.45593999997E+02  0.45594000000E+02  0.51100000000E-03 0.  1.
    9900012    2    1    2    0    0 -0.71826170828E+01 -0.39593686577E+02  0.20245088744E+02  0.46142316265E+02  0.99999863568E+01 0.  0.
        -12    1    1    2    0    0  0.71826170828E+01  0.39593686577E+02 -0.20245088744E+02  0.45045683735E+02  0.00000000000E+00 0.  1.
         11    1    3    3    0    0 -0.37324413134E+00 -0.14273917313E+02  0.92639347517E+01  0.17020708387E+02  0.51100000000E-03 0. -1.
        -11    1    3    3    0    0 -0.44791223670E+01 -0.10493670357E+02  0.18629598244E+01  0.11560721184E+02  0.51100000000E-03 0.  1.
        -12    1    3    3    0    0 -0.23302505844E+01 -0.14826098907E+02  0.91181941683E+01  0.17560886694E+02  0.00000000000E+00 0.  1.
</event>
<event>
 7    1  0.5664398E-009  0.4614232E+02  0.7816164E-02  0.1320468E+00
        -11   -1    0    0    0    0  0.00000000000E+00  0.00000000000E+00  0.45593999997E+02  0.45594000000E+02  0.51100000000E-03 0. -1.
         11   -1    0    0    0    0 -0.00000000000E+00 -0.00000000000E+00 -0.45593999997E+02  0.45594000000E+02  0.51100000000E-03 0.  1.
    9900012    2    1    2    0    0  0.40930241990E+02  0.14433406170E+00  0.18809784103E+02  0.46142317413E+02  0.99999968275E+01 0.  0.
        -12    1    1    2    0    0 -0.40930241990E+02 -0.14433406170E+00 -0.18809784103E+02  0.45045682587E+02  0.00000000000E+00 0.  1.
         11    1    3    3    0    0  0.19954848406E+02  0.69609778288E+00  0.11424621212E+02  0.23004401691E+02  0.51100000000E-03 0. -1.
        -11    1    3    3    0    0  0.20710425581E+02  0.61865704147E+00  0.71204964194E+01  0.21909037720E+02  0.51100000000E-03 0.  1.
        -12    1    3    3    0    0  0.26496800260E+00 -0.11704207626E+01  0.26466647162E+00  0.12288780026E+01  0.00000000000E+00 0.  1.
</event>
<event>
 7    1  0.5664398E-009  0.4614232E+02  0.7816164E-02  0.1320468E+00
        -11   -1    0    0    0    0  0.00000000000E+00  0.00000000000E+00  0.45593999997E+02  0.45594000000E+02  0.51100000000E-03 0. -1.
         11   -1    0    0    0    0 -0.00000000000E+00 -0.00000000000E+00 -0.45593999997E+02  0.45594000000E+02  0.51100000000E-03 0.  1.
    9900012    2    1    2    0    0 -0.17491405481E+02 -0.31121737629E+01  0.41394185567E+02  0.46142317743E+02  0.99999998370E+01 0.  0.
        -12    1    1    2    0    0  0.17491405481E+02  0.31121737629E+01 -0.41394185567E+02  0.45045682257E+02  0.00000000000E+00 0.  1.
         11    1    3    3    0    0 -0.98713986509E+01 -0.60690642704E+00  0.26287110543E+02  0.28086029048E+02  0.51100000000E-03 0.  1.
        -11    1    3    3    0    0 -0.85545484562E+01 -0.19083743664E+01  0.13716107462E+02  0.16277401395E+02  0.51100000000E-03 0. -1.
         12    1    3    3    0    0  0.93454162592E+00 -0.59689296946E+00  0.13909675625E+01  0.17788873004E+01  0.00000000000E+00 0. -1.
</event>
<event>
 7    1  0.5664398E-009  0.4614232E+02  0.7816164E-02  0.1320468E+00
        -11   -1    0    0    0    0  0.00000000000E+00  0.00000000000E+00  0.45593999997E+02  0.45594000000E+02  0.51100000000E-03 0. -1.
         11   -1    0    0    0    0 -0.00000000000E+00 -0.00000000000E+00 -0.45593999997E+02  0.45594000000E+02  0.51100000000E-03 0.  1.
    9900012    2    1    2    0    0  0.30733289632E+01  0.38193101177E+02 -0.23684493427E+02  0.46142316995E+02  0.99999930165E+01 0.  0.
         12    1    1    2    0    0 -0.30733289632E+01 -0.38193101177E+02  0.23684493427E+02  0.45045683005E+02  0.00000000000E+00 0. -1.
         11    1    3    3    0    0  0.23103290275E+01  0.11018437648E+02 -0.85466956417E+01  0.14134694729E+02  0.51100000000E-03 0.  1.
        -11    1    3    3    0    0  0.35633909421E+01  0.10747126314E+02 -0.80813663234E+01  0.13910677946E+02  0.51100000000E-03 0. -1.
        -12    1    3    3    0    0 -0.28003910064E+01  0.16427537215E+02 -0.70564314619E+01  0.18096944320E+02  0.00000000000E+00 0.  1.
</event>
<event>
 7    1  0.5664398E-009  0.4614232E+02  0.7816164E-02  0.1320468E+00
        -11   -1    0    0    0    0  0.00000000000E+00  0.00000000000E+00  0.45593999997E+02  0.45594000000E+02  0.51100000000E-03 0. -1.
         11   -1    0    0    0    0 -0.00000000000E+00 -0.00000000000E+00 -0.45593999997E+02  0.45594000000E+02  0.51100000000E-03 0.  1.
    9900012    2    1    2    0    0  0.35823894705E+02  0.47537026060E+00 -0.27304509144E+02  0.46142316208E+02  0.99999858386E+01 0.  0.
         12    1    1    2    0    0 -0.35823894705E+02 -0.47537026060E+00  0.27304509144E+02  0.45045683792E+02  0.00000000000E+00 0. -1.
         11    1    3    3    0    0  0.31510994905E+02  0.55372773904E+00 -0.19363065230E+02  0.36988886299E+02  0.51100000000E-03 0.  1.
        -11    1    3    3    0    0  0.39682016913E+01 -0.42582038143E+00 -0.64616037838E+01  0.75947528848E+01  0.51100000000E-03 0. -1.
        -12    1    3    3    0    0  0.34469810837E+00  0.34746290300E+00 -0.14798401299E+01  0.15586770239E+01  0.00000000000E+00 0.  1.
</event>
<event>
 7    1  0.5664398E-009  0.4614233E+02  0.7816164E-02  0.1320468E+00
        -11   -1    0    0    0    0  0.00000000000E+00  0.00000000000E+00  0.45593999997E+02  0.45594000000E+02  0.51100000000E-03 0. -1.
         11   -1    0    0    0    0 -0.00000000000E+00 -0.00000000000E+00 -0.45593999997E+02  0.45594000000E+02  0.51100000000E-03 0.  1.
    9900012    2    1    2    0    0 -0.28155908024E+02  0.69056033350E+00  0.35155092902E+02  0.46142327764E+02  0.10000091215E+02 0.  0.
        -12    1    1    2    0    0  0.28155908024E+02 -0.69056033350E+00 -0.35155092902E+02  0.45045672236E+02  0.00000000000E+00 0.  1.
         11    1    3    3    0    0 -0.12056120613E+01  0.64797159594E+00  0.12711060673E+01  0.18679075264E+01  0.51100000000E-03 0. -1.
        -11    1    3    3    0    0 -0.15254328860E+02 -0.24945517495E+01  0.12967608681E+02  0.20176129771E+02  0.51100000000E-03 0.  1.
        -12    1    3    3    0    0 -0.11695967103E+02  0.25371404871E+01  0.20916378154E+02  0.24098290466E+02  0.00000000000E+00 0.  1.
</event>
<event>
 7    1  0.8257067E-009  0.4614232E+02  0.7816164E-02  0.1320468E+00
        -11   -1    0    0    0    0  0.00000000000E+00  0.00000000000E+00  0.45593999997E+02  0.45594000000E+02  0.51100000000E-03 0. -1.
         11   -1    0    0    0    0 -0.00000000000E+00 -0.00000000000E+00 -0.45593999997E+02  0.45594000000E+02  0.51100000000E-03 0.  1.
    9900012    2    1    2    0    0 -0.15205246520E+02  0.23715795848E+02 -0.35149325987E+02  0.46142316391E+02  0.99999875088E+01 0.  0.
         12    1    1    2    0    0  0.15205246520E+02 -0.23715795848E+02  0.35149325987E+02  0.45045683609E+02  0.00000000000E+00 0. -1.
         11    1    3    3    0    0  0.84862421639E+00  0.53869996683E+00 -0.90493452567E+00  0.13525041485E+01  0.51100000000E-03 0. -1.
        -11    1    3    3    0    0 -0.27284490764E-01  0.30250643395E+01 -0.48185487983E+01  0.56894790169E+01  0.51100000000E-03 0.  1.
        -12    1    3    3    0    0 -0.16026586245E+02  0.20152031542E+02 -0.29425842663E+02  0.39100333226E+02  0.00000000000E+00 0.  1.
</event>
<event>
 7    1  0.5664398E-009  0.4614232E+02  0.7816164E-02  0.1320468E+00
        -11   -1    0    0    0    0  0.00000000000E+00  0.00000000000E+00  0.45593999997E+02  0.45594000000E+02  0.51100000000E-03 0. -1.
         11   -1    0    0    0    0 -0.00000000000E+00 -0.00000000000E+00 -0.45593999997E+02  0.45594000000E+02  0.51100000000E-03 0.  1.
    9900012    2    1    2    0    0  0.20153802146E+02 -0.33103954986E+02  0.22957917079E+02  0.46142317262E+02  0.99999954526E+01 0.  0.
        -12    1    1    2    0    0 -0.20153802146E+02  0.33103954986E+02 -0.22957917079E+02  0.45045682738E+02  0.00000000000E+00 0.  1.
         11    1    3    3    0    0  0.12803737817E+02 -0.16721614938E+02  0.12405610765E+02  0.24442734850E+02  0.51100000000E-03 0. -1.
        -11    1    3    3    0    0  0.75441842942E+01 -0.13727473973E+02  0.67460295058E+01  0.17054828428E+02  0.51100000000E-03 0.  1.
         12    1    3    3    0    0 -0.19411996499E+00 -0.26548660753E+01  0.38062768085E+01  0.46447539851E+01  0.00000000000E+00 0. -1.
</event>
<event>
 7    1  0.5664398E-009  0.4614232E+02  0.7816164E-02  0.1320468E+00
        -11   -1    0    0    0    0  0.00000000000E+00  0.00000000000E+00  0.45593999997E+02  0.45594000000E+02  0.51100000000E-03 0. -1.
         11   -1    0    0    0    0 -0.00000000000E+00 -0.00000000000E+00 -0.45593999997E+02  0.45594000000E+02  0.51100000000E-03 0.  1.
    9900012    2    1    2    0    0 -0.95395171896E+01 -0.35996822869E+02  0.25344425081E+02  0.46142317326E+02  0.99999960352E+01 0.  0.
        -12    1    1    2    0    0  0.95395171896E+01  0.35996822869E+02 -0.25344425081E+02  0.45045682674E+02  0.00000000000E+00 0.  1.
         11    1    3    3    0    0 -0.47439395982E+01 -0.15013021515E+02  0.13756402526E+02  0.20907759053E+02  0.51100000000E-03 0. -1.
        -11    1    3    3    0    0 -0.29825880782E+01 -0.19724161830E+02  0.11498597181E+02  0.23025119521E+02  0.51100000000E-03 0.  1.
        -12    1    3    3    0    0 -0.18129895132E+01 -0.12596395236E+01  0.89425374880E-01  0.22094387527E+01  0.00000000000E+00 0.  1.
</event>
<event>
 7    1  0.5664398E-009  0.4614232E+02  0.7816164E-02  0.1320468E+00
        -11   -1    0    0    0    0  0.00000000000E+00  0.00000000000E+00  0.45593999997E+02  0.45594000000E+02  0.51100000000E-03 0. -1.
         11   -1    0    0    0    0 -0.00000000000E+00 -0.00000000000E+00 -0.45593999997E+02  0.45594000000E+02  0.51100000000E-03 0.  1.
    9900012    2    1    2    0    0 -0.33034668528E+02  0.21449207685E+02 -0.21857621715E+02  0.46142318052E+02  0.10000002653E+02 0.  0.
         12    1    1    2    0    0  0.33034668528E+02 -0.21449207685E+02  0.21857621715E+02  0.45045681948E+02  0.00000000000E+00 0. -1.
         11    1    3    3    0    0 -0.15778414601E+02  0.89040661316E+01 -0.12456503765E+02  0.21986478739E+02  0.51100000000E-03 0. -1.
        -11    1    3    3    0    0 -0.10073569381E+02  0.41316273918E+01 -0.66439038671E+01  0.12754944290E+02  0.51100000000E-03 0.  1.
         12    1    3    3    0    0 -0.71826845456E+01  0.84135141620E+01 -0.27572140827E+01  0.11400895023E+02  0.00000000000E+00 0. -1.
</event>
<event>
 7    1  0.5664398E-009  0.4614232E+02  0.7816164E-02  0.1320468E+00
        -11   -1    0    0    0    0  0.00000000000E+00  0.00000000000E+00  0.45593999997E+02  0.45594000000E+02  0.51100000000E-03 0. -1.
         11   -1    0    0    0    0 -0.00000000000E+00 -0.00000000000E+00 -0.45593999997E+02  0.45594000000E+02  0.51100000000E-03 0.  1.
    9900012    2    1    2    0    0 -0.31515776526E+02 -0.32066070889E+02 -0.27634137304E+01  0.46142317324E+02  0.99999960109E+01 0.  0.
         12    1    1    2    0    0  0.31515776526E+02  0.32066070889E+02  0.27634137304E+01  0.45045682676E+02  0.00000000000E+00 0. -1.
         11    1    3    3    0    0 -0.49911617936E+01 -0.49061515233E+01  0.26654306166E+01  0.74890947018E+01  0.51100000000E-03 0. -1.
        -11    1    3    3    0    0 -0.84445694580E+01 -0.59271581363E+01 -0.46688805481E+00  0.10327630010E+02  0.51100000000E-03 0.  1.
         12    1    3    3    0    0 -0.18080045274E+02 -0.21232761230E+02 -0.49619562922E+01  0.28325592612E+02  0.00000000000E+00 0. -1.
</event>
<event>
 7    1  0.5664398E-009  0.4614232E+02  0.7816164E-02  0.1320468E+00
        -11   -1    0    0    0    0  0.00000000000E+00  0.00000000000E+00  0.45593999997E+02  0.45594000000E+02  0.51100000000E-03 0. -1.
         11   -1    0    0    0    0 -0.00000000000E+00 -0.00000000000E+00 -0.45593999997E+02  0.45594000000E+02  0.51100000000E-03 0.  1.
    9900012    2    1    2    0    0  0.30374104248E+01  0.22022515684E+02  0.39177751624E+02  0.46142320058E+02  0.10000020944E+02 0.  0.
        -12    1    1    2    0    0 -0.30374104248E+01 -0.22022515684E+02 -0.39177751624E+02  0.45045679942E+02  0.00000000000E+00 0.  1.
         11    1    3    3    0    0 -0.20762521581E+00  0.96572114666E+01  0.21254599051E+02  0.23346580534E+02  0.51100000000E-03 0. -1.
        -11    1    3    3    0    0 -0.26536725790E+00  0.43920845547E+01  0.24436025657E+01  0.50330925163E+01  0.51100000000E-03 0.  1.
        -12    1    3    3    0    0  0.35104028985E+01  0.79732196627E+01  0.15479550007E+02  0.17762647008E+02  0.00000000000E+00 0.  1.
</event>
<event>
 7    1  0.5664398E-009  0.4614232E+02  0.7816164E-02  0.1320468E+00
        -11   -1    0    0    0    0  0.00000000000E+00  0.00000000000E+00  0.45593999997E+02  0.45594000000E+02  0.51100000000E-03 0. -1.
         11   -1    0    0    0    0 -0.00000000000E+00 -0.00000000000E+00 -0.45593999997E+02  0.45594000000E+02  0.51100000000E-03 0.  1.
    9900012    2    1    2    0    0  0.76799545410E+01  0.40912385312E+01  0.44197211872E+02  0.46142317946E+02  0.10000001684E+02 0.  0.
        -12    1    1    2    0    0 -0.76799545410E+01 -0.40912385312E+01 -0.44197211872E+02  0.45045682054E+02  0.00000000000E+00 0.  1.
         11    1    3    3    0    0  0.59772587201E+01  0.18022311295E+01  0.41273205616E+02  0.41742701889E+02  0.51100000000E-03 0. -1.
        -11    1    3    3    0    0  0.83071475721E+00  0.38108127550E+00  0.15703549137E+00  0.92734586485E+00  0.51100000000E-03 0.  1.
         12    1    3    3    0    0  0.87198106368E+00  0.19079261262E+01  0.27669707643E+01  0.34722701924E+01  0.00000000000E+00 0. -1.
</event>
<event>
 7    1  0.5664398E-009  0.4614232E+02  0.7816164E-02  0.1320468E+00
        -11   -1    0    0    0    0  0.00000000000E+00  0.00000000000E+00  0.45593999997E+02  0.45594000000E+02  0.51100000000E-03 0. -1.
         11   -1    0    0    0    0 -0.00000000000E+00 -0.00000000000E+00 -0.45593999997E+02  0.45594000000E+02  0.51100000000E-03 0.  1.
    9900012    2    1    2    0    0 -0.34528563025E+02 -0.22030573007E+02  0.18749550907E+02  0.46142317956E+02  0.10000001774E+02 0.  0.
        -12    1    1    2    0    0  0.34528563025E+02  0.22030573007E+02 -0.18749550907E+02  0.45045682044E+02  0.00000000000E+00 0.  1.
         11    1    3    3    0    0 -0.14175371465E+02 -0.70765883931E+01  0.43184597598E+01  0.16421581971E+02  0.51100000000E-03 0. -1.
        -11    1    3    3    0    0 -0.10694961950E+02 -0.61877571049E+01  0.39004477367E+01  0.12957007444E+02  0.51100000000E-03 0.  1.
        -12    1    3    3    0    0 -0.96582296102E+01 -0.87662275090E+01  0.10530643411E+02  0.16763728541E+02  0.00000000000E+00 0.  1.
</event>
<event>
 7    1  0.5664398E-009  0.4614232E+02  0.7816164E-02  0.1320468E+00
        -11   -1    0    0    0    0  0.00000000000E+00  0.00000000000E+00  0.45593999997E+02  0.45594000000E+02  0.51100000000E-03 0. -1.
         11   -1    0    0    0    0 -0.00000000000E+00 -0.00000000000E+00 -0.45593999997E+02  0.45594000000E+02  0.51100000000E-03 0.  1.
    9900012    2    1    2    0    0  0.20822683781E+02 -0.25290224199E+02 -0.30918181389E+02  0.46142317185E+02  0.99999947486E+01 0.  0.
         12    1    1    2    0    0 -0.20822683781E+02  0.25290224199E+02  0.30918181389E+02  0.45045682815E+02  0.00000000000E+00 0. -1.
         11    1    3    3    0    0  0.39047031732E+01 -0.63336742664E+00 -0.33044212239E+01  0.51543245003E+01  0.51100000000E-03 0. -1.
        -11    1    3    3    0    0  0.95985800529E+01 -0.17231926059E+02 -0.19893738812E+02  0.28014868533E+02  0.51100000000E-03 0.  1.
        -12    1    3    3    0    0  0.73194005550E+01 -0.74249307128E+01 -0.77200213531E+01  0.12973124152E+02  0.00000000000E+00 0.  1.
</event>
<event>
 7    1  0.5664398E-009  0.4614232E+02  0.7816164E-02  0.1320468E+00
        -11   -1    0    0    0    0  0.00000000000E+00  0.00000000000E+00  0.45593999997E+02  0.45594000000E+02  0.51100000000E-03 0. -1.
         11   -1    0    0    0    0 -0.00000000000E+00 -0.00000000000E+00 -0.45593999997E+02  0.45594000000E+02  0.51100000000E-03 0.  1.
    9900012    2    1    2    0    0 -0.36051065091E+02  0.15123479686E+02 -0.22376652768E+02  0.46142317397E+02  0.99999966838E+01 0.  0.
         12    1    1    2    0    0  0.36051065091E+02 -0.15123479686E+02  0.22376652768E+02  0.45045682603E+02  0.00000000000E+00 0. -1.
         11    1    3    3    0    0 -0.38440013136E+01  0.18544751477E+01 -0.51650352532E+01  0.67002248918E+01  0.51100000000E-03 0. -1.
        -11    1    3    3    0    0 -0.95941562269E+01  0.70480013579E+01 -0.74154941955E+01  0.14025395227E+02  0.51100000000E-03 0.  1.
        -12    1    3    3    0    0 -0.22612907551E+02  0.62210031805E+01 -0.97961233191E+01  0.25416697279E+02  0.00000000000E+00 0.  1.
</event>
<event>
 7    1  0.5664398E-009  0.4614232E+02  0.7816164E-02  0.1320468E+00
        -11   -1    0    0    0    0  0.00000000000E+00  0.00000000000E+00  0.45593999997E+02  0.45594000000E+02  0.51100000000E-03 0. -1.
         11   -1    0    0    0    0 -0.00000000000E+00 -0.00000000000E+00 -0.45593999997E+02  0.45594000000E+02  0.51100000000E-03 0.  1.
    9900012    2    1    2    0    0 -0.56367097198E+00 -0.38673940831E+02  0.23089435722E+02  0.46142318006E+02  0.10000002231E+02 0.  0.
        -12    1    1    2    0    0  0.56367097198E+00  0.38673940831E+02 -0.23089435722E+02  0.45045681994E+02  0.00000000000E+00 0.  1.
         11    1    3    3    0    0  0.17053328497E+01 -0.29971451191E+02  0.20281922943E+02  0.36229165670E+02  0.51100000000E-03 0. -1.
        -11    1    3    3    0    0  0.59603974234E+00 -0.43268167510E+00  0.55427776785E-01  0.73861309627E+00  0.51100000000E-03 0.  1.
         12    1    3    3    0    0 -0.28650435640E+01 -0.82698079652E+01  0.27520850027E+01  0.91745392400E+01  0.00000000000E+00 0. -1.
</event>
<event>
 7    1  0.5664398E-009  0.4614232E+02  0.7816164E-02  0.1320468E+00
        -11   -1    0    0    0    0  0.00000000000E+00  0.00000000000E+00  0.45593999997E+02  0.45594000000E+02  0.51100000000E-03 0. -1.
         11   -1    0    0    0    0 -0.00000000000E+00 -0.00000000000E+00 -0.45593999997E+02  0.45594000000E+02  0.51100000000E-03 0.  1.
    9900012    2    1    2    0    0  0.31300405597E+01 -0.13699796853E+02 -0.42797570250E+02  0.46142316444E+02  0.99999879866E+01 0.  0.
         12    1    1    2    0    0 -0.31300405597E+01  0.13699796853E+02  0.42797570250E+02  0.45045683556E+02  0.00000000000E+00 0. -1.
         11    1    3    3    0    0  0.61671827032E+00  0.25688203189E+00 -0.21604658409E+01  0.22614028200E+01  0.51100000000E-03 0. -1.
        -11    1    3    3    0    0  0.26605218442E+01 -0.11006402419E+02 -0.38762020893E+02  0.40382094233E+02  0.51100000000E-03 0.  1.
        -12    1    3    3    0    0 -0.14719955478E+00 -0.29502764656E+01 -0.18750835164E+01  0.34988193903E+01  0.00000000000E+00 0.  1.
</event>
<event>
 7    1  0.5664398E-009  0.4614232E+02  0.7816164E-02  0.1320468E+00
        -11   -1    0    0    0    0  0.00000000000E+00  0.00000000000E+00  0.45593999997E+02  0.45594000000E+02  0.51100000000E-03 0. -1.
         11   -1    0    0    0    0 -0.00000000000E+00 -0.00000000000E+00 -0.45593999997E+02  0.45594000000E+02  0.51100000000E-03 0.  1.
    9900012    2    1    2    0    0 -0.39234761471E+02  0.43614420936E+01 -0.21696193994E+02  0.46142317424E+02  0.99999969300E+01 0.  0.
         12    1    1    2    0    0  0.39234761471E+02 -0.43614420936E+01  0.21696193994E+02  0.45045682576E+02  0.00000000000E+00 0. -1.
         11    1    3    3    0    0 -0.47655630959E+01  0.32152594929E+00  0.75760926063E-01  0.47769980674E+01  0.51100000000E-03 0. -1.
        -11    1    3    3    0    0 -0.17546017965E+02  0.48090086618E+01 -0.10309245374E+02  0.20910998331E+02  0.51100000000E-03 0.  1.
        -12    1    3    3    0    0 -0.16923180410E+02 -0.76909251749E+00 -0.11462709547E+02  0.20454321026E+02  0.00000000000E+00 0.  1.
</event>
<event>
 7    1  0.5664398E-009  0.4614232E+02  0.7816164E-02  0.1320468E+00
        -11   -1    0    0    0    0  0.00000000000E+00  0.00000000000E+00  0.45593999997E+02  0.45594000000E+02  0.51100000000E-03 0. -1.
         11   -1    0    0    0    0 -0.00000000000E+00 -0.00000000000E+00 -0.45593999997E+02  0.45594000000E+02  0.51100000000E-03 0.  1.
    9900012    2    1    2    0    0 -0.11412988479E+02 -0.30859583160E+02 -0.30765944240E+02  0.46142317590E+02  0.99999984355E+01 0.  0.
         12    1    1    2    0    0  0.11412988479E+02  0.30859583160E+02  0.30765944240E+02  0.45045682410E+02  0.00000000000E+00 0. -1.
         11    1    3    3    0    0  0.14137142007E+01 -0.43077991136E+01 -0.50747415030E+01  0.68050512583E+01  0.51100000000E-03 0. -1.
        -11    1    3    3    0    0  0.31592699276E-01 -0.93913229755E-01  0.15159560011E+00  0.18110571626E+00  0.51100000000E-03 0.  1.
        -12    1    3    3    0    0 -0.12858295379E+02 -0.26457870817E+02 -0.25842798337E+02  0.39156160615E+02  0.00000000000E+00 0.  1.
</event>
<event>
 7    1  0.5664398E-009  0.4614232E+02  0.7816164E-02  0.1320468E+00
        -11   -1    0    0    0    0  0.00000000000E+00  0.00000000000E+00  0.45593999997E+02  0.45594000000E+02  0.51100000000E-03 0. -1.
         11   -1    0    0    0    0 -0.00000000000E+00 -0.00000000000E+00 -0.45593999997E+02  0.45594000000E+02  0.51100000000E-03 0.  1.
    9900012    2    1    2    0    0  0.16270531984E+02 -0.11612124948E+02  0.40367584609E+02  0.46142317144E+02  0.99999943700E+01 0.  0.
        -12    1    1    2    0    0 -0.16270531984E+02  0.11612124948E+02 -0.40367584609E+02  0.45045682856E+02  0.00000000000E+00 0.  1.
         11    1    3    3    0    0  0.77951819483E+01 -0.15477516146E+01  0.19453978291E+02  0.21014701242E+02  0.51100000000E-03 0. -1.
        -11    1    3    3    0    0 -0.28228605359E+00 -0.18308511387E+01  0.20833543565E+01  0.27878427043E+01  0.51100000000E-03 0.  1.
         12    1    3    3    0    0  0.87576360889E+01 -0.82335221951E+01  0.18830251961E+02  0.22339773198E+02  0.00000000000E+00 0. -1.
</event>
<event>
 7    1  0.5664398E-009  0.4614231E+02  0.7816164E-02  0.1320468E+00
        -11   -1    0    0    0    0  0.00000000000E+00  0.00000000000E+00  0.45593999997E+02  0.45594000000E+02  0.51100000000E-03 0.  1.
         11   -1    0    0    0    0 -0.00000000000E+00 -0.00000000000E+00 -0.45593999997E+02  0.45594000000E+02  0.51100000000E-03 0. -1.
    9900012    2    1    2    0    0 -0.79458385036E+01  0.43904615023E+02 -0.61937456968E+01  0.46142311465E+02  0.99999425873E+01 0.  0.
         12    1    1    2    0    0  0.79458385036E+01 -0.43904615023E+02  0.61937456968E+01  0.45045688535E+02  0.00000000000E+00 0. -1.
         11    1    3    3    0    0 -0.37166981189E+01  0.78489793085E+01 -0.30201845168E+01  0.91946634452E+01  0.51100000000E-03 0. -1.
        -11    1    3    3    0    0 -0.14404677768E+01  0.25744571214E+02 -0.45320439610E+01  0.26180093910E+02  0.51100000000E-03 0.  1.
        -12    1    3    3    0    0 -0.27886726078E+01  0.10311064500E+02  0.13584827810E+01  0.10767554110E+02  0.00000000000E+00 0.  1.
</event>
<event>
 7    1  0.5664398E-009  0.4614232E+02  0.7816164E-02  0.1320468E+00
        -11   -1    0    0    0    0  0.00000000000E+00  0.00000000000E+00  0.45593999997E+02  0.45594000000E+02  0.51100000000E-03 0. -1.
         11   -1    0    0    0    0 -0.00000000000E+00 -0.00000000000E+00 -0.45593999997E+02  0.45594000000E+02  0.51100000000E-03 0.  1.
    9900012    2    1    2    0    0  0.22208257202E+02  0.13006161972E+02 -0.36969536844E+02  0.46142316614E+02  0.99999895425E+01 0.  0.
         12    1    1    2    0    0 -0.22208257202E+02 -0.13006161972E+02  0.36969536844E+02  0.45045683386E+02  0.00000000000E+00 0. -1.
         11    1    3    3    0    0 -0.40843747977E+00 -0.35981843251E+00 -0.58898197566E+00  0.80199158850E+00  0.51100000000E-03 0. -1.
        -11    1    3    3    0    0  0.11027097297E+02  0.70117885413E+01 -0.12707923137E+02  0.18227818412E+02  0.51100000000E-03 0.  1.
        -12    1    3    3    0    0  0.11589597385E+02  0.63541918635E+01 -0.23672631732E+02  0.27112506614E+02  0.00000000000E+00 0.  1.
</event>
<event>
 7    1  0.5664398E-009  0.4614232E+02  0.7816164E-02  0.1320468E+00
        -11   -1    0    0    0    0  0.00000000000E+00  0.00000000000E+00  0.45593999997E+02  0.45594000000E+02  0.51100000000E-03 0.  1.
         11   -1    0    0    0    0 -0.00000000000E+00 -0.00000000000E+00 -0.45593999997E+02  0.45594000000E+02  0.51100000000E-03 0. -1.
    9900012    2    1    2    0    0  0.17854204049E+02  0.39065576398E+02  0.13572826526E+02  0.46142317838E+02  0.10000000698E+02 0.  0.
        -12    1    1    2    0    0 -0.17854204049E+02 -0.39065576398E+02 -0.13572826526E+02  0.45045682162E+02  0.00000000000E+00 0.  1.
         11    1    3    3    0    0  0.44333916926E+01  0.90191406335E+01  0.10658794469E+00  0.10050433867E+02  0.51100000000E-03 0. -1.
        -11    1    3    3    0    0  0.76219937209E+01  0.19348392720E+02  0.11505986747E+02  0.23766422120E+02  0.51100000000E-03 0.  1.
         12    1    3    3    0    0  0.57988186355E+01  0.10698043045E+02  0.19602518345E+01  0.12325461850E+02  0.00000000000E+00 0. -1.
</event>
<event>
 7    1  0.5664398E-009  0.4614232E+02  0.7816164E-02  0.1320468E+00
        -11   -1    0    0    0    0  0.00000000000E+00  0.00000000000E+00  0.45593999997E+02  0.45594000000E+02  0.51100000000E-03 0. -1.
         11   -1    0    0    0    0 -0.00000000000E+00 -0.00000000000E+00 -0.45593999997E+02  0.45594000000E+02  0.51100000000E-03 0.  1.
    9900012    2    1    2    0    0  0.18465698030E+02  0.21433177288E+02  0.35053536204E+02  0.46142317712E+02  0.99999995537E+01 0.  0.
        -12    1    1    2    0    0 -0.18465698030E+02 -0.21433177288E+02 -0.35053536204E+02  0.45045682288E+02  0.00000000000E+00 0.  1.
         11    1    3    3    0    0  0.96554964456E+01  0.94925068248E+01  0.14168481215E+02  0.19598014125E+02  0.51100000000E-03 0. -1.
        -11    1    3    3    0    0  0.10659227121E+01  0.24971986837E+01  0.93825335979E+01  0.97675037482E+01  0.51100000000E-03 0.  1.
        -12    1    3    3    0    0  0.77442788724E+01  0.94434717796E+01  0.11502521391E+02  0.16776799839E+02  0.00000000000E+00 0.  1.
</event>
<event>
 7    1  0.5664398E-009  0.4614231E+02  0.7816164E-02  0.1320468E+00
        -11   -1    0    0    0    0  0.00000000000E+00  0.00000000000E+00  0.45593999997E+02  0.45594000000E+02  0.51100000000E-03 0. -1.
         11   -1    0    0    0    0 -0.00000000000E+00 -0.00000000000E+00 -0.45593999997E+02  0.45594000000E+02  0.51100000000E-03 0.  1.
    9900012    2    1    2    0    0  0.77287575580E+01 -0.33299488441E+02  0.29334697318E+02  0.46142311077E+02  0.99999390507E+01 0.  0.
        -12    1    1    2    0    0 -0.77287575580E+01  0.33299488441E+02 -0.29334697318E+02  0.45045688923E+02  0.00000000000E+00 0.  1.
         11    1    3    3    0    0  0.72419537168E+01 -0.32822994281E+02  0.25446478641E+02  0.42158250945E+02  0.51100000000E-03 0. -1.
        -11    1    3    3    0    0  0.16004880068E+00  0.79112454120E-01  0.41869479598E+00  0.45517028934E+00  0.51100000000E-03 0.  1.
         12    1    3    3    0    0  0.32675504056E+00 -0.55560661347E+00  0.34695238809E+01  0.35288898432E+01  0.00000000000E+00 0. -1.
</event>
<event>
 7    1  0.5664398E-009  0.4614232E+02  0.7816164E-02  0.1320468E+00
        -11   -1    0    0    0    0  0.00000000000E+00  0.00000000000E+00  0.45593999997E+02  0.45594000000E+02  0.51100000000E-03 0. -1.
         11   -1    0    0    0    0 -0.00000000000E+00 -0.00000000000E+00 -0.45593999997E+02  0.45594000000E+02  0.51100000000E-03 0.  1.
    9900012    2    1    2    0    0 -0.15207746657E+02  0.46458130819E+01  0.42145632075E+02  0.46142318291E+02  0.10000004835E+02 0.  0.
        -12    1    1    2    0    0  0.15207746657E+02 -0.46458130819E+01 -0.42145632075E+02  0.45045681709E+02  0.00000000000E+00 0.  1.
         11    1    3    3    0    0 -0.97236362128E+01  0.44957948573E+01  0.18642715069E+02  0.21501444091E+02  0.51100000000E-03 0. -1.
        -11    1    3    3    0    0 -0.60155803830E+01  0.12274476121E+01  0.18353081779E+02  0.19352763266E+02  0.51100000000E-03 0.  1.
        -12    1    3    3    0    0  0.53146993922E+00 -0.10774293875E+01  0.51498352278E+01  0.52881109345E+01  0.00000000000E+00 0.  1.
</event>
<event>
 7    1  0.5664398E-009  0.4614232E+02  0.7816164E-02  0.1320468E+00
        -11   -1    0    0    0    0  0.00000000000E+00  0.00000000000E+00  0.45593999997E+02  0.45594000000E+02  0.51100000000E-03 0. -1.
         11   -1    0    0    0    0 -0.00000000000E+00 -0.00000000000E+00 -0.45593999997E+02  0.45594000000E+02  0.51100000000E-03 0.  1.
    9900012    2    1    2    0    0  0.23752002068E+02 -0.38274151579E+02 -0.21276941955E+00  0.46142317052E+02  0.99999935376E+01 0.  0.
        -12    1    1    2    0    0 -0.23752002068E+02  0.38274151579E+02  0.21276941955E+00  0.45045682948E+02  0.00000000000E+00 0.  1.
         11    1    3    3    0    0  0.19441225179E+00 -0.48193369449E+01 -0.94224252415E+00  0.49144303787E+01  0.51100000000E-03 0. -1.
        -11    1    3    3    0    0  0.70026216700E+01 -0.99580303460E+01 -0.20712775954E+01  0.12348654573E+02  0.51100000000E-03 0.  1.
         12    1    3    3    0    0  0.16554968147E+02 -0.23496784289E+02  0.28007507000E+01  0.28879232101E+02  0.00000000000E+00 0. -1.
</event>
<event>
 7    1  0.5664398E-009  0.4614232E+02  0.7816164E-02  0.1320468E+00
        -11   -1    0    0    0    0  0.00000000000E+00  0.00000000000E+00  0.45593999997E+02  0.45594000000E+02  0.51100000000E-03 0. -1.
         11   -1    0    0    0    0 -0.00000000000E+00 -0.00000000000E+00 -0.45593999997E+02  0.45594000000E+02  0.51100000000E-03 0.  1.
    9900012    2    1    2    0    0 -0.31066209054E+02 -0.40432792867E+01  0.32367514975E+02  0.46142317876E+02  0.10000001045E+02 0.  0.
        -12    1    1    2    0    0  0.31066209054E+02  0.40432792867E+01 -0.32367514975E+02  0.45045682124E+02  0.00000000000E+00 0.  1.
         11    1    3    3    0    0 -0.21700976529E+02  0.94625441141E+00  0.19738578547E+02  0.29350285570E+02  0.51100000000E-03 0. -1.
        -11    1    3    3    0    0 -0.88783864780E+01 -0.40055355623E+01  0.12205121442E+02  0.15615218579E+02  0.51100000000E-03 0.  1.
        -12    1    3    3    0    0 -0.48684604655E+00 -0.98399813581E+00  0.42381498650E+00  0.11768137266E+01  0.00000000000E+00 0.  1.
</event>
<event>
 7    1  0.5664398E-009  0.4614232E+02  0.7816164E-02  0.1320468E+00
        -11   -1    0    0    0    0  0.00000000000E+00  0.00000000000E+00  0.45593999997E+02  0.45594000000E+02  0.51100000000E-03 0. -1.
         11   -1    0    0    0    0 -0.00000000000E+00 -0.00000000000E+00 -0.45593999997E+02  0.45594000000E+02  0.51100000000E-03 0.  1.
    9900012    2    1    2    0    0  0.44415003802E+02 -0.74133619475E+01  0.12095506145E+01  0.46142317512E+02  0.99999977307E+01 0.  0.
        -12    1    1    2    0    0 -0.44415003802E+02  0.74133619475E+01 -0.12095506145E+01  0.45045682488E+02  0.00000000000E+00 0.  1.
         11    1    3    3    0    0  0.24780176503E+02 -0.54085968446E+01  0.15070935449E+01  0.25408293893E+02  0.51100000000E-03 0. -1.
        -11    1    3    3    0    0  0.11588396335E+02 -0.32387933364E+01  0.21724759192E+01  0.12227034137E+02  0.51100000000E-03 0.  1.
        -12    1    3    3    0    0  0.80464309634E+01  0.12340282336E+01 -0.24700188496E+01  0.85069894820E+01  0.00000000000E+00 0.  1.
</event>
<event>
 7    1  0.5664398E-009  0.4614232E+02  0.7816164E-02  0.1320468E+00
        -11   -1    0    0    0    0  0.00000000000E+00  0.00000000000E+00  0.45593999997E+02  0.45594000000E+02  0.51100000000E-03 0. -1.
         11   -1    0    0    0    0 -0.00000000000E+00 -0.00000000000E+00 -0.45593999997E+02  0.45594000000E+02  0.51100000000E-03 0.  1.
    9900012    2    1    2    0    0  0.29250644990E+00  0.32971414776E+02  0.30690612921E+02  0.46142317923E+02  0.10000001475E+02 0.  0.
        -12    1    1    2    0    0 -0.29250644990E+00 -0.32971414776E+02 -0.30690612921E+02  0.45045682077E+02  0.00000000000E+00 0.  1.
         11    1    3    3    0    0 -0.74713190060E+00  0.27580511707E+01  0.61374273980E+01  0.67700123829E+01  0.51100000000E-03 0. -1.
        -11    1    3    3    0    0 -0.16272652810E+01  0.37021525774E+01  0.43065984016E+01  0.59076827991E+01  0.51100000000E-03 0.  1.
         12    1    3    3    0    0  0.26669036315E+01  0.26511211028E+02  0.20246587121E+02  0.33464622741E+02  0.00000000000E+00 0. -1.
</event>
<event>
 7    1  0.5664398E-009  0.4614232E+02  0.7816164E-02  0.1320468E+00
        -11   -1    0    0    0    0  0.00000000000E+00  0.00000000000E+00  0.45593999997E+02  0.45594000000E+02  0.51100000000E-03 0. -1.
         11   -1    0    0    0    0 -0.00000000000E+00 -0.00000000000E+00 -0.45593999997E+02  0.45594000000E+02  0.51100000000E-03 0.  1.
    9900012    2    1    2    0    0 -0.91488593780E+01 -0.19299342948E+02 -0.39660398265E+02  0.46142318112E+02  0.10000003204E+02 0.  0.
         12    1    1    2    0    0  0.91488593780E+01  0.19299342948E+02  0.39660398265E+02  0.45045681888E+02  0.00000000000E+00 0. -1.
         11    1    3    3    0    0 -0.16328607732E+00 -0.94279561017E-01 -0.96959441900E+00  0.98775734730E+00  0.51100000000E-03 0. -1.
        -11    1    3    3    0    0  0.27195828300E+00 -0.10579922528E+02 -0.16252184488E+02  0.19394386376E+02  0.51100000000E-03 0.  1.
        -12    1    3    3    0    0 -0.92575315837E+01 -0.86251408594E+01 -0.22438619358E+02  0.25760174389E+02  0.00000000000E+00 0.  1.
</event>
<event>
 7    1  0.5664398E-009  0.4614232E+02  0.7816164E-02  0.1320468E+00
        -11   -1    0    0    0    0  0.00000000000E+00  0.00000000000E+00  0.45593999997E+02  0.45594000000E+02  0.51100000000E-03 0. -1.
         11   -1    0    0    0    0 -0.00000000000E+00 -0.00000000000E+00 -0.45593999997E+02  0.45594000000E+02  0.51100000000E-03 0.  1.
    9900012    2    1    2    0    0 -0.13637116460E+02  0.37397084069E+02 -0.21085558560E+02  0.46142316278E+02  0.99999864753E+01 0.  0.
         12    1    1    2    0    0  0.13637116460E+02 -0.37397084069E+02  0.21085558560E+02  0.45045683722E+02  0.00000000000E+00 0. -1.
         11    1    3    3    0    0  0.87976751453E+00  0.74668480780E+01 -0.35410478390E+01  0.83106456523E+01  0.51100000000E-03 0. -1.
        -11    1    3    3    0    0 -0.11435457940E+02  0.26539834784E+02 -0.15744247440E+02  0.32909175869E+02  0.51100000000E-03 0.  1.
        -12    1    3    3    0    0 -0.30814260341E+01  0.33904012069E+01 -0.18002632812E+01  0.49224947566E+01  0.00000000000E+00 0.  1.
</event>
<event>
 7    1  0.5664398E-009  0.4614232E+02  0.7816164E-02  0.1320468E+00
        -11   -1    0    0    0    0  0.00000000000E+00  0.00000000000E+00  0.45593999997E+02  0.45594000000E+02  0.51100000000E-03 0. -1.
         11   -1    0    0    0    0 -0.00000000000E+00 -0.00000000000E+00 -0.45593999997E+02  0.45594000000E+02  0.51100000000E-03 0.  1.
    9900012    2    1    2    0    0 -0.25233495882E+02 -0.84012584548E+01 -0.36356609384E+02  0.46142317588E+02  0.99999984210E+01 0.  0.
         12    1    1    2    0    0  0.25233495882E+02  0.84012584548E+01  0.36356609384E+02  0.45045682412E+02  0.00000000000E+00 0. -1.
         11    1    3    3    0    0 -0.14144716234E+02 -0.71106540198E+01 -0.21815595104E+02  0.26954676550E+02  0.51100000000E-03 0. -1.
        -11    1    3    3    0    0 -0.10243871530E+02 -0.47061502786E+00 -0.93918514003E+01  0.13905583605E+02  0.51100000000E-03 0.  1.
         12    1    3    3    0    0 -0.84490811914E+00 -0.81998940717E+00 -0.51491628802E+01  0.52820574329E+01  0.00000000000E+00 0. -1.
</event>
<event>
 7    1  0.5664398E-009  0.4614232E+02  0.7816164E-02  0.1320468E+00
        -11   -1    0    0    0    0  0.00000000000E+00  0.00000000000E+00  0.45593999997E+02  0.45594000000E+02  0.51100000000E-03 0. -1.
         11   -1    0    0    0    0 -0.00000000000E+00 -0.00000000000E+00 -0.45593999997E+02  0.45594000000E+02  0.51100000000E-03 0.  1.
    9900012    2    1    2    0    0  0.33662294179E+02 -0.10617179700E+02 -0.27986406701E+02  0.46142317474E+02  0.99999973787E+01 0.  0.
         12    1    1    2    0    0 -0.33662294179E+02  0.10617179700E+02  0.27986406701E+02  0.45045682526E+02  0.00000000000E+00 0. -1.
         11    1    3    3    0    0 -0.35518582883E+00  0.30268304876E+00 -0.80161760857E+00  0.92755865178E+00  0.51100000000E-03 0. -1.
        -11    1    3    3    0    0  0.12042634551E+02 -0.65955279971E+01 -0.10616406185E+02  0.17356097402E+02  0.51100000000E-03 0.  1.
         12    1    3    3    0    0  0.21974845457E+02 -0.43243347521E+01 -0.16568382908E+02  0.27858661420E+02  0.00000000000E+00 0. -1.
</event>
<event>
 7    1  0.5664398E-009  0.4614232E+02  0.7816164E-02  0.1320468E+00
        -11   -1    0    0    0    0  0.00000000000E+00  0.00000000000E+00  0.45593999997E+02  0.45594000000E+02  0.51100000000E-03 0. -1.
         11   -1    0    0    0    0 -0.00000000000E+00 -0.00000000000E+00 -0.45593999997E+02  0.45594000000E+02  0.51100000000E-03 0.  1.
    9900012    2    1    2    0    0 -0.27193308201E+02 -0.14273506116E+02 -0.32953064905E+02  0.46142317916E+02  0.10000001415E+02 0.  0.
         12    1    1    2    0    0  0.27193308201E+02  0.14273506116E+02  0.32953064905E+02  0.45045682084E+02  0.00000000000E+00 0. -1.
         11    1    3    3    0    0 -0.41688009133E+01 -0.11094299205E+00 -0.29258971987E+01  0.50943188044E+01  0.51100000000E-03 0. -1.
        -11    1    3    3    0    0 -0.11623813474E+02 -0.44207778573E+01 -0.96155002934E+01  0.15719865225E+02  0.51100000000E-03 0.  1.
        -12    1    3    3    0    0 -0.11400693813E+02 -0.97417852669E+01 -0.20411667413E+02  0.25328133887E+02  0.00000000000E+00 0.  1.
</event>
<event>
 7    1  0.5664398E-009  0.4614232E+02  0.7816164E-02  0.1320468E+00
        -11   -1    0    0    0    0  0.00000000000E+00  0.00000000000E+00  0.45593999997E+02  0.45594000000E+02  0.51100000000E-03 0.  1.
         11   -1    0    0    0    0 -0.00000000000E+00 -0.00000000000E+00 -0.45593999997E+02  0.45594000000E+02  0.51100000000E-03 0. -1.
    9900012    2    1    2    0    0 -0.44344342397E+02  0.57302782347E+01 -0.54641290743E+01  0.46142317656E+02  0.99999990434E+01 0.  0.
         12    1    1    2    0    0  0.44344342397E+02 -0.57302782347E+01  0.54641290743E+01  0.45045682344E+02  0.00000000000E+00 0. -1.
         11    1    3    3    0    0 -0.12730659166E+01  0.10915750876E+01  0.13655144655E+01  0.21626056082E+01  0.51100000000E-03 0. -1.
        -11    1    3    3    0    0 -0.82685980337E+01  0.53901768578E+00 -0.25864752371E+01  0.86804439934E+01  0.51100000000E-03 0.  1.
         12    1    3    3    0    0 -0.34802678447E+02  0.40996854613E+01 -0.42431683027E+01  0.35299268055E+02  0.00000000000E+00 0. -1.
</event>
<event>
 7    1  0.5664398E-009  0.4614232E+02  0.7816164E-02  0.1320468E+00
        -11   -1    0    0    0    0  0.00000000000E+00  0.00000000000E+00  0.45593999997E+02  0.45594000000E+02  0.51100000000E-03 0. -1.
         11   -1    0    0    0    0 -0.00000000000E+00 -0.00000000000E+00 -0.45593999997E+02  0.45594000000E+02  0.51100000000E-03 0.  1.
    9900012    2    1    2    0    0  0.75683286443E+01  0.20196452708E+02 -0.39546645404E+02  0.46142318041E+02  0.10000002548E+02 0.  0.
         12    1    1    2    0    0 -0.75683286443E+01 -0.20196452708E+02  0.39546645404E+02  0.45045681959E+02  0.00000000000E+00 0. -1.
         11    1    3    3    0    0  0.84684054838E+00 -0.68199021041E-01 -0.12887839589E+01  0.15436173019E+01  0.51100000000E-03 0. -1.
        -11    1    3    3    0    0  0.56736169450E+01  0.19479886584E+02 -0.38240273489E+02  0.43289426276E+02  0.51100000000E-03 0.  1.
        -12    1    3    3    0    0  0.10478711509E+01  0.78476514467E+00 -0.17587956570E-01  0.13092744622E+01  0.00000000000E+00 0.  1.
</event>
<event>
 7    1  0.5664398E-009  0.4614232E+02  0.7816164E-02  0.1320468E+00
        -11   -1    0    0    0    0  0.00000000000E+00  0.00000000000E+00  0.45593999997E+02  0.45594000000E+02  0.51100000000E-03 0. -1.
         11   -1    0    0    0    0 -0.00000000000E+00 -0.00000000000E+00 -0.45593999997E+02  0.45594000000E+02  0.51100000000E-03 0.  1.
    9900012    2    1    2    0    0  0.61768271014E+01  0.73393789402E+00 -0.44614142182E+02  0.46142317182E+02  0.99999947213E+01 0.  0.
         12    1    1    2    0    0 -0.61768271014E+01 -0.73393789402E+00  0.44614142182E+02  0.45045682818E+02  0.00000000000E+00 0. -1.
         11    1    3    3    0    0 -0.78318681778E+00 -0.78812045670E+00 -0.13663334233E+02  0.13708436018E+02  0.51100000000E-03 0. -1.
        -11    1    3    3    0    0  0.20805232029E+01  0.84841493390E+00 -0.22798863638E+02  0.22909311822E+02  0.51100000000E-03 0.  1.
        -12    1    3    3    0    0  0.48794907163E+01  0.67364341681E+00 -0.81519443115E+01  0.95245693425E+01  0.00000000000E+00 0.  1.
</event>
<event>
 7    1  0.5664398E-009  0.4614232E+02  0.7816164E-02  0.1320468E+00
        -11   -1    0    0    0    0  0.00000000000E+00  0.00000000000E+00  0.45593999997E+02  0.45594000000E+02  0.51100000000E-03 0. -1.
         11   -1    0    0    0    0 -0.00000000000E+00 -0.00000000000E+00 -0.45593999997E+02  0.45594000000E+02  0.51100000000E-03 0.  1.
    9900012    2    1    2    0    0  0.91160077283E+00 -0.10380006563E+02  0.43823942620E+02  0.46142317643E+02  0.99999989271E+01 0.  0.
        -12    1    1    2    0    0 -0.91160077283E+00  0.10380006563E+02 -0.43823942620E+02  0.45045682357E+02  0.00000000000E+00 0.  1.
         11    1    3    3    0    0 -0.17475486726E+01 -0.11142595579E+01  0.18341154197E+02  0.18457882822E+02  0.51100000000E-03 0. -1.
        -11    1    3    3    0    0  0.99270208741E-01 -0.75175383044E+01  0.20273079737E+02  0.21622233905E+02  0.51100000000E-03 0.  1.
        -12    1    3    3    0    0  0.25598792367E+01 -0.17482087008E+01  0.52097086852E+01  0.60622009166E+01  0.00000000000E+00 0.  1.
</event>
<event>
 7    1  0.5664398E-009  0.4614231E+02  0.7816164E-02  0.1320468E+00
        -11   -1    0    0    0    0  0.00000000000E+00  0.00000000000E+00  0.45593999997E+02  0.45594000000E+02  0.51100000000E-03 0. -1.
         11   -1    0    0    0    0 -0.00000000000E+00 -0.00000000000E+00 -0.45593999997E+02  0.45594000000E+02  0.51100000000E-03 0.  1.
    9900012    2    1    2    0    0  0.15208671776E+02  0.55301222670E+01 -0.42038417393E+02  0.46142306683E+02  0.99998989786E+01 0.  0.
         12    1    1    2    0    0 -0.15208671776E+02 -0.55301222670E+01  0.42038417393E+02  0.45045693317E+02  0.00000000000E+00 0. -1.
         11    1    3    3    0    0  0.24569721327E+01  0.37719004606E+00 -0.41811165119E+01  0.48642286068E+01  0.51100000000E-03 0. -1.
        -11    1    3    3    0    0  0.10263401580E+02 -0.49645930572E+00 -0.24118997176E+02  0.26216596058E+02  0.51100000000E-03 0.  1.
        -12    1    3    3    0    0  0.24882980637E+01  0.56493915267E+01 -0.13738303706E+02  0.15061482018E+02  0.00000000000E+00 0.  1.
</event>
<event>
 7    1  0.5664398E-009  0.4614232E+02  0.7816164E-02  0.1320468E+00
        -11   -1    0    0    0    0  0.00000000000E+00  0.00000000000E+00  0.45593999997E+02  0.45594000000E+02  0.51100000000E-03 0. -1.
         11   -1    0    0    0    0 -0.00000000000E+00 -0.00000000000E+00 -0.45593999997E+02  0.45594000000E+02  0.51100000000E-03 0.  1.
    9900012    2    1    2    0    0 -0.12971005790E+02 -0.54396948691E+01 -0.42793412638E+02  0.46142318335E+02  0.10000005232E+02 0.  0.
         12    1    1    2    0    0  0.12971005790E+02  0.54396948691E+01  0.42793412638E+02  0.45045681665E+02  0.00000000000E+00 0. -1.
         11    1    3    3    0    0 -0.41772852043E-01 -0.29737780619E+01 -0.11229780964E+02  0.11616930821E+02  0.51100000000E-03 0. -1.
        -11    1    3    3    0    0 -0.36041946936E+01  0.81836743686E+00 -0.12714993602E+02  0.13241261541E+02  0.51100000000E-03 0.  1.
         12    1    3    3    0    0 -0.93250382443E+01 -0.32842842441E+01 -0.18848638072E+02  0.21284125973E+02  0.00000000000E+00 0. -1.
</event>
<event>
 7    1  0.5664398E-009  0.4614232E+02  0.7816164E-02  0.1320468E+00
        -11   -1    0    0    0    0  0.00000000000E+00  0.00000000000E+00  0.45593999997E+02  0.45594000000E+02  0.51100000000E-03 0. -1.
         11   -1    0    0    0    0 -0.00000000000E+00 -0.00000000000E+00 -0.45593999997E+02  0.45594000000E+02  0.51100000000E-03 0.  1.
    9900012    2    1    2    0    0 -0.75095667115E+01  0.33803793755E+02 -0.28810125418E+02  0.46142318842E+02  0.10000009854E+02 0.  0.
         12    1    1    2    0    0  0.75095667115E+01 -0.33803793755E+02  0.28810125418E+02  0.45045681158E+02  0.00000000000E+00 0. -1.
         11    1    3    3    0    0  0.10971977449E+01  0.31750643322E+01 -0.70928167306E+00  0.34333594566E+01  0.51100000000E-03 0. -1.
        -11    1    3    3    0    0 -0.33177818268E+01  0.15673447961E+02 -0.16922026842E+02  0.23302781807E+02  0.51100000000E-03 0.  1.
        -12    1    3    3    0    0 -0.52889826296E+01  0.14955281461E+02 -0.11178816903E+02  0.19406177578E+02  0.00000000000E+00 0.  1.
</event>
<event>
 7    1  0.5664398E-009  0.4614232E+02  0.7816164E-02  0.1320468E+00
        -11   -1    0    0    0    0  0.00000000000E+00  0.00000000000E+00  0.45593999997E+02  0.45594000000E+02  0.51100000000E-03 0. -1.
         11   -1    0    0    0    0 -0.00000000000E+00 -0.00000000000E+00 -0.45593999997E+02  0.45594000000E+02  0.51100000000E-03 0.  1.
    9900012    2    1    2    0    0  0.23552672433E+01 -0.30836388114E+02  0.32751844783E+02  0.46142318160E+02  0.10000003637E+02 0.  0.
        -12    1    1    2    0    0 -0.23552672433E+01  0.30836388114E+02 -0.32751844783E+02  0.45045681840E+02  0.00000000000E+00 0.  1.
         11    1    3    3    0    0 -0.18166020507E+01 -0.42231366549E+01  0.78794452916E+01  0.91225316980E+01  0.51100000000E-03 0. -1.
        -11    1    3    3    0    0 -0.93406615398E-01 -0.31419972156E+01  0.10702004543E+01  0.33205723260E+01  0.51100000000E-03 0.  1.
         12    1    3    3    0    0  0.42652759094E+01 -0.23471254244E+02  0.23802199037E+02  0.33699214136E+02  0.00000000000E+00 0. -1.
</event>
<event>
 7    1  0.5664398E-009  0.4614232E+02  0.7816164E-02  0.1320468E+00
        -11   -1    0    0    0    0  0.00000000000E+00  0.00000000000E+00  0.45593999997E+02  0.45594000000E+02  0.51100000000E-03 0. -1.
         11   -1    0    0    0    0 -0.00000000000E+00 -0.00000000000E+00 -0.45593999997E+02  0.45594000000E+02  0.51100000000E-03 0.  1.
    9900012    2    1    2    0    0 -0.29798762880E+02  0.17498122538E+02  0.28895725470E+02  0.46142317499E+02  0.99999976086E+01 0.  0.
        -12    1    1    2    0    0  0.29798762880E+02 -0.17498122538E+02 -0.28895725470E+02  0.45045682501E+02  0.00000000000E+00 0.  1.
         11    1    3    3    0    0 -0.16015714716E+02  0.96284179292E+01  0.12928645523E+02  0.22723543408E+02  0.51100000000E-03 0. -1.
        -11    1    3    3    0    0 -0.27097367320E+01  0.32350527557E+01  0.11982838576E+01  0.43868125049E+01  0.51100000000E-03 0.  1.
         12    1    3    3    0    0 -0.11073311432E+02  0.46346518528E+01  0.14768796090E+02  0.19031961586E+02  0.00000000000E+00 0. -1.
</event>
<event>
 7    1  0.5664398E-009  0.4614232E+02  0.7816164E-02  0.1320468E+00
        -11   -1    0    0    0    0  0.00000000000E+00  0.00000000000E+00  0.45593999997E+02  0.45594000000E+02  0.51100000000E-03 0. -1.
         11   -1    0    0    0    0 -0.00000000000E+00 -0.00000000000E+00 -0.45593999997E+02  0.45594000000E+02  0.51100000000E-03 0.  1.
    9900012    2    1    2    0    0 -0.41154428990E+02 -0.82727089317E+01 -0.16339790528E+02  0.46142317710E+02  0.99999995298E+01 0.  0.
         12    1    1    2    0    0  0.41154428990E+02  0.82727089317E+01  0.16339790528E+02  0.45045682290E+02  0.00000000000E+00 0. -1.
         11    1    3    3    0    0 -0.20595494496E+02 -0.45826055741E+01 -0.10335827255E+02  0.23494765219E+02  0.51100000000E-03 0. -1.
        -11    1    3    3    0    0 -0.12098196970E+02 -0.44853772645E+01 -0.58013467288E+01  0.14147105826E+02  0.51100000000E-03 0.  1.
         12    1    3    3    0    0 -0.84607375235E+01  0.79527390692E+00 -0.20261654362E+00  0.85004466643E+01  0.00000000000E+00 0. -1.
</event>
<event>
 7    1  0.5664398E-009  0.4614232E+02  0.7816164E-02  0.1320468E+00
        -11   -1    0    0    0    0  0.00000000000E+00  0.00000000000E+00  0.45593999997E+02  0.45594000000E+02  0.51100000000E-03 0.  1.
         11   -1    0    0    0    0 -0.00000000000E+00 -0.00000000000E+00 -0.45593999997E+02  0.45594000000E+02  0.51100000000E-03 0. -1.
    9900012    2    1    2    0    0 -0.10144134041E+02  0.32672688467E+02 -0.29303679093E+02  0.46142316128E+02  0.99999851053E+01 0.  0.
         12    1    1    2    0    0  0.10144134041E+02 -0.32672688467E+02  0.29303679093E+02  0.45045683872E+02  0.00000000000E+00 0. -1.
         11    1    3    3    0    0 -0.41555970196E+01  0.15046939735E+02 -0.89528504903E+01  0.17995358128E+02  0.51100000000E-03 0.  1.
        -11    1    3    3    0    0 -0.35881655841E+01  0.15216609797E+02 -0.18676336580E+02  0.24356224960E+02  0.51100000000E-03 0. -1.
         12    1    3    3    0    0 -0.24003714376E+01  0.24091389350E+01 -0.16744920223E+01  0.37907330398E+01  0.00000000000E+00 0. -1.
</event>
<event>
 7    1  0.6582060E-009  0.4614233E+02  0.7816164E-02  0.1320468E+00
        -11   -1    0    0    0    0  0.00000000000E+00  0.00000000000E+00  0.45593999997E+02  0.45594000000E+02  0.51100000000E-03 0. -1.
         11   -1    0    0    0    0 -0.00000000000E+00 -0.00000000000E+00 -0.45593999997E+02  0.45594000000E+02  0.51100000000E-03 0.  1.
    9900012    2    1    2    0    0 -0.11169447556E+02  0.36556628684E+01 -0.43485536816E+02  0.46142330487E+02  0.10000116044E+02 0.  0.
         12    1    1    2    0    0  0.11169447556E+02 -0.36556628684E+01  0.43485536816E+02  0.45045669513E+02  0.00000000000E+00 0. -1.
         11    1    3    3    0    0 -0.10574736885E+01 -0.10315039703E+01 -0.87479164756E+00  0.17168318876E+01  0.51100000000E-03 0. -1.
        -11    1    3    3    0    0 -0.54090941835E+01 -0.15091698081E+00 -0.13522672254E+02  0.14565155028E+02  0.51100000000E-03 0.  1.
        -12    1    3    3    0    0 -0.47028796840E+01  0.48380838195E+01 -0.29088072914E+02  0.29860343572E+02  0.00000000000E+00 0.  1.
</event>
<event>
 7    1  0.5664398E-009  0.4614232E+02  0.7816164E-02  0.1320468E+00
        -11   -1    0    0    0    0  0.00000000000E+00  0.00000000000E+00  0.45593999997E+02  0.45594000000E+02  0.51100000000E-03 0.  1.
         11   -1    0    0    0    0 -0.00000000000E+00 -0.00000000000E+00 -0.45593999997E+02  0.45594000000E+02  0.51100000000E-03 0. -1.
    9900012    2    1    2    0    0  0.19705311504E+02 -0.38958090198E+02 -0.11094204857E+02  0.46142317912E+02  0.10000001376E+02 0.  0.
         12    1    1    2    0    0 -0.19705311504E+02  0.38958090198E+02  0.11094204857E+02  0.45045682088E+02  0.00000000000E+00 0. -1.
         11    1    3    3    0    0 -0.17714775784E+00 -0.34072315946E+01 -0.21964952483E+01  0.40577333703E+01  0.51100000000E-03 0. -1.
        -11    1    3    3    0    0  0.58081623535E+01 -0.15826589325E+02 -0.26981641151E+01  0.17073247185E+02  0.51100000000E-03 0.  1.
         12    1    3    3    0    0  0.14074296909E+02 -0.19724269278E+02 -0.61995454940E+01  0.25011337357E+02  0.00000000000E+00 0. -1.
</event>
<event>
 7    1  0.5664398E-009  0.4614232E+02  0.7816164E-02  0.1320468E+00
        -11   -1    0    0    0    0  0.00000000000E+00  0.00000000000E+00  0.45593999997E+02  0.45594000000E+02  0.51100000000E-03 0. -1.
         11   -1    0    0    0    0 -0.00000000000E+00 -0.00000000000E+00 -0.45593999997E+02  0.45594000000E+02  0.51100000000E-03 0.  1.
    9900012    2    1    2    0    0 -0.31642395655E+01  0.34097594854E+02  0.29265253870E+02  0.46142317954E+02  0.10000001761E+02 0.  0.
        -12    1    1    2    0    0  0.31642395655E+01 -0.34097594854E+02 -0.29265253870E+02  0.45045682046E+02  0.00000000000E+00 0.  1.
         11    1    3    3    0    0 -0.79940111993E-01 -0.13160943922E+00 -0.45690506375E+00  0.48215553963E+00  0.51100000000E-03 0. -1.
        -11    1    3    3    0    0 -0.31837055542E+01  0.11536820065E+02  0.10082731953E+02  0.15649143177E+02  0.51100000000E-03 0.  1.
         12    1    3    3    0    0  0.99406100749E-01  0.22692384229E+02  0.19639426981E+02  0.30011019238E+02  0.00000000000E+00 0. -1.
</event>
<event>
 7    1  0.5664398E-009  0.4614232E+02  0.7816164E-02  0.1320468E+00
        -11   -1    0    0    0    0  0.00000000000E+00  0.00000000000E+00  0.45593999997E+02  0.45594000000E+02  0.51100000000E-03 0. -1.
         11   -1    0    0    0    0 -0.00000000000E+00 -0.00000000000E+00 -0.45593999997E+02  0.45594000000E+02  0.51100000000E-03 0.  1.
    9900012    2    1    2    0    0 -0.10656284619E+02 -0.33176456467E+02  0.28546100200E+02  0.46142317607E+02  0.99999985980E+01 0.  0.
        -12    1    1    2    0    0  0.10656284619E+02  0.33176456467E+02 -0.28546100200E+02  0.45045682393E+02  0.00000000000E+00 0.  1.
         11    1    3    3    0    0  0.52750028534E+00 -0.27074832861E+01  0.10820854751E+01  0.29630443014E+01  0.51100000000E-03 0. -1.
        -11    1    3    3    0    0  0.44711876636E+00 -0.73337577258E+01  0.73295828693E+01  0.10378183987E+02  0.51100000000E-03 0.  1.
         12    1    3    3    0    0 -0.11630903671E+02 -0.23135215455E+02  0.20134431855E+02  0.32801089319E+02  0.00000000000E+00 0. -1.
</event>
<event>
 7    1  0.5664398E-009  0.4614232E+02  0.7816164E-02  0.1320468E+00
        -11   -1    0    0    0    0  0.00000000000E+00  0.00000000000E+00  0.45593999997E+02  0.45594000000E+02  0.51100000000E-03 0. -1.
         11   -1    0    0    0    0 -0.00000000000E+00 -0.00000000000E+00 -0.45593999997E+02  0.45594000000E+02  0.51100000000E-03 0.  1.
    9900012    2    1    2    0    0 -0.26433652952E+01  0.13372875986E+02  0.42933580940E+02  0.46142316916E+02  0.99999922929E+01 0.  0.
        -12    1    1    2    0    0  0.26433652952E+01 -0.13372875986E+02 -0.42933580940E+02  0.45045683084E+02  0.00000000000E+00 0.  1.
         11    1    3    3    0    0 -0.18069028610E+01  0.21577297887E+01  0.19273951730E+01  0.34110919372E+01  0.51100000000E-03 0. -1.
        -11    1    3    3    0    0 -0.23945401479E+01  0.89779730427E+01  0.31514776250E+02  0.32856033614E+02  0.51100000000E-03 0.  1.
        -12    1    3    3    0    0  0.15580777137E+01  0.22371731542E+01  0.94914095164E+01  0.98751913648E+01  0.00000000000E+00 0.  1.
</event>
<event>
 7    1  0.5664398E-009  0.4614232E+02  0.7816164E-02  0.1320468E+00
        -11   -1    0    0    0    0  0.00000000000E+00  0.00000000000E+00  0.45593999997E+02  0.45594000000E+02  0.51100000000E-03 0. -1.
         11   -1    0    0    0    0 -0.00000000000E+00 -0.00000000000E+00 -0.45593999997E+02  0.45594000000E+02  0.51100000000E-03 0.  1.
    9900012    2    1    2    0    0  0.38212532810E+02  0.99087517580E+01  0.21696368535E+02  0.46142318378E+02  0.10000005629E+02 0.  0.
        -12    1    1    2    0    0 -0.38212532810E+02 -0.99087517580E+01 -0.21696368535E+02  0.45045681622E+02  0.00000000000E+00 0.  1.
         11    1    3    3    0    0  0.13701608905E+02  0.31935737796E+01  0.94629798961E+01  0.16955264340E+02  0.51100000000E-03 0. -1.
        -11    1    3    3    0    0  0.16150872829E+02  0.63896408347E+00  0.75947004737E+01  0.17858847773E+02  0.51100000000E-03 0.  1.
         12    1    3    3    0    0  0.83600510761E+01  0.60762138949E+01  0.46386881657E+01  0.11328206265E+02  0.00000000000E+00 0. -1.
</event>
<event>
 7    1  0.5664398E-009  0.4614232E+02  0.7816164E-02  0.1320468E+00
        -11   -1    0    0    0    0  0.00000000000E+00  0.00000000000E+00  0.45593999997E+02  0.45594000000E+02  0.51100000000E-03 0. -1.
         11   -1    0    0    0    0 -0.00000000000E+00 -0.00000000000E+00 -0.45593999997E+02  0.45594000000E+02  0.51100000000E-03 0.  1.
    9900012    2    1    2    0    0  0.12646899330E+01 -0.38879275051E+02  0.22713783619E+02  0.46142318349E+02  0.10000005363E+02 0.  0.
        -12    1    1    2    0    0 -0.12646899330E+01  0.38879275051E+02 -0.22713783619E+02  0.45045681651E+02  0.00000000000E+00 0.  1.
         11    1    3    3    0    0 -0.13539110770E+01 -0.14504953222E+02  0.59110020229E+01  0.15721535814E+02  0.51100000000E-03 0.  1.
        -11    1    3    3    0    0  0.23254115157E+01 -0.36929033366E+01  0.48809669898E+01  0.65474355886E+01  0.51100000000E-03 0. -1.
         12    1    3    3    0    0  0.29318949428E+00 -0.20681418493E+02  0.11921814606E+02  0.23873346947E+02  0.00000000000E+00 0. -1.
</event>
<event>
 7    1  0.5664398E-009  0.4614232E+02  0.7816164E-02  0.1320468E+00
        -11   -1    0    0    0    0  0.00000000000E+00  0.00000000000E+00  0.45593999997E+02  0.45594000000E+02  0.51100000000E-03 0. -1.
         11   -1    0    0    0    0 -0.00000000000E+00 -0.00000000000E+00 -0.45593999997E+02  0.45594000000E+02  0.51100000000E-03 0.  1.
    9900012    2    1    2    0    0 -0.22744726816E+02 -0.13703538974E+02 -0.36386863299E+02  0.46142318752E+02  0.10000009033E+02 0.  0.
         12    1    1    2    0    0  0.22744726816E+02  0.13703538974E+02  0.36386863299E+02  0.45045681248E+02  0.00000000000E+00 0. -1.
         11    1    3    3    0    0 -0.60624947422E+01 -0.94474575644E+00 -0.14202867164E+02  0.15471516506E+02  0.51100000000E-03 0. -1.
        -11    1    3    3    0    0 -0.58608054432E+01 -0.36170025226E+01 -0.88734374060E+01  0.11232525956E+02  0.51100000000E-03 0.  1.
         12    1    3    3    0    0 -0.10821426631E+02 -0.91417906954E+01 -0.13310558729E+02  0.19438276290E+02  0.00000000000E+00 0. -1.
</event>
<event>
 7    1  0.5664398E-009  0.4614232E+02  0.7816164E-02  0.1320468E+00
        -11   -1    0    0    0    0  0.00000000000E+00  0.00000000000E+00  0.45593999997E+02  0.45594000000E+02  0.51100000000E-03 0. -1.
         11   -1    0    0    0    0 -0.00000000000E+00 -0.00000000000E+00 -0.45593999997E+02  0.45594000000E+02  0.51100000000E-03 0.  1.
    9900012    2    1    2    0    0 -0.74881864155E+01  0.16974108874E+02 -0.41047778598E+02  0.46142318346E+02  0.10000005331E+02 0.  0.
         12    1    1    2    0    0  0.74881864155E+01 -0.16974108874E+02  0.41047778598E+02  0.45045681654E+02  0.00000000000E+00 0. -1.
         11    1    3    3    0    0 -0.71936096456E+00  0.50685609491E+00 -0.69349047317E+01  0.69905140867E+01  0.51100000000E-03 0. -1.
        -11    1    3    3    0    0 -0.17061109880E+01 -0.31455197241E-01 -0.15835791954E+01  0.23279878570E+01  0.51100000000E-03 0.  1.
        -12    1    3    3    0    0 -0.50627144629E+01  0.16498707976E+02 -0.32529294671E+02  0.36823816402E+02  0.00000000000E+00 0.  1.
</event>
<event>
 7    1  0.5664398E-009  0.4614232E+02  0.7816164E-02  0.1320468E+00
        -11   -1    0    0    0    0  0.00000000000E+00  0.00000000000E+00  0.45593999997E+02  0.45594000000E+02  0.51100000000E-03 0.  1.
         11   -1    0    0    0    0 -0.00000000000E+00 -0.00000000000E+00 -0.45593999997E+02  0.45594000000E+02  0.51100000000E-03 0. -1.
    9900012    2    1    2    0    0  0.10363731273E+02 -0.38508773870E+02  0.20947097999E+02  0.46142317571E+02  0.99999982683E+01 0.  0.
         12    1    1    2    0    0 -0.10363731273E+02  0.38508773870E+02 -0.20947097999E+02  0.45045682429E+02  0.00000000000E+00 0. -1.
         11    1    3    3    0    0  0.85391317774E+00 -0.47243167755E+01 -0.64381107350E+00  0.48438445134E+01  0.51100000000E-03 0. -1.
        -11    1    3    3    0    0  0.35548605356E+01 -0.10232927648E+02  0.53955299269E+01  0.12102131429E+02  0.51100000000E-03 0.  1.
         12    1    3    3    0    0  0.59549575601E+01 -0.23551529446E+02  0.16195379146E+02  0.29196341628E+02  0.00000000000E+00 0. -1.
</event>
<event>
 7    1  0.5664398E-009  0.4614232E+02  0.7816164E-02  0.1320468E+00
        -11   -1    0    0    0    0  0.00000000000E+00  0.00000000000E+00  0.45593999997E+02  0.45594000000E+02  0.51100000000E-03 0. -1.
         11   -1    0    0    0    0 -0.00000000000E+00 -0.00000000000E+00 -0.45593999997E+02  0.45594000000E+02  0.51100000000E-03 0.  1.
    9900012    2    1    2    0    0 -0.35621565303E+02 -0.12376347192E+02 -0.24638255888E+02  0.46142317214E+02  0.99999950120E+01 0.  0.
         12    1    1    2    0    0  0.35621565303E+02  0.12376347192E+02  0.24638255888E+02  0.45045682786E+02  0.00000000000E+00 0. -1.
         11    1    3    3    0    0 -0.88538050822E+01 -0.38309325200E+00 -0.45234752063E+01  0.99497966350E+01  0.51100000000E-03 0. -1.
        -11    1    3    3    0    0 -0.20516949434E+02 -0.69421198723E+01 -0.11955950427E+02  0.24740311099E+02  0.51100000000E-03 0.  1.
        -12    1    3    3    0    0 -0.62508107872E+01 -0.50511340676E+01 -0.81588302541E+01  0.11452209480E+02  0.00000000000E+00 0.  1.
</event>
<event>
 7    1  0.5664398E-009  0.4614232E+02  0.7816164E-02  0.1320468E+00
        -11   -1    0    0    0    0  0.00000000000E+00  0.00000000000E+00  0.45593999997E+02  0.45594000000E+02  0.51100000000E-03 0. -1.
         11   -1    0    0    0    0 -0.00000000000E+00 -0.00000000000E+00 -0.45593999997E+02  0.45594000000E+02  0.51100000000E-03 0.  1.
    9900012    2    1    2    0    0  0.15445853891E+02  0.13317843064E+02  0.40164338485E+02  0.46142318384E+02  0.10000005676E+02 0.  0.
        -12    1    1    2    0    0 -0.15445853891E+02 -0.13317843064E+02 -0.40164338485E+02  0.45045681616E+02  0.00000000000E+00 0.  1.
         11    1    3    3    0    0  0.19323091874E+01  0.71179307353E+01  0.16054884519E+02  0.17667995753E+02  0.51100000000E-03 0. -1.
        -11    1    3    3    0    0  0.82856913545E+01  0.38847938746E+01  0.17395579093E+02  0.19655800084E+02  0.51100000000E-03 0.  1.
         12    1    3    3    0    0  0.52278533494E+01  0.23151184543E+01  0.67138748726E+01  0.88185225467E+01  0.00000000000E+00 0. -1.
</event>
<event>
 7    1  0.5664398E-009  0.4614232E+02  0.7816164E-02  0.1320468E+00
        -11   -1    0    0    0    0  0.00000000000E+00  0.00000000000E+00  0.45593999997E+02  0.45594000000E+02  0.51100000000E-03 0. -1.
         11   -1    0    0    0    0 -0.00000000000E+00 -0.00000000000E+00 -0.45593999997E+02  0.45594000000E+02  0.51100000000E-03 0.  1.
    9900012    2    1    2    0    0 -0.26349071510E+02 -0.36534250173E+02  0.29672807854E+00  0.46142322597E+02  0.10000044098E+02 0.  0.
        -12    1    1    2    0    0  0.26349071510E+02  0.36534250173E+02 -0.29672807854E+00  0.45045677403E+02  0.00000000000E+00 0.  1.
         11    1    3    3    0    0 -0.17578191748E+02 -0.22372149995E+02  0.27317126499E+01  0.28582655139E+02  0.51100000000E-03 0. -1.
        -11    1    3    3    0    0 -0.64748316798E+01 -0.66226037776E+01  0.15646102587E+00  0.92631963377E+01  0.51100000000E-03 0.  1.
        -12    1    3    3    0    0 -0.22960480819E+01 -0.75394964005E+01 -0.25914455972E+01  0.82964711204E+01  0.00000000000E+00 0.  1.
</event>
<event>
 7    1  0.5664398E-009  0.4614232E+02  0.7816164E-02  0.1320468E+00
        -11   -1    0    0    0    0  0.00000000000E+00  0.00000000000E+00  0.45593999997E+02  0.45594000000E+02  0.51100000000E-03 0. -1.
         11   -1    0    0    0    0 -0.00000000000E+00 -0.00000000000E+00 -0.45593999997E+02  0.45594000000E+02  0.51100000000E-03 0.  1.
    9900012    2    1    2    0    0 -0.39863519929E+02 -0.91047510983E+01 -0.18897532424E+02  0.46142318237E+02  0.10000004344E+02 0.  0.
         12    1    1    2    0    0  0.39863519929E+02  0.91047510983E+01  0.18897532424E+02  0.45045681763E+02  0.00000000000E+00 0. -1.
         11    1    3    3    0    0 -0.69494465763E+01 -0.50604383130E+01 -0.50409695550E+01  0.99656519081E+01  0.51100000000E-03 0. -1.
        -11    1    3    3    0    0 -0.53620395926E+01  0.21692389447E+00 -0.36381931019E+01  0.64834384301E+01  0.51100000000E-03 0.  1.
        -12    1    3    3    0    0 -0.27552033760E+02 -0.42612366797E+01 -0.10218369767E+02  0.29693227899E+02  0.00000000000E+00 0.  1.
</event>
<event>
 7    1  0.5664398E-009  0.4614232E+02  0.7816164E-02  0.1320468E+00
        -11   -1    0    0    0    0  0.00000000000E+00  0.00000000000E+00  0.45593999997E+02  0.45594000000E+02  0.51100000000E-03 0. -1.
         11   -1    0    0    0    0 -0.00000000000E+00 -0.00000000000E+00 -0.45593999997E+02  0.45594000000E+02  0.51100000000E-03 0.  1.
    9900012    2    1    2    0    0  0.12841240424E+02 -0.39923090780E+02  0.16442713724E+02  0.46142317991E+02  0.10000002099E+02 0.  0.
        -12    1    1    2    0    0 -0.12841240424E+02  0.39923090780E+02 -0.16442713724E+02  0.45045682009E+02  0.00000000000E+00 0.  1.
         11    1    3    3    0    0  0.54508729313E+01 -0.19513741230E+02  0.10116764873E+02  0.22646126473E+02  0.51100000000E-03 0. -1.
        -11    1    3    3    0    0  0.45161162269E+01 -0.74548912176E+01 -0.17918989333E+00  0.87179595158E+01  0.51100000000E-03 0.  1.
        -12    1    3    3    0    0  0.28742512657E+01 -0.12954458332E+02  0.65051387447E+01  0.14778232002E+02  0.00000000000E+00 0.  1.
</event>
<event>
 7    1  0.5664398E-009  0.4614232E+02  0.7816164E-02  0.1320468E+00
        -11   -1    0    0    0    0  0.00000000000E+00  0.00000000000E+00  0.45593999997E+02  0.45594000000E+02  0.51100000000E-03 0. -1.
         11   -1    0    0    0    0 -0.00000000000E+00 -0.00000000000E+00 -0.45593999997E+02  0.45594000000E+02  0.51100000000E-03 0.  1.
    9900012    2    1    2    0    0  0.29944060542E+02 -0.19359050174E+02  0.27526239627E+02  0.46142318150E+02  0.10000003542E+02 0.  0.
        -12    1    1    2    0    0 -0.29944060542E+02  0.19359050174E+02 -0.27526239627E+02  0.45045681850E+02  0.00000000000E+00 0.  1.
         11    1    3    3    0    0  0.74793217358E+01 -0.20982175181E+01  0.55548325686E+01  0.95498133755E+01  0.51100000000E-03 0.  1.
        -11    1    3    3    0    0  0.19081867854E+02 -0.10724413641E+02  0.16912706052E+02  0.27661712799E+02  0.51100000000E-03 0. -1.
         12    1    3    3    0    0  0.33828709521E+01 -0.65364190154E+01  0.50587010064E+01  0.89307919747E+01  0.00000000000E+00 0. -1.
</event>
<event>
 7    1  0.5664398E-009  0.4614231E+02  0.7816164E-02  0.1320468E+00
        -11   -1    0    0    0    0  0.00000000000E+00  0.00000000000E+00  0.45593999997E+02  0.45594000000E+02  0.51100000000E-03 0. -1.
         11   -1    0    0    0    0 -0.00000000000E+00 -0.00000000000E+00 -0.45593999997E+02  0.45594000000E+02  0.51100000000E-03 0.  1.
    9900012    2    1    2    0    0  0.39472403793E+02 -0.71274264776E+01  0.20499827473E+02  0.46142314348E+02  0.99999688800E+01 0.  0.
        -12    1    1    2    0    0 -0.39472403793E+02  0.71274264776E+01 -0.20499827473E+02  0.45045685652E+02  0.00000000000E+00 0.  1.
         11    1    3    3    0    0  0.23634652427E+02 -0.25195751827E+01  0.13517297445E+02  0.27343415751E+02  0.51100000000E-03 0. -1.
        -11    1    3    3    0    0  0.11251971338E+02 -0.28630210756E+01  0.75655162190E+01  0.13857878070E+02  0.51100000000E-03 0.  1.
        -12    1    3    3    0    0  0.45857800277E+01 -0.17448302193E+01 -0.58298619077E+00  0.49410205277E+01  0.00000000000E+00 0.  1.
</event>
<event>
 7    1  0.5664398E-009  0.4614232E+02  0.7816164E-02  0.1320468E+00
        -11   -1    0    0    0    0  0.00000000000E+00  0.00000000000E+00  0.45593999997E+02  0.45594000000E+02  0.51100000000E-03 0.  1.
         11   -1    0    0    0    0 -0.00000000000E+00 -0.00000000000E+00 -0.45593999997E+02  0.45594000000E+02  0.51100000000E-03 0. -1.
    9900012    2    1    2    0    0  0.42756628958E+02 -0.44617583299E+01  0.13456480463E+02  0.46142317924E+02  0.10000001481E+02 0.  0.
        -12    1    1    2    0    0 -0.42756628958E+02  0.44617583299E+01 -0.13456480463E+02  0.45045682076E+02  0.00000000000E+00 0.  1.
         11    1    3    3    0    0  0.28892158720E+02 -0.39053722266E+01  0.13424202501E+02  0.32097008907E+02  0.51100000000E-03 0. -1.
        -11    1    3    3    0    0  0.41825250211E+01 -0.11538368075E+01 -0.18205929128E+00  0.43425799679E+01  0.51100000000E-03 0.  1.
         12    1    3    3    0    0  0.96819452170E+01  0.59745070424E+00  0.21433725374E+00  0.97027290485E+01  0.00000000000E+00 0. -1.
</event>
<event>
 7    1  0.5664398E-009  0.4614232E+02  0.7816164E-02  0.1320468E+00
        -11   -1    0    0    0    0  0.00000000000E+00  0.00000000000E+00  0.45593999997E+02  0.45594000000E+02  0.51100000000E-03 0. -1.
         11   -1    0    0    0    0 -0.00000000000E+00 -0.00000000000E+00 -0.45593999997E+02  0.45594000000E+02  0.51100000000E-03 0.  1.
    9900012    2    1    2    0    0 -0.28943101909E+02 -0.28903494006E+02 -0.18867923229E+02  0.46142316068E+02  0.99999845618E+01 0.  0.
         12    1    1    2    0    0  0.28943101909E+02  0.28903494006E+02  0.18867923229E+02  0.45045683932E+02  0.00000000000E+00 0. -1.
         11    1    3    3    0    0 -0.23292563095E+02 -0.24528391430E+02 -0.18704378878E+02  0.38652804182E+02  0.51100000000E-03 0. -1.
        -11    1    3    3    0    0 -0.32486988743E+01 -0.25082328979E+01 -0.11993687160E+01  0.42759516162E+01  0.51100000000E-03 0.  1.
         12    1    3    3    0    0 -0.24018399402E+01 -0.18668696788E+01  0.10358243644E+01  0.32135602702E+01  0.00000000000E+00 0. -1.
</event>
<event>
 7    1  0.5664398E-009  0.4614232E+02  0.7816164E-02  0.1320468E+00
        -11   -1    0    0    0    0  0.00000000000E+00  0.00000000000E+00  0.45593999997E+02  0.45594000000E+02  0.51100000000E-03 0. -1.
         11   -1    0    0    0    0 -0.00000000000E+00 -0.00000000000E+00 -0.45593999997E+02  0.45594000000E+02  0.51100000000E-03 0.  1.
    9900012    2    1    2    0    0  0.21040914536E+02 -0.14113024780E+02 -0.37245346425E+02  0.46142318927E+02  0.10000010635E+02 0.  0.
         12    1    1    2    0    0 -0.21040914536E+02  0.14113024780E+02  0.37245346425E+02  0.45045681073E+02  0.00000000000E+00 0. -1.
         11    1    3    3    0    0  0.91370013648E+00 -0.95085511322E+00  0.64492155312E-01  0.13202775788E+01  0.51100000000E-03 0. -1.
        -11    1    3    3    0    0  0.17461585929E+01 -0.20410494918E+00 -0.61347756607E+01  0.63817083395E+01  0.51100000000E-03 0.  1.
        -12    1    3    3    0    0  0.18381055806E+02 -0.12958064718E+02 -0.31175062920E+02  0.38440333009E+02  0.00000000000E+00 0.  1.
</event>
<event>
 7    1  0.5664398E-009  0.4614232E+02  0.7816164E-02  0.1320468E+00
        -11   -1    0    0    0    0  0.00000000000E+00  0.00000000000E+00  0.45593999997E+02  0.45594000000E+02  0.51100000000E-03 0. -1.
         11   -1    0    0    0    0 -0.00000000000E+00 -0.00000000000E+00 -0.45593999997E+02  0.45594000000E+02  0.51100000000E-03 0.  1.
    9900012    2    1    2    0    0  0.15312672208E+02 -0.29614486149E+02 -0.30292207090E+02  0.46142317295E+02  0.99999957456E+01 0.  0.
         12    1    1    2    0    0 -0.15312672208E+02  0.29614486149E+02  0.30292207090E+02  0.45045682705E+02  0.00000000000E+00 0. -1.
         11    1    3    3    0    0  0.62232741467E+01 -0.49966964057E+01 -0.51981130886E+01  0.95245207763E+01  0.51100000000E-03 0. -1.
        -11    1    3    3    0    0  0.53348340988E+01 -0.13777956617E+02 -0.10861065539E+02  0.18337265017E+02  0.51100000000E-03 0.  1.
        -12    1    3    3    0    0  0.37545639624E+01 -0.10839833126E+02 -0.14233028463E+02  0.18280531501E+02  0.00000000000E+00 0.  1.
</event>
<event>
 7    1  0.5664398E-009  0.4614232E+02  0.7816164E-02  0.1320468E+00
        -11   -1    0    0    0    0  0.00000000000E+00  0.00000000000E+00  0.45593999997E+02  0.45594000000E+02  0.51100000000E-03 0. -1.
         11   -1    0    0    0    0 -0.00000000000E+00 -0.00000000000E+00 -0.45593999997E+02  0.45594000000E+02  0.51100000000E-03 0.  1.
    9900012    2    1    2    0    0 -0.30244238112E+02  0.90658043246E+01  0.32128036398E+02  0.46142317967E+02  0.10000001880E+02 0.  0.
        -12    1    1    2    0    0  0.30244238112E+02 -0.90658043246E+01 -0.32128036398E+02  0.45045682033E+02  0.00000000000E+00 0.  1.
         11    1    3    3    0    0 -0.22382958597E+02  0.80435714135E+01  0.22940484464E+02  0.33044843839E+02  0.51100000000E-03 0. -1.
        -11    1    3    3    0    0 -0.54740505278E+01  0.89233806503E+00  0.26704930660E+01  0.61557314659E+01  0.51100000000E-03 0.  1.
        -12    1    3    3    0    0 -0.23872289876E+01  0.12989484603E+00  0.65170588676E+01  0.69417426626E+01  0.00000000000E+00 0.  1.
</event>
<event>
 7    1  0.5664398E-009  0.4614232E+02  0.7816164E-02  0.1320468E+00
        -11   -1    0    0    0    0  0.00000000000E+00  0.00000000000E+00  0.45593999997E+02  0.45594000000E+02  0.51100000000E-03 0. -1.
         11   -1    0    0    0    0 -0.00000000000E+00 -0.00000000000E+00 -0.45593999997E+02  0.45594000000E+02  0.51100000000E-03 0.  1.
    9900012    2    1    2    0    0  0.29341697596E+01  0.60285000145E+01  0.44543925804E+02  0.46142317736E+02  0.99999997671E+01 0.  0.
        -12    1    1    2    0    0 -0.29341697596E+01 -0.60285000145E+01 -0.44543925804E+02  0.45045682264E+02  0.00000000000E+00 0.  1.
         11    1    3    3    0    0  0.24580277332E+01  0.12270573079E+00  0.12138427294E+02  0.12385409741E+02  0.51100000000E-03 0. -1.
        -11    1    3    3    0    0  0.31801599734E+01  0.48048724055E+00  0.83122410456E+01  0.89127794153E+01  0.51100000000E-03 0.  1.
        -12    1    3    3    0    0 -0.27040179470E+01  0.54253070431E+01  0.24093257465E+02  0.24844128579E+02  0.00000000000E+00 0.  1.
</event>
<event>
 7    1  0.5664398E-009  0.4614232E+02  0.7816164E-02  0.1320468E+00
        -11   -1    0    0    0    0  0.00000000000E+00  0.00000000000E+00  0.45593999997E+02  0.45594000000E+02  0.51100000000E-03 0. -1.
         11   -1    0    0    0    0 -0.00000000000E+00 -0.00000000000E+00 -0.45593999997E+02  0.45594000000E+02  0.51100000000E-03 0.  1.
    9900012    2    1    2    0    0  0.28615419987E+02 -0.18917571006E+02  0.29195833855E+02  0.46142317983E+02  0.10000002026E+02 0.  0.
        -12    1    1    2    0    0 -0.28615419987E+02  0.18917571006E+02 -0.29195833855E+02  0.45045682017E+02  0.00000000000E+00 0.  1.
         11    1    3    3    0    0  0.78400311522E+01 -0.31772787809E+01  0.39219445316E+01  0.93243143495E+01  0.51100000000E-03 0. -1.
        -11    1    3    3    0    0  0.18149597261E+02 -0.14572048098E+02  0.19484580895E+02  0.30354593712E+02  0.51100000000E-03 0.  1.
         12    1    3    3    0    0  0.26257915740E+01 -0.11682441274E+01  0.57893084285E+01  0.64634099214E+01  0.00000000000E+00 0. -1.
</event>
<event>
 7    1  0.7225956E-009  0.4614232E+02  0.7816164E-02  0.1320468E+00
        -11   -1    0    0    0    0  0.00000000000E+00  0.00000000000E+00  0.45593999997E+02  0.45594000000E+02  0.51100000000E-03 0. -1.
         11   -1    0    0    0    0 -0.00000000000E+00 -0.00000000000E+00 -0.45593999997E+02  0.45594000000E+02  0.51100000000E-03 0.  1.
    9900012    2    1    2    0    0 -0.16772364583E+01 -0.92048730284E+01  0.44063257747E+02  0.46142317711E+02  0.99999995396E+01 0.  0.
        -12    1    1    2    0    0  0.16772364583E+01  0.92048730284E+01 -0.44063257747E+02  0.45045682289E+02  0.00000000000E+00 0.  1.
         11    1    3    3    0    0 -0.10362317118E+01 -0.37852065014E+00  0.24116605099E+01  0.26520106936E+01  0.51100000000E-03 0. -1.
        -11    1    3    3    0    0  0.12531886259E+01 -0.22739755570E+00  0.43837416998E+00  0.13469831307E+01  0.51100000000E-03 0.  1.
         12    1    3    3    0    0 -0.18941933724E+01 -0.85989548226E+01  0.41213223067E+02  0.42143323886E+02  0.00000000000E+00 0. -1.
</event>
<event>
 7    1  0.5664398E-009  0.4614232E+02  0.7816164E-02  0.1320468E+00
        -11   -1    0    0    0    0  0.00000000000E+00  0.00000000000E+00  0.45593999997E+02  0.45594000000E+02  0.51100000000E-03 0. -1.
         11   -1    0    0    0    0 -0.00000000000E+00 -0.00000000000E+00 -0.45593999997E+02  0.45594000000E+02  0.51100000000E-03 0.  1.
    9900012    2    1    2    0    0  0.47570708526E+00 -0.19910847306E+01 -0.44999141824E+02  0.46142317848E+02  0.10000000793E+02 0.  0.
         12    1    1    2    0    0 -0.47570708526E+00  0.19910847306E+01  0.44999141824E+02  0.45045682152E+02  0.00000000000E+00 0. -1.
         11    1    3    3    0    0  0.40922366696E+01  0.68860692635E+00 -0.30383807030E+02  0.30665881862E+02  0.51100000000E-03 0. -1.
        -11    1    3    3    0    0 -0.15889472448E+01 -0.16372773652E+00 -0.74024895982E+01  0.75728734725E+01  0.51100000000E-03 0.  1.
         12    1    3    3    0    0 -0.20275823396E+01 -0.25159639204E+01 -0.72128451958E+01  0.79035625139E+01  0.00000000000E+00 0. -1.
</event>
<event>
 7    1  0.5664398E-009  0.4614232E+02  0.7816164E-02  0.1320468E+00
        -11   -1    0    0    0    0  0.00000000000E+00  0.00000000000E+00  0.45593999997E+02  0.45594000000E+02  0.51100000000E-03 0. -1.
         11   -1    0    0    0    0 -0.00000000000E+00 -0.00000000000E+00 -0.45593999997E+02  0.45594000000E+02  0.51100000000E-03 0.  1.
    9900012    2    1    2    0    0  0.82879534358E+01  0.58264481362E+01 -0.43891637445E+02  0.46142317547E+02  0.99999980479E+01 0.  0.
         12    1    1    2    0    0 -0.82879534358E+01 -0.58264481362E+01  0.43891637445E+02  0.45045682453E+02  0.00000000000E+00 0. -1.
         11    1    3    3    0    0  0.54299533029E+01  0.31934730195E+01 -0.20546900492E+02  0.21490876736E+02  0.51100000000E-03 0. -1.
        -11    1    3    3    0    0  0.35005011613E+01  0.45438785041E+01 -0.14813058702E+02  0.15884805589E+02  0.51100000000E-03 0.  1.
         12    1    3    3    0    0 -0.64250102835E+00 -0.19109033874E+01 -0.85316782513E+01  0.87666352217E+01  0.00000000000E+00 0. -1.
</event>
<event>
 7    1  0.5664398E-009  0.4614232E+02  0.7816164E-02  0.1320468E+00
        -11   -1    0    0    0    0  0.00000000000E+00  0.00000000000E+00  0.45593999997E+02  0.45594000000E+02  0.51100000000E-03 0. -1.
         11   -1    0    0    0    0 -0.00000000000E+00 -0.00000000000E+00 -0.45593999997E+02  0.45594000000E+02  0.51100000000E-03 0.  1.
    9900012    2    1    2    0    0 -0.16022352831E+02 -0.30345346807E+02 -0.29181458653E+02  0.46142318828E+02  0.10000009733E+02 0.  0.
         12    1    1    2    0    0  0.16022352831E+02  0.30345346807E+02  0.29181458653E+02  0.45045681172E+02  0.00000000000E+00 0. -1.
         11    1    3    3    0    0 -0.40720784971E+01 -0.95201026912E+01 -0.59862528691E+01  0.11960326175E+02  0.51100000000E-03 0. -1.
        -11    1    3    3    0    0 -0.11448904089E+02 -0.16915120769E+02 -0.15880176945E+02  0.25872354657E+02  0.51100000000E-03 0.  1.
        -12    1    3    3    0    0 -0.50137024557E+00 -0.39101233473E+01 -0.73150288389E+01  0.83096379962E+01  0.00000000000E+00 0.  1.
</event>
<event>
 7    1  0.5664398E-009  0.4614232E+02  0.7816164E-02  0.1320468E+00
        -11   -1    0    0    0    0  0.00000000000E+00  0.00000000000E+00  0.45593999997E+02  0.45594000000E+02  0.51100000000E-03 0. -1.
         11   -1    0    0    0    0 -0.00000000000E+00 -0.00000000000E+00 -0.45593999997E+02  0.45594000000E+02  0.51100000000E-03 0.  1.
    9900012    2    1    2    0    0 -0.13807372436E+02 -0.33473642553E+02 -0.26795246143E+02  0.46142317685E+02  0.99999993049E+01 0.  0.
         12    1    1    2    0    0  0.13807372436E+02  0.33473642553E+02  0.26795246143E+02  0.45045682315E+02  0.00000000000E+00 0. -1.
         11    1    3    3    0    0 -0.85295792529E+00 -0.15546637856E+01  0.32753230962E+00  0.18032732415E+01  0.51100000000E-03 0. -1.
        -11    1    3    3    0    0 -0.10369890549E+02 -0.21999430938E+02 -0.22353533177E+02  0.33033165717E+02  0.51100000000E-03 0.  1.
        -12    1    3    3    0    0 -0.25845239608E+01 -0.99195478302E+01 -0.47692452763E+01  0.11305878726E+02  0.00000000000E+00 0.  1.
</event>
<event>
 7    1  0.5664398E-009  0.4614232E+02  0.7816164E-02  0.1320468E+00
        -11   -1    0    0    0    0  0.00000000000E+00  0.00000000000E+00  0.45593999997E+02  0.45594000000E+02  0.51100000000E-03 0. -1.
         11   -1    0    0    0    0 -0.00000000000E+00 -0.00000000000E+00 -0.45593999997E+02  0.45594000000E+02  0.51100000000E-03 0.  1.
    9900012    2    1    2    0    0  0.49578498775E+01  0.24698425542E+02  0.37343285152E+02  0.46142318236E+02  0.10000004326E+02 0.  0.
        -12    1    1    2    0    0 -0.49578498775E+01 -0.24698425542E+02 -0.37343285152E+02  0.45045681764E+02  0.00000000000E+00 0.  1.
         11    1    3    3    0    0  0.31346721820E+01  0.14225948544E+02  0.14455917992E+02  0.20522605754E+02  0.51100000000E-03 0. -1.
        -11    1    3    3    0    0  0.26216232153E+01  0.39234453260E+01  0.11931672347E+02  0.12830866564E+02  0.51100000000E-03 0.  1.
        -12    1    3    3    0    0 -0.79844551980E+00  0.65490316721E+01  0.10955694812E+02  0.12788845918E+02  0.00000000000E+00 0.  1.
</event>
<event>
 7    1  0.5664398E-009  0.4614232E+02  0.7816164E-02  0.1320468E+00
        -11   -1    0    0    0    0  0.00000000000E+00  0.00000000000E+00  0.45593999997E+02  0.45594000000E+02  0.51100000000E-03 0. -1.
         11   -1    0    0    0    0 -0.00000000000E+00 -0.00000000000E+00 -0.45593999997E+02  0.45594000000E+02  0.51100000000E-03 0.  1.
    9900012    2    1    2    0    0  0.27724513136E+02 -0.57537888724E+01  0.35033680097E+02  0.46142318118E+02  0.10000003255E+02 0.  0.
        -12    1    1    2    0    0 -0.27724513136E+02  0.57537888724E+01 -0.35033680097E+02  0.45045681882E+02  0.00000000000E+00 0.  1.
         11    1    3    3    0    0  0.91885449173E+01  0.17903244598E+01  0.10721531891E+02  0.14233266165E+02  0.51100000000E-03 0.  1.
        -11    1    3    3    0    0  0.42670420442E+01 -0.24866703840E+00  0.78271073722E+01  0.89181328304E+01  0.51100000000E-03 0. -1.
        -12    1    3    3    0    0  0.14268926175E+02 -0.72954462938E+01  0.16485040835E+02  0.22990919123E+02  0.00000000000E+00 0.  1.
</event>
<event>
 7    1  0.5664398E-009  0.4614232E+02  0.7816164E-02  0.1320468E+00
        -11   -1    0    0    0    0  0.00000000000E+00  0.00000000000E+00  0.45593999997E+02  0.45594000000E+02  0.51100000000E-03 0. -1.
         11   -1    0    0    0    0 -0.00000000000E+00 -0.00000000000E+00 -0.45593999997E+02  0.45594000000E+02  0.51100000000E-03 0.  1.
    9900012    2    1    2    0    0  0.26059850757E+02  0.16561557602E+02 -0.32798056145E+02  0.46142317648E+02  0.99999989671E+01 0.  0.
         12    1    1    2    0    0 -0.26059850757E+02 -0.16561557602E+02  0.32798056145E+02  0.45045682352E+02  0.00000000000E+00 0. -1.
         11    1    3    3    0    0  0.63625568327E+01  0.27516657078E+01 -0.69462731128E+01  0.98134858249E+01  0.51100000000E-03 0. -1.
        -11    1    3    3    0    0  0.14556991715E+02  0.57312347878E+01 -0.13248113370E+02  0.20500379706E+02  0.51100000000E-03 0.  1.
         12    1    3    3    0    0  0.51403022091E+01  0.80786571068E+01 -0.12603669662E+02  0.15828452117E+02  0.00000000000E+00 0. -1.
</event>
<event>
 7    1  0.5664398E-009  0.4614232E+02  0.7816164E-02  0.1320468E+00
        -11   -1    0    0    0    0  0.00000000000E+00  0.00000000000E+00  0.45593999997E+02  0.45594000000E+02  0.51100000000E-03 0. -1.
         11   -1    0    0    0    0 -0.00000000000E+00 -0.00000000000E+00 -0.45593999997E+02  0.45594000000E+02  0.51100000000E-03 0.  1.
    9900012    2    1    2    0    0  0.25481418671E+02 -0.29472096799E+02 -0.22609869390E+02  0.46142318952E+02  0.10000010862E+02 0.  0.
         12    1    1    2    0    0 -0.25481418671E+02  0.29472096799E+02  0.22609869390E+02  0.45045681048E+02  0.00000000000E+00 0. -1.
         11    1    3    3    0    0  0.14384769263E+02 -0.18892182692E+02 -0.14519163140E+02  0.27832395732E+02  0.51100000000E-03 0. -1.
        -11    1    3    3    0    0  0.75301493072E+01 -0.72090314901E+01 -0.84071791769E+01  0.13392309195E+02  0.51100000000E-03 0.  1.
         12    1    3    3    0    0  0.35665001006E+01 -0.33708826171E+01  0.31647292702E+00  0.49176140250E+01  0.00000000000E+00 0. -1.
</event>
<event>
 7    1  0.5664398E-009  0.4614232E+02  0.7816164E-02  0.1320468E+00
        -11   -1    0    0    0    0  0.00000000000E+00  0.00000000000E+00  0.45593999997E+02  0.45594000000E+02  0.51100000000E-03 0. -1.
         11   -1    0    0    0    0 -0.00000000000E+00 -0.00000000000E+00 -0.45593999997E+02  0.45594000000E+02  0.51100000000E-03 0.  1.
    9900012    2    1    2    0    0 -0.16353326940E+02  0.16223232771E+01 -0.41941032658E+02  0.46142318128E+02  0.10000003350E+02 0.  0.
         12    1    1    2    0    0  0.16353326940E+02 -0.16223232771E+01  0.41941032658E+02  0.45045681872E+02  0.00000000000E+00 0. -1.
         11    1    3    3    0    0 -0.30793888248E+01 -0.23813835348E+01 -0.41864156483E+01  0.57166160721E+01  0.51100000000E-03 0. -1.
        -11    1    3    3    0    0 -0.67728615416E+01  0.11109049740E+01 -0.13436459289E+02  0.15087882615E+02  0.51100000000E-03 0.  1.
         12    1    3    3    0    0 -0.65010765734E+01  0.28928018379E+01 -0.24318157721E+02  0.25337819441E+02  0.00000000000E+00 0. -1.
</event>
<event>
 7    1  0.5664398E-009  0.4614232E+02  0.7816164E-02  0.1320468E+00
        -11   -1    0    0    0    0  0.00000000000E+00  0.00000000000E+00  0.45593999997E+02  0.45594000000E+02  0.51100000000E-03 0. -1.
         11   -1    0    0    0    0 -0.00000000000E+00 -0.00000000000E+00 -0.45593999997E+02  0.45594000000E+02  0.51100000000E-03 0.  1.
    9900012    2    1    2    0    0 -0.10501117488E+02 -0.45842831671E+01  0.43564022536E+02  0.46142321182E+02  0.10000031196E+02 0.  0.
        -12    1    1    2    0    0  0.10501117488E+02  0.45842831671E+01 -0.43564022536E+02  0.45045678818E+02  0.00000000000E+00 0.  1.
         11    1    3    3    0    0 -0.59451724534E+00 -0.73778616941E+00  0.51376824112E+01  0.52243238803E+01  0.51100000000E-03 0. -1.
        -11    1    3    3    0    0 -0.29394398865E+01  0.18269747041E+01  0.21285300499E+02  0.21564836216E+02  0.51100000000E-03 0.  1.
        -12    1    3    3    0    0 -0.69671603559E+01 -0.56734717018E+01  0.17141039626E+02  0.19353161086E+02  0.00000000000E+00 0.  1.
</event>
<event>
 7    1  0.5664398E-009  0.4614232E+02  0.7816164E-02  0.1320468E+00
        -11   -1    0    0    0    0  0.00000000000E+00  0.00000000000E+00  0.45593999997E+02  0.45594000000E+02  0.51100000000E-03 0. -1.
         11   -1    0    0    0    0 -0.00000000000E+00 -0.00000000000E+00 -0.45593999997E+02  0.45594000000E+02  0.51100000000E-03 0.  1.
    9900012    2    1    2    0    0  0.35087937266E+02 -0.34635885343E+01 -0.28034855783E+02  0.46142324005E+02  0.10000056935E+02 0.  0.
         12    1    1    2    0    0 -0.35087937266E+02  0.34635885343E+01  0.28034855783E+02  0.45045675995E+02  0.00000000000E+00 0. -1.
         11    1    3    3    0    0  0.15461735851E+02  0.31931848134E+01 -0.13501275872E+02  0.20773689013E+02  0.51100000000E-03 0. -1.
        -11    1    3    3    0    0  0.61270965887E+01 -0.13607947891E+01 -0.39425734724E+01  0.74119471741E+01  0.51100000000E-03 0.  1.
         12    1    3    3    0    0  0.13499104826E+02 -0.52959785586E+01 -0.10591006438E+02  0.17956687818E+02  0.00000000000E+00 0. -1.
</event>
<event>
 7    1  0.5664398E-009  0.4614232E+02  0.7816164E-02  0.1320468E+00
        -11   -1    0    0    0    0  0.00000000000E+00  0.00000000000E+00  0.45593999997E+02  0.45594000000E+02  0.51100000000E-03 0. -1.
         11   -1    0    0    0    0 -0.00000000000E+00 -0.00000000000E+00 -0.45593999997E+02  0.45594000000E+02  0.51100000000E-03 0.  1.
    9900012    2    1    2    0    0  0.33025515932E+02 -0.10125695498E+02  0.28911919495E+02  0.46142317623E+02  0.99999987405E+01 0.  0.
        -12    1    1    2    0    0 -0.33025515932E+02  0.10125695498E+02 -0.28911919495E+02  0.45045682377E+02  0.00000000000E+00 0.  1.
         11    1    3    3    0    0  0.19026569171E+02 -0.62114733676E+01  0.20361907844E+02  0.28551707954E+02  0.51100000000E-03 0. -1.
        -11    1    3    3    0    0  0.21351916457E+01 -0.32573472199E+00 -0.53239381044E+00  0.22245426279E+01  0.51100000000E-03 0.  1.
        -12    1    3    3    0    0  0.11863755116E+02 -0.35884874088E+01  0.90824054619E+01  0.15366067041E+02  0.00000000000E+00 0.  1.
</event>
<event>
 7    1  0.5664398E-009  0.4614232E+02  0.7816164E-02  0.1320468E+00
        -11   -1    0    0    0    0  0.00000000000E+00  0.00000000000E+00  0.45593999997E+02  0.45594000000E+02  0.51100000000E-03 0. -1.
         11   -1    0    0    0    0 -0.00000000000E+00 -0.00000000000E+00 -0.45593999997E+02  0.45594000000E+02  0.51100000000E-03 0.  1.
    9900012    2    1    2    0    0 -0.90598594692E+00  0.11517422957E+02 -0.43538968531E+02  0.46142316268E+02  0.99999863839E+01 0.  0.
         12    1    1    2    0    0  0.90598594692E+00 -0.11517422957E+02  0.43538968531E+02  0.45045683732E+02  0.00000000000E+00 0. -1.
         11    1    3    3    0    0  0.17871005442E+01  0.42555180331E+01 -0.64405979786E+01  0.79236648508E+01  0.51100000000E-03 0. -1.
        -11    1    3    3    0    0 -0.28462331182E+01  0.54068149231E+01 -0.17577266885E+02  0.18609003250E+02  0.51100000000E-03 0.  1.
         12    1    3    3    0    0  0.15314662713E+00  0.18550900010E+01 -0.19521103668E+02  0.19609648167E+02  0.00000000000E+00 0. -1.
</event>
<event>
 7    1  0.5664398E-009  0.4614232E+02  0.7816164E-02  0.1320468E+00
        -11   -1    0    0    0    0  0.00000000000E+00  0.00000000000E+00  0.45593999997E+02  0.45594000000E+02  0.51100000000E-03 0. -1.
         11   -1    0    0    0    0 -0.00000000000E+00 -0.00000000000E+00 -0.45593999997E+02  0.45594000000E+02  0.51100000000E-03 0.  1.
    9900012    2    1    2    0    0  0.13676211712E+02 -0.39632267508E+02 -0.16472949841E+02  0.46142317953E+02  0.10000001748E+02 0.  0.
         12    1    1    2    0    0 -0.13676211712E+02  0.39632267508E+02  0.16472949841E+02  0.45045682047E+02  0.00000000000E+00 0. -1.
         11    1    3    3    0    0  0.64597967096E+01 -0.93035951066E+01 -0.36049532821E+01  0.11886191310E+02  0.51100000000E-03 0. -1.
        -11    1    3    3    0    0  0.44764149913E+01 -0.10555599087E+02 -0.70660549240E+01  0.13468039787E+02  0.51100000000E-03 0.  1.
         12    1    3    3    0    0  0.27400000112E+01 -0.19773073315E+02 -0.58019416350E+01  0.20788086855E+02  0.00000000000E+00 0. -1.
</event>
<event>
 7    1  0.5664398E-009  0.4614232E+02  0.7816164E-02  0.1320468E+00
        -11   -1    0    0    0    0  0.00000000000E+00  0.00000000000E+00  0.45593999997E+02  0.45594000000E+02  0.51100000000E-03 0. -1.
         11   -1    0    0    0    0 -0.00000000000E+00 -0.00000000000E+00 -0.45593999997E+02  0.45594000000E+02  0.51100000000E-03 0.  1.
    9900012    2    1    2    0    0  0.22620007705E+02 -0.21860244386E+02 -0.32242492591E+02  0.46142319167E+02  0.10000012824E+02 0.  0.
         12    1    1    2    0    0 -0.22620007705E+02  0.21860244386E+02  0.32242492591E+02  0.45045680833E+02  0.00000000000E+00 0. -1.
         11    1    3    3    0    0  0.13243643093E+02 -0.13730020319E+02 -0.18784862716E+02  0.26772721338E+02  0.51100000000E-03 0. -1.
        -11    1    3    3    0    0  0.10124504692E+02 -0.64147461134E+01 -0.10902947842E+02  0.16202741584E+02  0.51100000000E-03 0.  1.
         12    1    3    3    0    0 -0.74814007891E+00 -0.17154779528E+01 -0.25546820330E+01  0.31668562446E+01  0.00000000000E+00 0. -1.
</event>
<event>
 7    1  0.5664398E-009  0.4614232E+02  0.7816164E-02  0.1320468E+00
        -11   -1    0    0    0    0  0.00000000000E+00  0.00000000000E+00  0.45593999997E+02  0.45594000000E+02  0.51100000000E-03 0. -1.
         11   -1    0    0    0    0 -0.00000000000E+00 -0.00000000000E+00 -0.45593999997E+02  0.45594000000E+02  0.51100000000E-03 0.  1.
    9900012    2    1    2    0    0  0.33667949569E+02  0.24127899714E+02 -0.17703872632E+02  0.46142317866E+02  0.10000000957E+02 0.  0.
         12    1    1    2    0    0 -0.33667949569E+02 -0.24127899714E+02  0.17703872632E+02  0.45045682134E+02  0.00000000000E+00 0. -1.
         11    1    3    3    0    0  0.18924234511E+02  0.14187324040E+02 -0.14892396457E+02  0.27949781532E+02  0.51100000000E-03 0. -1.
        -11    1    3    3    0    0  0.45000721812E+01  0.18216242464E+01 -0.13572687449E+01  0.50409466609E+01  0.51100000000E-03 0.  1.
         12    1    3    3    0    0  0.10243642876E+02  0.81189514279E+01 -0.14542074301E+01  0.13151589673E+02  0.00000000000E+00 0. -1.
</event>
<event>
 7    1  0.5664398E-009  0.4614232E+02  0.7816164E-02  0.1320468E+00
        -11   -1    0    0    0    0  0.00000000000E+00  0.00000000000E+00  0.45593999997E+02  0.45594000000E+02  0.51100000000E-03 0. -1.
         11   -1    0    0    0    0 -0.00000000000E+00 -0.00000000000E+00 -0.45593999997E+02  0.45594000000E+02  0.51100000000E-03 0.  1.
    9900012    2    1    2    0    0 -0.21341210917E+02 -0.13665069067E+02  0.37241537887E+02  0.46142317186E+02  0.99999947548E+01 0.  0.
        -12    1    1    2    0    0  0.21341210917E+02  0.13665069067E+02 -0.37241537887E+02  0.45045682814E+02  0.00000000000E+00 0.  1.
         11    1    3    3    0    0 -0.85223424656E+01 -0.96651275224E+01  0.21760837313E+02  0.25289900197E+02  0.51100000000E-03 0. -1.
        -11    1    3    3    0    0 -0.32075373200E+01 -0.17487110959E+01  0.20656491929E+01  0.41968074778E+01  0.51100000000E-03 0.  1.
         12    1    3    3    0    0 -0.96113311312E+01 -0.22512304486E+01  0.13415051381E+02  0.16655609511E+02  0.00000000000E+00 0. -1.
</event>
<event>
 7    1  0.5664398E-009  0.4614232E+02  0.7816164E-02  0.1320468E+00
        -11   -1    0    0    0    0  0.00000000000E+00  0.00000000000E+00  0.45593999997E+02  0.45594000000E+02  0.51100000000E-03 0. -1.
         11   -1    0    0    0    0 -0.00000000000E+00 -0.00000000000E+00 -0.45593999997E+02  0.45594000000E+02  0.51100000000E-03 0.  1.
    9900012    2    1    2    0    0 -0.49168437854E+01 -0.28318781071E+01  0.44686895516E+02  0.46142317440E+02  0.99999970749E+01 0.  0.
        -12    1    1    2    0    0  0.49168437854E+01  0.28318781071E+01 -0.44686895516E+02  0.45045682560E+02  0.00000000000E+00 0.  1.
         11    1    3    3    0    0 -0.97008610172E+00 -0.26840171810E+01  0.98062622190E+01  0.10213118732E+02  0.51100000000E-03 0. -1.
        -11    1    3    3    0    0 -0.71702310211E+00 -0.37267258375E+01  0.15098122664E+02  0.15567784552E+02  0.51100000000E-03 0.  1.
        -12    1    3    3    0    0 -0.32297345815E+01  0.35788649114E+01  0.19782510632E+02  0.20361414156E+02  0.00000000000E+00 0.  1.
</event>
<event>
 7    1  0.5664398E-009  0.4614232E+02  0.7816164E-02  0.1320468E+00
        -11   -1    0    0    0    0  0.00000000000E+00  0.00000000000E+00  0.45593999997E+02  0.45594000000E+02  0.51100000000E-03 0. -1.
         11   -1    0    0    0    0 -0.00000000000E+00 -0.00000000000E+00 -0.45593999997E+02  0.45594000000E+02  0.51100000000E-03 0.  1.
    9900012    2    1    2    0    0  0.25829740565E+02  0.63922618797E+01 -0.36346623384E+02  0.46142317177E+02  0.99999946746E+01 0.  0.
         12    1    1    2    0    0 -0.25829740565E+02 -0.63922618797E+01  0.36346623384E+02  0.45045682823E+02  0.00000000000E+00 0. -1.
         11    1    3    3    0    0  0.93828410894E+01  0.25295058712E+01 -0.19447842355E+02  0.21740622793E+02  0.51100000000E-03 0. -1.
        -11    1    3    3    0    0  0.74735858731E+01  0.64974671957E-01 -0.48655593097E+01  0.89180925746E+01  0.51100000000E-03 0.  1.
        -12    1    3    3    0    0  0.89733136023E+01  0.37977813365E+01 -0.12033221718E+02  0.15483601810E+02  0.00000000000E+00 0.  1.
</event>
<event>
 7    1  0.5664398E-009  0.4614232E+02  0.7816164E-02  0.1320468E+00
        -11   -1    0    0    0    0  0.00000000000E+00  0.00000000000E+00  0.45593999997E+02  0.45594000000E+02  0.51100000000E-03 0. -1.
         11   -1    0    0    0    0 -0.00000000000E+00 -0.00000000000E+00 -0.45593999997E+02  0.45594000000E+02  0.51100000000E-03 0.  1.
    9900012    2    1    2    0    0  0.22776273978E+02  0.76609164283E+01  0.38100724853E+02  0.46142317286E+02  0.99999956716E+01 0.  0.
        -12    1    1    2    0    0 -0.22776273978E+02 -0.76609164283E+01 -0.38100724853E+02  0.45045682714E+02  0.00000000000E+00 0.  1.
         11    1    3    3    0    0  0.36350549770E+01  0.48651321094E+01  0.62639435405E+01  0.87246847546E+01  0.51100000000E-03 0.  1.
        -11    1    3    3    0    0  0.73159215681E+01  0.27827110364E+01  0.12193884941E+02  0.14489893696E+02  0.51100000000E-03 0. -1.
        -12    1    3    3    0    0  0.11825297433E+02  0.13073282522E-01  0.19642896371E+02  0.22927738836E+02  0.00000000000E+00 0.  1.
</event>
<event>
 7    1  0.5664398E-009  0.4614232E+02  0.7816164E-02  0.1320468E+00
        -11   -1    0    0    0    0  0.00000000000E+00  0.00000000000E+00  0.45593999997E+02  0.45594000000E+02  0.51100000000E-03 0. -1.
         11   -1    0    0    0    0 -0.00000000000E+00 -0.00000000000E+00 -0.45593999997E+02  0.45594000000E+02  0.51100000000E-03 0.  1.
    9900012    2    1    2    0    0 -0.23687505607E+02  0.52307442181E+01  0.37955957009E+02  0.46142320080E+02  0.10000021147E+02 0.  0.
        -12    1    1    2    0    0  0.23687505607E+02 -0.52307442181E+01 -0.37955957009E+02  0.45045679920E+02  0.00000000000E+00 0.  1.
         11    1    3    3    0    0 -0.26283472451E+01  0.72142827203E+00  0.41619361242E+01  0.49749754327E+01  0.51100000000E-03 0. -1.
        -11    1    3    3    0    0 -0.17513519273E+02  0.71581025841E+01  0.29153568585E+02  0.34754745740E+02  0.51100000000E-03 0.  1.
        -12    1    3    3    0    0 -0.35456390892E+01 -0.26487866380E+01  0.46404522996E+01  0.64125989076E+01  0.00000000000E+00 0.  1.
</event>
<event>
 7    1  0.5664398E-009  0.4614232E+02  0.7816164E-02  0.1320468E+00
        -11   -1    0    0    0    0  0.00000000000E+00  0.00000000000E+00  0.45593999997E+02  0.45594000000E+02  0.51100000000E-03 0. -1.
         11   -1    0    0    0    0 -0.00000000000E+00 -0.00000000000E+00 -0.45593999997E+02  0.45594000000E+02  0.51100000000E-03 0.  1.
    9900012    2    1    2    0    0  0.12333022942E+02  0.49239766843E+01 -0.43043749794E+02  0.46142318768E+02  0.10000009182E+02 0.  0.
         12    1    1    2    0    0 -0.12333022942E+02 -0.49239766843E+01  0.43043749794E+02  0.45045681232E+02  0.00000000000E+00 0. -1.
         11    1    3    3    0    0 -0.57322612561E+00 -0.30479893620E+00 -0.94698327566E+01  0.94920610660E+01  0.51100000000E-03 0. -1.
        -11    1    3    3    0    0  0.10210985296E+02  0.25991664808E+01 -0.28061752319E+02  0.29974686497E+02  0.51100000000E-03 0.  1.
         12    1    3    3    0    0  0.26952637720E+01  0.26296091396E+01 -0.55121647188E+01  0.66755712052E+01  0.00000000000E+00 0. -1.
</event>
<event>
 7    1  0.5664398E-009  0.4614232E+02  0.7816164E-02  0.1320468E+00
        -11   -1    0    0    0    0  0.00000000000E+00  0.00000000000E+00  0.45593999997E+02  0.45594000000E+02  0.51100000000E-03 0. -1.
         11   -1    0    0    0    0 -0.00000000000E+00 -0.00000000000E+00 -0.45593999997E+02  0.45594000000E+02  0.51100000000E-03 0.  1.
    9900012    2    1    2    0    0  0.36740866256E+02 -0.19710506994E+02  0.17050465628E+02  0.46142315219E+02  0.99999768232E+01 0.  0.
        -12    1    1    2    0    0 -0.36740866256E+02  0.19710506994E+02 -0.17050465628E+02  0.45045684781E+02  0.00000000000E+00 0.  1.
         11    1    3    3    0    0  0.17435516062E+02 -0.10537533409E+02  0.50724750174E+01  0.20994447689E+02  0.51100000000E-03 0. -1.
        -11    1    3    3    0    0  0.28827918254E+01  0.39822451658E+00  0.52840099081E+00  0.29577490330E+01  0.51100000000E-03 0.  1.
         12    1    3    3    0    0  0.16422558369E+02 -0.95711981017E+01  0.11449589620E+02  0.22190118498E+02  0.00000000000E+00 0. -1.
</event>
<event>
 7    1  0.5664398E-009  0.4614232E+02  0.7816164E-02  0.1320468E+00
        -11   -1    0    0    0    0  0.00000000000E+00  0.00000000000E+00  0.45593999997E+02  0.45594000000E+02  0.51100000000E-03 0. -1.
         11   -1    0    0    0    0 -0.00000000000E+00 -0.00000000000E+00 -0.45593999997E+02  0.45594000000E+02  0.51100000000E-03 0.  1.
    9900012    2    1    2    0    0 -0.24536420899E+02  0.16373183468E+02  0.34044035852E+02  0.46142318026E+02  0.10000002412E+02 0.  0.
        -12    1    1    2    0    0  0.24536420899E+02 -0.16373183468E+02 -0.34044035852E+02  0.45045681974E+02  0.00000000000E+00 0.  1.
         11    1    3    3    0    0 -0.60992513172E+01  0.68944666179E+01  0.10515796152E+02  0.13975568166E+02  0.51100000000E-03 0. -1.
        -11    1    3    3    0    0 -0.20277899438E+01  0.42018661186E+01  0.43204574996E+01  0.63587706517E+01  0.51100000000E-03 0.  1.
        -12    1    3    3    0    0 -0.16409379638E+02  0.52768507319E+01  0.19207782200E+02  0.25807979208E+02  0.00000000000E+00 0.  1.
</event>
<event>
 7    1  0.5664398E-009  0.4614232E+02  0.7816164E-02  0.1320468E+00
        -11   -1    0    0    0    0  0.00000000000E+00  0.00000000000E+00  0.45593999997E+02  0.45594000000E+02  0.51100000000E-03 0. -1.
         11   -1    0    0    0    0 -0.00000000000E+00 -0.00000000000E+00 -0.45593999997E+02  0.45594000000E+02  0.51100000000E-03 0.  1.
    9900012    2    1    2    0    0 -0.10623883074E+02 -0.29842142744E+02 -0.32026445169E+02  0.46142316908E+02  0.99999922164E+01 0.  0.
         12    1    1    2    0    0  0.10623883074E+02  0.29842142744E+02  0.32026445169E+02  0.45045683092E+02  0.00000000000E+00 0. -1.
         11    1    3    3    0    0  0.11199356870E+01 -0.69222736087E+00 -0.28359396701E+00  0.13467963697E+01  0.51100000000E-03 0. -1.
        -11    1    3    3    0    0 -0.48973234456E+01 -0.16540944644E+02 -0.16799633930E+02  0.24079334024E+02  0.51100000000E-03 0.  1.
         12    1    3    3    0    0 -0.68464953151E+01 -0.12608970740E+02 -0.14943217272E+02  0.20716186513E+02  0.00000000000E+00 0. -1.
</event>
<event>
 7    1  0.5664398E-009  0.4614232E+02  0.7816164E-02  0.1320468E+00
        -11   -1    0    0    0    0  0.00000000000E+00  0.00000000000E+00  0.45593999997E+02  0.45594000000E+02  0.51100000000E-03 0. -1.
         11   -1    0    0    0    0 -0.00000000000E+00 -0.00000000000E+00 -0.45593999997E+02  0.45594000000E+02  0.51100000000E-03 0.  1.
    9900012    2    1    2    0    0  0.29701391108E+02  0.12830192451E+02  0.31342095694E+02  0.46142318358E+02  0.10000005445E+02 0.  0.
        -12    1    1    2    0    0 -0.29701391108E+02 -0.12830192451E+02 -0.31342095694E+02  0.45045681642E+02  0.00000000000E+00 0.  1.
         11    1    3    3    0    0  0.68122174472E+01  0.18846464520E+01  0.76184129129E+01  0.10392228556E+02  0.51100000000E-03 0. -1.
        -11    1    3    3    0    0  0.22656277791E+02  0.92933604377E+01  0.23703837498E+02  0.34081452199E+02  0.51100000000E-03 0.  1.
        -12    1    3    3    0    0  0.23289586975E+00  0.16521855614E+01  0.19845282940E-01  0.16686376032E+01  0.00000000000E+00 0.  1.
</event>
<event>
 7    1  0.5664398E-009  0.4614231E+02  0.7816164E-02  0.1320468E+00
        -11   -1    0    0    0    0  0.00000000000E+00  0.00000000000E+00  0.45593999997E+02  0.45594000000E+02  0.51100000000E-03 0.  1.
         11   -1    0    0    0    0 -0.00000000000E+00 -0.00000000000E+00 -0.45593999997E+02  0.45594000000E+02  0.51100000000E-03 0. -1.
    9900012    2    1    2    0    0 -0.86316204944E+01  0.41421419696E+02  0.15455581030E+02  0.46142313558E+02  0.99999616765E+01 0.  0.
        -12    1    1    2    0    0  0.86316204944E+01 -0.41421419696E+02 -0.15455581030E+02  0.45045686442E+02  0.00000000000E+00 0.  1.
         11    1    3    3    0    0 -0.26857738471E+01  0.90696170759E+01  0.31397871308E+01  0.99664235586E+01  0.51100000000E-03 0. -1.
        -11    1    3    3    0    0 -0.29362485022E+01  0.28333748682E+02  0.80849115507E+01  0.29610617431E+02  0.51100000000E-03 0.  1.
         12    1    3    3    0    0 -0.30095981450E+01  0.40180539387E+01  0.42308823490E+01  0.65652725685E+01  0.00000000000E+00 0. -1.
</event>
<event>
 7    1  0.5664398E-009  0.4614232E+02  0.7816164E-02  0.1320468E+00
        -11   -1    0    0    0    0  0.00000000000E+00  0.00000000000E+00  0.45593999997E+02  0.45594000000E+02  0.51100000000E-03 0. -1.
         11   -1    0    0    0    0 -0.00000000000E+00 -0.00000000000E+00 -0.45593999997E+02  0.45594000000E+02  0.51100000000E-03 0.  1.
    9900012    2    1    2    0    0 -0.75524543959E+01 -0.41168315838E+02 -0.16650637167E+02  0.46142317472E+02  0.99999973665E+01 0.  0.
         12    1    1    2    0    0  0.75524543959E+01  0.41168315838E+02  0.16650637167E+02  0.45045682528E+02  0.00000000000E+00 0. -1.
         11    1    3    3    0    0  0.59484057229E+00 -0.63817327088E+00 -0.16286559828E+01  0.18475987123E+01  0.51100000000E-03 0. -1.
        -11    1    3    3    0    0 -0.43944645485E+01 -0.12974285143E+02 -0.68080504240E+01  0.15296827922E+02  0.51100000000E-03 0.  1.
         12    1    3    3    0    0 -0.37528304198E+01 -0.27555857423E+02 -0.82139307606E+01  0.28997890838E+02  0.00000000000E+00 0. -1.
</event>
<event>
 7    1  0.5664398E-009  0.4614232E+02  0.7816164E-02  0.1320468E+00
        -11   -1    0    0    0    0  0.00000000000E+00  0.00000000000E+00  0.45593999997E+02  0.45594000000E+02  0.51100000000E-03 0. -1.
         11   -1    0    0    0    0 -0.00000000000E+00 -0.00000000000E+00 -0.45593999997E+02  0.45594000000E+02  0.51100000000E-03 0.  1.
    9900012    2    1    2    0    0  0.23576416217E+02  0.24078666110E+02 -0.29891201689E+02  0.46142317614E+02  0.99999986545E+01 0.  0.
         12    1    1    2    0    0 -0.23576416217E+02 -0.24078666110E+02  0.29891201689E+02  0.45045682386E+02  0.00000000000E+00 0. -1.
         11    1    3    3    0    0  0.12747995101E+02  0.13741621824E+02 -0.11198364144E+02  0.21834534784E+02  0.51100000000E-03 0. -1.
        -11    1    3    3    0    0  0.10301910836E+02  0.10413071254E+02 -0.16555956125E+02  0.22105680340E+02  0.51100000000E-03 0.  1.
         12    1    3    3    0    0  0.52651027972E+00 -0.76026967875E-01 -0.21368814201E+01  0.22021024903E+01  0.00000000000E+00 0. -1.
</event>
<event>
 7    1  0.5664398E-009  0.4614232E+02  0.7816164E-02  0.1320468E+00
        -11   -1    0    0    0    0  0.00000000000E+00  0.00000000000E+00  0.45593999997E+02  0.45594000000E+02  0.51100000000E-03 0. -1.
         11   -1    0    0    0    0 -0.00000000000E+00 -0.00000000000E+00 -0.45593999997E+02  0.45594000000E+02  0.51100000000E-03 0.  1.
    9900012    2    1    2    0    0  0.24345311609E+02  0.22102391378E+02  0.30788040374E+02  0.46142319497E+02  0.10000015825E+02 0.  0.
        -12    1    1    2    0    0 -0.24345311609E+02 -0.22102391378E+02 -0.30788040374E+02  0.45045680503E+02  0.00000000000E+00 0.  1.
         11    1    3    3    0    0  0.80809135349E+01  0.51736976519E+01  0.70240199015E+01  0.11891390448E+02  0.51100000000E-03 0. -1.
        -11    1    3    3    0    0  0.12645708285E+02  0.13634751769E+02  0.13823639517E+02  0.23171391922E+02  0.51100000000E-03 0.  1.
        -12    1    3    3    0    0  0.36186897885E+01  0.32939419572E+01  0.99403809549E+01  0.11079537126E+02  0.00000000000E+00 0.  1.
</event>
<event>
 7    1  0.5664398E-009  0.4614232E+02  0.7816164E-02  0.1320468E+00
        -11   -1    0    0    0    0  0.00000000000E+00  0.00000000000E+00  0.45593999997E+02  0.45594000000E+02  0.51100000000E-03 0. -1.
         11   -1    0    0    0    0 -0.00000000000E+00 -0.00000000000E+00 -0.45593999997E+02  0.45594000000E+02  0.51100000000E-03 0.  1.
    9900012    2    1    2    0    0 -0.17146857780E+02  0.10697180137E+01  0.41640778628E+02  0.46142317931E+02  0.10000001548E+02 0.  0.
        -12    1    1    2    0    0  0.17146857780E+02 -0.10697180137E+01 -0.41640778628E+02  0.45045682069E+02  0.00000000000E+00 0.  1.
         11    1    3    3    0    0 -0.96517257856E+01 -0.25970329189E+01  0.19423253823E+02  0.21844065097E+02  0.51100000000E-03 0. -1.
        -11    1    3    3    0    0 -0.74407629240E+01  0.27446314193E+01  0.21946599567E+02  0.23335620569E+02  0.51100000000E-03 0.  1.
        -12    1    3    3    0    0 -0.54369070545E-01  0.92211951332E+00  0.27092523691E+00  0.96263226451E+00  0.00000000000E+00 0.  1.
</event>
<event>
 7    1  0.5664398E-009  0.4614232E+02  0.7816164E-02  0.1320468E+00
        -11   -1    0    0    0    0  0.00000000000E+00  0.00000000000E+00  0.45593999997E+02  0.45594000000E+02  0.51100000000E-03 0. -1.
         11   -1    0    0    0    0 -0.00000000000E+00 -0.00000000000E+00 -0.45593999997E+02  0.45594000000E+02  0.51100000000E-03 0.  1.
    9900012    2    1    2    0    0  0.41992998841E+02 -0.10637437003E+01  0.16265606464E+02  0.46142318121E+02  0.10000003283E+02 0.  0.
        -12    1    1    2    0    0 -0.41992998841E+02  0.10637437003E+01 -0.16265606464E+02  0.45045681879E+02  0.00000000000E+00 0.  1.
         11    1    3    3    0    0  0.78709254031E+01  0.13130061399E+01  0.14077650780E+01  0.81029164256E+01  0.51100000000E-03 0. -1.
        -11    1    3    3    0    0  0.33850221986E+02 -0.32632051447E+01  0.13999763493E+02  0.36776071220E+02  0.51100000000E-03 0.  1.
        -12    1    3    3    0    0  0.27185145194E+00  0.88645530445E+00  0.85807789313E+00  0.12633304751E+01  0.00000000000E+00 0.  1.
</event>
<event>
 7    1  0.5664398E-009  0.4614232E+02  0.7816164E-02  0.1320468E+00
        -11   -1    0    0    0    0  0.00000000000E+00  0.00000000000E+00  0.45593999997E+02  0.45594000000E+02  0.51100000000E-03 0. -1.
         11   -1    0    0    0    0 -0.00000000000E+00 -0.00000000000E+00 -0.45593999997E+02  0.45594000000E+02  0.51100000000E-03 0.  1.
    9900012    2    1    2    0    0 -0.26128641210E+02 -0.11808012211E+02  0.34741595083E+02  0.46142317934E+02  0.10000001580E+02 0.  0.
        -12    1    1    2    0    0  0.26128641210E+02  0.11808012211E+02 -0.34741595083E+02  0.45045682066E+02  0.00000000000E+00 0.  1.
         11    1    3    3    0    0 -0.25278856702E+01 -0.11202117439E-02  0.52798544604E+00  0.25824360803E+01  0.51100000000E-03 0.  1.
        -11    1    3    3    0    0 -0.53610315780E+00 -0.13130762347E+01  0.32733482353E+01  0.35674058817E+01  0.51100000000E-03 0. -1.
         12    1    3    3    0    0 -0.23064652382E+02 -0.10493815764E+02  0.30940261402E+02  0.39992475972E+02  0.00000000000E+00 0. -1.
</event>
<event>
 7    1  0.5664398E-009  0.4614232E+02  0.7816164E-02  0.1320468E+00
        -11   -1    0    0    0    0  0.00000000000E+00  0.00000000000E+00  0.45593999997E+02  0.45594000000E+02  0.51100000000E-03 0. -1.
         11   -1    0    0    0    0 -0.00000000000E+00 -0.00000000000E+00 -0.45593999997E+02  0.45594000000E+02  0.51100000000E-03 0.  1.
    9900012    2    1    2    0    0  0.60243008322E+01  0.67388983772E+01  0.44129450667E+02  0.46142319097E+02  0.10000012184E+02 0.  0.
        -12    1    1    2    0    0 -0.60243008322E+01 -0.67388983772E+01 -0.44129450667E+02  0.45045680903E+02  0.00000000000E+00 0.  1.
         11    1    3    3    0    0  0.13682199250E+01  0.13661200323E+01  0.53779472835E+01  0.57149476770E+01  0.51100000000E-03 0. -1.
        -11    1    3    3    0    0  0.60759400054E-01  0.36018327046E+01  0.42286826827E+01  0.55550560779E+01  0.51100000000E-03 0.  1.
        -12    1    3    3    0    0  0.45953215071E+01  0.17709456403E+01  0.34522820700E+02  0.34872315342E+02  0.00000000000E+00 0.  1.
</event>
<event>
 7    1  0.5664398E-009  0.4614232E+02  0.7816164E-02  0.1320468E+00
        -11   -1    0    0    0    0  0.00000000000E+00  0.00000000000E+00  0.45593999997E+02  0.45594000000E+02  0.51100000000E-03 0. -1.
         11   -1    0    0    0    0 -0.00000000000E+00 -0.00000000000E+00 -0.45593999997E+02  0.45594000000E+02  0.51100000000E-03 0.  1.
    9900012    2    1    2    0    0  0.30189123299E+01  0.32829009402E+02  0.30696183415E+02  0.46142319117E+02  0.10000012361E+02 0.  0.
        -12    1    1    2    0    0 -0.30189123299E+01 -0.32829009402E+02 -0.30696183415E+02  0.45045680883E+02  0.00000000000E+00 0.  1.
         11    1    3    3    0    0 -0.70458728885E+00  0.15168153643E+02  0.13721523016E+02  0.20465813503E+02  0.51100000000E-03 0. -1.
        -11    1    3    3    0    0  0.20073693030E+00  0.16221551483E+01  0.52521200502E+01  0.55005861436E+01  0.51100000000E-03 0.  1.
        -12    1    3    3    0    0  0.35227626884E+01  0.16038700611E+02  0.11722540349E+02  0.20175919470E+02  0.00000000000E+00 0.  1.
</event>
<event>
 7    1  0.5664398E-009  0.4614231E+02  0.7816164E-02  0.1320468E+00
        -11   -1    0    0    0    0  0.00000000000E+00  0.00000000000E+00  0.45593999997E+02  0.45594000000E+02  0.51100000000E-03 0. -1.
         11   -1    0    0    0    0 -0.00000000000E+00 -0.00000000000E+00 -0.45593999997E+02  0.45594000000E+02  0.51100000000E-03 0.  1.
    9900012    2    1    2    0    0 -0.24954045298E+02 -0.29760982580E+02 -0.22818710997E+02  0.46142311722E+02  0.99999449317E+01 0.  0.
         12    1    1    2    0    0  0.24954045298E+02  0.29760982580E+02  0.22818710997E+02  0.45045688278E+02  0.00000000000E+00 0. -1.
         11    1    3    3    0    0 -0.12318208726E+02 -0.10076630378E+02 -0.98348687826E+01  0.18708324089E+02  0.51100000000E-03 0. -1.
        -11    1    3    3    0    0 -0.92902011200E+01 -0.89939517438E+01 -0.62221865103E+01  0.14349725086E+02  0.51100000000E-03 0.  1.
        -12    1    3    3    0    0 -0.33456354525E+01 -0.10690400459E+02 -0.67616557040E+01  0.13084262547E+02  0.00000000000E+00 0.  1.
</event>
<event>
 7    1  0.5664398E-009  0.4614232E+02  0.7816164E-02  0.1320468E+00
        -11   -1    0    0    0    0  0.00000000000E+00  0.00000000000E+00  0.45593999997E+02  0.45594000000E+02  0.51100000000E-03 0. -1.
         11   -1    0    0    0    0 -0.00000000000E+00 -0.00000000000E+00 -0.45593999997E+02  0.45594000000E+02  0.51100000000E-03 0.  1.
    9900012    2    1    2    0    0  0.61130169747E+01 -0.41679820141E+02  0.15954220259E+02  0.46142317326E+02  0.99999960321E+01 0.  0.
        -12    1    1    2    0    0 -0.61130169747E+01  0.41679820141E+02 -0.15954220259E+02  0.45045682674E+02  0.00000000000E+00 0.  1.
         11    1    3    3    0    0  0.44667138815E+01 -0.24699606993E+02  0.10111388199E+02  0.27060345343E+02  0.51100000000E-03 0. -1.
        -11    1    3    3    0    0  0.19560247564E+01 -0.13309133298E+01  0.16285490157E+01  0.28722004277E+01  0.51100000000E-03 0.  1.
         12    1    3    3    0    0 -0.30972166321E+00 -0.15649299818E+02  0.42142830444E+01  0.16209771556E+02  0.00000000000E+00 0. -1.
</event>
<event>
 7    1  0.5664398E-009  0.4614232E+02  0.7816164E-02  0.1320468E+00
        -11   -1    0    0    0    0  0.00000000000E+00  0.00000000000E+00  0.45593999997E+02  0.45594000000E+02  0.51100000000E-03 0. -1.
         11   -1    0    0    0    0 -0.00000000000E+00 -0.00000000000E+00 -0.45593999997E+02  0.45594000000E+02  0.51100000000E-03 0.  1.
    9900012    2    1    2    0    0 -0.38906194008E+01  0.19683216645E+02  0.40330478509E+02  0.46142318370E+02  0.10000005550E+02 0.  0.
        -12    1    1    2    0    0  0.38906194008E+01 -0.19683216645E+02 -0.40330478509E+02  0.45045681630E+02  0.00000000000E+00 0.  1.
         11    1    3    3    0    0  0.56331634908E+00  0.42453713483E+01  0.87471241450E+01  0.97392342750E+01  0.51100000000E-03 0. -1.
        -11    1    3    3    0    0 -0.16313811966E+01  0.13664826540E+02  0.29275776350E+02  0.32349033527E+02  0.51100000000E-03 0.  1.
        -12    1    3    3    0    0 -0.28225545532E+01  0.17730187565E+01  0.23075780136E+01  0.40540505677E+01  0.00000000000E+00 0.  1.
</event>
<event>
 7    1  0.5664398E-009  0.4614233E+02  0.7816164E-02  0.1320468E+00
        -11   -1    0    0    0    0  0.00000000000E+00  0.00000000000E+00  0.45593999997E+02  0.45594000000E+02  0.51100000000E-03 0. -1.
         11   -1    0    0    0    0 -0.00000000000E+00 -0.00000000000E+00 -0.45593999997E+02  0.45594000000E+02  0.51100000000E-03 0.  1.
    9900012    2    1    2    0    0 -0.23267438614E+02  0.35144723839E+02  0.15892992111E+02  0.46142328603E+02  0.10000098864E+02 0.  0.
        -12    1    1    2    0    0  0.23267438614E+02 -0.35144723839E+02 -0.15892992111E+02  0.45045671397E+02  0.00000000000E+00 0.  1.
         11    1    3    3    0    0 -0.61001494592E+01  0.96792682436E+01  0.50174819943E+00  0.11452153015E+02  0.51100000000E-03 0. -1.
        -11    1    3    3    0    0 -0.37331265140E+01  0.52245346253E+01  0.55202603075E+01  0.84678964179E+01  0.51100000000E-03 0.  1.
         12    1    3    3    0    0 -0.13434162641E+02  0.20240920970E+02  0.98709836044E+01  0.26222279170E+02  0.00000000000E+00 0. -1.
</event>
<event>
 7    1  0.5664398E-009  0.4614232E+02  0.7816164E-02  0.1320468E+00
        -11   -1    0    0    0    0  0.00000000000E+00  0.00000000000E+00  0.45593999997E+02  0.45594000000E+02  0.51100000000E-03 0. -1.
         11   -1    0    0    0    0 -0.00000000000E+00 -0.00000000000E+00 -0.45593999997E+02  0.45594000000E+02  0.51100000000E-03 0.  1.
    9900012    2    1    2    0    0  0.27494445084E+01  0.10034185296E+02 -0.43827723651E+02  0.46142315633E+02  0.99999805930E+01 0.  0.
         12    1    1    2    0    0 -0.27494445084E+01 -0.10034185296E+02  0.43827723651E+02  0.45045684367E+02  0.00000000000E+00 0. -1.
         11    1    3    3    0    0 -0.36586203221E+00 -0.63606181822E+00 -0.67580172402E+00  0.99756598504E+00  0.51100000000E-03 0. -1.
        -11    1    3    3    0    0  0.33485741525E+01  0.96526056739E+01 -0.42859635227E+02  0.44060572820E+02  0.51100000000E-03 0.  1.
        -12    1    3    3    0    0 -0.23326761191E+00  0.10176414399E+01 -0.29228670000E+00  0.10841768279E+01  0.00000000000E+00 0.  1.
</event>
<event>
 7    1  0.5664398E-009  0.4614232E+02  0.7816164E-02  0.1320468E+00
        -11   -1    0    0    0    0  0.00000000000E+00  0.00000000000E+00  0.45593999997E+02  0.45594000000E+02  0.51100000000E-03 0. -1.
         11   -1    0    0    0    0 -0.00000000000E+00 -0.00000000000E+00 -0.45593999997E+02  0.45594000000E+02  0.51100000000E-03 0.  1.
    9900012    2    1    2    0    0 -0.36623765776E+02  0.22730405690E+02 -0.13082121321E+02  0.46142318068E+02  0.10000002802E+02 0.  0.
         12    1    1    2    0    0  0.36623765776E+02 -0.22730405690E+02  0.13082121321E+02  0.45045681932E+02  0.00000000000E+00 0. -1.
         11    1    3    3    0    0 -0.21828916626E+02  0.12093855805E+02 -0.76206392874E+01  0.26092855204E+02  0.51100000000E-03 0. -1.
        -11    1    3    3    0    0 -0.13989506932E+02  0.10787869487E+02 -0.36187402715E+01  0.18032740049E+02  0.51100000000E-03 0.  1.
         12    1    3    3    0    0 -0.80534221777E+00 -0.15131960207E+00 -0.18427417624E+01  0.20167228151E+01  0.00000000000E+00 0. -1.
</event>
<event>
 7    1  0.5664398E-009  0.4614231E+02  0.7816164E-02  0.1320468E+00
        -11   -1    0    0    0    0  0.00000000000E+00  0.00000000000E+00  0.45593999997E+02  0.45594000000E+02  0.51100000000E-03 0. -1.
         11   -1    0    0    0    0 -0.00000000000E+00 -0.00000000000E+00 -0.45593999997E+02  0.45594000000E+02  0.51100000000E-03 0.  1.
    9900012    2    1    2    0    0 -0.70398959610E+01 -0.35756635844E+02  0.26476719091E+02  0.46142314348E+02  0.99999688809E+01 0.  0.
        -12    1    1    2    0    0  0.70398959610E+01  0.35756635844E+02 -0.26476719091E+02  0.45045685652E+02  0.00000000000E+00 0.  1.
         11    1    3    3    0    0 -0.40258346345E+01 -0.13058494880E+02  0.53937851937E+01  0.14690968382E+02  0.51100000000E-03 0. -1.
        -11    1    3    3    0    0  0.83409479136E+00 -0.92238988454E+01  0.95427894486E+01  0.13298152306E+02  0.51100000000E-03 0.  1.
         12    1    3    3    0    0 -0.38481561179E+01 -0.13474242118E+02  0.11540144448E+02  0.18153193660E+02  0.00000000000E+00 0. -1.
</event>
<event>
 7    1  0.5664398E-009  0.4614232E+02  0.7816164E-02  0.1320468E+00
        -11   -1    0    0    0    0  0.00000000000E+00  0.00000000000E+00  0.45593999997E+02  0.45594000000E+02  0.51100000000E-03 0. -1.
         11   -1    0    0    0    0 -0.00000000000E+00 -0.00000000000E+00 -0.45593999997E+02  0.45594000000E+02  0.51100000000E-03 0.  1.
    9900012    2    1    2    0    0  0.18733171368E+02 -0.25140444674E+02  0.32344084729E+02  0.46142317800E+02  0.10000000354E+02 0.  0.
        -12    1    1    2    0    0 -0.18733171368E+02  0.25140444674E+02 -0.32344084729E+02  0.45045682200E+02  0.00000000000E+00 0.  1.
         11    1    3    3    0    0  0.81454469814E+01 -0.86992512199E+01  0.10065406333E+02  0.15599284703E+02  0.51100000000E-03 0. -1.
        -11    1    3    3    0    0  0.74134876111E+01 -0.48217613193E+01  0.91135512616E+01  0.12699054990E+02  0.51100000000E-03 0.  1.
         12    1    3    3    0    0  0.31742367757E+01 -0.11619432134E+02  0.13165127134E+02  0.17843978107E+02  0.00000000000E+00 0. -1.
</event>
<event>
 7    1  0.5664398E-009  0.4614232E+02  0.7816164E-02  0.1320468E+00
        -11   -1    0    0    0    0  0.00000000000E+00  0.00000000000E+00  0.45593999997E+02  0.45594000000E+02  0.51100000000E-03 0. -1.
         11   -1    0    0    0    0 -0.00000000000E+00 -0.00000000000E+00 -0.45593999997E+02  0.45594000000E+02  0.51100000000E-03 0.  1.
    9900012    2    1    2    0    0 -0.14577143006E+02  0.24529520803E+02 -0.34855746198E+02  0.46142317276E+02  0.99999955782E+01 0.  0.
         12    1    1    2    0    0  0.14577143006E+02 -0.24529520803E+02  0.34855746198E+02  0.45045682724E+02  0.00000000000E+00 0. -1.
         11    1    3    3    0    0 -0.80290996862E+01  0.10286053718E+02 -0.10782974911E+02  0.16927548289E+02  0.51100000000E-03 0. -1.
        -11    1    3    3    0    0 -0.54862692238E+01  0.10625294316E+02 -0.13737106456E+02  0.18212746178E+02  0.51100000000E-03 0.  1.
         12    1    3    3    0    0 -0.10617740962E+01  0.36181727688E+01 -0.10335664830E+02  0.11002022810E+02  0.00000000000E+00 0. -1.
</event>
<event>
 7    1  0.5664398E-009  0.4614232E+02  0.7816164E-02  0.1320468E+00
        -11   -1    0    0    0    0  0.00000000000E+00  0.00000000000E+00  0.45593999997E+02  0.45594000000E+02  0.51100000000E-03 0. -1.
         11   -1    0    0    0    0 -0.00000000000E+00 -0.00000000000E+00 -0.45593999997E+02  0.45594000000E+02  0.51100000000E-03 0.  1.
    9900012    2    1    2    0    0  0.42876229219E+02  0.15958248325E+01 -0.13718446623E+02  0.46142318002E+02  0.10000002197E+02 0.  0.
         12    1    1    2    0    0 -0.42876229219E+02 -0.15958248325E+01  0.13718446623E+02  0.45045681998E+02  0.00000000000E+00 0. -1.
         11    1    3    3    0    0  0.10427027193E+01 -0.90654248204E+00 -0.12575132970E+01  0.18682580619E+01  0.51100000000E-03 0. -1.
        -11    1    3    3    0    0  0.98832250756E+01  0.75716212087E+00  0.63322096414E-01  0.99123883258E+01  0.51100000000E-03 0.  1.
         12    1    3    3    0    0  0.31950301424E+02  0.17452051937E+01 -0.12524255423E+02  0.34361671614E+02  0.00000000000E+00 0. -1.
</event>
<event>
 7    1  0.5664398E-009  0.4614232E+02  0.7816164E-02  0.1320468E+00
        -11   -1    0    0    0    0  0.00000000000E+00  0.00000000000E+00  0.45593999997E+02  0.45594000000E+02  0.51100000000E-03 0. -1.
         11   -1    0    0    0    0 -0.00000000000E+00 -0.00000000000E+00 -0.45593999997E+02  0.45594000000E+02  0.51100000000E-03 0.  1.
    9900012    2    1    2    0    0  0.28855859198E+02  0.13990712881E+02 -0.31634042743E+02  0.46142319661E+02  0.10000017322E+02 0.  0.
         12    1    1    2    0    0 -0.28855859198E+02 -0.13990712881E+02  0.31634042743E+02  0.45045680339E+02  0.00000000000E+00 0. -1.
         11    1    3    3    0    0  0.52381405686E+01  0.42434443634E+01 -0.23235406955E+01  0.71304823333E+01  0.51100000000E-03 0. -1.
        -11    1    3    3    0    0  0.16430128548E+02  0.82998004156E+01 -0.21334398942E+02  0.28177870564E+02  0.51100000000E-03 0.  1.
         12    1    3    3    0    0  0.71875900808E+01  0.14474681023E+01 -0.79761031056E+01  0.10833966763E+02  0.00000000000E+00 0. -1.
</event>
<event>
 7    1  0.5664398E-009  0.4614232E+02  0.7816164E-02  0.1320468E+00
        -11   -1    0    0    0    0  0.00000000000E+00  0.00000000000E+00  0.45593999997E+02  0.45594000000E+02  0.51100000000E-03 0. -1.
         11   -1    0    0    0    0 -0.00000000000E+00 -0.00000000000E+00 -0.45593999997E+02  0.45594000000E+02  0.51100000000E-03 0.  1.
    9900012    2    1    2    0    0 -0.13054045947E+02  0.20047357241E+02 -0.38168165010E+02  0.46142317985E+02  0.10000002043E+02 0.  0.
         12    1    1    2    0    0  0.13054045947E+02 -0.20047357241E+02  0.38168165010E+02  0.45045682015E+02  0.00000000000E+00 0. -1.
         11    1    3    3    0    0 -0.70452211758E+00  0.30320468576E+01 -0.63022164094E+01  0.70290533853E+01  0.51100000000E-03 0. -1.
        -11    1    3    3    0    0 -0.13638632271E+02  0.15156168578E+02 -0.28056741708E+02  0.34682884708E+02  0.51100000000E-03 0.  1.
        -12    1    3    3    0    0  0.12891084419E+01  0.18591418063E+01 -0.38092068930E+01  0.44303798917E+01  0.00000000000E+00 0.  1.
</event>
<event>
 7    1  0.6506201E-009  0.4614232E+02  0.7816164E-02  0.1320468E+00
        -11   -1    0    0    0    0  0.00000000000E+00  0.00000000000E+00  0.45593999997E+02  0.45594000000E+02  0.51100000000E-03 0. -1.
         11   -1    0    0    0    0 -0.00000000000E+00 -0.00000000000E+00 -0.45593999997E+02  0.45594000000E+02  0.51100000000E-03 0.  1.
    9900012    2    1    2    0    0  0.98424415352E+01 -0.27851143352E+01  0.43868929559E+02  0.46142317656E+02  0.99999990377E+01 0.  0.
        -12    1    1    2    0    0 -0.98424415352E+01  0.27851143352E+01 -0.43868929559E+02  0.45045682344E+02  0.00000000000E+00 0.  1.
         11    1    3    3    0    0  0.10072575863E+00 -0.87357569282E+00  0.11819812365E+02  0.11852478423E+02  0.51100000000E-03 0. -1.
        -11    1    3    3    0    0 -0.88975202345E+00  0.80442507432E+00  0.37823166391E+01  0.39679563736E+01  0.51100000000E-03 0.  1.
         12    1    3    3    0    0  0.10631467800E+02 -0.27159637167E+01  0.28266800555E+02  0.30321882859E+02  0.00000000000E+00 0. -1.
</event>
<event>
 7    1  0.5664398E-009  0.4614231E+02  0.7816164E-02  0.1320468E+00
        -11   -1    0    0    0    0  0.00000000000E+00  0.00000000000E+00  0.45593999997E+02  0.45594000000E+02  0.51100000000E-03 0. -1.
         11   -1    0    0    0    0 -0.00000000000E+00 -0.00000000000E+00 -0.45593999997E+02  0.45594000000E+02  0.51100000000E-03 0.  1.
    9900012    2    1    2    0    0 -0.38554322338E+00 -0.33010739452E+02 -0.30647289891E+02  0.46142312744E+02  0.99999542461E+01 0.  0.
         12    1    1    2    0    0  0.38554322338E+00  0.33010739452E+02  0.30647289891E+02  0.45045687256E+02  0.00000000000E+00 0. -1.
         11    1    3    3    0    0  0.15068018646E+01 -0.23166264807E+01 -0.29047204080E+01  0.40093155301E+01  0.51100000000E-03 0. -1.
        -11    1    3    3    0    0  0.20932987116E+01 -0.80884654978E+01 -0.46011503156E+01  0.95381213083E+01  0.51100000000E-03 0.  1.
        -12    1    3    3    0    0 -0.39856437996E+01 -0.22605647473E+02 -0.23141419167E+02  0.32594875905E+02  0.00000000000E+00 0.  1.
</event>
<event>
 7    1  0.5664398E-009  0.4614232E+02  0.7816164E-02  0.1320468E+00
        -11   -1    0    0    0    0  0.00000000000E+00  0.00000000000E+00  0.45593999997E+02  0.45594000000E+02  0.51100000000E-03 0. -1.
         11   -1    0    0    0    0 -0.00000000000E+00 -0.00000000000E+00 -0.45593999997E+02  0.45594000000E+02  0.51100000000E-03 0.  1.
    9900012    2    1    2    0    0 -0.13683240124E+02  0.28719242882E+02  0.31891809405E+02  0.46142317864E+02  0.10000000936E+02 0.  0.
        -12    1    1    2    0    0  0.13683240124E+02 -0.28719242882E+02 -0.31891809405E+02  0.45045682136E+02  0.00000000000E+00 0.  1.
         11    1    3    3    0    0 -0.31792886109E+01  0.44301670972E+01  0.18135884008E+01  0.57465954903E+01  0.51100000000E-03 0.  1.
        -11    1    3    3    0    0 -0.36233883222E+01  0.14774741233E+02  0.17544461569E+02  0.23221327556E+02  0.51100000000E-03 0. -1.
        -12    1    3    3    0    0 -0.68805631905E+01  0.95143345514E+01  0.12533759435E+02  0.17174394818E+02  0.00000000000E+00 0.  1.
</event>
<event>
 7    1  0.5664398E-009  0.4614232E+02  0.7816164E-02  0.1320468E+00
        -11   -1    0    0    0    0  0.00000000000E+00  0.00000000000E+00  0.45593999997E+02  0.45594000000E+02  0.51100000000E-03 0. -1.
         11   -1    0    0    0    0 -0.00000000000E+00 -0.00000000000E+00 -0.45593999997E+02  0.45594000000E+02  0.51100000000E-03 0.  1.
    9900012    2    1    2    0    0 -0.32034317447E+02  0.76141090353E+01 -0.30739897031E+02  0.46142318518E+02  0.10000006901E+02 0.  0.
         12    1    1    2    0    0  0.32034317447E+02 -0.76141090353E+01  0.30739897031E+02  0.45045681482E+02  0.00000000000E+00 0. -1.
         11    1    3    3    0    0 -0.18924654744E+02  0.23447634562E+01 -0.15899970699E+02  0.24828401908E+02  0.51100000000E-03 0. -1.
        -11    1    3    3    0    0 -0.87952396241E+01  0.45727934928E+00 -0.92016989077E+01  0.12737213490E+02  0.51100000000E-03 0.  1.
         12    1    3    3    0    0 -0.43144230795E+01  0.48120662298E+01 -0.56382274244E+01  0.85767031194E+01  0.00000000000E+00 0. -1.
</event>
<event>
 7    1  0.5664398E-009  0.4614232E+02  0.7816164E-02  0.1320468E+00
        -11   -1    0    0    0    0  0.00000000000E+00  0.00000000000E+00  0.45593999997E+02  0.45594000000E+02  0.51100000000E-03 0. -1.
         11   -1    0    0    0    0 -0.00000000000E+00 -0.00000000000E+00 -0.45593999997E+02  0.45594000000E+02  0.51100000000E-03 0.  1.
    9900012    2    1    2    0    0  0.20727271163E+02  0.20731050672E+02 -0.34201129454E+02  0.46142317768E+02  0.10000000059E+02 0.  0.
         12    1    1    2    0    0 -0.20727271163E+02 -0.20731050672E+02  0.34201129454E+02  0.45045682232E+02  0.00000000000E+00 0. -1.
         11    1    3    3    0    0  0.24779846207E+01  0.14611913358E+01 -0.26539575128E+01  0.39139466835E+01  0.51100000000E-03 0. -1.
        -11    1    3    3    0    0  0.10358650111E+02  0.72757531645E+01 -0.20581677448E+02  0.24162857096E+02  0.51100000000E-03 0.  1.
         12    1    3    3    0    0  0.78906364316E+01  0.11994106172E+02 -0.10965494494E+02  0.18065513988E+02  0.00000000000E+00 0. -1.
</event>
<event>
 7    1  0.5664398E-009  0.4614232E+02  0.7816164E-02  0.1320468E+00
        -11   -1    0    0    0    0  0.00000000000E+00  0.00000000000E+00  0.45593999997E+02  0.45594000000E+02  0.51100000000E-03 0.  1.
         11   -1    0    0    0    0 -0.00000000000E+00 -0.00000000000E+00 -0.45593999997E+02  0.45594000000E+02  0.51100000000E-03 0. -1.
    9900012    2    1    2    0    0 -0.46180276891E+01  0.38083749368E+02  0.23609647027E+02  0.46142316762E+02  0.99999908893E+01 0.  0.
        -12    1    1    2    0    0  0.46180276891E+01 -0.38083749368E+02 -0.23609647027E+02  0.45045683238E+02  0.00000000000E+00 0.  1.
         11    1    3    3    0    0  0.15943550271E+01  0.10934940207E+02  0.75883551681E+01  0.13405149000E+02  0.51100000000E-03 0. -1.
        -11    1    3    3    0    0 -0.36107225156E+01  0.64976875710E+01  0.63898978697E+01  0.98024515251E+01  0.51100000000E-03 0.  1.
        -12    1    3    3    0    0 -0.26016602006E+01  0.20651121590E+02  0.96313939891E+01  0.22934716237E+02  0.00000000000E+00 0.  1.
</event>
<event>
 7    1  0.5664398E-009  0.4614232E+02  0.7816164E-02  0.1320468E+00
        -11   -1    0    0    0    0  0.00000000000E+00  0.00000000000E+00  0.45593999997E+02  0.45594000000E+02  0.51100000000E-03 0. -1.
         11   -1    0    0    0    0 -0.00000000000E+00 -0.00000000000E+00 -0.45593999997E+02  0.45594000000E+02  0.51100000000E-03 0.  1.
    9900012    2    1    2    0    0 -0.22164437364E+02  0.48882657234E+01 -0.38909587836E+02  0.46142318176E+02  0.10000003785E+02 0.  0.
         12    1    1    2    0    0  0.22164437364E+02 -0.48882657234E+01  0.38909587836E+02  0.45045681824E+02  0.00000000000E+00 0. -1.
         11    1    3    3    0    0 -0.52133125829E+01  0.94718770776E+00 -0.35016028987E+01  0.63511428706E+01  0.51100000000E-03 0. -1.
        -11    1    3    3    0    0 -0.10887339280E+02  0.46942622383E+01 -0.25962168687E+02  0.28541276386E+02  0.51100000000E-03 0.  1.
         12    1    3    3    0    0 -0.60637855003E+01 -0.75318422259E+00 -0.94458162504E+01  0.11249898920E+02  0.00000000000E+00 0. -1.
</event>
<event>
 7    1  0.5664398E-009  0.4614232E+02  0.7816164E-02  0.1320468E+00
        -11   -1    0    0    0    0  0.00000000000E+00  0.00000000000E+00  0.45593999997E+02  0.45594000000E+02  0.51100000000E-03 0. -1.
         11   -1    0    0    0    0 -0.00000000000E+00 -0.00000000000E+00 -0.45593999997E+02  0.45594000000E+02  0.51100000000E-03 0.  1.
    9900012    2    1    2    0    0  0.33539601179E+02  0.13508839778E+02  0.26864845443E+02  0.46142317409E+02  0.99999967897E+01 0.  0.
        -12    1    1    2    0    0 -0.33539601179E+02 -0.13508839778E+02 -0.26864845443E+02  0.45045682591E+02  0.00000000000E+00 0.  1.
         11    1    3    3    0    0  0.19162153028E+01  0.96954651478E-01  0.18058761689E+01  0.26348567873E+01  0.51100000000E-03 0. -1.
        -11    1    3    3    0    0  0.20823321615E+02  0.12998432182E+02  0.19522448311E+02  0.31363927538E+02  0.51100000000E-03 0.  1.
        -12    1    3    3    0    0  0.10800064262E+02  0.41345294471E+00  0.55365209629E+01  0.12143533084E+02  0.00000000000E+00 0.  1.
</event>
<event>
 7    1  0.5664398E-009  0.4614232E+02  0.7816164E-02  0.1320468E+00
        -11   -1    0    0    0    0  0.00000000000E+00  0.00000000000E+00  0.45593999997E+02  0.45594000000E+02  0.51100000000E-03 0. -1.
         11   -1    0    0    0    0 -0.00000000000E+00 -0.00000000000E+00 -0.45593999997E+02  0.45594000000E+02  0.51100000000E-03 0.  1.
    9900012    2    1    2    0    0 -0.25253948618E+01  0.11525485053E+02 -0.43472968340E+02  0.46142318729E+02  0.10000008825E+02 0.  0.
         12    1    1    2    0    0  0.25253948618E+01 -0.11525485053E+02  0.43472968340E+02  0.45045681271E+02  0.00000000000E+00 0. -1.
         11    1    3    3    0    0 -0.38810570880E+00  0.23807038720E+01 -0.18254340840E+02  0.18413020847E+02  0.51100000000E-03 0. -1.
        -11    1    3    3    0    0  0.15692189622E+01  0.32188906907E+01 -0.14480601773E+02  0.14916820486E+02  0.51100000000E-03 0.  1.
         12    1    3    3    0    0 -0.37065081152E+01  0.59258904908E+01 -0.10738025727E+02  0.12812477396E+02  0.00000000000E+00 0. -1.
</event>
<event>
 7    1  0.5664398E-009  0.4614232E+02  0.7816164E-02  0.1320468E+00
        -11   -1    0    0    0    0  0.00000000000E+00  0.00000000000E+00  0.45593999997E+02  0.45594000000E+02  0.51100000000E-03 0.  1.
         11   -1    0    0    0    0 -0.00000000000E+00 -0.00000000000E+00 -0.45593999997E+02  0.45594000000E+02  0.51100000000E-03 0. -1.
    9900012    2    1    2    0    0  0.17931783763E+02  0.27550413956E+02  0.30798365153E+02  0.46142317918E+02  0.10000001435E+02 0.  0.
        -12    1    1    2    0    0 -0.17931783763E+02 -0.27550413956E+02 -0.30798365153E+02  0.45045682082E+02  0.00000000000E+00 0.  1.
         11    1    3    3    0    0  0.90621053173E+01  0.16744876357E+02  0.18143056694E+02  0.26299869647E+02  0.51100000000E-03 0. -1.
        -11    1    3    3    0    0  0.14913082937E+01  0.66321788428E+01  0.59561719234E+01  0.90380186364E+01  0.51100000000E-03 0.  1.
        -12    1    3    3    0    0  0.73783701525E+01  0.41733587563E+01  0.66991365362E+01  0.10804429635E+02  0.00000000000E+00 0.  1.
</event>
<event>
 7    1  0.5664398E-009  0.4614232E+02  0.7816164E-02  0.1320468E+00
        -11   -1    0    0    0    0  0.00000000000E+00  0.00000000000E+00  0.45593999997E+02  0.45594000000E+02  0.51100000000E-03 0. -1.
         11   -1    0    0    0    0 -0.00000000000E+00 -0.00000000000E+00 -0.45593999997E+02  0.45594000000E+02  0.51100000000E-03 0.  1.
    9900012    2    1    2    0    0  0.13540637540E+02  0.37597361038E+02  0.20789494440E+02  0.46142317620E+02  0.99999987118E+01 0.  0.
        -12    1    1    2    0    0 -0.13540637540E+02 -0.37597361038E+02 -0.20789494440E+02  0.45045682380E+02  0.00000000000E+00 0.  1.
         11    1    3    3    0    0  0.44214839271E+01  0.15605502439E+02  0.10210505964E+02  0.19166002682E+02  0.51100000000E-03 0. -1.
        -11    1    3    3    0    0  0.45277561536E+01  0.92051060119E+01  0.83102902027E+01  0.13202101196E+02  0.51100000000E-03 0.  1.
        -12    1    3    3    0    0  0.45913974588E+01  0.12786752587E+02  0.22686982732E+01  0.13774213742E+02  0.00000000000E+00 0.  1.
</event>
<event>
 7    1  0.5664398E-009  0.4614232E+02  0.7816164E-02  0.1320468E+00
        -11   -1    0    0    0    0  0.00000000000E+00  0.00000000000E+00  0.45593999997E+02  0.45594000000E+02  0.51100000000E-03 0. -1.
         11   -1    0    0    0    0 -0.00000000000E+00 -0.00000000000E+00 -0.45593999997E+02  0.45594000000E+02  0.51100000000E-03 0.  1.
    9900012    2    1    2    0    0  0.90298148730E+01  0.39967805555E+02 -0.18712306982E+02  0.46142317964E+02  0.10000001852E+02 0.  0.
         12    1    1    2    0    0 -0.90298148730E+01 -0.39967805555E+02  0.18712306982E+02  0.45045682036E+02  0.00000000000E+00 0. -1.
         11    1    3    3    0    0  0.31886063848E+01  0.11361222752E+02 -0.22116308160E+01  0.12005661341E+02  0.51100000000E-03 0. -1.
        -11    1    3    3    0    0  0.54669975957E+01  0.22010867142E+02 -0.97354293871E+01  0.24680861425E+02  0.51100000000E-03 0.  1.
         12    1    3    3    0    0  0.37421089247E+00  0.65957156608E+01 -0.67652467788E+01  0.94557951992E+01  0.00000000000E+00 0. -1.
</event>
<event>
 7    1  0.5664398E-009  0.4614232E+02  0.7816164E-02  0.1320468E+00
        -11   -1    0    0    0    0  0.00000000000E+00  0.00000000000E+00  0.45593999997E+02  0.45594000000E+02  0.51100000000E-03 0. -1.
         11   -1    0    0    0    0 -0.00000000000E+00 -0.00000000000E+00 -0.45593999997E+02  0.45594000000E+02  0.51100000000E-03 0.  1.
    9900012    2    1    2    0    0  0.13257961384E+02  0.18876017255E+02  0.38691546696E+02  0.46142319261E+02  0.10000013679E+02 0.  0.
        -12    1    1    2    0    0 -0.13257961384E+02 -0.18876017255E+02 -0.38691546696E+02  0.45045680739E+02  0.00000000000E+00 0.  1.
         11    1    3    3    0    0  0.87919531624E+01  0.73547506836E+01  0.19411258082E+02  0.22543019732E+02  0.51100000000E-03 0. -1.
        -11    1    3    3    0    0  0.37244617856E+01  0.39227838919E+01  0.48100657318E+01  0.72385483116E+01  0.51100000000E-03 0.  1.
        -12    1    3    3    0    0  0.74154643597E+00  0.75984826794E+01  0.14470222882E+02  0.16360751218E+02  0.00000000000E+00 0.  1.
</event>
<event>
 7    1  0.5664398E-009  0.4614232E+02  0.7816164E-02  0.1320468E+00
        -11   -1    0    0    0    0  0.00000000000E+00  0.00000000000E+00  0.45593999997E+02  0.45594000000E+02  0.51100000000E-03 0. -1.
         11   -1    0    0    0    0 -0.00000000000E+00 -0.00000000000E+00 -0.45593999997E+02  0.45594000000E+02  0.51100000000E-03 0.  1.
    9900012    2    1    2    0    0  0.38673902421E+02  0.88899779163E+01  0.21316919618E+02  0.46142317656E+02  0.99999990394E+01 0.  0.
        -12    1    1    2    0    0 -0.38673902421E+02 -0.88899779163E+01 -0.21316919618E+02  0.45045682344E+02  0.00000000000E+00 0.  1.
         11    1    3    3    0    0  0.16517447906E+02  0.58882181771E+01  0.11459467933E+02  0.20947949881E+02  0.51100000000E-03 0. -1.
        -11    1    3    3    0    0  0.70446437802E-02 -0.65479970937E+00 -0.48749204112E-01  0.65664985527E+00  0.51100000000E-03 0.  1.
         12    1    3    3    0    0  0.22149409872E+02  0.36565594486E+01  0.99062008891E+01  0.24537717920E+02  0.00000000000E+00 0. -1.
</event>
<event>
 7    1  0.5664398E-009  0.4614231E+02  0.7816164E-02  0.1320468E+00
        -11   -1    0    0    0    0  0.00000000000E+00  0.00000000000E+00  0.45593999997E+02  0.45594000000E+02  0.51100000000E-03 0. -1.
         11   -1    0    0    0    0 -0.00000000000E+00 -0.00000000000E+00 -0.45593999997E+02  0.45594000000E+02  0.51100000000E-03 0.  1.
    9900012    2    1    2    0    0  0.23995787041E+02 -0.17224593423E+02  0.34009259103E+02  0.46142310761E+02  0.99999361656E+01 0.  0.
        -12    1    1    2    0    0 -0.23995787041E+02  0.17224593423E+02 -0.34009259103E+02  0.45045689239E+02  0.00000000000E+00 0.  1.
         11    1    3    3    0    0  0.52345820061E+01 -0.12319608732E+01  0.51454939962E+01  0.74427605831E+01  0.51100000000E-03 0. -1.
        -11    1    3    3    0    0  0.16457439590E+02 -0.11688919144E+02  0.26395415825E+02  0.33229446661E+02  0.51100000000E-03 0.  1.
        -12    1    3    3    0    0  0.23037654452E+01 -0.43037134050E+01  0.24683492824E+01  0.54701035162E+01  0.00000000000E+00 0.  1.
</event>
<event>
 7    1  0.5664398E-009  0.4614232E+02  0.7816164E-02  0.1320468E+00
        -11   -1    0    0    0    0  0.00000000000E+00  0.00000000000E+00  0.45593999997E+02  0.45594000000E+02  0.51100000000E-03 0. -1.
         11   -1    0    0    0    0 -0.00000000000E+00 -0.00000000000E+00 -0.45593999997E+02  0.45594000000E+02  0.51100000000E-03 0.  1.
    9900012    2    1    2    0    0 -0.96168684995E+01 -0.31591102359E+02  0.30637090808E+02  0.46142320505E+02  0.10000025024E+02 0.  0.
        -12    1    1    2    0    0  0.96168684995E+01  0.31591102359E+02 -0.30637090808E+02  0.45045679495E+02  0.00000000000E+00 0.  1.
         11    1    3    3    0    0 -0.18802579265E+00 -0.10788010865E+00 -0.17438910294E-01  0.21747687982E+00  0.51100000000E-03 0. -1.
        -11    1    3    3    0    0 -0.31459337194E+01 -0.72942857137E+01  0.26122863111E+01  0.83622690146E+01  0.51100000000E-03 0.  1.
         12    1    3    3    0    0 -0.62829089875E+01 -0.24188936536E+02  0.28042243407E+02  0.37562574611E+02  0.00000000000E+00 0. -1.
</event>
<event>
 7    1  0.5664398E-009  0.4614232E+02  0.7816164E-02  0.1320468E+00
        -11   -1    0    0    0    0  0.00000000000E+00  0.00000000000E+00  0.45593999997E+02  0.45594000000E+02  0.51100000000E-03 0.  1.
         11   -1    0    0    0    0 -0.00000000000E+00 -0.00000000000E+00 -0.45593999997E+02  0.45594000000E+02  0.51100000000E-03 0. -1.
    9900012    2    1    2    0    0  0.23142116168E+02  0.38563332085E+02  0.25348341759E+01  0.46142317560E+02  0.99999981629E+01 0.  0.
         12    1    1    2    0    0 -0.23142116168E+02 -0.38563332085E+02 -0.25348341759E+01  0.45045682440E+02  0.00000000000E+00 0. -1.
         11    1    3    3    0    0  0.33167126064E+01  0.36506979334E+01  0.11706680465E-01  0.49323741973E+01  0.51100000000E-03 0. -1.
        -11    1    3    3    0    0  0.17200142903E+02  0.23066767976E+02  0.37405957686E+01  0.29015732935E+02  0.51100000000E-03 0.  1.
         12    1    3    3    0    0  0.26252606585E+01  0.11845866175E+02 -0.12174682731E+01  0.12194210428E+02  0.00000000000E+00 0. -1.
</event>
<event>
 7    1  0.5664398E-009  0.4614232E+02  0.7816164E-02  0.1320468E+00
        -11   -1    0    0    0    0  0.00000000000E+00  0.00000000000E+00  0.45593999997E+02  0.45594000000E+02  0.51100000000E-03 0.  1.
         11   -1    0    0    0    0 -0.00000000000E+00 -0.00000000000E+00 -0.45593999997E+02  0.45594000000E+02  0.51100000000E-03 0. -1.
    9900012    2    1    2    0    0 -0.11768424700E+02 -0.28396133614E+02  0.32928365179E+02  0.46142318104E+02  0.10000003128E+02 0.  0.
        -12    1    1    2    0    0  0.11768424700E+02  0.28396133614E+02 -0.32928365179E+02  0.45045681896E+02  0.00000000000E+00 0.  1.
         11    1    3    3    0    0 -0.34915825681E+01 -0.14333219060E+02  0.12153008699E+02  0.19113553781E+02  0.51100000000E-03 0. -1.
        -11    1    3    3    0    0 -0.21782418479E+01 -0.75557819239E+01  0.65265608998E+01  0.10219127921E+02  0.51100000000E-03 0.  1.
        -12    1    3    3    0    0 -0.60986002837E+01 -0.65071326301E+01  0.14248795580E+02  0.16809636402E+02  0.00000000000E+00 0.  1.
</event>
<event>
 7    1  0.5664398E-009  0.4614232E+02  0.7816164E-02  0.1320468E+00
        -11   -1    0    0    0    0  0.00000000000E+00  0.00000000000E+00  0.45593999997E+02  0.45594000000E+02  0.51100000000E-03 0. -1.
         11   -1    0    0    0    0 -0.00000000000E+00 -0.00000000000E+00 -0.45593999997E+02  0.45594000000E+02  0.51100000000E-03 0.  1.
    9900012    2    1    2    0    0  0.34093509030E+02  0.17572522438E+02 -0.23621017977E+02  0.46142318819E+02  0.10000009642E+02 0.  0.
         12    1    1    2    0    0 -0.34093509030E+02 -0.17572522438E+02  0.23621017977E+02  0.45045681181E+02  0.00000000000E+00 0. -1.
         11    1    3    3    0    0  0.12413241453E+02  0.82032311358E+01 -0.43893695997E+01  0.15512837593E+02  0.51100000000E-03 0. -1.
        -11    1    3    3    0    0  0.14487842060E+02  0.58430357538E+01 -0.10750156618E+02  0.18963240808E+02  0.51100000000E-03 0.  1.
        -12    1    3    3    0    0  0.71924255172E+01  0.35262555486E+01 -0.84814917596E+01  0.11666240418E+02  0.00000000000E+00 0.  1.
</event>
<event>
 7    1  0.5664398E-009  0.4614232E+02  0.7816164E-02  0.1320468E+00
        -11   -1    0    0    0    0  0.00000000000E+00  0.00000000000E+00  0.45593999997E+02  0.45594000000E+02  0.51100000000E-03 0.  1.
         11   -1    0    0    0    0 -0.00000000000E+00 -0.00000000000E+00 -0.45593999997E+02  0.45594000000E+02  0.51100000000E-03 0. -1.
    9900012    2    1    2    0    0 -0.50620686410E+01 -0.40264026061E+02 -0.19552422756E+02  0.46142316864E+02  0.99999918187E+01 0.  0.
        -12    1    1    2    0    0  0.50620686410E+01  0.40264026061E+02  0.19552422756E+02  0.45045683136E+02  0.00000000000E+00 0.  1.
         11    1    3    3    0    0 -0.33926446912E+01 -0.12984974323E+02 -0.94606717354E+01  0.16420228565E+02  0.51100000000E-03 0. -1.
        -11    1    3    3    0    0  0.15573986759E+01 -0.47784538621E+01 -0.32454479387E+01  0.59826452788E+01  0.51100000000E-03 0.  1.
        -12    1    3    3    0    0 -0.32268226258E+01 -0.22500597876E+02 -0.68463030813E+01  0.23739443020E+02  0.00000000000E+00 0.  1.
</event>
<event>
 7    1  0.5664398E-009  0.4614232E+02  0.7816164E-02  0.1320468E+00
        -11   -1    0    0    0    0  0.00000000000E+00  0.00000000000E+00  0.45593999997E+02  0.45594000000E+02  0.51100000000E-03 0. -1.
         11   -1    0    0    0    0 -0.00000000000E+00 -0.00000000000E+00 -0.45593999997E+02  0.45594000000E+02  0.51100000000E-03 0.  1.
    9900012    2    1    2    0    0  0.10894373859E+02 -0.19564303818E+02  0.39085344053E+02  0.46142317793E+02  0.10000000294E+02 0.  0.
        -12    1    1    2    0    0 -0.10894373859E+02  0.19564303818E+02 -0.39085344053E+02  0.45045682207E+02  0.00000000000E+00 0.  1.
         11    1    3    3    0    0  0.27902825228E+01 -0.12096845044E+02  0.23838952328E+02  0.26877778646E+02  0.51100000000E-03 0. -1.
        -11    1    3    3    0    0  0.41079026752E+01 -0.64185796892E+01  0.92937850966E+01  0.12018630176E+02  0.51100000000E-03 0.  1.
        -12    1    3    3    0    0  0.39961886611E+01 -0.10488790850E+01  0.59526066293E+01  0.72459089721E+01  0.00000000000E+00 0.  1.
</event>
<event>
 7    1  0.5664398E-009  0.4614232E+02  0.7816164E-02  0.1320468E+00
        -11   -1    0    0    0    0  0.00000000000E+00  0.00000000000E+00  0.45593999997E+02  0.45594000000E+02  0.51100000000E-03 0. -1.
         11   -1    0    0    0    0 -0.00000000000E+00 -0.00000000000E+00 -0.45593999997E+02  0.45594000000E+02  0.51100000000E-03 0.  1.
    9900012    2    1    2    0    0 -0.45876056883E+01 -0.75381476096E+01 -0.44172883757E+02  0.46142318135E+02  0.10000003407E+02 0.  0.
         12    1    1    2    0    0  0.45876056883E+01  0.75381476096E+01  0.44172883757E+02  0.45045681865E+02  0.00000000000E+00 0. -1.
         11    1    3    3    0    0  0.27735385393E+01 -0.25675549417E+01 -0.89044626654E+01  0.96733815198E+01  0.51100000000E-03 0. -1.
        -11    1    3    3    0    0 -0.55995249783E+01 -0.22564468408E+01 -0.22259420409E+02  0.23063564979E+02  0.51100000000E-03 0.  1.
         12    1    3    3    0    0 -0.17616192493E+01 -0.27141458272E+01 -0.13009000682E+02  0.13405371636E+02  0.00000000000E+00 0. -1.
</event>
<event>
 7    1  0.5664398E-009  0.4614232E+02  0.7816164E-02  0.1320468E+00
        -11   -1    0    0    0    0  0.00000000000E+00  0.00000000000E+00  0.45593999997E+02  0.45594000000E+02  0.51100000000E-03 0. -1.
         11   -1    0    0    0    0 -0.00000000000E+00 -0.00000000000E+00 -0.45593999997E+02  0.45594000000E+02  0.51100000000E-03 0.  1.
    9900012    2    1    2    0    0 -0.12117672073E+02 -0.57447632607E+01 -0.43003176572E+02  0.46142317891E+02  0.10000001186E+02 0.  0.
         12    1    1    2    0    0  0.12117672073E+02  0.57447632607E+01  0.43003176572E+02  0.45045682109E+02  0.00000000000E+00 0. -1.
         11    1    3    3    0    0 -0.34468531311E+01 -0.37164153735E+01 -0.15584924488E+02  0.16388484106E+02  0.51100000000E-03 0. -1.
        -11    1    3    3    0    0 -0.17922019031E+01 -0.38258167019E+01 -0.75473566348E+01  0.86493614523E+01  0.51100000000E-03 0.  1.
        -12    1    3    3    0    0 -0.68786170386E+01  0.17974688147E+01 -0.19870895449E+02  0.21104472333E+02  0.00000000000E+00 0.  1.
</event>
<event>
 7    1  0.5664398E-009  0.4614232E+02  0.7816164E-02  0.1320468E+00
        -11   -1    0    0    0    0  0.00000000000E+00  0.00000000000E+00  0.45593999997E+02  0.45594000000E+02  0.51100000000E-03 0. -1.
         11   -1    0    0    0    0 -0.00000000000E+00 -0.00000000000E+00 -0.45593999997E+02  0.45594000000E+02  0.51100000000E-03 0.  1.
    9900012    2    1    2    0    0 -0.10994651233E+02  0.41675867301E+02  0.13090194945E+02  0.46142317913E+02  0.10000001383E+02 0.  0.
        -12    1    1    2    0    0  0.10994651233E+02 -0.41675867301E+02 -0.13090194945E+02  0.45045682087E+02  0.00000000000E+00 0.  1.
         11    1    3    3    0    0 -0.69862622020E+01  0.33187934673E+02  0.67322453549E+01  0.34577015418E+02  0.51100000000E-03 0. -1.
        -11    1    3    3    0    0 -0.21881840847E+01  0.69178179065E+01  0.48607058067E+01  0.87333164020E+01  0.51100000000E-03 0.  1.
         12    1    3    3    0    0 -0.18202049461E+01  0.15701147208E+01  0.14972437833E+01  0.28319860927E+01  0.00000000000E+00 0. -1.
</event>
<event>
 7    1  0.5664398E-009  0.4614232E+02  0.7816164E-02  0.1320468E+00
        -11   -1    0    0    0    0  0.00000000000E+00  0.00000000000E+00  0.45593999997E+02  0.45594000000E+02  0.51100000000E-03 0. -1.
         11   -1    0    0    0    0 -0.00000000000E+00 -0.00000000000E+00 -0.45593999997E+02  0.45594000000E+02  0.51100000000E-03 0.  1.
    9900012    2    1    2    0    0 -0.21820640661E+02 -0.30046389841E+01 -0.39293068070E+02  0.46142318602E+02  0.10000007665E+02 0.  0.
         12    1    1    2    0    0  0.21820640661E+02  0.30046389841E+01  0.39293068070E+02  0.45045681398E+02  0.00000000000E+00 0. -1.
         11    1    3    3    0    0 -0.42234904805E+00 -0.19561181637E+01 -0.41112818642E+01  0.45724627737E+01  0.51100000000E-03 0.  1.
        -11    1    3    3    0    0 -0.20256053260E+01 -0.12292987178E+00 -0.98438550741E+00  0.22554830477E+01  0.51100000000E-03 0. -1.
         12    1    3    3    0    0 -0.19372686287E+02 -0.92559094856E+00 -0.34197400698E+02  0.39314372780E+02  0.00000000000E+00 0. -1.
</event>
<event>
 7    1  0.5664398E-009  0.4614232E+02  0.7816164E-02  0.1320468E+00
        -11   -1    0    0    0    0  0.00000000000E+00  0.00000000000E+00  0.45593999997E+02  0.45594000000E+02  0.51100000000E-03 0. -1.
         11   -1    0    0    0    0 -0.00000000000E+00 -0.00000000000E+00 -0.45593999997E+02  0.45594000000E+02  0.51100000000E-03 0.  1.
    9900012    2    1    2    0    0 -0.19672231210E+02 -0.14517642461E+01  0.40497026857E+02  0.46142317804E+02  0.10000000396E+02 0.  0.
        -12    1    1    2    0    0  0.19672231210E+02  0.14517642461E+01 -0.40497026857E+02  0.45045682196E+02  0.00000000000E+00 0.  1.
         11    1    3    3    0    0  0.39645020374E-01  0.16665563551E+01  0.11984480218E+01  0.20531097717E+01  0.51100000000E-03 0.  1.
        -11    1    3    3    0    0 -0.96579117474E+01 -0.98296944506E+00  0.19304904874E+02  0.21608351180E+02  0.51100000000E-03 0. -1.
        -12    1    3    3    0    0 -0.10053964483E+02 -0.21353511561E+01  0.19993673961E+02  0.22480856853E+02  0.00000000000E+00 0.  1.
</event>
<event>
 7    1  0.5664398E-009  0.4614232E+02  0.7816164E-02  0.1320468E+00
        -11   -1    0    0    0    0  0.00000000000E+00  0.00000000000E+00  0.45593999997E+02  0.45594000000E+02  0.51100000000E-03 0. -1.
         11   -1    0    0    0    0 -0.00000000000E+00 -0.00000000000E+00 -0.45593999997E+02  0.45594000000E+02  0.51100000000E-03 0.  1.
    9900012    2    1    2    0    0 -0.24949431356E+01  0.43562435031E+02 -0.11189415210E+02  0.46142317634E+02  0.99999988390E+01 0.  0.
         12    1    1    2    0    0  0.24949431356E+01 -0.43562435031E+02  0.11189415210E+02  0.45045682366E+02  0.00000000000E+00 0. -1.
         11    1    3    3    0    0 -0.76877664417E-02 -0.20297452639E+00  0.30283840722E+00  0.36464931390E+00  0.51100000000E-03 0. -1.
        -11    1    3    3    0    0 -0.46565501316E+00 -0.23029463955E-01 -0.22055839738E-01  0.46674582878E+00  0.51100000000E-03 0.  1.
        -12    1    3    3    0    0 -0.20216003560E+01  0.43788439021E+02 -0.11470197778E+02  0.45310922491E+02  0.00000000000E+00 0.  1.
</event>
<event>
 7    1  0.5664398E-009  0.4614232E+02  0.7816164E-02  0.1320468E+00
        -11   -1    0    0    0    0  0.00000000000E+00  0.00000000000E+00  0.45593999997E+02  0.45594000000E+02  0.51100000000E-03 0. -1.
         11   -1    0    0    0    0 -0.00000000000E+00 -0.00000000000E+00 -0.45593999997E+02  0.45594000000E+02  0.51100000000E-03 0.  1.
    9900012    2    1    2    0    0 -0.18573610901E+02  0.15867768242E+02  0.37846379384E+02  0.46142317373E+02  0.99999964578E+01 0.  0.
        -12    1    1    2    0    0  0.18573610901E+02 -0.15867768242E+02 -0.37846379384E+02  0.45045682627E+02  0.00000000000E+00 0.  1.
         11    1    3    3    0    0 -0.91509814389E+01  0.50085299764E+01  0.15978251076E+02  0.19082199599E+02  0.51100000000E-03 0. -1.
        -11    1    3    3    0    0 -0.71808720591E+01  0.30298227919E+01  0.10581315197E+02  0.13141878908E+02  0.51100000000E-03 0.  1.
        -12    1    3    3    0    0 -0.22417574028E+01  0.78294154740E+01  0.11286813111E+02  0.13918238866E+02  0.00000000000E+00 0.  1.
</event>
<event>
 7    1  0.5664398E-009  0.4614232E+02  0.7816164E-02  0.1320468E+00
        -11   -1    0    0    0    0  0.00000000000E+00  0.00000000000E+00  0.45593999997E+02  0.45594000000E+02  0.51100000000E-03 0. -1.
         11   -1    0    0    0    0 -0.00000000000E+00 -0.00000000000E+00 -0.45593999997E+02  0.45594000000E+02  0.51100000000E-03 0.  1.
    9900012    2    1    2    0    0 -0.21466969737E+02  0.38272809699E+02  0.10172263595E+02  0.46142315427E+02  0.99999787196E+01 0.  0.
        -12    1    1    2    0    0  0.21466969737E+02 -0.38272809699E+02 -0.10172263595E+02  0.45045684573E+02  0.00000000000E+00 0.  1.
         11    1    3    3    0    0 -0.30902086535E+01  0.12203941835E+02  0.33526508006E+01  0.13027887530E+02  0.51100000000E-03 0. -1.
        -11    1    3    3    0    0  0.36636852480E+00  0.98130642208E+00  0.52667393367E+00  0.11724222292E+01  0.51100000000E-03 0.  1.
         12    1    3    3    0    0 -0.18743129608E+02  0.25087561442E+02  0.62929388609E+01  0.31942005669E+02  0.00000000000E+00 0. -1.
</event>
<event>
 7    1  0.5664398E-009  0.4614232E+02  0.7816164E-02  0.1320468E+00
        -11   -1    0    0    0    0  0.00000000000E+00  0.00000000000E+00  0.45593999997E+02  0.45594000000E+02  0.51100000000E-03 0. -1.
         11   -1    0    0    0    0 -0.00000000000E+00 -0.00000000000E+00 -0.45593999997E+02  0.45594000000E+02  0.51100000000E-03 0.  1.
    9900012    2    1    2    0    0  0.54409048881E+01 -0.42560493374E+02 -0.13715481961E+02  0.46142317769E+02  0.10000000074E+02 0.  0.
         12    1    1    2    0    0 -0.54409048881E+01  0.42560493374E+02  0.13715481961E+02  0.45045682231E+02  0.00000000000E+00 0. -1.
         11    1    3    3    0    0  0.21521125982E+01 -0.23439585077E+01 -0.10573793479E+01  0.33531748341E+01  0.51100000000E-03 0. -1.
        -11    1    3    3    0    0  0.35919411676E+01 -0.31220944229E+02 -0.71273449908E+01  0.32224966203E+02  0.51100000000E-03 0.  1.
         12    1    3    3    0    0 -0.30314887774E+00 -0.89955906368E+01 -0.55307576225E+01  0.10564176732E+02  0.00000000000E+00 0. -1.
</event>
<event>
 7    1  0.5664398E-009  0.4614232E+02  0.7816164E-02  0.1320468E+00
        -11   -1    0    0    0    0  0.00000000000E+00  0.00000000000E+00  0.45593999997E+02  0.45594000000E+02  0.51100000000E-03 0. -1.
         11   -1    0    0    0    0 -0.00000000000E+00 -0.00000000000E+00 -0.45593999997E+02  0.45594000000E+02  0.51100000000E-03 0.  1.
    9900012    2    1    2    0    0 -0.32654713088E+02 -0.26275775614E+02 -0.16503540171E+02  0.46142317530E+02  0.99999978943E+01 0.  0.
         12    1    1    2    0    0  0.32654713088E+02  0.26275775614E+02  0.16503540171E+02  0.45045682470E+02  0.00000000000E+00 0. -1.
         11    1    3    3    0    0 -0.13092548333E+02 -0.11554754288E+02 -0.30846131625E+01  0.17732512714E+02  0.51100000000E-03 0. -1.
        -11    1    3    3    0    0 -0.39662350473E+01 -0.47288717755E+01 -0.13970802224E+01  0.63281183719E+01  0.51100000000E-03 0.  1.
        -12    1    3    3    0    0 -0.15595929708E+02 -0.99921495500E+01 -0.12021846786E+02  0.22081686444E+02  0.00000000000E+00 0.  1.
</event>
<event>
 7    1  0.5664398E-009  0.4614232E+02  0.7816164E-02  0.1320468E+00
        -11   -1    0    0    0    0  0.00000000000E+00  0.00000000000E+00  0.45593999997E+02  0.45594000000E+02  0.51100000000E-03 0. -1.
         11   -1    0    0    0    0 -0.00000000000E+00 -0.00000000000E+00 -0.45593999997E+02  0.45594000000E+02  0.51100000000E-03 0.  1.
    9900012    2    1    2    0    0 -0.10459434981E+02 -0.22050679102E+02 -0.37861343050E+02  0.46142317338E+02  0.99999961403E+01 0.  0.
         12    1    1    2    0    0  0.10459434981E+02  0.22050679102E+02  0.37861343050E+02  0.45045682662E+02  0.00000000000E+00 0. -1.
         11    1    3    3    0    0 -0.27595666114E+01 -0.11293626599E+02 -0.15427970727E+02  0.19317957725E+02  0.51100000000E-03 0.  1.
        -11    1    3    3    0    0 -0.81295686417E+01 -0.11345708382E+02 -0.21600562443E+02  0.25717684249E+02  0.51100000000E-03 0. -1.
         12    1    3    3    0    0  0.42970027201E+00  0.58865587872E+00 -0.83280987888E+00  0.11066753642E+01  0.00000000000E+00 0. -1.
</event>
<event>
 7    1  0.5664398E-009  0.4614232E+02  0.7816164E-02  0.1320468E+00
        -11   -1    0    0    0    0  0.00000000000E+00  0.00000000000E+00  0.45593999997E+02  0.45594000000E+02  0.51100000000E-03 0. -1.
         11   -1    0    0    0    0 -0.00000000000E+00 -0.00000000000E+00 -0.45593999997E+02  0.45594000000E+02  0.51100000000E-03 0.  1.
    9900012    2    1    2    0    0  0.16768908479E+02  0.36807693315E+02  0.19827028907E+02  0.46142315922E+02  0.99999832325E+01 0.  0.
        -12    1    1    2    0    0 -0.16768908479E+02 -0.36807693315E+02 -0.19827028907E+02  0.45045684078E+02  0.00000000000E+00 0.  1.
         11    1    3    3    0    0  0.34724262959E+01  0.13202721396E+02  0.72422968118E+01  0.15453817005E+02  0.51100000000E-03 0. -1.
        -11    1    3    3    0    0  0.42239775201E+01  0.14503798596E+02  0.60640109601E+01  0.16278033941E+02  0.51100000000E-03 0.  1.
        -12    1    3    3    0    0  0.90725046632E+01  0.91011733226E+01  0.65207211353E+01  0.14410464976E+02  0.00000000000E+00 0.  1.
</event>
<event>
 7    1  0.5664398E-009  0.4614232E+02  0.7816164E-02  0.1320468E+00
        -11   -1    0    0    0    0  0.00000000000E+00  0.00000000000E+00  0.45593999997E+02  0.45594000000E+02  0.51100000000E-03 0. -1.
         11   -1    0    0    0    0 -0.00000000000E+00 -0.00000000000E+00 -0.45593999997E+02  0.45594000000E+02  0.51100000000E-03 0.  1.
    9900012    2    1    2    0    0  0.24452781139E+02  0.18457879236E+01 -0.37785818428E+02  0.46142317490E+02  0.99999975297E+01 0.  0.
         12    1    1    2    0    0 -0.24452781139E+02 -0.18457879236E+01  0.37785818428E+02  0.45045682510E+02  0.00000000000E+00 0. -1.
         11    1    3    3    0    0  0.45878664403E+01  0.13057017515E+01 -0.36216277544E+01  0.59891204188E+01  0.51100000000E-03 0. -1.
        -11    1    3    3    0    0  0.16526629749E+02  0.31794850549E+01 -0.27795376407E+02  0.32493408038E+02  0.51100000000E-03 0.  1.
         12    1    3    3    0    0  0.33382849491E+01 -0.26393988828E+01 -0.63688142671E+01  0.76597890332E+01  0.00000000000E+00 0. -1.
</event>
<event>
 7    1  0.5664398E-009  0.4614232E+02  0.7816164E-02  0.1320468E+00
        -11   -1    0    0    0    0  0.00000000000E+00  0.00000000000E+00  0.45593999997E+02  0.45594000000E+02  0.51100000000E-03 0. -1.
         11   -1    0    0    0    0 -0.00000000000E+00 -0.00000000000E+00 -0.45593999997E+02  0.45594000000E+02  0.51100000000E-03 0.  1.
    9900012    2    1    2    0    0 -0.29231764948E+02 -0.26785449579E+01 -0.34167861861E+02  0.46142317974E+02  0.10000001939E+02 0.  0.
         12    1    1    2    0    0  0.29231764948E+02  0.26785449579E+01  0.34167861861E+02  0.45045682026E+02  0.00000000000E+00 0. -1.
         11    1    3    3    0    0 -0.19279344985E+01  0.15741377531E+01 -0.37004988805E+01  0.44596561888E+01  0.51100000000E-03 0. -1.
        -11    1    3    3    0    0 -0.23839138261E+02 -0.53142111650E+01 -0.23846558518E+02  0.34135080295E+02  0.51100000000E-03 0.  1.
        -12    1    3    3    0    0 -0.34646921882E+01  0.10615284539E+01 -0.66208044620E+01  0.75475814896E+01  0.00000000000E+00 0.  1.
</event>
<event>
 7    1  0.5664398E-009  0.4614232E+02  0.7816164E-02  0.1320468E+00
        -11   -1    0    0    0    0  0.00000000000E+00  0.00000000000E+00  0.45593999997E+02  0.45594000000E+02  0.51100000000E-03 0. -1.
         11   -1    0    0    0    0 -0.00000000000E+00 -0.00000000000E+00 -0.45593999997E+02  0.45594000000E+02  0.51100000000E-03 0.  1.
    9900012    2    1    2    0    0 -0.16466646276E+02 -0.25294154597E+02 -0.33439031622E+02  0.46142317275E+02  0.99999955680E+01 0.  0.
         12    1    1    2    0    0  0.16466646276E+02  0.25294154597E+02  0.33439031622E+02  0.45045682725E+02  0.00000000000E+00 0. -1.
         11    1    3    3    0    0 -0.19965320307E+01 -0.83518390204E+01 -0.99091957896E+01  0.13112265885E+02  0.51100000000E-03 0. -1.
        -11    1    3    3    0    0 -0.39203404419E+01 -0.90097537889E+01 -0.81758449646E+01  0.12782377465E+02  0.51100000000E-03 0.  1.
         12    1    3    3    0    0 -0.10549773803E+02 -0.79325617872E+01 -0.15353990868E+02  0.20247673925E+02  0.00000000000E+00 0. -1.
</event>
<event>
 7    1  0.8443290E-009  0.4614232E+02  0.7816164E-02  0.1320468E+00
        -11   -1    0    0    0    0  0.00000000000E+00  0.00000000000E+00  0.45593999997E+02  0.45594000000E+02  0.51100000000E-03 0. -1.
         11   -1    0    0    0    0 -0.00000000000E+00 -0.00000000000E+00 -0.45593999997E+02  0.45594000000E+02  0.51100000000E-03 0.  1.
    9900012    2    1    2    0    0 -0.22773928235E+02  0.15604678827E+02 -0.35594320614E+02  0.46142317981E+02  0.10000002006E+02 0.  0.
         12    1    1    2    0    0  0.22773928235E+02 -0.15604678827E+02  0.35594320614E+02  0.45045682019E+02  0.00000000000E+00 0. -1.
         11    1    3    3    0    0 -0.66848120808E+00  0.95998003514E+00  0.25325414320E+00  0.11968987909E+01  0.51100000000E-03 0.  1.
        -11    1    3    3    0    0 -0.16054099716E+01 -0.23385460685E+00 -0.11631304105E+01  0.19962218732E+01  0.51100000000E-03 0. -1.
        -12    1    3    3    0    0 -0.20500037055E+02  0.14878553399E+02 -0.34684444347E+02  0.42949197317E+02  0.00000000000E+00 0.  1.
</event>
<event>
 7    1  0.5664398E-009  0.4614232E+02  0.7816164E-02  0.1320468E+00
        -11   -1    0    0    0    0  0.00000000000E+00  0.00000000000E+00  0.45593999997E+02  0.45594000000E+02  0.51100000000E-03 0. -1.
         11   -1    0    0    0    0 -0.00000000000E+00 -0.00000000000E+00 -0.45593999997E+02  0.45594000000E+02  0.51100000000E-03 0.  1.
    9900012    2    1    2    0    0  0.16138412809E+02  0.16381264828E+02  0.38733955233E+02  0.46142317706E+02  0.99999994943E+01 0.  0.
        -12    1    1    2    0    0 -0.16138412809E+02 -0.16381264828E+02 -0.38733955233E+02  0.45045682294E+02  0.00000000000E+00 0.  1.
         11    1    3    3    0    0 -0.79009849087E+00  0.94056095879E+00  0.56794465229E+00  0.13533188581E+01  0.51100000000E-03 0. -1.
        -11    1    3    3    0    0  0.69752425740E+00  0.11696634521E+01  0.51580988034E+01  0.53348510951E+01  0.51100000000E-03 0.  1.
         12    1    3    3    0    0  0.16230987042E+02  0.14271040418E+02  0.33007911777E+02  0.39454147752E+02  0.00000000000E+00 0. -1.
</event>
<event>
 7    1  0.5664398E-009  0.4614232E+02  0.7816164E-02  0.1320468E+00
        -11   -1    0    0    0    0  0.00000000000E+00  0.00000000000E+00  0.45593999997E+02  0.45594000000E+02  0.51100000000E-03 0. -1.
         11   -1    0    0    0    0 -0.00000000000E+00 -0.00000000000E+00 -0.45593999997E+02  0.45594000000E+02  0.51100000000E-03 0.  1.
    9900012    2    1    2    0    0 -0.47218173434E+01  0.10757374423E+02 -0.43486743305E+02  0.46142317557E+02  0.99999981349E+01 0.  0.
         12    1    1    2    0    0  0.47218173434E+01 -0.10757374423E+02  0.43486743305E+02  0.45045682443E+02  0.00000000000E+00 0. -1.
         11    1    3    3    0    0  0.39996564195E+00 -0.62934495324E+00 -0.13878480929E+02  0.13898499227E+02  0.51100000000E-03 0. -1.
        -11    1    3    3    0    0 -0.23142984141E+01  0.55363059573E+01 -0.10906449472E+02  0.12448184652E+02  0.51100000000E-03 0.  1.
         12    1    3    3    0    0 -0.28074845712E+01  0.58504134190E+01 -0.18701812904E+02  0.19795633677E+02  0.00000000000E+00 0. -1.
</event>
<event>
 7    1  0.5664398E-009  0.4614232E+02  0.7816164E-02  0.1320468E+00
        -11   -1    0    0    0    0  0.00000000000E+00  0.00000000000E+00  0.45593999997E+02  0.45594000000E+02  0.51100000000E-03 0. -1.
         11   -1    0    0    0    0 -0.00000000000E+00 -0.00000000000E+00 -0.45593999997E+02  0.45594000000E+02  0.51100000000E-03 0.  1.
    9900012    2    1    2    0    0  0.93618626793E+01 -0.42871896062E+02  0.10172000204E+02  0.46142317267E+02  0.99999954926E+01 0.  0.
        -12    1    1    2    0    0 -0.93618626793E+01  0.42871896062E+02 -0.10172000204E+02  0.45045682733E+02  0.00000000000E+00 0.  1.
         11    1    3    3    0    0  0.13660334565E+01 -0.21791297457E+02  0.25312777743E+01  0.21980310728E+02  0.51100000000E-03 0. -1.
        -11    1    3    3    0    0  0.45674335424E+01 -0.66671436897E+01  0.21611513787E+01  0.83655740799E+01  0.51100000000E-03 0.  1.
        -12    1    3    3    0    0  0.34283956805E+01 -0.14413454915E+02  0.54795710514E+01  0.15796432459E+02  0.00000000000E+00 0.  1.
</event>
<event>
 7    1  0.5664398E-009  0.4614232E+02  0.7816164E-02  0.1320468E+00
        -11   -1    0    0    0    0  0.00000000000E+00  0.00000000000E+00  0.45593999997E+02  0.45594000000E+02  0.51100000000E-03 0. -1.
         11   -1    0    0    0    0 -0.00000000000E+00 -0.00000000000E+00 -0.45593999997E+02  0.45594000000E+02  0.51100000000E-03 0.  1.
    9900012    2    1    2    0    0 -0.22761639396E+02 -0.27140991348E+02 -0.27827824462E+02  0.46142318147E+02  0.10000003516E+02 0.  0.
         12    1    1    2    0    0  0.22761639396E+02  0.27140991348E+02  0.27827824462E+02  0.45045681853E+02  0.00000000000E+00 0. -1.
         11    1    3    3    0    0 -0.24160760414E+01 -0.56344671692E+01 -0.15629704046E+01  0.63267306301E+01  0.51100000000E-03 0. -1.
        -11    1    3    3    0    0 -0.30414246426E+01 -0.12686520800E+01 -0.30107248438E+01  0.44636539184E+01  0.51100000000E-03 0.  1.
        -12    1    3    3    0    0 -0.17304138712E+02 -0.20237872099E+02 -0.23254129214E+02  0.35351933598E+02  0.00000000000E+00 0.  1.
</event>
<event>
 7    1  0.5664398E-009  0.4614232E+02  0.7816164E-02  0.1320468E+00
        -11   -1    0    0    0    0  0.00000000000E+00  0.00000000000E+00  0.45593999997E+02  0.45594000000E+02  0.51100000000E-03 0. -1.
         11   -1    0    0    0    0 -0.00000000000E+00 -0.00000000000E+00 -0.45593999997E+02  0.45594000000E+02  0.51100000000E-03 0.  1.
    9900012    2    1    2    0    0 -0.22286939729E+02  0.68667244420E+01  0.38538992087E+02  0.46142317653E+02  0.99999990132E+01 0.  0.
        -12    1    1    2    0    0  0.22286939729E+02 -0.68667244420E+01 -0.38538992087E+02  0.45045682347E+02  0.00000000000E+00 0.  1.
         11    1    3    3    0    0 -0.87471735651E+01  0.19933898416E+01  0.15294057703E+02  0.17731182976E+02  0.51100000000E-03 0. -1.
        -11    1    3    3    0    0 -0.98746340635E+00  0.24248192314E+01  0.84931420504E+01  0.88875359034E+01  0.51100000000E-03 0.  1.
         12    1    3    3    0    0 -0.12552302757E+02  0.24485153690E+01  0.14751792333E+02  0.19523598773E+02  0.00000000000E+00 0. -1.
</event>
<event>
 7    1  0.5664398E-009  0.4614232E+02  0.7816164E-02  0.1320468E+00
        -11   -1    0    0    0    0  0.00000000000E+00  0.00000000000E+00  0.45593999997E+02  0.45594000000E+02  0.51100000000E-03 0.  1.
         11   -1    0    0    0    0 -0.00000000000E+00 -0.00000000000E+00 -0.45593999997E+02  0.45594000000E+02  0.51100000000E-03 0. -1.
    9900012    2    1    2    0    0  0.32101171565E+02  0.28666571566E+02 -0.13298716204E+02  0.46142318810E+02  0.10000009569E+02 0.  0.
         12    1    1    2    0    0 -0.32101171565E+02 -0.28666571566E+02  0.13298716204E+02  0.45045681190E+02  0.00000000000E+00 0. -1.
         11    1    3    3    0    0 -0.16829714972E+00 -0.30285983341E-01 -0.42444504228E-01  0.17619014857E+00  0.51100000000E-03 0. -1.
        -11    1    3    3    0    0  0.16765590649E+02  0.18374432242E+02 -0.11023118975E+02  0.27206873070E+02  0.51100000000E-03 0.  1.
        -12    1    3    3    0    0  0.15503878065E+02  0.10322425307E+02 -0.22331527244E+01  0.18759255592E+02  0.00000000000E+00 0.  1.
</event>
<event>
 7    1  0.5664398E-009  0.4614232E+02  0.7816164E-02  0.1320468E+00
        -11   -1    0    0    0    0  0.00000000000E+00  0.00000000000E+00  0.45593999997E+02  0.45594000000E+02  0.51100000000E-03 0.  1.
         11   -1    0    0    0    0 -0.00000000000E+00 -0.00000000000E+00 -0.45593999997E+02  0.45594000000E+02  0.51100000000E-03 0. -1.
    9900012    2    1    2    0    0 -0.42531523617E+02 -0.70424646219E+01  0.13060882663E+02  0.46142318019E+02  0.10000002353E+02 0.  0.
        -12    1    1    2    0    0  0.42531523617E+02  0.70424646219E+01 -0.13060882663E+02  0.45045681981E+02  0.00000000000E+00 0.  1.
         11    1    3    3    0    0 -0.57969352997E+01 -0.20675353326E+01  0.18280088009E+01  0.64203409300E+01  0.51100000000E-03 0. -1.
        -11    1    3    3    0    0 -0.11004621355E+02  0.24859260208E+01  0.40383264577E+01  0.11982887807E+02  0.51100000000E-03 0.  1.
        -12    1    3    3    0    0 -0.25729966962E+02 -0.74608553100E+01  0.71945474047E+01  0.27739089282E+02  0.00000000000E+00 0.  1.
</event>
<event>
 7    1  0.5664398E-009  0.4614232E+02  0.7816164E-02  0.1320468E+00
        -11   -1    0    0    0    0  0.00000000000E+00  0.00000000000E+00  0.45593999997E+02  0.45594000000E+02  0.51100000000E-03 0. -1.
         11   -1    0    0    0    0 -0.00000000000E+00 -0.00000000000E+00 -0.45593999997E+02  0.45594000000E+02  0.51100000000E-03 0.  1.
    9900012    2    1    2    0    0 -0.35915256850E+02 -0.21092267668E+02 -0.17155872027E+02  0.46142319020E+02  0.10000011478E+02 0.  0.
         12    1    1    2    0    0  0.35915256850E+02  0.21092267668E+02  0.17155872027E+02  0.45045680980E+02  0.00000000000E+00 0. -1.
         11    1    3    3    0    0 -0.27639455911E+01 -0.45110553676E+01 -0.30959764960E+01  0.61297705084E+01  0.51100000000E-03 0. -1.
        -11    1    3    3    0    0 -0.54697509621E+01 -0.48034804600E+01 -0.39120479860E+01  0.82641224473E+01  0.51100000000E-03 0.  1.
         12    1    3    3    0    0 -0.27681560297E+02 -0.11777731840E+02 -0.10147847545E+02  0.31748426064E+02  0.00000000000E+00 0. -1.
</event>
<event>
 7    1  0.5664398E-009  0.4614232E+02  0.7816164E-02  0.1320468E+00
        -11   -1    0    0    0    0  0.00000000000E+00  0.00000000000E+00  0.45593999997E+02  0.45594000000E+02  0.51100000000E-03 0. -1.
         11   -1    0    0    0    0 -0.00000000000E+00 -0.00000000000E+00 -0.45593999997E+02  0.45594000000E+02  0.51100000000E-03 0.  1.
    9900012    2    1    2    0    0 -0.25614643480E+02  0.23250659302E+02  0.28851523301E+02  0.46142317461E+02  0.99999972660E+01 0.  0.
        -12    1    1    2    0    0  0.25614643480E+02 -0.23250659302E+02 -0.28851523301E+02  0.45045682539E+02  0.00000000000E+00 0.  1.
         11    1    3    3    0    0 -0.79907621221E+01  0.76542820065E+01  0.10594414443E+02  0.15319331904E+02  0.51100000000E-03 0. -1.
        -11    1    3    3    0    0 -0.16360992880E+02  0.11272152020E+02  0.16993476438E+02  0.26144248716E+02  0.51100000000E-03 0.  1.
        -12    1    3    3    0    0 -0.12628884771E+01  0.43242252755E+01  0.12636324197E+01  0.46787368414E+01  0.00000000000E+00 0.  1.
</event>
<event>
 7    1  0.5664398E-009  0.4614232E+02  0.7816164E-02  0.1320468E+00
        -11   -1    0    0    0    0  0.00000000000E+00  0.00000000000E+00  0.45593999997E+02  0.45594000000E+02  0.51100000000E-03 0. -1.
         11   -1    0    0    0    0 -0.00000000000E+00 -0.00000000000E+00 -0.45593999997E+02  0.45594000000E+02  0.51100000000E-03 0.  1.
    9900012    2    1    2    0    0  0.12533677225E+02  0.19858240967E+02  0.38440482603E+02  0.46142317612E+02  0.99999986360E+01 0.  0.
        -12    1    1    2    0    0 -0.12533677225E+02 -0.19858240967E+02 -0.38440482603E+02  0.45045682388E+02  0.00000000000E+00 0.  1.
         11    1    3    3    0    0  0.36284948804E+01  0.83968034815E+01  0.88017518739E+01  0.12694216010E+02  0.51100000000E-03 0. -1.
        -11    1    3    3    0    0  0.91546633960E+01  0.11132836281E+02  0.29717164117E+02  0.33028135718E+02  0.51100000000E-03 0.  1.
         12    1    3    3    0    0 -0.24948105178E+00  0.32860120469E+00 -0.78433388129E-01  0.41996588349E+00  0.00000000000E+00 0. -1.
</event>
<event>
 7    1  0.5664398E-009  0.4614232E+02  0.7816164E-02  0.1320468E+00
        -11   -1    0    0    0    0  0.00000000000E+00  0.00000000000E+00  0.45593999997E+02  0.45594000000E+02  0.51100000000E-03 0. -1.
         11   -1    0    0    0    0 -0.00000000000E+00 -0.00000000000E+00 -0.45593999997E+02  0.45594000000E+02  0.51100000000E-03 0.  1.
    9900012    2    1    2    0    0 -0.22503093416E+00  0.35350511819E+02 -0.27917806838E+02  0.46142320258E+02  0.10000022767E+02 0.  0.
         12    1    1    2    0    0  0.22503093416E+00 -0.35350511819E+02  0.27917806838E+02  0.45045679742E+02  0.00000000000E+00 0. -1.
         11    1    3    3    0    0  0.76251776570E+00  0.59489242742E+01 -0.19007697082E+01  0.62915863745E+01  0.51100000000E-03 0. -1.
        -11    1    3    3    0    0  0.25221874853E+01  0.19346166590E+02 -0.17610274293E+02  0.26282263076E+02  0.51100000000E-03 0.  1.
        -12    1    3    3    0    0 -0.35097361851E+01  0.10055420955E+02 -0.84067628368E+01  0.13568470808E+02  0.00000000000E+00 0.  1.
</event>
<event>
 7    1  0.5664398E-009  0.4614232E+02  0.7816164E-02  0.1320468E+00
        -11   -1    0    0    0    0  0.00000000000E+00  0.00000000000E+00  0.45593999997E+02  0.45594000000E+02  0.51100000000E-03 0. -1.
         11   -1    0    0    0    0 -0.00000000000E+00 -0.00000000000E+00 -0.45593999997E+02  0.45594000000E+02  0.51100000000E-03 0.  1.
    9900012    2    1    2    0    0  0.41961887650E+02  0.16368557441E+02 -0.61966401056E+00  0.46142315730E+02  0.99999814770E+01 0.  0.
        -12    1    1    2    0    0 -0.41961887650E+02 -0.16368557441E+02  0.61966401056E+00  0.45045684270E+02  0.00000000000E+00 0.  1.
         11    1    3    3    0    0  0.23860149531E+02  0.67777789846E+01  0.45015702335E+00  0.24808217695E+02  0.51100000000E-03 0. -1.
        -11    1    3    3    0    0  0.12400756827E+02  0.51667411596E+01 -0.32002901208E+01  0.13809990630E+02  0.51100000000E-03 0.  1.
        -12    1    3    3    0    0  0.57009812923E+01  0.44240372969E+01  0.21304690869E+01  0.75241074042E+01  0.00000000000E+00 0.  1.
</event>
<event>
 7    1  0.5664398E-009  0.4614232E+02  0.7816164E-02  0.1320468E+00
        -11   -1    0    0    0    0  0.00000000000E+00  0.00000000000E+00  0.45593999997E+02  0.45594000000E+02  0.51100000000E-03 0.  1.
         11   -1    0    0    0    0 -0.00000000000E+00 -0.00000000000E+00 -0.45593999997E+02  0.45594000000E+02  0.51100000000E-03 0. -1.
    9900012    2    1    2    0    0  0.13098336279E+02  0.42716026768E+02 -0.57348144213E+01  0.46142318159E+02  0.10000003625E+02 0.  0.
         12    1    1    2    0    0 -0.13098336279E+02 -0.42716026768E+02  0.57348144213E+01  0.45045681841E+02  0.00000000000E+00 0. -1.
         11    1    3    3    0    0  0.28588402007E+01  0.21219534558E+01 -0.33182830046E+00  0.35757186752E+01  0.51100000000E-03 0. -1.
        -11    1    3    3    0    0  0.35861973023E+01  0.22709292490E+02 -0.47316038394E+01  0.23472555285E+02  0.51100000000E-03 0.  1.
        -12    1    3    3    0    0  0.66532987764E+01  0.17884780822E+02 -0.67138228150E+00  0.19094044198E+02  0.00000000000E+00 0.  1.
</event>
<event>
 7    1  0.5664398E-009  0.4614232E+02  0.7816164E-02  0.1320468E+00
        -11   -1    0    0    0    0  0.00000000000E+00  0.00000000000E+00  0.45593999997E+02  0.45594000000E+02  0.51100000000E-03 0. -1.
         11   -1    0    0    0    0 -0.00000000000E+00 -0.00000000000E+00 -0.45593999997E+02  0.45594000000E+02  0.51100000000E-03 0.  1.
    9900012    2    1    2    0    0 -0.10483260950E+02  0.91565227484E+01 -0.42841250744E+02  0.46142318361E+02  0.10000005471E+02 0.  0.
         12    1    1    2    0    0  0.10483260950E+02 -0.91565227484E+01  0.42841250744E+02  0.45045681639E+02  0.00000000000E+00 0. -1.
         11    1    3    3    0    0 -0.66973341676E+00 -0.19125771984E+01 -0.35497047092E+01  0.40874072678E+01  0.51100000000E-03 0. -1.
        -11    1    3    3    0    0 -0.31017835687E+01  0.43408511234E+01 -0.11349639278E+02  0.12541067011E+02  0.51100000000E-03 0.  1.
         12    1    3    3    0    0 -0.67117439644E+01  0.67282488234E+01 -0.27941906757E+02  0.29513844082E+02  0.00000000000E+00 0. -1.
</event>
<event>
 7    1  0.5664398E-009  0.4614232E+02  0.7816164E-02  0.1320468E+00
        -11   -1    0    0    0    0  0.00000000000E+00  0.00000000000E+00  0.45593999997E+02  0.45594000000E+02  0.51100000000E-03 0.  1.
         11   -1    0    0    0    0 -0.00000000000E+00 -0.00000000000E+00 -0.45593999997E+02  0.45594000000E+02  0.51100000000E-03 0. -1.
    9900012    2    1    2    0    0 -0.21308456465E+01  0.44841485703E+02  0.37167070890E+01  0.46142320353E+02  0.10000023639E+02 0.  0.
        -12    1    1    2    0    0  0.21308456465E+01 -0.44841485703E+02 -0.37167070890E+01  0.45045679647E+02  0.00000000000E+00 0.  1.
         11    1    3    3    0    0 -0.38612511681E+00  0.26473022868E+02  0.44086753827E+01  0.26840388433E+02  0.51100000000E-03 0. -1.
        -11    1    3    3    0    0 -0.23633794152E-02  0.38785065366E+00 -0.11681155362E+01  0.12308240663E+01  0.51100000000E-03 0.  1.
        -12    1    3    3    0    0 -0.17423571503E+01  0.17980612182E+02  0.47614724248E+00  0.18071107854E+02  0.00000000000E+00 0.  1.
</event>
<event>
 7    1  0.5664398E-009  0.4614232E+02  0.7816164E-02  0.1320468E+00
        -11   -1    0    0    0    0  0.00000000000E+00  0.00000000000E+00  0.45593999997E+02  0.45594000000E+02  0.51100000000E-03 0. -1.
         11   -1    0    0    0    0 -0.00000000000E+00 -0.00000000000E+00 -0.45593999997E+02  0.45594000000E+02  0.51100000000E-03 0.  1.
    9900012    2    1    2    0    0 -0.82293853953E+01  0.12136498246E+02 -0.42592208054E+02  0.46142316960E+02  0.99999926940E+01 0.  0.
         12    1    1    2    0    0  0.82293853953E+01 -0.12136498246E+02  0.42592208054E+02  0.45045683040E+02  0.00000000000E+00 0. -1.
         11    1    3    3    0    0 -0.30373278693E+01  0.21621224977E+01 -0.23954490308E+02  0.24242890514E+02  0.51100000000E-03 0.  1.
        -11    1    3    3    0    0 -0.24909326936E+01  0.33103306582E+01 -0.86676914183E+01  0.96068678316E+01  0.51100000000E-03 0. -1.
        -12    1    3    3    0    0 -0.27011248325E+01  0.66640450903E+01 -0.99700263274E+01  0.12292558615E+02  0.00000000000E+00 0.  1.
</event>
<event>
 7    1  0.5664398E-009  0.4614232E+02  0.7816164E-02  0.1320468E+00
        -11   -1    0    0    0    0  0.00000000000E+00  0.00000000000E+00  0.45593999997E+02  0.45594000000E+02  0.51100000000E-03 0. -1.
         11   -1    0    0    0    0 -0.00000000000E+00 -0.00000000000E+00 -0.45593999997E+02  0.45594000000E+02  0.51100000000E-03 0.  1.
    9900012    2    1    2    0    0 -0.12030033074E+01  0.25351377482E+02  0.37215238812E+02  0.46142316999E+02  0.99999930528E+01 0.  0.
        -12    1    1    2    0    0  0.12030033074E+01 -0.25351377482E+02 -0.37215238812E+02  0.45045683001E+02  0.00000000000E+00 0.  1.
         11    1    3    3    0    0  0.20325271346E+00  0.26116295302E+01  0.65470622996E+01  0.70516626042E+01  0.51100000000E-03 0. -1.
        -11    1    3    3    0    0 -0.24017531213E+00  0.18428466450E+02  0.28922461179E+02  0.34295405243E+02  0.51100000000E-03 0.  1.
        -12    1    3    3    0    0 -0.11660807087E+01  0.43112815016E+01  0.17457153336E+01  0.47952491522E+01  0.00000000000E+00 0.  1.
</event>
<event>
 7    1  0.5664398E-009  0.4614232E+02  0.7816164E-02  0.1320468E+00
        -11   -1    0    0    0    0  0.00000000000E+00  0.00000000000E+00  0.45593999997E+02  0.45594000000E+02  0.51100000000E-03 0.  1.
         11   -1    0    0    0    0 -0.00000000000E+00 -0.00000000000E+00 -0.45593999997E+02  0.45594000000E+02  0.51100000000E-03 0. -1.
    9900012    2    1    2    0    0  0.43260216648E+02 -0.78439765364E+01 -0.98050550002E+01  0.46142318565E+02  0.10000007334E+02 0.  0.
         12    1    1    2    0    0 -0.43260216648E+02  0.78439765364E+01  0.98050550002E+01  0.45045681435E+02  0.00000000000E+00 0. -1.
         11    1    3    3    0    0  0.65042211119E+01  0.17912710158E+01 -0.90007365745E+00  0.68061499377E+01  0.51100000000E-03 0. -1.
        -11    1    3    3    0    0  0.24818529456E+02 -0.43568838301E+01 -0.69437378121E+01  0.26137278667E+02  0.51100000000E-03 0.  1.
        -12    1    3    3    0    0  0.11937466080E+02 -0.52783637222E+01 -0.19612435306E+01  0.13198889960E+02  0.00000000000E+00 0.  1.
</event>
<event>
 7    1  0.5664398E-009  0.4614232E+02  0.7816164E-02  0.1320468E+00
        -11   -1    0    0    0    0  0.00000000000E+00  0.00000000000E+00  0.45593999997E+02  0.45594000000E+02  0.51100000000E-03 0.  1.
         11   -1    0    0    0    0 -0.00000000000E+00 -0.00000000000E+00 -0.45593999997E+02  0.45594000000E+02  0.51100000000E-03 0. -1.
    9900012    2    1    2    0    0 -0.39926299305E+02  0.15757949257E+02  0.13663494768E+02  0.46142318407E+02  0.10000005885E+02 0.  0.
        -12    1    1    2    0    0  0.39926299305E+02 -0.15757949257E+02 -0.13663494768E+02  0.45045681593E+02  0.00000000000E+00 0.  1.
         11    1    3    3    0    0 -0.20936736869E+02  0.10617623992E+02  0.67187330736E+01  0.24417662958E+02  0.51100000000E-03 0. -1.
        -11    1    3    3    0    0 -0.15324690110E+02  0.24957154202E+01  0.31943594059E+01  0.15851771343E+02  0.51100000000E-03 0.  1.
        -12    1    3    3    0    0 -0.36648723259E+01  0.26446098449E+01  0.37504022888E+01  0.58728841062E+01  0.00000000000E+00 0.  1.
</event>
<event>
 7    1  0.5664398E-009  0.4614232E+02  0.7816164E-02  0.1320468E+00
        -11   -1    0    0    0    0  0.00000000000E+00  0.00000000000E+00  0.45593999997E+02  0.45594000000E+02  0.51100000000E-03 0. -1.
         11   -1    0    0    0    0 -0.00000000000E+00 -0.00000000000E+00 -0.45593999997E+02  0.45594000000E+02  0.51100000000E-03 0.  1.
    9900012    2    1    2    0    0  0.22897214749E+01 -0.65452656814E+00 -0.44982690822E+02  0.46142315378E+02  0.99999782673E+01 0.  0.
         12    1    1    2    0    0 -0.22897214749E+01  0.65452656814E+00  0.44982690822E+02  0.45045684622E+02  0.00000000000E+00 0. -1.
         11    1    3    3    0    0  0.32807543174E+01 -0.18669304594E+01 -0.38086984935E+02  0.38273583578E+02  0.51100000000E-03 0. -1.
        -11    1    3    3    0    0 -0.14812052684E+01  0.36594966595E+00 -0.66995893016E+01  0.68711269292E+01  0.51100000000E-03 0.  1.
         12    1    3    3    0    0  0.49017242585E+00  0.84645422531E+00 -0.19611658609E+00  0.99760487065E+00  0.00000000000E+00 0. -1.
</event>
<event>
 7    1  0.5664398E-009  0.4614232E+02  0.7816164E-02  0.1320468E+00
        -11   -1    0    0    0    0  0.00000000000E+00  0.00000000000E+00  0.45593999997E+02  0.45594000000E+02  0.51100000000E-03 0. -1.
         11   -1    0    0    0    0 -0.00000000000E+00 -0.00000000000E+00 -0.45593999997E+02  0.45594000000E+02  0.51100000000E-03 0.  1.
    9900012    2    1    2    0    0  0.42642727187E+02  0.10065018631E+02  0.10459766980E+02  0.46142317551E+02  0.99999980846E+01 0.  0.
        -12    1    1    2    0    0 -0.42642727187E+02 -0.10065018631E+02 -0.10459766980E+02  0.45045682449E+02  0.00000000000E+00 0.  1.
         11    1    3    3    0    0  0.21599641337E+02  0.61411184713E+01  0.94081810660E+01  0.24346903565E+02  0.51100000000E-03 0. -1.
        -11    1    3    3    0    0  0.99630320277E+01  0.31232740467E+01 -0.10347279693E+01  0.10492259537E+02  0.51100000000E-03 0.  1.
        -12    1    3    3    0    0  0.11080053823E+02  0.80062611271E+00  0.20863138831E+01  0.11303154450E+02  0.00000000000E+00 0.  1.
</event>
<event>
 7    1  0.5664398E-009  0.4614232E+02  0.7816164E-02  0.1320468E+00
        -11   -1    0    0    0    0  0.00000000000E+00  0.00000000000E+00  0.45593999997E+02  0.45594000000E+02  0.51100000000E-03 0. -1.
         11   -1    0    0    0    0 -0.00000000000E+00 -0.00000000000E+00 -0.45593999997E+02  0.45594000000E+02  0.51100000000E-03 0.  1.
    9900012    2    1    2    0    0 -0.18757975256E+02 -0.98665928182E+01  0.39747983518E+02  0.46142317818E+02  0.10000000516E+02 0.  0.
        -12    1    1    2    0    0  0.18757975256E+02  0.98665928182E+01 -0.39747983518E+02  0.45045682182E+02  0.00000000000E+00 0.  1.
         11    1    3    3    0    0 -0.53332533809E+01 -0.12059489492E+01  0.80589696567E+01  0.97388344621E+01  0.51100000000E-03 0. -1.
        -11    1    3    3    0    0 -0.49848383689E+01  0.87501689006E+00  0.71907808101E+01  0.87932699857E+01  0.51100000000E-03 0.  1.
         12    1    3    3    0    0 -0.84398835060E+01 -0.95356607591E+01  0.24498233051E+02  0.27610213370E+02  0.00000000000E+00 0. -1.
</event>
<event>
 7    1  0.5664398E-009  0.4614232E+02  0.7816164E-02  0.1320468E+00
        -11   -1    0    0    0    0  0.00000000000E+00  0.00000000000E+00  0.45593999997E+02  0.45594000000E+02  0.51100000000E-03 0. -1.
         11   -1    0    0    0    0 -0.00000000000E+00 -0.00000000000E+00 -0.45593999997E+02  0.45594000000E+02  0.51100000000E-03 0.  1.
    9900012    2    1    2    0    0  0.22669508527E+02 -0.13333879277E+02 -0.36570678665E+02  0.46142317727E+02  0.99999996858E+01 0.  0.
         12    1    1    2    0    0 -0.22669508527E+02  0.13333879277E+02  0.36570678665E+02  0.45045682273E+02  0.00000000000E+00 0. -1.
         11    1    3    3    0    0  0.15893589668E+02 -0.70428622720E+01 -0.28548944913E+02  0.33425295174E+02  0.51100000000E-03 0. -1.
        -11    1    3    3    0    0  0.35987204657E+00 -0.19574545683E+01 -0.25569997485E+01  0.32402753358E+01  0.51100000000E-03 0.  1.
        -12    1    3    3    0    0  0.64160468120E+01 -0.43335624372E+01 -0.54647340037E+01  0.94767472173E+01  0.00000000000E+00 0.  1.
</event>
<event>
 7    1  0.5664398E-009  0.4614232E+02  0.7816164E-02  0.1320468E+00
        -11   -1    0    0    0    0  0.00000000000E+00  0.00000000000E+00  0.45593999997E+02  0.45594000000E+02  0.51100000000E-03 0. -1.
         11   -1    0    0    0    0 -0.00000000000E+00 -0.00000000000E+00 -0.45593999997E+02  0.45594000000E+02  0.51100000000E-03 0.  1.
    9900012    2    1    2    0    0  0.22365163130E+01 -0.14852915578E+02 -0.42467664916E+02  0.46142315747E+02  0.99999816346E+01 0.  0.
         12    1    1    2    0    0 -0.22365163130E+01  0.14852915578E+02  0.42467664916E+02  0.45045684253E+02  0.00000000000E+00 0. -1.
         11    1    3    3    0    0  0.10421494633E+00  0.76854742459E+00 -0.80892150469E+01  0.81263107395E+01  0.51100000000E-03 0. -1.
        -11    1    3    3    0    0  0.65680363545E+00 -0.31951592834E+00 -0.28106495816E+01  0.29040028884E+01  0.51100000000E-03 0.  1.
        -12    1    3    3    0    0  0.14754977313E+01 -0.15301947075E+02 -0.31567800288E+02  0.35112002119E+02  0.00000000000E+00 0.  1.
</event>
<event>
 7    1  0.5664398E-009  0.4614232E+02  0.7816164E-02  0.1320468E+00
        -11   -1    0    0    0    0  0.00000000000E+00  0.00000000000E+00  0.45593999997E+02  0.45594000000E+02  0.51100000000E-03 0. -1.
         11   -1    0    0    0    0 -0.00000000000E+00 -0.00000000000E+00 -0.45593999997E+02  0.45594000000E+02  0.51100000000E-03 0.  1.
    9900012    2    1    2    0    0 -0.28784253668E+02  0.32203748141E+01 -0.34499412897E+02  0.46142316928E+02  0.99999924035E+01 0.  0.
         12    1    1    2    0    0  0.28784253668E+02 -0.32203748141E+01  0.34499412897E+02  0.45045683072E+02  0.00000000000E+00 0. -1.
         11    1    3    3    0    0 -0.28705634245E+01  0.35505008834E+01 -0.67100696768E+01  0.81161090571E+01  0.51100000000E-03 0. -1.
        -11    1    3    3    0    0 -0.95768850676E+01 -0.81152147836E+00 -0.10093882325E+02  0.13937781579E+02  0.51100000000E-03 0.  1.
        -12    1    3    3    0    0 -0.16336805176E+02  0.48139540907E+00 -0.17695460895E+02  0.24088426292E+02  0.00000000000E+00 0.  1.
</event>
<event>
 7    1  0.5664398E-009  0.4614232E+02  0.7816164E-02  0.1320468E+00
        -11   -1    0    0    0    0  0.00000000000E+00  0.00000000000E+00  0.45593999997E+02  0.45594000000E+02  0.51100000000E-03 0. -1.
         11   -1    0    0    0    0 -0.00000000000E+00 -0.00000000000E+00 -0.45593999997E+02  0.45594000000E+02  0.51100000000E-03 0.  1.
    9900012    2    1    2    0    0 -0.21461286270E+02  0.58327547739E+01  0.39172766544E+02  0.46142317906E+02  0.10000001322E+02 0.  0.
        -12    1    1    2    0    0  0.21461286270E+02 -0.58327547739E+01 -0.39172766544E+02  0.45045682094E+02  0.00000000000E+00 0.  1.
         11    1    3    3    0    0 -0.18883921302E+02  0.43051505701E+01  0.34394732927E+02  0.39473211910E+02  0.51100000000E-03 0. -1.
        -11    1    3    3    0    0 -0.35670347265E+00  0.13181814697E+01  0.41246942323E+01  0.43448754326E+01  0.51100000000E-03 0.  1.
         12    1    3    3    0    0 -0.22206614955E+01  0.20942273421E+00  0.65333938495E+00  0.23242305632E+01  0.00000000000E+00 0. -1.
</event>
<event>
 7    1  0.5664398E-009  0.4614232E+02  0.7816164E-02  0.1320468E+00
        -11   -1    0    0    0    0  0.00000000000E+00  0.00000000000E+00  0.45593999997E+02  0.45594000000E+02  0.51100000000E-03 0. -1.
         11   -1    0    0    0    0 -0.00000000000E+00 -0.00000000000E+00 -0.45593999997E+02  0.45594000000E+02  0.51100000000E-03 0.  1.
    9900012    2    1    2    0    0  0.13788936110E+02  0.77914167369E+01 -0.42169565111E+02  0.46142321456E+02  0.10000033693E+02 0.  0.
         12    1    1    2    0    0 -0.13788936110E+02 -0.77914167369E+01  0.42169565111E+02  0.45045678544E+02  0.00000000000E+00 0. -1.
         11    1    3    3    0    0  0.49469866981E+00 -0.15895519710E-02 -0.10238674485E+01  0.11371165788E+01  0.51100000000E-03 0. -1.
        -11    1    3    3    0    0  0.98187668556E+01  0.23704215392E+01 -0.33595175909E+02  0.35080805656E+02  0.51100000000E-03 0.  1.
         12    1    3    3    0    0  0.34754705843E+01  0.54225847497E+01 -0.75505217536E+01  0.99243992212E+01  0.00000000000E+00 0. -1.
</event>
<event>
 7    1  0.5664398E-009  0.4614232E+02  0.7816164E-02  0.1320468E+00
        -11   -1    0    0    0    0  0.00000000000E+00  0.00000000000E+00  0.45593999997E+02  0.45594000000E+02  0.51100000000E-03 0. -1.
         11   -1    0    0    0    0 -0.00000000000E+00 -0.00000000000E+00 -0.45593999997E+02  0.45594000000E+02  0.51100000000E-03 0.  1.
    9900012    2    1    2    0    0  0.39033001161E+02  0.40055763945E+01  0.22124505925E+02  0.46142316696E+02  0.99999902856E+01 0.  0.
        -12    1    1    2    0    0 -0.39033001161E+02 -0.40055763945E+01 -0.22124505925E+02  0.45045683304E+02  0.00000000000E+00 0.  1.
         11    1    3    3    0    0  0.27128301802E+01 -0.12256611586E+01  0.16718000302E+01  0.34141775678E+01  0.51100000000E-03 0.  1.
        -11    1    3    3    0    0  0.36593835688E+02  0.55753669434E+01  0.20447937963E+02  0.42288434520E+02  0.51100000000E-03 0. -1.
         12    1    3    3    0    0 -0.27366470708E+00 -0.34412939031E+00  0.47679314368E-02  0.43970460806E+00  0.00000000000E+00 0. -1.
</event>
<event>
 7    1  0.5664398E-009  0.4614232E+02  0.7816164E-02  0.1320468E+00
        -11   -1    0    0    0    0  0.00000000000E+00  0.00000000000E+00  0.45593999997E+02  0.45594000000E+02  0.51100000000E-03 0. -1.
         11   -1    0    0    0    0 -0.00000000000E+00 -0.00000000000E+00 -0.45593999997E+02  0.45594000000E+02  0.51100000000E-03 0.  1.
    9900012    2    1    2    0    0 -0.36432864598E+02 -0.26143614113E+02  0.42744900209E+01  0.46142318224E+02  0.10000004225E+02 0.  0.
        -12    1    1    2    0    0  0.36432864598E+02  0.26143614113E+02 -0.42744900209E+01  0.45045681776E+02  0.00000000000E+00 0.  1.
         11    1    3    3    0    0 -0.28253816401E+02 -0.18520986274E+02  0.28828837086E+01  0.33905989036E+02  0.51100000000E-03 0. -1.
        -11    1    3    3    0    0 -0.79317784533E+01 -0.81531139985E+01  0.18085871587E+01  0.11517697907E+02  0.51100000000E-03 0.  1.
        -12    1    3    3    0    0 -0.24726974327E+00  0.53048615978E+00 -0.41698084647E+00  0.71863128096E+00  0.00000000000E+00 0.  1.
</event>
<event>
 7    1  0.5664398E-009  0.4614232E+02  0.7816164E-02  0.1320468E+00
        -11   -1    0    0    0    0  0.00000000000E+00  0.00000000000E+00  0.45593999997E+02  0.45594000000E+02  0.51100000000E-03 0. -1.
         11   -1    0    0    0    0 -0.00000000000E+00 -0.00000000000E+00 -0.45593999997E+02  0.45594000000E+02  0.51100000000E-03 0.  1.
    9900012    2    1    2    0    0  0.24243341300E+02  0.30542159709E+02  0.22551061885E+02  0.46142317530E+02  0.99999978917E+01 0.  0.
        -12    1    1    2    0    0 -0.24243341300E+02 -0.30542159709E+02 -0.22551061885E+02  0.45045682470E+02  0.00000000000E+00 0.  1.
         11    1    3    3    0    0  0.14281640697E+02  0.23609554139E+02  0.18898534907E+02  0.33444445421E+02  0.51100000000E-03 0. -1.
        -11    1    3    3    0    0  0.33790882299E+01  0.19157409306E+01  0.12139613512E+01  0.40696440879E+01  0.51100000000E-03 0.  1.
         12    1    3    3    0    0  0.65826123734E+01  0.50168646394E+01  0.24385656264E+01  0.86282280210E+01  0.00000000000E+00 0. -1.
</event>
<event>
 7    1  0.5664398E-009  0.4614232E+02  0.7816164E-02  0.1320468E+00
        -11   -1    0    0    0    0  0.00000000000E+00  0.00000000000E+00  0.45593999997E+02  0.45594000000E+02  0.51100000000E-03 0. -1.
         11   -1    0    0    0    0 -0.00000000000E+00 -0.00000000000E+00 -0.45593999997E+02  0.45594000000E+02  0.51100000000E-03 0.  1.
    9900012    2    1    2    0    0  0.22749694700E+02  0.25322551978E+02 -0.29501411715E+02  0.46142317179E+02  0.99999946944E+01 0.  0.
         12    1    1    2    0    0 -0.22749694700E+02 -0.25322551978E+02  0.29501411715E+02  0.45045682821E+02  0.00000000000E+00 0. -1.
         11    1    3    3    0    0  0.63082068235E+01  0.29920306499E+01 -0.71097390059E+01  0.99646429806E+01  0.51100000000E-03 0. -1.
        -11    1    3    3    0    0  0.14991159137E+02  0.21940578708E+02 -0.19641305485E+02  0.33043981718E+02  0.51100000000E-03 0.  1.
         12    1    3    3    0    0  0.14503287393E+01  0.38994261937E+00 -0.27503672241E+01  0.31336924810E+01  0.00000000000E+00 0. -1.
</event>
<event>
 7    1  0.5664398E-009  0.4614231E+02  0.7816164E-02  0.1320468E+00
        -11   -1    0    0    0    0  0.00000000000E+00  0.00000000000E+00  0.45593999997E+02  0.45594000000E+02  0.51100000000E-03 0. -1.
         11   -1    0    0    0    0 -0.00000000000E+00 -0.00000000000E+00 -0.45593999997E+02  0.45594000000E+02  0.51100000000E-03 0.  1.
    9900012    2    1    2    0    0  0.33665935639E+01 -0.26721486213E+02  0.36107370224E+02  0.46142312502E+02  0.99999520432E+01 0.  0.
        -12    1    1    2    0    0 -0.33665935639E+01  0.26721486213E+02 -0.36107370224E+02  0.45045687498E+02  0.00000000000E+00 0.  1.
         11    1    3    3    0    0  0.12501863516E+01 -0.16516804977E+02  0.26550943545E+02  0.31294095544E+02  0.51100000000E-03 0. -1.
        -11    1    3    3    0    0  0.47640922361E+00 -0.83876085540E+01  0.52851881210E+01  0.99253290494E+01  0.51100000000E-03 0.  1.
        -12    1    3    3    0    0  0.16399979886E+01 -0.18170726825E+01  0.42712385583E+01  0.49228879084E+01  0.00000000000E+00 0.  1.
</event>
<event>
 7    1  0.5664398E-009  0.4614232E+02  0.7816164E-02  0.1320468E+00
        -11   -1    0    0    0    0  0.00000000000E+00  0.00000000000E+00  0.45593999997E+02  0.45594000000E+02  0.51100000000E-03 0. -1.
         11   -1    0    0    0    0 -0.00000000000E+00 -0.00000000000E+00 -0.45593999997E+02  0.45594000000E+02  0.51100000000E-03 0.  1.
    9900012    2    1    2    0    0 -0.69642073032E+01  0.24675851176E+02 -0.37036679839E+02  0.46142317985E+02  0.10000002046E+02 0.  0.
         12    1    1    2    0    0  0.69642073032E+01 -0.24675851176E+02  0.37036679839E+02  0.45045682015E+02  0.00000000000E+00 0. -1.
         11    1    3    3    0    0 -0.98938676195E+00  0.34535303936E+01 -0.12558654784E+02  0.13062372242E+02  0.51100000000E-03 0. -1.
        -11    1    3    3    0    0 -0.14200569872E+01  0.25838279451E+01 -0.22016628989E+01  0.36796804859E+01  0.51100000000E-03 0.  1.
        -12    1    3    3    0    0 -0.45547635540E+01  0.18638492838E+02 -0.22276362156E+02  0.29400265257E+02  0.00000000000E+00 0.  1.
</event>
<event>
 7    1  0.5664398E-009  0.4614232E+02  0.7816164E-02  0.1320468E+00
        -11   -1    0    0    0    0  0.00000000000E+00  0.00000000000E+00  0.45593999997E+02  0.45594000000E+02  0.51100000000E-03 0. -1.
         11   -1    0    0    0    0 -0.00000000000E+00 -0.00000000000E+00 -0.45593999997E+02  0.45594000000E+02  0.51100000000E-03 0.  1.
    9900012    2    1    2    0    0  0.41811478150E+01 -0.30288410148E+02 -0.33079351354E+02  0.46142320159E+02  0.10000021867E+02 0.  0.
         12    1    1    2    0    0 -0.41811478150E+01  0.30288410148E+02  0.33079351354E+02  0.45045679841E+02  0.00000000000E+00 0. -1.
         11    1    3    3    0    0 -0.63509286833E+00 -0.12305762268E+02 -0.18382448241E+02  0.22130285393E+02  0.51100000000E-03 0. -1.
        -11    1    3    3    0    0  0.26091076646E+00 -0.29295680291E+01 -0.41078998091E+01  0.50522553744E+01  0.51100000000E-03 0.  1.
         12    1    3    3    0    0  0.45553299169E+01 -0.15053079851E+02 -0.10589003303E+02  0.18959779392E+02  0.00000000000E+00 0. -1.
</event>
<event>
 7    1  0.5678014E-009  0.4614232E+02  0.7816164E-02  0.1320468E+00
        -11   -1    0    0    0    0  0.00000000000E+00  0.00000000000E+00  0.45593999997E+02  0.45594000000E+02  0.51100000000E-03 0. -1.
         11   -1    0    0    0    0 -0.00000000000E+00 -0.00000000000E+00 -0.45593999997E+02  0.45594000000E+02  0.51100000000E-03 0.  1.
    9900012    2    1    2    0    0  0.36703501816E+01  0.28638904700E+02  0.34575354736E+02  0.46142317765E+02  0.10000000038E+02 0.  0.
        -12    1    1    2    0    0 -0.36703501816E+01 -0.28638904700E+02 -0.34575354736E+02  0.45045682235E+02  0.00000000000E+00 0.  1.
         11    1    3    3    0    0  0.23653353529E+01  0.18874644766E+02  0.25357194693E+02  0.31699122217E+02  0.51100000000E-03 0. -1.
        -11    1    3    3    0    0 -0.42142816982E+00  0.12442578191E+01  0.42109033833E+01  0.44110641332E+01  0.51100000000E-03 0.  1.
         12    1    3    3    0    0  0.17264429985E+01  0.85200021153E+01  0.50072566592E+01  0.10032131415E+02  0.00000000000E+00 0. -1.
</event>
<event>
 7    1  0.5664398E-009  0.4614232E+02  0.7816164E-02  0.1320468E+00
        -11   -1    0    0    0    0  0.00000000000E+00  0.00000000000E+00  0.45593999997E+02  0.45594000000E+02  0.51100000000E-03 0. -1.
         11   -1    0    0    0    0 -0.00000000000E+00 -0.00000000000E+00 -0.45593999997E+02  0.45594000000E+02  0.51100000000E-03 0.  1.
    9900012    2    1    2    0    0  0.34980565060E+00 -0.11601425581E+02 -0.43524683884E+02  0.46142317114E+02  0.99999940952E+01 0.  0.
         12    1    1    2    0    0 -0.34980565060E+00  0.11601425581E+02  0.43524683884E+02  0.45045682886E+02  0.00000000000E+00 0. -1.
         11    1    3    3    0    0  0.26757777070E+01 -0.40905344359E+01 -0.57842996356E+01  0.75730034230E+01  0.51100000000E-03 0. -1.
        -11    1    3    3    0    0 -0.27349229055E+00 -0.19369854544E+00 -0.22109943969E+01  0.22362499064E+01  0.51100000000E-03 0.  1.
         12    1    3    3    0    0 -0.20524797658E+01 -0.73171925993E+01 -0.35529389852E+02  0.36333063784E+02  0.00000000000E+00 0. -1.
</event>
<event>
 7    1  0.5664398E-009  0.4614232E+02  0.7816164E-02  0.1320468E+00
        -11   -1    0    0    0    0  0.00000000000E+00  0.00000000000E+00  0.45593999997E+02  0.45594000000E+02  0.51100000000E-03 0. -1.
         11   -1    0    0    0    0 -0.00000000000E+00 -0.00000000000E+00 -0.45593999997E+02  0.45594000000E+02  0.51100000000E-03 0.  1.
    9900012    2    1    2    0    0  0.12668673335E+02  0.65886729111E+01  0.42722449267E+02  0.46142316898E+02  0.99999921273E+01 0.  0.
        -12    1    1    2    0    0 -0.12668673335E+02 -0.65886729111E+01 -0.42722449267E+02  0.45045683102E+02  0.00000000000E+00 0.  1.
         11    1    3    3    0    0  0.37828165497E+01 -0.16429259552E+00  0.13590333871E+02  0.14107936351E+02  0.51100000000E-03 0. -1.
        -11    1    3    3    0    0  0.23829835150E+01  0.36705503159E+01  0.19645628719E+02  0.20127152757E+02  0.51100000000E-03 0.  1.
        -12    1    3    3    0    0  0.65028732700E+01  0.30824151907E+01  0.94864866765E+01  0.11907227790E+02  0.00000000000E+00 0.  1.
</event>
<event>
 7    1  0.5664398E-009  0.4614232E+02  0.7816164E-02  0.1320468E+00
        -11   -1    0    0    0    0  0.00000000000E+00  0.00000000000E+00  0.45593999997E+02  0.45594000000E+02  0.51100000000E-03 0.  1.
         11   -1    0    0    0    0 -0.00000000000E+00 -0.00000000000E+00 -0.45593999997E+02  0.45594000000E+02  0.51100000000E-03 0. -1.
    9900012    2    1    2    0    0  0.38400492077E+02  0.23136674385E+02  0.43829184952E+01  0.46142317988E+02  0.10000002071E+02 0.  0.
        -12    1    1    2    0    0 -0.38400492077E+02 -0.23136674385E+02 -0.43829184952E+01  0.45045682012E+02  0.00000000000E+00 0.  1.
         11    1    3    3    0    0  0.19753538088E+02  0.13834070287E+02  0.11171279840E+01  0.24141908436E+02  0.51100000000E-03 0. -1.
        -11    1    3    3    0    0  0.13494560668E+01  0.95577420680E+00 -0.14772097101E+01  0.22173598714E+01  0.51100000000E-03 0.  1.
        -12    1    3    3    0    0  0.17297497922E+02  0.83468298908E+01  0.47430002213E+01  0.19783049681E+02  0.00000000000E+00 0.  1.
</event>
<event>
 7    1  0.5664398E-009  0.4614232E+02  0.7816164E-02  0.1320468E+00
        -11   -1    0    0    0    0  0.00000000000E+00  0.00000000000E+00  0.45593999997E+02  0.45594000000E+02  0.51100000000E-03 0. -1.
         11   -1    0    0    0    0 -0.00000000000E+00 -0.00000000000E+00 -0.45593999997E+02  0.45594000000E+02  0.51100000000E-03 0.  1.
    9900012    2    1    2    0    0 -0.15119436392E+02  0.13503877747E+02 -0.40226377739E+02  0.46142317221E+02  0.99999950770E+01 0.  0.
         12    1    1    2    0    0  0.15119436392E+02 -0.13503877747E+02  0.40226377739E+02  0.45045682779E+02  0.00000000000E+00 0. -1.
         11    1    3    3    0    0 -0.13375359292E+01  0.29063640703E+01 -0.12250614017E+01  0.34258911498E+01  0.51100000000E-03 0. -1.
        -11    1    3    3    0    0 -0.56293768053E+01  0.49551624348E+01 -0.16095240018E+02  0.17756696468E+02  0.51100000000E-03 0.  1.
         12    1    3    3    0    0 -0.81525236579E+01  0.56423512422E+01 -0.22906076319E+02  0.24959729603E+02  0.00000000000E+00 0. -1.
</event>
<event>
 7    1  0.5664398E-009  0.4614232E+02  0.7816164E-02  0.1320468E+00
        -11   -1    0    0    0    0  0.00000000000E+00  0.00000000000E+00  0.45593999997E+02  0.45594000000E+02  0.51100000000E-03 0. -1.
         11   -1    0    0    0    0 -0.00000000000E+00 -0.00000000000E+00 -0.45593999997E+02  0.45594000000E+02  0.51100000000E-03 0.  1.
    9900012    2    1    2    0    0  0.37898782871E+02  0.21071719355E+02  0.12197467972E+02  0.46142319579E+02  0.10000016581E+02 0.  0.
         12    1    1    2    0    0 -0.37898782871E+02 -0.21071719355E+02 -0.12197467972E+02  0.45045680421E+02  0.00000000000E+00 0. -1.
         11    1    3    3    0    0  0.32165424162E+01  0.84478793608E+00 -0.36110535663E+00  0.33451769926E+01  0.51100000000E-03 0.  1.
        -11    1    3    3    0    0  0.20009545733E+02  0.74625785617E+01  0.50091292728E+01  0.21935436525E+02  0.51100000000E-03 0. -1.
         12    1    3    3    0    0  0.14672694721E+02  0.12764352857E+02  0.75494440554E+01  0.20861706061E+02  0.00000000000E+00 0. -1.
</event>
<event>
 7    1  0.5664398E-009  0.4614232E+02  0.7816164E-02  0.1320468E+00
        -11   -1    0    0    0    0  0.00000000000E+00  0.00000000000E+00  0.45593999997E+02  0.45594000000E+02  0.51100000000E-03 0. -1.
         11   -1    0    0    0    0 -0.00000000000E+00 -0.00000000000E+00 -0.45593999997E+02  0.45594000000E+02  0.51100000000E-03 0.  1.
    9900012    2    1    2    0    0  0.20796881642E+02 -0.20845031896E+02 -0.34089409630E+02  0.46142317746E+02  0.99999998618E+01 0.  0.
         12    1    1    2    0    0 -0.20796881642E+02  0.20845031896E+02  0.34089409630E+02  0.45045682254E+02  0.00000000000E+00 0. -1.
         11    1    3    3    0    0  0.52851614206E+01 -0.18304973161E+01 -0.41390229309E+01  0.69581005131E+01  0.51100000000E-03 0. -1.
        -11    1    3    3    0    0  0.71564843886E+01 -0.45382800944E+01 -0.86561711735E+01  0.12113651583E+02  0.51100000000E-03 0.  1.
         12    1    3    3    0    0  0.83552358326E+01 -0.14476254486E+02 -0.21294215526E+02  0.27070565650E+02  0.00000000000E+00 0. -1.
</event>
<event>
 7    1  0.5664398E-009  0.4614232E+02  0.7816164E-02  0.1320468E+00
        -11   -1    0    0    0    0  0.00000000000E+00  0.00000000000E+00  0.45593999997E+02  0.45594000000E+02  0.51100000000E-03 0. -1.
         11   -1    0    0    0    0 -0.00000000000E+00 -0.00000000000E+00 -0.45593999997E+02  0.45594000000E+02  0.51100000000E-03 0.  1.
    9900012    2    1    2    0    0  0.33034264223E+02  0.13709971023E+02  0.27384075863E+02  0.46142317309E+02  0.99999958801E+01 0.  0.
        -12    1    1    2    0    0 -0.33034264223E+02 -0.13709971023E+02 -0.27384075863E+02  0.45045682691E+02  0.00000000000E+00 0.  1.
         11    1    3    3    0    0  0.87177372771E+01  0.31280421478E+01  0.48612030288E+01  0.10460157076E+02  0.51100000000E-03 0. -1.
        -11    1    3    3    0    0  0.13614442800E+02  0.91210039255E+01  0.10231290463E+02  0.19319033883E+02  0.51100000000E-03 0.  1.
         12    1    3    3    0    0  0.10702084147E+02  0.14609249493E+01  0.12291582370E+02  0.16363126350E+02  0.00000000000E+00 0. -1.
</event>
<event>
 7    1  0.5664398E-009  0.4614232E+02  0.7816164E-02  0.1320468E+00
        -11   -1    0    0    0    0  0.00000000000E+00  0.00000000000E+00  0.45593999997E+02  0.45594000000E+02  0.51100000000E-03 0. -1.
         11   -1    0    0    0    0 -0.00000000000E+00 -0.00000000000E+00 -0.45593999997E+02  0.45594000000E+02  0.51100000000E-03 0.  1.
    9900012    2    1    2    0    0  0.33220086365E+02 -0.53914919419E+01  0.29941127969E+02  0.46142317992E+02  0.10000002109E+02 0.  0.
        -12    1    1    2    0    0 -0.33220086365E+02  0.53914919419E+01 -0.29941127969E+02  0.45045682008E+02  0.00000000000E+00 0.  1.
         11    1    3    3    0    0  0.94213058187E+01  0.14370700539E+01  0.52687800877E+01  0.10889729911E+02  0.51100000000E-03 0. -1.
        -11    1    3    3    0    0  0.84443907365E+00 -0.79324187253E+00  0.22706159029E+00  0.11806215500E+01  0.51100000000E-03 0.  1.
         12    1    3    3    0    0  0.22954341473E+02 -0.60353201233E+01  0.24445286291E+02  0.34071966531E+02  0.00000000000E+00 0. -1.
</event>
<event>
 7    1  0.5664398E-009  0.4614231E+02  0.7816164E-02  0.1320468E+00
        -11   -1    0    0    0    0  0.00000000000E+00  0.00000000000E+00  0.45593999997E+02  0.45594000000E+02  0.51100000000E-03 0. -1.
         11   -1    0    0    0    0 -0.00000000000E+00 -0.00000000000E+00 -0.45593999997E+02  0.45594000000E+02  0.51100000000E-03 0.  1.
    9900012    2    1    2    0    0  0.66637291935E+01  0.17106973455E+02  0.41134656621E+02  0.46142314270E+02  0.99999681643E+01 0.  0.
        -12    1    1    2    0    0 -0.66637291935E+01 -0.17106973455E+02 -0.41134656621E+02  0.45045685730E+02  0.00000000000E+00 0.  1.
         11    1    3    3    0    0  0.50900052657E+01  0.11684498750E+02  0.25775345841E+02  0.28754201747E+02  0.51100000000E-03 0. -1.
        -11    1    3    3    0    0  0.10350684977E+01  0.46299350699E+01  0.15676549896E+02  0.16378702099E+02  0.51100000000E-03 0.  1.
        -12    1    3    3    0    0  0.53865543009E+00  0.79253963523E+00 -0.31723911613E+00  0.10094104233E+01  0.00000000000E+00 0.  1.
</event>
<event>
 7    1  0.5664398E-009  0.4614232E+02  0.7816164E-02  0.1320468E+00
        -11   -1    0    0    0    0  0.00000000000E+00  0.00000000000E+00  0.45593999997E+02  0.45594000000E+02  0.51100000000E-03 0. -1.
         11   -1    0    0    0    0 -0.00000000000E+00 -0.00000000000E+00 -0.45593999997E+02  0.45594000000E+02  0.51100000000E-03 0.  1.
    9900012    2    1    2    0    0  0.43116750365E+01  0.18873073803E+02  0.40673456517E+02  0.46142317394E+02  0.99999966560E+01 0.  0.
        -12    1    1    2    0    0 -0.43116750365E+01 -0.18873073803E+02 -0.40673456517E+02  0.45045682606E+02  0.00000000000E+00 0.  1.
         11    1    3    3    0    0  0.54581542074E+01  0.97905016653E+01  0.24072741877E+02  0.26554515096E+02  0.51100000000E-03 0. -1.
        -11    1    3    3    0    0 -0.39918356640E+00  0.13268623742E+01  0.74116049422E+01  0.75400132201E+01  0.51100000000E-03 0.  1.
        -12    1    3    3    0    0 -0.74729560447E+00  0.77557097637E+01  0.91891096970E+01  0.12047789079E+02  0.00000000000E+00 0.  1.
</event>
<event>
 7    1  0.5664398E-009  0.4614232E+02  0.7816164E-02  0.1320468E+00
        -11   -1    0    0    0    0  0.00000000000E+00  0.00000000000E+00  0.45593999997E+02  0.45594000000E+02  0.51100000000E-03 0. -1.
         11   -1    0    0    0    0 -0.00000000000E+00 -0.00000000000E+00 -0.45593999997E+02  0.45594000000E+02  0.51100000000E-03 0.  1.
    9900012    2    1    2    0    0  0.36059463732E+02  0.56779656404E+01  0.26392974952E+02  0.46142319350E+02  0.10000014486E+02 0.  0.
        -12    1    1    2    0    0 -0.36059463732E+02 -0.56779656404E+01 -0.26392974952E+02  0.45045680650E+02  0.00000000000E+00 0.  1.
         11    1    3    3    0    0  0.32939550066E+01  0.74498887261E+00  0.89532843076E+00  0.34938175776E+01  0.51100000000E-03 0. -1.
        -11    1    3    3    0    0  0.13114361227E+02 -0.11932585858E+01  0.67095354233E+01  0.14779316706E+02  0.51100000000E-03 0.  1.
        -12    1    3    3    0    0  0.19651147498E+02  0.61262353537E+01  0.18788111098E+02  0.27869185066E+02  0.00000000000E+00 0.  1.
</event>
<event>
 7    1  0.5664398E-009  0.4614232E+02  0.7816164E-02  0.1320468E+00
        -11   -1    0    0    0    0  0.00000000000E+00  0.00000000000E+00  0.45593999997E+02  0.45594000000E+02  0.51100000000E-03 0.  1.
         11   -1    0    0    0    0 -0.00000000000E+00 -0.00000000000E+00 -0.45593999997E+02  0.45594000000E+02  0.51100000000E-03 0. -1.
    9900012    2    1    2    0    0 -0.32646754581E+02 -0.84559725000E+01  0.29863010841E+02  0.46142317942E+02  0.10000001648E+02 0.  0.
        -12    1    1    2    0    0  0.32646754581E+02  0.84559725000E+01 -0.29863010841E+02  0.45045682058E+02  0.00000000000E+00 0.  1.
         11    1    3    3    0    0 -0.76801266542E+00 -0.70324787382E+00 -0.63942389237E+00  0.12219918991E+01  0.51100000000E-03 0.  1.
        -11    1    3    3    0    0 -0.71147633558E+01 -0.30522067320E+01  0.79709008247E+01  0.11111754306E+02  0.51100000000E-03 0. -1.
        -12    1    3    3    0    0 -0.24763978560E+02 -0.47005178941E+01  0.22531533908E+02  0.33808571736E+02  0.00000000000E+00 0.  1.
</event>
<event>
 7    1  0.5664398E-009  0.4614232E+02  0.7816164E-02  0.1320468E+00
        -11   -1    0    0    0    0  0.00000000000E+00  0.00000000000E+00  0.45593999997E+02  0.45594000000E+02  0.51100000000E-03 0. -1.
         11   -1    0    0    0    0 -0.00000000000E+00 -0.00000000000E+00 -0.45593999997E+02  0.45594000000E+02  0.51100000000E-03 0.  1.
    9900012    2    1    2    0    0 -0.27121141704E+01  0.29817836957E+01  0.44864985775E+02  0.46142317123E+02  0.99999941816E+01 0.  0.
        -12    1    1    2    0    0  0.27121141704E+01 -0.29817836957E+01 -0.44864985775E+02  0.45045682877E+02  0.00000000000E+00 0.  1.
         11    1    3    3    0    0  0.82336317621E+00  0.28845550051E+00  0.89913652533E+00  0.12528288981E+01  0.51100000000E-03 0. -1.
        -11    1    3    3    0    0 -0.31034824909E+01 -0.22527977579E+01  0.14028666239E+02  0.14543389495E+02  0.51100000000E-03 0.  1.
        -12    1    3    3    0    0 -0.43199485575E+00  0.49461259531E+01  0.29937183011E+02  0.30346098730E+02  0.00000000000E+00 0.  1.
</event>
<event>
 7    1  0.5664398E-009  0.4614232E+02  0.7816164E-02  0.1320468E+00
        -11   -1    0    0    0    0  0.00000000000E+00  0.00000000000E+00  0.45593999997E+02  0.45594000000E+02  0.51100000000E-03 0. -1.
         11   -1    0    0    0    0 -0.00000000000E+00 -0.00000000000E+00 -0.45593999997E+02  0.45594000000E+02  0.51100000000E-03 0.  1.
    9900012    2    1    2    0    0 -0.34054802166E+01 -0.26333593971E+01  0.44839508726E+02  0.46142318520E+02  0.10000006923E+02 0.  0.
        -12    1    1    2    0    0  0.34054802166E+01  0.26333593971E+01 -0.44839508726E+02  0.45045681480E+02  0.00000000000E+00 0.  1.
         11    1    3    3    0    0  0.11891047260E+01 -0.32511462858E+01  0.11462727411E+02  0.11974057048E+02  0.51100000000E-03 0.  1.
        -11    1    3    3    0    0 -0.23781122467E+00 -0.11542743766E+01  0.13252335020E+01  0.17734564024E+01  0.51100000000E-03 0. -1.
         12    1    3    3    0    0 -0.43567737180E+01  0.17720612653E+01  0.32051547812E+02  0.32394805070E+02  0.00000000000E+00 0. -1.
</event>
<event>
 7    1  0.5664398E-009  0.4614232E+02  0.7816164E-02  0.1320468E+00
        -11   -1    0    0    0    0  0.00000000000E+00  0.00000000000E+00  0.45593999997E+02  0.45594000000E+02  0.51100000000E-03 0.  1.
         11   -1    0    0    0    0 -0.00000000000E+00 -0.00000000000E+00 -0.45593999997E+02  0.45594000000E+02  0.51100000000E-03 0. -1.
    9900012    2    1    2    0    0  0.16423089017E+02  0.41533655460E+02  0.58609871933E+01  0.46142316970E+02  0.99999927859E+01 0.  0.
         12    1    1    2    0    0 -0.16423089017E+02 -0.41533655460E+02 -0.58609871933E+01  0.45045683030E+02  0.00000000000E+00 0. -1.
         11    1    3    3    0    0  0.85035490463E+01  0.29984266291E+02  0.43242182696E+01  0.31465305263E+02  0.51100000000E-03 0. -1.
        -11    1    3    3    0    0  0.40954803409E+01  0.92922649542E+01  0.11511518562E+01  0.10219799316E+02  0.51100000000E-03 0.  1.
         12    1    3    3    0    0  0.38240596297E+01  0.22571242150E+01  0.38561706758E+00  0.44572123908E+01  0.00000000000E+00 0. -1.
</event>
<event>
 7    1  0.5664398E-009  0.4614232E+02  0.7816164E-02  0.1320468E+00
        -11   -1    0    0    0    0  0.00000000000E+00  0.00000000000E+00  0.45593999997E+02  0.45594000000E+02  0.51100000000E-03 0. -1.
         11   -1    0    0    0    0 -0.00000000000E+00 -0.00000000000E+00 -0.45593999997E+02  0.45594000000E+02  0.51100000000E-03 0.  1.
    9900012    2    1    2    0    0  0.24055274344E+02 -0.27066470833E+01  0.37988568448E+02  0.46142317688E+02  0.99999993362E+01 0.  0.
        -12    1    1    2    0    0 -0.24055274344E+02  0.27066470833E+01 -0.37988568448E+02  0.45045682312E+02  0.00000000000E+00 0.  1.
         11    1    3    3    0    0  0.16214069998E+02 -0.52870066237E+00  0.27159876796E+02  0.31635968424E+02  0.51100000000E-03 0. -1.
        -11    1    3    3    0    0  0.68721912009E+01  0.19627426624E+00  0.64220729022E+01  0.94078986024E+01  0.51100000000E-03 0.  1.
        -12    1    3    3    0    0  0.96901314515E+00 -0.23742206872E+01  0.44066187496E+01  0.50984506619E+01  0.00000000000E+00 0.  1.
</event>
<event>
 7    1  0.5664398E-009  0.4614232E+02  0.7816164E-02  0.1320468E+00
        -11   -1    0    0    0    0  0.00000000000E+00  0.00000000000E+00  0.45593999997E+02  0.45594000000E+02  0.51100000000E-03 0. -1.
         11   -1    0    0    0    0 -0.00000000000E+00 -0.00000000000E+00 -0.45593999997E+02  0.45594000000E+02  0.51100000000E-03 0.  1.
    9900012    2    1    2    0    0 -0.36697128179E+02 -0.19819750631E+02 -0.17017983292E+02  0.46142317776E+02  0.10000000137E+02 0.  0.
         12    1    1    2    0    0  0.36697128179E+02  0.19819750631E+02  0.17017983292E+02  0.45045682224E+02  0.00000000000E+00 0. -1.
         11    1    3    3    0    0 -0.26825278261E+01  0.31794934661E+00 -0.33751174669E+00  0.27223081686E+01  0.51100000000E-03 0. -1.
        -11    1    3    3    0    0 -0.54562982023E+01 -0.95114162037E+00 -0.36347417089E+01  0.66247421087E+01  0.51100000000E-03 0.  1.
        -12    1    3    3    0    0 -0.28558302151E+02 -0.19186558357E+02 -0.13045729837E+02  0.36795267499E+02  0.00000000000E+00 0.  1.
</event>
<event>
 7    1  0.5664398E-009  0.4614232E+02  0.7816164E-02  0.1320468E+00
        -11   -1    0    0    0    0  0.00000000000E+00  0.00000000000E+00  0.45593999997E+02  0.45594000000E+02  0.51100000000E-03 0. -1.
         11   -1    0    0    0    0 -0.00000000000E+00 -0.00000000000E+00 -0.45593999997E+02  0.45594000000E+02  0.51100000000E-03 0.  1.
    9900012    2    1    2    0    0 -0.36219610381E+02  0.66101805675E+01 -0.25953011478E+02  0.46142317986E+02  0.10000002055E+02 0.  0.
         12    1    1    2    0    0  0.36219610381E+02 -0.66101805675E+01  0.25953011478E+02  0.45045682014E+02  0.00000000000E+00 0. -1.
         11    1    3    3    0    0 -0.11841872850E+02 -0.83605539593E-02 -0.12120080810E+02  0.16944803970E+02  0.51100000000E-03 0. -1.
        -11    1    3    3    0    0 -0.45930598182E+01  0.18762967265E+01 -0.49146884049E+01  0.69836129816E+01  0.51100000000E-03 0.  1.
        -12    1    3    3    0    0 -0.19784677713E+02  0.47422443950E+01 -0.89182422637E+01  0.22213901035E+02  0.00000000000E+00 0.  1.
</event>
<event>
 7    1  0.5664398E-009  0.4614232E+02  0.7816164E-02  0.1320468E+00
        -11   -1    0    0    0    0  0.00000000000E+00  0.00000000000E+00  0.45593999997E+02  0.45594000000E+02  0.51100000000E-03 0. -1.
         11   -1    0    0    0    0 -0.00000000000E+00 -0.00000000000E+00 -0.45593999997E+02  0.45594000000E+02  0.51100000000E-03 0.  1.
    9900012    2    1    2    0    0 -0.83398673329E+01 -0.19874049540E+01 -0.44222284539E+02  0.46142316350E+02  0.99999871359E+01 0.  0.
         12    1    1    2    0    0  0.83398673329E+01  0.19874049540E+01  0.44222284539E+02  0.45045683650E+02  0.00000000000E+00 0. -1.
         11    1    3    3    0    0 -0.39712742374E+01  0.13668012578E+01 -0.13055678037E+02  0.13714586906E+02  0.51100000000E-03 0.  1.
        -11    1    3    3    0    0 -0.50704170013E+01 -0.40981968177E+01 -0.16737389743E+02  0.17962309467E+02  0.51100000000E-03 0. -1.
         12    1    3    3    0    0  0.70182390575E+00  0.74399060594E+00 -0.14429216760E+02  0.14465419977E+02  0.00000000000E+00 0. -1.
</event>
<event>
 7    1  0.5664398E-009  0.4614232E+02  0.7816164E-02  0.1320468E+00
        -11   -1    0    0    0    0  0.00000000000E+00  0.00000000000E+00  0.45593999997E+02  0.45594000000E+02  0.51100000000E-03 0. -1.
         11   -1    0    0    0    0 -0.00000000000E+00 -0.00000000000E+00 -0.45593999997E+02  0.45594000000E+02  0.51100000000E-03 0.  1.
    9900012    2    1    2    0    0 -0.31923552327E+02 -0.12932539375E+02  0.29030151697E+02  0.46142317905E+02  0.10000001310E+02 0.  0.
        -12    1    1    2    0    0  0.31923552327E+02  0.12932539375E+02 -0.29030151697E+02  0.45045682095E+02  0.00000000000E+00 0.  1.
         11    1    3    3    0    0 -0.13820961608E+02 -0.54159573134E+01  0.10325250950E+02  0.18082101118E+02  0.51100000000E-03 0. -1.
        -11    1    3    3    0    0 -0.41402114831E+01 -0.37780797848E+01  0.19553693554E+01  0.59362199726E+01  0.51100000000E-03 0.  1.
        -12    1    3    3    0    0 -0.13962379236E+02 -0.37385022772E+01  0.16749531392E+02  0.22123996815E+02  0.00000000000E+00 0.  1.
</event>
<event>
 7    1  0.5664398E-009  0.4614232E+02  0.7816164E-02  0.1320468E+00
        -11   -1    0    0    0    0  0.00000000000E+00  0.00000000000E+00  0.45593999997E+02  0.45594000000E+02  0.51100000000E-03 0. -1.
         11   -1    0    0    0    0 -0.00000000000E+00 -0.00000000000E+00 -0.45593999997E+02  0.45594000000E+02  0.51100000000E-03 0.  1.
    9900012    2    1    2    0    0  0.25098830423E+02  0.14656575115E+02 -0.34414346019E+02  0.46142315472E+02  0.99999791234E+01 0.  0.
         12    1    1    2    0    0 -0.25098830423E+02 -0.14656575115E+02  0.34414346019E+02  0.45045684528E+02  0.00000000000E+00 0. -1.
         11    1    3    3    0    0 -0.58507617570E+00  0.94793308383E+00 -0.12651313029E+01  0.16856597336E+01  0.51100000000E-03 0. -1.
        -11    1    3    3    0    0  0.13450847687E+02  0.57491431872E+01 -0.12950357629E+02  0.19536880864E+02  0.51100000000E-03 0.  1.
        -12    1    3    3    0    0  0.12233058912E+02  0.79594988439E+01 -0.20198857087E+02  0.24919774875E+02  0.00000000000E+00 0.  1.
</event>
<event>
 7    1  0.5664398E-009  0.4614232E+02  0.7816164E-02  0.1320468E+00
        -11   -1    0    0    0    0  0.00000000000E+00  0.00000000000E+00  0.45593999997E+02  0.45594000000E+02  0.51100000000E-03 0. -1.
         11   -1    0    0    0    0 -0.00000000000E+00 -0.00000000000E+00 -0.45593999997E+02  0.45594000000E+02  0.51100000000E-03 0.  1.
    9900012    2    1    2    0    0 -0.22768279279E+02 -0.29121701253E+02  0.25741899814E+02  0.46142318396E+02  0.10000005786E+02 0.  0.
        -12    1    1    2    0    0  0.22768279279E+02  0.29121701253E+02 -0.25741899814E+02  0.45045681604E+02  0.00000000000E+00 0.  1.
         11    1    3    3    0    0 -0.26989558135E+01 -0.79623360419E+01  0.38966514443E+01  0.92664475646E+01  0.51100000000E-03 0. -1.
        -11    1    3    3    0    0 -0.19828370777E+01 -0.12213166434E+01  0.38371975247E+01  0.44885790986E+01  0.51100000000E-03 0.  1.
         12    1    3    3    0    0 -0.18086486388E+02 -0.19938048567E+02  0.18008050845E+02  0.32387291732E+02  0.00000000000E+00 0. -1.
</event>
<event>
 7    1  0.5664398E-009  0.4614232E+02  0.7816164E-02  0.1320468E+00
        -11   -1    0    0    0    0  0.00000000000E+00  0.00000000000E+00  0.45593999997E+02  0.45594000000E+02  0.51100000000E-03 0. -1.
         11   -1    0    0    0    0 -0.00000000000E+00 -0.00000000000E+00 -0.45593999997E+02  0.45594000000E+02  0.51100000000E-03 0.  1.
    9900012    2    1    2    0    0 -0.98806481961E+01  0.38132331450E+02  0.21849751511E+02  0.46142317059E+02  0.99999935961E+01 0.  0.
        -12    1    1    2    0    0  0.98806481961E+01 -0.38132331450E+02 -0.21849751511E+02  0.45045682941E+02  0.00000000000E+00 0.  1.
         11    1    3    3    0    0 -0.10495309552E+01  0.88541980887E+00 -0.31598486476E+00  0.14090174448E+01  0.51100000000E-03 0. -1.
        -11    1    3    3    0    0 -0.43392241220E+00  0.60520652280E+00 -0.44315751405E+00  0.86657511989E+00  0.51100000000E-03 0.  1.
         12    1    3    3    0    0 -0.83971948287E+01  0.36641705118E+02  0.22608893889E+02  0.43866724494E+02  0.00000000000E+00 0. -1.
</event>
<event>
 7    1  0.5664398E-009  0.4614232E+02  0.7816164E-02  0.1320468E+00
        -11   -1    0    0    0    0  0.00000000000E+00  0.00000000000E+00  0.45593999997E+02  0.45594000000E+02  0.51100000000E-03 0.  1.
         11   -1    0    0    0    0 -0.00000000000E+00 -0.00000000000E+00 -0.45593999997E+02  0.45594000000E+02  0.51100000000E-03 0. -1.
    9900012    2    1    2    0    0  0.24054742245E+02  0.34994752655E+02  0.15028313144E+02  0.46142317257E+02  0.99999954017E+01 0.  0.
        -12    1    1    2    0    0 -0.24054742245E+02 -0.34994752655E+02 -0.15028313144E+02  0.45045682743E+02  0.00000000000E+00 0.  1.
         11    1    3    3    0    0  0.18324823124E+02  0.31007383434E+02  0.14188502954E+02  0.38711375412E+02  0.51100000000E-03 0. -1.
        -11    1    3    3    0    0  0.28551059281E+01  0.32552307217E+01 -0.61883912160E-01  0.43303564278E+01  0.51100000000E-03 0.  1.
         12    1    3    3    0    0  0.28748131930E+01  0.73213849947E+00  0.90169410241E+00  0.31005854175E+01  0.00000000000E+00 0. -1.
</event>
<event>
 7    1  0.5664398E-009  0.4614232E+02  0.7816164E-02  0.1320468E+00
        -11   -1    0    0    0    0  0.00000000000E+00  0.00000000000E+00  0.45593999997E+02  0.45594000000E+02  0.51100000000E-03 0. -1.
         11   -1    0    0    0    0 -0.00000000000E+00 -0.00000000000E+00 -0.45593999997E+02  0.45594000000E+02  0.51100000000E-03 0.  1.
    9900012    2    1    2    0    0 -0.40179414818E+02  0.35997375727E+01  0.20044201255E+02  0.46142317747E+02  0.99999998685E+01 0.  0.
        -12    1    1    2    0    0  0.40179414818E+02 -0.35997375727E+01 -0.20044201255E+02  0.45045682253E+02  0.00000000000E+00 0.  1.
         11    1    3    3    0    0 -0.26439623921E+02  0.18957522216E+01  0.14311837804E+02  0.30124347149E+02  0.51100000000E-03 0. -1.
        -11    1    3    3    0    0 -0.27992051280E+00 -0.11562065629E+01  0.59215262515E+00  0.13288393816E+01  0.51100000000E-03 0.  1.
         12    1    3    3    0    0 -0.13459870385E+02  0.28601919140E+01  0.51402108258E+01  0.14689131216E+02  0.00000000000E+00 0. -1.
</event>
<event>
 7    1  0.5664398E-009  0.4614232E+02  0.7816164E-02  0.1320468E+00
        -11   -1    0    0    0    0  0.00000000000E+00  0.00000000000E+00  0.45593999997E+02  0.45594000000E+02  0.51100000000E-03 0. -1.
         11   -1    0    0    0    0 -0.00000000000E+00 -0.00000000000E+00 -0.45593999997E+02  0.45594000000E+02  0.51100000000E-03 0.  1.
    9900012    2    1    2    0    0 -0.27808618661E+02 -0.12058543000E+02 -0.33322453012E+02  0.46142316457E+02  0.99999881095E+01 0.  0.
         12    1    1    2    0    0  0.27808618661E+02  0.12058543000E+02  0.33322453012E+02  0.45045683543E+02  0.00000000000E+00 0. -1.
         11    1    3    3    0    0 -0.10140851540E+02 -0.72879449211E+01 -0.15854134231E+02  0.20181788415E+02  0.51100000000E-03 0. -1.
        -11    1    3    3    0    0 -0.11294145377E+02 -0.53328989594E+01 -0.13683170829E+02  0.18526378364E+02  0.51100000000E-03 0.  1.
         12    1    3    3    0    0 -0.63736217445E+01  0.56230088093E+00 -0.37851479518E+01  0.74341496783E+01  0.00000000000E+00 0. -1.
</event>
<event>
 7    1  0.5664398E-009  0.4614232E+02  0.7816164E-02  0.1320468E+00
        -11   -1    0    0    0    0  0.00000000000E+00  0.00000000000E+00  0.45593999997E+02  0.45594000000E+02  0.51100000000E-03 0. -1.
         11   -1    0    0    0    0 -0.00000000000E+00 -0.00000000000E+00 -0.45593999997E+02  0.45594000000E+02  0.51100000000E-03 0.  1.
    9900012    2    1    2    0    0  0.31002010873E+01 -0.31289240856E+02  0.32256559137E+02  0.46142318215E+02  0.10000004138E+02 0.  0.
        -12    1    1    2    0    0 -0.31002010873E+01  0.31289240856E+02 -0.32256559137E+02  0.45045681785E+02  0.00000000000E+00 0.  1.
         11    1    3    3    0    0  0.12644349733E+01 -0.12143064763E+02  0.14427488265E+02  0.18899873956E+02  0.51100000000E-03 0. -1.
        -11    1    3    3    0    0  0.35450597966E+01 -0.44873343551E+01  0.37002883488E+01  0.68114427768E+01  0.51100000000E-03 0.  1.
        -12    1    3    3    0    0 -0.17092936826E+01 -0.14658841738E+02  0.14128782523E+02  0.20431001482E+02  0.00000000000E+00 0.  1.
</event>
<event>
 7    1  0.5664398E-009  0.4614232E+02  0.7816164E-02  0.1320468E+00
        -11   -1    0    0    0    0  0.00000000000E+00  0.00000000000E+00  0.45593999997E+02  0.45594000000E+02  0.51100000000E-03 0.  1.
         11   -1    0    0    0    0 -0.00000000000E+00 -0.00000000000E+00 -0.45593999997E+02  0.45594000000E+02  0.51100000000E-03 0. -1.
    9900012    2    1    2    0    0 -0.43078988135E+02  0.11788762014E+02  0.58599662691E+01  0.46142319483E+02  0.10000015699E+02 0.  0.
        -12    1    1    2    0    0  0.43078988135E+02 -0.11788762014E+02 -0.58599662691E+01  0.45045680517E+02  0.00000000000E+00 0.  1.
         11    1    3    3    0    0 -0.15102545377E+02  0.40429663667E+01  0.85614740875E+00  0.15657759819E+02  0.51100000000E-03 0. -1.
        -11    1    3    3    0    0 -0.16598082796E+02  0.82727646096E+01  0.16930469353E+01  0.18622604409E+02  0.51100000000E-03 0.  1.
        -12    1    3    3    0    0 -0.11378359962E+02 -0.52696896209E+00  0.33107719251E+01  0.11861955255E+02  0.00000000000E+00 0.  1.
</event>
<event>
 7    1  0.5664398E-009  0.4614232E+02  0.7816164E-02  0.1320468E+00
        -11   -1    0    0    0    0  0.00000000000E+00  0.00000000000E+00  0.45593999997E+02  0.45594000000E+02  0.51100000000E-03 0. -1.
         11   -1    0    0    0    0 -0.00000000000E+00 -0.00000000000E+00 -0.45593999997E+02  0.45594000000E+02  0.51100000000E-03 0.  1.
    9900012    2    1    2    0    0 -0.34227741754E+02 -0.13905497078E+02  0.25772317449E+02  0.46142317618E+02  0.99999986938E+01 0.  0.
        -12    1    1    2    0    0  0.34227741754E+02  0.13905497078E+02 -0.25772317449E+02  0.45045682382E+02  0.00000000000E+00 0.  1.
         11    1    3    3    0    0 -0.13391330565E+02 -0.58455353005E+01  0.67735602973E+01  0.16105251833E+02  0.51100000000E-03 0. -1.
        -11    1    3    3    0    0 -0.19876521035E+02 -0.68627462025E+01  0.15218404707E+02  0.25957141907E+02  0.51100000000E-03 0.  1.
        -12    1    3    3    0    0 -0.95989015425E+00 -0.11972155753E+01  0.37803524445E+01  0.40799238776E+01  0.00000000000E+00 0.  1.
</event>
<event>
 7    1  0.5664398E-009  0.4614232E+02  0.7816164E-02  0.1320468E+00
        -11   -1    0    0    0    0  0.00000000000E+00  0.00000000000E+00  0.45593999997E+02  0.45594000000E+02  0.51100000000E-03 0. -1.
         11   -1    0    0    0    0 -0.00000000000E+00 -0.00000000000E+00 -0.45593999997E+02  0.45594000000E+02  0.51100000000E-03 0.  1.
    9900012    2    1    2    0    0 -0.31563608804E+02 -0.17022545356E+02 -0.27259585318E+02  0.46142318267E+02  0.10000004614E+02 0.  0.
         12    1    1    2    0    0  0.31563608804E+02  0.17022545356E+02  0.27259585318E+02  0.45045681733E+02  0.00000000000E+00 0. -1.
         11    1    3    3    0    0 -0.10499865841E+01  0.12553257647E+01 -0.11061708647E+01  0.19753300598E+01  0.51100000000E-03 0. -1.
        -11    1    3    3    0    0 -0.11649770107E+02 -0.62856809126E+01 -0.98597785330E+01  0.16505822035E+02  0.51100000000E-03 0.  1.
         12    1    3    3    0    0 -0.18863852112E+02 -0.11992190208E+02 -0.16293635920E+02  0.27661166172E+02  0.00000000000E+00 0. -1.
</event>
<event>
 7    1  0.5664398E-009  0.4614232E+02  0.7816164E-02  0.1320468E+00
        -11   -1    0    0    0    0  0.00000000000E+00  0.00000000000E+00  0.45593999997E+02  0.45594000000E+02  0.51100000000E-03 0. -1.
         11   -1    0    0    0    0 -0.00000000000E+00 -0.00000000000E+00 -0.45593999997E+02  0.45594000000E+02  0.51100000000E-03 0.  1.
    9900012    2    1    2    0    0  0.11557257954E+02  0.40945993272E+02  0.14797599147E+02  0.46142317443E+02  0.99999971032E+01 0.  0.
        -12    1    1    2    0    0 -0.11557257954E+02 -0.40945993272E+02 -0.14797599147E+02  0.45045682557E+02  0.00000000000E+00 0.  1.
         11    1    3    3    0    0  0.35151512637E+00  0.34915490042E+01  0.18725971040E+01  0.39775743246E+01  0.51100000000E-03 0. -1.
        -11    1    3    3    0    0  0.83158704257E+01  0.15240689628E+02  0.85002771688E+01  0.19330986356E+02  0.51100000000E-03 0.  1.
         12    1    3    3    0    0  0.28898724016E+01  0.22213754640E+02  0.44247248744E+01  0.22833756763E+02  0.00000000000E+00 0. -1.
</event>
<event>
 7    1  0.5664398E-009  0.4614232E+02  0.7816164E-02  0.1320468E+00
        -11   -1    0    0    0    0  0.00000000000E+00  0.00000000000E+00  0.45593999997E+02  0.45594000000E+02  0.51100000000E-03 0.  1.
         11   -1    0    0    0    0 -0.00000000000E+00 -0.00000000000E+00 -0.45593999997E+02  0.45594000000E+02  0.51100000000E-03 0. -1.
    9900012    2    1    2    0    0  0.20624345951E+02 -0.39037894597E+02  0.89326733328E+01  0.46142317484E+02  0.99999974722E+01 0.  0.
         12    1    1    2    0    0 -0.20624345951E+02  0.39037894597E+02 -0.89326733328E+01  0.45045682516E+02  0.00000000000E+00 0. -1.
         11    1    3    3    0    0  0.35053447574E+01 -0.17290580553E+01  0.16914578001E+01  0.42588864012E+01  0.51100000000E-03 0. -1.
        -11    1    3    3    0    0  0.11413993302E+02 -0.20445469651E+02  0.49640209739E+01  0.23936122845E+02  0.51100000000E-03 0.  1.
         12    1    3    3    0    0  0.57050078915E+01 -0.16863366891E+02  0.22771945588E+01  0.17947308238E+02  0.00000000000E+00 0. -1.
</event>
<event>
 7    1  0.5664398E-009  0.4614231E+02  0.7816164E-02  0.1320468E+00
        -11   -1    0    0    0    0  0.00000000000E+00  0.00000000000E+00  0.45593999997E+02  0.45594000000E+02  0.51100000000E-03 0. -1.
         11   -1    0    0    0    0 -0.00000000000E+00 -0.00000000000E+00 -0.45593999997E+02  0.45594000000E+02  0.51100000000E-03 0.  1.
    9900012    2    1    2    0    0 -0.48619883011E+01  0.14019955192E+02 -0.42531350283E+02  0.46142313961E+02  0.99999653517E+01 0.  0.
         12    1    1    2    0    0  0.48619883011E+01 -0.14019955192E+02  0.42531350283E+02  0.45045686039E+02  0.00000000000E+00 0. -1.
         11    1    3    3    0    0 -0.19553091763E+01 -0.86412728123E+00 -0.75444799690E+01  0.78415003792E+01  0.51100000000E-03 0. -1.
        -11    1    3    3    0    0 -0.25442877450E+01  0.55143334391E+01 -0.11362789070E+02  0.12883875548E+02  0.51100000000E-03 0.  1.
        -12    1    3    3    0    0 -0.36239137980E+00  0.93697490341E+01 -0.23624081243E+02  0.25416938035E+02  0.00000000000E+00 0.  1.
</event>
<event>
 7    1  0.5664398E-009  0.4614232E+02  0.7816164E-02  0.1320468E+00
        -11   -1    0    0    0    0  0.00000000000E+00  0.00000000000E+00  0.45593999997E+02  0.45594000000E+02  0.51100000000E-03 0. -1.
         11   -1    0    0    0    0 -0.00000000000E+00 -0.00000000000E+00 -0.45593999997E+02  0.45594000000E+02  0.51100000000E-03 0.  1.
    9900012    2    1    2    0    0 -0.58828413571E+01  0.32199632301E+02 -0.30946555017E+02  0.46142318629E+02  0.10000007915E+02 0.  0.
         12    1    1    2    0    0  0.58828413571E+01 -0.32199632301E+02  0.30946555017E+02  0.45045681371E+02  0.00000000000E+00 0. -1.
         11    1    3    3    0    0 -0.65007117318E+01  0.10566002991E+02 -0.96483861312E+01  0.15715948187E+02  0.51100000000E-03 0. -1.
        -11    1    3    3    0    0 -0.44794817284E+00  0.70723415370E+01 -0.60835815595E+01  0.93396272534E+01  0.51100000000E-03 0.  1.
         12    1    3    3    0    0  0.10658185475E+01  0.14561287772E+02 -0.15214587327E+02  0.21086743188E+02  0.00000000000E+00 0. -1.
</event>
<event>
 7    1  0.5664398E-009  0.4614231E+02  0.7816164E-02  0.1320468E+00
        -11   -1    0    0    0    0  0.00000000000E+00  0.00000000000E+00  0.45593999997E+02  0.45594000000E+02  0.51100000000E-03 0. -1.
         11   -1    0    0    0    0 -0.00000000000E+00 -0.00000000000E+00 -0.45593999997E+02  0.45594000000E+02  0.51100000000E-03 0.  1.
    9900012    2    1    2    0    0  0.32314342987E+01  0.38103143902E+02  0.23808038325E+02  0.46142307290E+02  0.99999045129E+01 0.  0.
        -12    1    1    2    0    0 -0.32314342987E+01 -0.38103143902E+02 -0.23808038325E+02  0.45045692710E+02  0.00000000000E+00 0.  1.
         11    1    3    3    0    0 -0.18297794577E+01  0.97111737062E+01  0.97602703005E+01  0.13889487543E+02  0.51100000000E-03 0.  1.
        -11    1    3    3    0    0  0.21686875422E+00  0.10266439180E+02  0.51659127177E+01  0.11494931925E+02  0.51100000000E-03 0. -1.
        -12    1    3    3    0    0  0.48443450021E+01  0.18125531015E+02  0.88818553071E+01  0.20757887821E+02  0.00000000000E+00 0.  1.
</event>
<event>
 7    1  0.5664398E-009  0.4614232E+02  0.7816164E-02  0.1320468E+00
        -11   -1    0    0    0    0  0.00000000000E+00  0.00000000000E+00  0.45593999997E+02  0.45594000000E+02  0.51100000000E-03 0. -1.
         11   -1    0    0    0    0 -0.00000000000E+00 -0.00000000000E+00 -0.45593999997E+02  0.45594000000E+02  0.51100000000E-03 0.  1.
    9900012    2    1    2    0    0  0.19394106743E+02 -0.28691202955E+01 -0.40555520237E+02  0.46142318195E+02  0.10000003954E+02 0.  0.
         12    1    1    2    0    0 -0.19394106743E+02  0.28691202955E+01  0.40555520237E+02  0.45045681805E+02  0.00000000000E+00 0. -1.
         11    1    3    3    0    0  0.16326307777E+01  0.99073923176E+00 -0.92971580654E+01  0.94912694533E+01  0.51100000000E-03 0. -1.
        -11    1    3    3    0    0  0.16402899981E+02 -0.51570250559E+01 -0.28993017095E+02  0.33708234539E+02  0.51100000000E-03 0.  1.
        -12    1    3    3    0    0  0.13585759843E+01  0.12971655286E+01 -0.22653450766E+01  0.29428142024E+01  0.00000000000E+00 0.  1.
</event>
<event>
 7    1  0.5664398E-009  0.4614232E+02  0.7816164E-02  0.1320468E+00
        -11   -1    0    0    0    0  0.00000000000E+00  0.00000000000E+00  0.45593999997E+02  0.45594000000E+02  0.51100000000E-03 0. -1.
         11   -1    0    0    0    0 -0.00000000000E+00 -0.00000000000E+00 -0.45593999997E+02  0.45594000000E+02  0.51100000000E-03 0.  1.
    9900012    2    1    2    0    0 -0.75661546375E+01 -0.23736119470E+01 -0.44342222732E+02  0.46142318226E+02  0.10000004235E+02 0.  0.
         12    1    1    2    0    0  0.75661546375E+01  0.23736119470E+01  0.44342222732E+02  0.45045681774E+02  0.00000000000E+00 0. -1.
         11    1    3    3    0    0  0.44984001806E+00 -0.55260969465E+00 -0.15794268417E+02  0.15810333602E+02  0.51100000000E-03 0. -1.
        -11    1    3    3    0    0 -0.14168092529E+01  0.10721298430E+01 -0.14527678514E+01  0.22950698356E+01  0.51100000000E-03 0.  1.
        -12    1    3    3    0    0 -0.65991854026E+01 -0.28931320954E+01 -0.27095186464E+02  0.28036914788E+02  0.00000000000E+00 0.  1.
</event>
<event>
 7    1  0.5664398E-009  0.4614232E+02  0.7816164E-02  0.1320468E+00
        -11   -1    0    0    0    0  0.00000000000E+00  0.00000000000E+00  0.45593999997E+02  0.45594000000E+02  0.51100000000E-03 0. -1.
         11   -1    0    0    0    0 -0.00000000000E+00 -0.00000000000E+00 -0.45593999997E+02  0.45594000000E+02  0.51100000000E-03 0.  1.
    9900012    2    1    2    0    0  0.30830317695E+02  0.13001250935E+02  0.30159119158E+02  0.46142317816E+02  0.10000000499E+02 0.  0.
        -12    1    1    2    0    0 -0.30830317695E+02 -0.13001250935E+02 -0.30159119158E+02  0.45045682184E+02  0.00000000000E+00 0.  1.
         11    1    3    3    0    0  0.14834193217E+02  0.68118039416E+01  0.15649880282E+02  0.22613551566E+02  0.51100000000E-03 0. -1.
        -11    1    3    3    0    0  0.28735588293E+01  0.16097424183E+01  0.69883007934E+01  0.77256041342E+01  0.51100000000E-03 0.  1.
         12    1    3    3    0    0  0.13122565648E+02  0.45797045749E+01  0.75209380826E+01  0.15803162115E+02  0.00000000000E+00 0. -1.
</event>
<event>
 7    1  0.5664398E-009  0.4614232E+02  0.7816164E-02  0.1320468E+00
        -11   -1    0    0    0    0  0.00000000000E+00  0.00000000000E+00  0.45593999997E+02  0.45594000000E+02  0.51100000000E-03 0. -1.
         11   -1    0    0    0    0 -0.00000000000E+00 -0.00000000000E+00 -0.45593999997E+02  0.45594000000E+02  0.51100000000E-03 0.  1.
    9900012    2    1    2    0    0  0.14972201072E+02 -0.79484836011E+01 -0.41734493245E+02  0.46142321818E+02  0.10000036989E+02 0.  0.
         12    1    1    2    0    0 -0.14972201072E+02  0.79484836011E+01  0.41734493245E+02  0.45045678182E+02  0.00000000000E+00 0. -1.
         11    1    3    3    0    0  0.95790560117E+01 -0.25148780932E+01 -0.14906418100E+02  0.17896486435E+02  0.51100000000E-03 0. -1.
        -11    1    3    3    0    0  0.13067320094E+01  0.47219397265E-01 -0.14038421228E+01  0.19184762659E+01  0.51100000000E-03 0.  1.
        -12    1    3    3    0    0  0.40864130510E+01 -0.54808249052E+01 -0.25424233022E+02  0.26327359116E+02  0.00000000000E+00 0.  1.
</event>
<event>
 7    1  0.5664398E-009  0.4614232E+02  0.7816164E-02  0.1320468E+00
        -11   -1    0    0    0    0  0.00000000000E+00  0.00000000000E+00  0.45593999997E+02  0.45594000000E+02  0.51100000000E-03 0. -1.
         11   -1    0    0    0    0 -0.00000000000E+00 -0.00000000000E+00 -0.45593999997E+02  0.45594000000E+02  0.51100000000E-03 0.  1.
    9900012    2    1    2    0    0  0.20815378177E+02 -0.36615692976E+02 -0.15972613129E+02  0.46142319731E+02  0.10000017959E+02 0.  0.
         12    1    1    2    0    0 -0.20815378177E+02  0.36615692976E+02  0.15972613129E+02  0.45045680269E+02  0.00000000000E+00 0. -1.
         11    1    3    3    0    0  0.31208184254E+01 -0.69340209288E+01  0.45386968883E-01  0.76040919328E+01  0.51100000000E-03 0. -1.
        -11    1    3    3    0    0  0.28854408166E+01 -0.98390804439E+01 -0.55210397623E+01  0.11645391922E+02  0.51100000000E-03 0.  1.
        -12    1    3    3    0    0  0.14809118935E+02 -0.19842591603E+02 -0.10496960336E+02  0.26892835876E+02  0.00000000000E+00 0.  1.
</event>
<event>
 7    1  0.6901457E-009  0.4614232E+02  0.7816164E-02  0.1320468E+00
        -11   -1    0    0    0    0  0.00000000000E+00  0.00000000000E+00  0.45593999997E+02  0.45594000000E+02  0.51100000000E-03 0. -1.
         11   -1    0    0    0    0 -0.00000000000E+00 -0.00000000000E+00 -0.45593999997E+02  0.45594000000E+02  0.51100000000E-03 0.  1.
    9900012    2    1    2    0    0 -0.21275347460E+02 -0.42437701478E+00  0.39702555994E+02  0.46142318099E+02  0.10000003084E+02 0.  0.
        -12    1    1    2    0    0  0.21275347460E+02  0.42437701478E+00 -0.39702555994E+02  0.45045681901E+02  0.00000000000E+00 0.  1.
         11    1    3    3    0    0 -0.23485165581E+01  0.15862559136E+01  0.55448983977E+01  0.62271692083E+01  0.51100000000E-03 0. -1.
        -11    1    3    3    0    0 -0.73063923581E+01  0.13691244432E+01  0.71229838226E+01  0.10295376138E+02  0.51100000000E-03 0.  1.
         12    1    3    3    0    0 -0.11620438544E+02 -0.33797573716E+01  0.27034673774E+02  0.29619772753E+02  0.00000000000E+00 0. -1.
</event>
<event>
 7    1  0.5664398E-009  0.4614231E+02  0.7816164E-02  0.1320468E+00
        -11   -1    0    0    0    0  0.00000000000E+00  0.00000000000E+00  0.45593999997E+02  0.45594000000E+02  0.51100000000E-03 0. -1.
         11   -1    0    0    0    0 -0.00000000000E+00 -0.00000000000E+00 -0.45593999997E+02  0.45594000000E+02  0.51100000000E-03 0.  1.
    9900012    2    1    2    0    0  0.26926341927E+02 -0.28135599914E+02  0.22637887668E+02  0.46142313967E+02  0.99999654035E+01 0.  0.
        -12    1    1    2    0    0 -0.26926341927E+02  0.28135599914E+02 -0.22637887668E+02  0.45045686033E+02  0.00000000000E+00 0.  1.
         11    1    3    3    0    0  0.71327643067E+01 -0.99270026541E+01  0.58138202979E+01  0.13535960072E+02  0.51100000000E-03 0. -1.
        -11    1    3    3    0    0  0.11107482330E+02 -0.13824580185E+02  0.79382321820E+01  0.19429634876E+02  0.51100000000E-03 0.  1.
        -12    1    3    3    0    0  0.86860952908E+01 -0.43840170751E+01  0.88858351879E+01  0.13176719019E+02  0.00000000000E+00 0.  1.
</event>
<event>
 7    1  0.5664398E-009  0.4614232E+02  0.7816164E-02  0.1320468E+00
        -11   -1    0    0    0    0  0.00000000000E+00  0.00000000000E+00  0.45593999997E+02  0.45594000000E+02  0.51100000000E-03 0. -1.
         11   -1    0    0    0    0 -0.00000000000E+00 -0.00000000000E+00 -0.45593999997E+02  0.45594000000E+02  0.51100000000E-03 0.  1.
    9900012    2    1    2    0    0  0.23159330905E+02 -0.64423121749E+01 -0.38095347043E+02  0.46142318071E+02  0.10000002826E+02 0.  0.
         12    1    1    2    0    0 -0.23159330905E+02  0.64423121749E+01  0.38095347043E+02  0.45045681929E+02  0.00000000000E+00 0. -1.
         11    1    3    3    0    0  0.10114148997E+02  0.36086195048E+00 -0.11981757158E+02  0.15684028058E+02  0.51100000000E-03 0. -1.
        -11    1    3    3    0    0  0.80962472456E+01 -0.26799013435E+01 -0.19200339050E+02  0.21009143500E+02  0.51100000000E-03 0.  1.
        -12    1    3    3    0    0  0.49489346621E+01 -0.41232727819E+01 -0.69132508349E+01  0.94491465133E+01  0.00000000000E+00 0.  1.
</event>
<event>
 7    1  0.5664398E-009  0.4614232E+02  0.7816164E-02  0.1320468E+00
        -11   -1    0    0    0    0  0.00000000000E+00  0.00000000000E+00  0.45593999997E+02  0.45594000000E+02  0.51100000000E-03 0. -1.
         11   -1    0    0    0    0 -0.00000000000E+00 -0.00000000000E+00 -0.45593999997E+02  0.45594000000E+02  0.51100000000E-03 0.  1.
    9900012    2    1    2    0    0 -0.27313141324E+02 -0.88841047646E+01  0.34701276635E+02  0.46142316449E+02  0.99999880353E+01 0.  0.
        -12    1    1    2    0    0  0.27313141324E+02  0.88841047646E+01 -0.34701276635E+02  0.45045683551E+02  0.00000000000E+00 0.  1.
         11    1    3    3    0    0 -0.15316466685E+02 -0.48747077407E+01  0.20717952915E+02  0.26221946924E+02  0.51100000000E-03 0. -1.
        -11    1    3    3    0    0 -0.10105244289E+02 -0.16548062972E+01  0.72675765469E+01  0.12556751775E+02  0.51100000000E-03 0.  1.
         12    1    3    3    0    0 -0.18914303505E+01 -0.23545907267E+01  0.67157471735E+01  0.73636177494E+01  0.00000000000E+00 0. -1.
</event>
<event>
 7    1  0.5664398E-009  0.4614232E+02  0.7816164E-02  0.1320468E+00
        -11   -1    0    0    0    0  0.00000000000E+00  0.00000000000E+00  0.45593999997E+02  0.45594000000E+02  0.51100000000E-03 0. -1.
         11   -1    0    0    0    0 -0.00000000000E+00 -0.00000000000E+00 -0.45593999997E+02  0.45594000000E+02  0.51100000000E-03 0.  1.
    9900012    2    1    2    0    0  0.17732875009E+02  0.25212071261E+02 -0.32848290789E+02  0.46142316510E+02  0.99999885894E+01 0.  0.
         12    1    1    2    0    0 -0.17732875009E+02 -0.25212071261E+02  0.32848290789E+02  0.45045683490E+02  0.00000000000E+00 0. -1.
         11    1    3    3    0    0  0.68620444584E+01  0.13348930174E+02 -0.18422558317E+02  0.23762833294E+02  0.51100000000E-03 0. -1.
        -11    1    3    3    0    0  0.31883951054E+01  0.72204380571E+01 -0.86273845970E+01  0.11693261065E+02  0.51100000000E-03 0.  1.
         12    1    3    3    0    0  0.76824354447E+01  0.46427030302E+01 -0.57983478749E+01  0.10686222151E+02  0.00000000000E+00 0. -1.
</event>
<event>
 7    1  0.5664398E-009  0.4614232E+02  0.7816164E-02  0.1320468E+00
        -11   -1    0    0    0    0  0.00000000000E+00  0.00000000000E+00  0.45593999997E+02  0.45594000000E+02  0.51100000000E-03 0. -1.
         11   -1    0    0    0    0 -0.00000000000E+00 -0.00000000000E+00 -0.45593999997E+02  0.45594000000E+02  0.51100000000E-03 0.  1.
    9900012    2    1    2    0    0 -0.15500294503E+02 -0.44504667193E+01  0.42060048018E+02  0.46142318487E+02  0.10000006615E+02 0.  0.
        -12    1    1    2    0    0  0.15500294503E+02  0.44504667193E+01 -0.42060048018E+02  0.45045681513E+02  0.00000000000E+00 0.  1.
         11    1    3    3    0    0 -0.45267341746E+01 -0.13329210829E+01  0.13278634251E+02  0.14092200990E+02  0.51100000000E-03 0. -1.
        -11    1    3    3    0    0 -0.10610479997E+02 -0.41362982342E+01  0.18585934863E+02  0.21797436176E+02  0.51100000000E-03 0.  1.
         12    1    3    3    0    0 -0.36308033174E+00  0.10187525977E+01  0.10195478904E+02  0.10252681321E+02  0.00000000000E+00 0. -1.
</event>
<event>
 7    1  0.5664398E-009  0.4614232E+02  0.7816164E-02  0.1320468E+00
        -11   -1    0    0    0    0  0.00000000000E+00  0.00000000000E+00  0.45593999997E+02  0.45594000000E+02  0.51100000000E-03 0. -1.
         11   -1    0    0    0    0 -0.00000000000E+00 -0.00000000000E+00 -0.45593999997E+02  0.45594000000E+02  0.51100000000E-03 0.  1.
    9900012    2    1    2    0    0 -0.15729653392E+02  0.27398059897E+02  0.32109777427E+02  0.46142317761E+02  0.10000000004E+02 0.  0.
        -12    1    1    2    0    0  0.15729653392E+02 -0.27398059897E+02 -0.32109777427E+02  0.45045682239E+02  0.00000000000E+00 0.  1.
         11    1    3    3    0    0 -0.41120779582E+01  0.41987262575E+01  0.83725136855E+01  0.10229245964E+02  0.51100000000E-03 0. -1.
        -11    1    3    3    0    0  0.18735490419E+00  0.31763782366E+01  0.55582177918E+01  0.64045504014E+01  0.51100000000E-03 0.  1.
        -12    1    3    3    0    0 -0.11804930338E+02  0.20022955403E+02  0.18179045949E+02  0.29508521396E+02  0.00000000000E+00 0.  1.
</event>
<event>
 7    1  0.5664398E-009  0.4614232E+02  0.7816164E-02  0.1320468E+00
        -11   -1    0    0    0    0  0.00000000000E+00  0.00000000000E+00  0.45593999997E+02  0.45594000000E+02  0.51100000000E-03 0. -1.
         11   -1    0    0    0    0 -0.00000000000E+00 -0.00000000000E+00 -0.45593999997E+02  0.45594000000E+02  0.51100000000E-03 0.  1.
    9900012    2    1    2    0    0  0.16166182802E+02 -0.22678558104E+02  0.35404110215E+02  0.46142317808E+02  0.10000000424E+02 0.  0.
        -12    1    1    2    0    0 -0.16166182802E+02  0.22678558104E+02 -0.35404110215E+02  0.45045682192E+02  0.00000000000E+00 0.  1.
         11    1    3    3    0    0  0.24518757404E+01 -0.94487602384E+01  0.11677923813E+02  0.15220534469E+02  0.51100000000E-03 0. -1.
        -11    1    3    3    0    0  0.26150485713E+01 -0.59526951242E+01  0.67330520065E+01  0.93598636665E+01  0.51100000000E-03 0.  1.
         12    1    3    3    0    0  0.11099258491E+02 -0.72771027411E+01  0.16993134396E+02  0.21561919672E+02  0.00000000000E+00 0. -1.
</event>
<event>
 7    1  0.5664398E-009  0.4614232E+02  0.7816164E-02  0.1320468E+00
        -11   -1    0    0    0    0  0.00000000000E+00  0.00000000000E+00  0.45593999997E+02  0.45594000000E+02  0.51100000000E-03 0. -1.
         11   -1    0    0    0    0 -0.00000000000E+00 -0.00000000000E+00 -0.45593999997E+02  0.45594000000E+02  0.51100000000E-03 0.  1.
    9900012    2    1    2    0    0 -0.13373501473E+02 -0.52661123604E+01  0.42691112572E+02  0.46142316815E+02  0.99999913685E+01 0.  0.
        -12    1    1    2    0    0  0.13373501473E+02  0.52661123604E+01 -0.42691112572E+02  0.45045683185E+02  0.00000000000E+00 0.  1.
         11    1    3    3    0    0 -0.88703595979E+00 -0.16090562622E+01  0.12160127010E+02  0.12298153683E+02  0.51100000000E-03 0. -1.
        -11    1    3    3    0    0 -0.26349711629E+01 -0.28147889256E+00  0.15988470482E+01  0.30949338508E+01  0.51100000000E-03 0.  1.
         12    1    3    3    0    0 -0.98514943505E+01 -0.33755772056E+01  0.28932138514E+02  0.30749229281E+02  0.00000000000E+00 0. -1.
</event>
<event>
 7    1  0.5664398E-009  0.4614231E+02  0.7816164E-02  0.1320468E+00
        -11   -1    0    0    0    0  0.00000000000E+00  0.00000000000E+00  0.45593999997E+02  0.45594000000E+02  0.51100000000E-03 0. -1.
         11   -1    0    0    0    0 -0.00000000000E+00 -0.00000000000E+00 -0.45593999997E+02  0.45594000000E+02  0.51100000000E-03 0.  1.
    9900012    2    1    2    0    0 -0.31595185393E+02 -0.22682722315E+02 -0.22723392241E+02  0.46142310011E+02  0.99999293313E+01 0.  0.
         12    1    1    2    0    0  0.31595185393E+02  0.22682722315E+02  0.22723392241E+02  0.45045689989E+02  0.00000000000E+00 0. -1.
         11    1    3    3    0    0  0.94810349627E-01 -0.62391973614E+00  0.23861532153E+00  0.67468686984E+00  0.51100000000E-03 0. -1.
        -11    1    3    3    0    0  0.20218643294E+00 -0.56582820774E+00 -0.10366880764E+01  0.11982334260E+01  0.51100000000E-03 0.  1.
        -12    1    3    3    0    0 -0.31892182175E+02 -0.21492974371E+02 -0.21925319486E+02  0.44269389716E+02  0.00000000000E+00 0.  1.
</event>
<event>
 7    1  0.5664398E-009  0.4614232E+02  0.7816164E-02  0.1320468E+00
        -11   -1    0    0    0    0  0.00000000000E+00  0.00000000000E+00  0.45593999997E+02  0.45594000000E+02  0.51100000000E-03 0.  1.
         11   -1    0    0    0    0 -0.00000000000E+00 -0.00000000000E+00 -0.45593999997E+02  0.45594000000E+02  0.51100000000E-03 0. -1.
    9900012    2    1    2    0    0 -0.11684123966E+02  0.41121521671E+02 -0.14199119029E+02  0.46142320090E+02  0.10000021237E+02 0.  0.
         12    1    1    2    0    0  0.11684123966E+02 -0.41121521671E+02  0.14199119029E+02  0.45045679910E+02  0.00000000000E+00 0. -1.
         11    1    3    3    0    0 -0.90963810141E+01  0.23747950924E+02 -0.11854280078E+02  0.28057677685E+02  0.51100000000E-03 0. -1.
        -11    1    3    3    0    0 -0.13525281131E+01  0.45683200510E+01 -0.21283882005E+01  0.52181334765E+01  0.51100000000E-03 0.  1.
         12    1    3    3    0    0 -0.12352148387E+01  0.12805250696E+02 -0.21645074989E+00  0.12866508929E+02  0.00000000000E+00 0. -1.
</event>
<event>
 7    1  0.5664398E-009  0.4614232E+02  0.7816164E-02  0.1320468E+00
        -11   -1    0    0    0    0  0.00000000000E+00  0.00000000000E+00  0.45593999997E+02  0.45594000000E+02  0.51100000000E-03 0. -1.
         11   -1    0    0    0    0 -0.00000000000E+00 -0.00000000000E+00 -0.45593999997E+02  0.45594000000E+02  0.51100000000E-03 0.  1.
    9900012    2    1    2    0    0 -0.64400292526E+01 -0.29656141332E+02  0.33288930796E+02  0.46142316422E+02  0.99999877864E+01 0.  0.
        -12    1    1    2    0    0  0.64400292526E+01  0.29656141332E+02 -0.33288930796E+02  0.45045683578E+02  0.00000000000E+00 0.  1.
         11    1    3    3    0    0  0.75425005104E+00 -0.12450448765E+01  0.58987944237E+00  0.15706647961E+01  0.51100000000E-03 0. -1.
        -11    1    3    3    0    0  0.53685818110E+00 -0.99924021950E+00  0.39246075784E+01  0.40852469483E+01  0.51100000000E-03 0.  1.
         12    1    3    3    0    0 -0.77311374847E+01 -0.27411856236E+02  0.28774443775E+02  0.40486404677E+02  0.00000000000E+00 0. -1.
</event>
<event>
 7    1  0.5664398E-009  0.4614232E+02  0.7816164E-02  0.1320468E+00
        -11   -1    0    0    0    0  0.00000000000E+00  0.00000000000E+00  0.45593999997E+02  0.45594000000E+02  0.51100000000E-03 0. -1.
         11   -1    0    0    0    0 -0.00000000000E+00 -0.00000000000E+00 -0.45593999997E+02  0.45594000000E+02  0.51100000000E-03 0.  1.
    9900012    2    1    2    0    0  0.69752346465E+01  0.35994752440E+02  0.26169401008E+02  0.46142315959E+02  0.99999835654E+01 0.  0.
        -12    1    1    2    0    0 -0.69752346465E+01 -0.35994752440E+02 -0.26169401008E+02  0.45045684041E+02  0.00000000000E+00 0.  1.
         11    1    3    3    0    0  0.70789263270E+01  0.15220359980E+02  0.91525851293E+01  0.19119110091E+02  0.51100000000E-03 0. -1.
        -11    1    3    3    0    0  0.46341159753E+00  0.27709785686E+01  0.12111361814E+01  0.30593992298E+01  0.51100000000E-03 0.  1.
         12    1    3    3    0    0 -0.56710327802E+00  0.18003413892E+02  0.15805679698E+02  0.23963806638E+02  0.00000000000E+00 0. -1.
</event>
<event>
 7    1  0.5664398E-009  0.4614232E+02  0.7816164E-02  0.1320468E+00
        -11   -1    0    0    0    0  0.00000000000E+00  0.00000000000E+00  0.45593999997E+02  0.45594000000E+02  0.51100000000E-03 0. -1.
         11   -1    0    0    0    0 -0.00000000000E+00 -0.00000000000E+00 -0.45593999997E+02  0.45594000000E+02  0.51100000000E-03 0.  1.
    9900012    2    1    2    0    0 -0.41146896259E+02 -0.10975358553E+02  0.14682916829E+02  0.46142316370E+02  0.99999873149E+01 0.  0.
        -12    1    1    2    0    0  0.41146896259E+02  0.10975358553E+02 -0.14682916829E+02  0.45045683630E+02  0.00000000000E+00 0.  1.
         11    1    3    3    0    0 -0.24605225902E+02 -0.52946096790E+01  0.11611857536E+02  0.27717959323E+02  0.51100000000E-03 0. -1.
        -11    1    3    3    0    0 -0.63780849436E+01 -0.52137191414E-01 -0.10790467626E+00  0.63792107282E+01  0.51100000000E-03 0.  1.
         12    1    3    3    0    0 -0.10163585413E+02 -0.56286116821E+01  0.31789639684E+01  0.12045146318E+02  0.00000000000E+00 0. -1.
</event>
<event>
 7    1  0.5664398E-009  0.4614232E+02  0.7816164E-02  0.1320468E+00
        -11   -1    0    0    0    0  0.00000000000E+00  0.00000000000E+00  0.45593999997E+02  0.45594000000E+02  0.51100000000E-03 0.  1.
         11   -1    0    0    0    0 -0.00000000000E+00 -0.00000000000E+00 -0.45593999997E+02  0.45594000000E+02  0.51100000000E-03 0. -1.
    9900012    2    1    2    0    0  0.42547120042E+02 -0.12634561283E+02 -0.76957098685E+01  0.46142317487E+02  0.99999975003E+01 0.  0.
         12    1    1    2    0    0 -0.42547120042E+02  0.12634561283E+02  0.76957098685E+01  0.45045682513E+02  0.00000000000E+00 0. -1.
         11    1    3    3    0    0  0.14253713953E+02 -0.13026294784E+01 -0.26816281470E+01  0.14562154195E+02  0.51100000000E-03 0. -1.
        -11    1    3    3    0    0  0.18387140531E+02 -0.70676056256E+01 -0.29047555553E-01  0.19698701231E+02  0.51100000000E-03 0.  1.
         12    1    3    3    0    0  0.99062655586E+01 -0.42643261789E+01 -0.49850341660E+01  0.11881462061E+02  0.00000000000E+00 0. -1.
</event>
<event>
 7    1  0.6390110E-009  0.4614232E+02  0.7816164E-02  0.1320468E+00
        -11   -1    0    0    0    0  0.00000000000E+00  0.00000000000E+00  0.45593999997E+02  0.45594000000E+02  0.51100000000E-03 0. -1.
         11   -1    0    0    0    0 -0.00000000000E+00 -0.00000000000E+00 -0.45593999997E+02  0.45594000000E+02  0.51100000000E-03 0.  1.
    9900012    2    1    2    0    0  0.80632341502E+01 -0.35931317309E+02 -0.25942980514E+02  0.46142317116E+02  0.99999941216E+01 0.  0.
         12    1    1    2    0    0 -0.80632341502E+01  0.35931317309E+02  0.25942980514E+02  0.45045682884E+02  0.00000000000E+00 0. -1.
         11    1    3    3    0    0  0.50745611263E-01 -0.78248678384E+01 -0.22106484383E+01  0.81313036215E+01  0.51100000000E-03 0. -1.
        -11    1    3    3    0    0  0.54363078834E+00 -0.22057730550E+01 -0.29519487103E+00  0.22908752645E+01  0.51100000000E-03 0.  1.
        -12    1    3    3    0    0  0.74688577506E+01 -0.25900676415E+02 -0.23437137204E+02  0.35720138231E+02  0.00000000000E+00 0.  1.
</event>
<event>
 7    1  0.5664398E-009  0.4614232E+02  0.7816164E-02  0.1320468E+00
        -11   -1    0    0    0    0  0.00000000000E+00  0.00000000000E+00  0.45593999997E+02  0.45594000000E+02  0.51100000000E-03 0. -1.
         11   -1    0    0    0    0 -0.00000000000E+00 -0.00000000000E+00 -0.45593999997E+02  0.45594000000E+02  0.51100000000E-03 0.  1.
    9900012    2    1    2    0    0  0.20280188190E+02 -0.94169790460E+01  0.39104322950E+02  0.46142316514E+02  0.99999886264E+01 0.  0.
        -12    1    1    2    0    0 -0.20280188190E+02  0.94169790460E+01 -0.39104322950E+02  0.45045683486E+02  0.00000000000E+00 0.  1.
         11    1    3    3    0    0  0.14463868919E+01  0.86066055133E+00  0.73827715724E+01  0.75721917552E+01  0.51100000000E-03 0. -1.
        -11    1    3    3    0    0  0.10765475420E+02 -0.60642957460E+01  0.14183297182E+02  0.18810557225E+02  0.51100000000E-03 0.  1.
         12    1    3    3    0    0  0.80683258781E+01 -0.42133438513E+01  0.17538254195E+02  0.19759567533E+02  0.00000000000E+00 0. -1.
</event>
<event>
 7    1  0.5664398E-009  0.4614232E+02  0.7816164E-02  0.1320468E+00
        -11   -1    0    0    0    0  0.00000000000E+00  0.00000000000E+00  0.45593999997E+02  0.45594000000E+02  0.51100000000E-03 0.  1.
         11   -1    0    0    0    0 -0.00000000000E+00 -0.00000000000E+00 -0.45593999997E+02  0.45594000000E+02  0.51100000000E-03 0. -1.
    9900012    2    1    2    0    0  0.28654765064E+02 -0.34153597096E+02 -0.64459056953E+01  0.46142318124E+02  0.10000003305E+02 0.  0.
         12    1    1    2    0    0 -0.28654765064E+02  0.34153597096E+02  0.64459056953E+01  0.45045681876E+02  0.00000000000E+00 0. -1.
         11    1    3    3    0    0  0.60394236236E+00  0.49808716785E+00 -0.68716821836E+00  0.10416513934E+01  0.51100000000E-03 0. -1.
        -11    1    3    3    0    0  0.79100538896E+00 -0.75305268486E+00  0.40853950639E+00  0.11660543130E+01  0.51100000000E-03 0.  1.
        -12    1    3    3    0    0  0.27259817312E+02 -0.33898631579E+02 -0.61672769834E+01  0.43934612417E+02  0.00000000000E+00 0.  1.
</event>
<event>
 7    1  0.5664398E-009  0.4614232E+02  0.7816164E-02  0.1320468E+00
        -11   -1    0    0    0    0  0.00000000000E+00  0.00000000000E+00  0.45593999997E+02  0.45594000000E+02  0.51100000000E-03 0. -1.
         11   -1    0    0    0    0 -0.00000000000E+00 -0.00000000000E+00 -0.45593999997E+02  0.45594000000E+02  0.51100000000E-03 0.  1.
    9900012    2    1    2    0    0  0.26580133708E+02  0.32175670451E+01 -0.36225090651E+02  0.46142318317E+02  0.10000005068E+02 0.  0.
         12    1    1    2    0    0 -0.26580133708E+02 -0.32175670451E+01  0.36225090651E+02  0.45045681683E+02  0.00000000000E+00 0. -1.
         11    1    3    3    0    0  0.82487091963E+01  0.29202564943E+01 -0.18116341164E+02  0.20118919425E+02  0.51100000000E-03 0. -1.
        -11    1    3    3    0    0  0.49075006579E+01  0.16957857643E+01 -0.51176070828E+01  0.72903466708E+01  0.51100000000E-03 0.  1.
         12    1    3    3    0    0  0.13423923854E+02 -0.13984752134E+01 -0.12991142404E+02  0.18733052221E+02  0.00000000000E+00 0. -1.
</event>
<event>
 7    1  0.5664398E-009  0.4614232E+02  0.7816164E-02  0.1320468E+00
        -11   -1    0    0    0    0  0.00000000000E+00  0.00000000000E+00  0.45593999997E+02  0.45594000000E+02  0.51100000000E-03 0.  1.
         11   -1    0    0    0    0 -0.00000000000E+00 -0.00000000000E+00 -0.45593999997E+02  0.45594000000E+02  0.51100000000E-03 0. -1.
    9900012    2    1    2    0    0  0.42918061742E+02  0.11445844974E+02 -0.74930718772E+01  0.46142317443E+02  0.99999970969E+01 0.  0.
         12    1    1    2    0    0 -0.42918061742E+02 -0.11445844974E+02  0.74930718772E+01  0.45045682557E+02  0.00000000000E+00 0. -1.
         11    1    3    3    0    0  0.15825671822E+02  0.50556326990E+01 -0.27068382809E+01  0.16832655297E+02  0.51100000000E-03 0. -1.
        -11    1    3    3    0    0  0.26008896467E+02  0.57905722496E+01 -0.25679865043E+01  0.26769160939E+02  0.51100000000E-03 0.  1.
         12    1    3    3    0    0  0.10834934536E+01  0.59964002552E+00 -0.22182470919E+01  0.25405012075E+01  0.00000000000E+00 0. -1.
</event>
<event>
 7    1  0.5664398E-009  0.4614232E+02  0.7816164E-02  0.1320468E+00
        -11   -1    0    0    0    0  0.00000000000E+00  0.00000000000E+00  0.45593999997E+02  0.45594000000E+02  0.51100000000E-03 0. -1.
         11   -1    0    0    0    0 -0.00000000000E+00 -0.00000000000E+00 -0.45593999997E+02  0.45594000000E+02  0.51100000000E-03 0.  1.
    9900012    2    1    2    0    0  0.20106010393E+02  0.22767144181E+02 -0.33264380510E+02  0.46142317423E+02  0.99999969174E+01 0.  0.
         12    1    1    2    0    0 -0.20106010393E+02 -0.22767144181E+02  0.33264380510E+02  0.45045682577E+02  0.00000000000E+00 0. -1.
         11    1    3    3    0    0  0.12539969953E+01  0.78803565121E+00 -0.90170807657E+00  0.17339510859E+01  0.51100000000E-03 0. -1.
        -11    1    3    3    0    0  0.11161461680E+02  0.77229638325E+01 -0.10303377940E+02  0.17040598417E+02  0.51100000000E-03 0.  1.
         12    1    3    3    0    0  0.76905517185E+01  0.14256144697E+02 -0.22059294494E+02  0.27367767920E+02  0.00000000000E+00 0. -1.
</event>
<event>
 7    1  0.5664398E-009  0.4614232E+02  0.7816164E-02  0.1320468E+00
        -11   -1    0    0    0    0  0.00000000000E+00  0.00000000000E+00  0.45593999997E+02  0.45594000000E+02  0.51100000000E-03 0. -1.
         11   -1    0    0    0    0 -0.00000000000E+00 -0.00000000000E+00 -0.45593999997E+02  0.45594000000E+02  0.51100000000E-03 0.  1.
    9900012    2    1    2    0    0 -0.68279984060E+01  0.39883075643E+01 -0.44346199188E+02  0.46142317167E+02  0.99999945856E+01 0.  0.
         12    1    1    2    0    0  0.68279984060E+01 -0.39883075643E+01  0.44346199188E+02  0.45045682833E+02  0.00000000000E+00 0. -1.
         11    1    3    3    0    0 -0.13461059586E+00  0.35401704057E+00 -0.83035394447E-01  0.38774117061E+00  0.51100000000E-03 0. -1.
        -11    1    3    3    0    0 -0.61366840433E+01  0.94187259302E+00 -0.13391201740E+02  0.14760430187E+02  0.51100000000E-03 0.  1.
        -12    1    3    3    0    0 -0.55670376690E+00  0.26924179307E+01 -0.30871962054E+02  0.30994145809E+02  0.00000000000E+00 0.  1.
</event>
<event>
 7    1  0.5664398E-009  0.4614232E+02  0.7816164E-02  0.1320468E+00
        -11   -1    0    0    0    0  0.00000000000E+00  0.00000000000E+00  0.45593999997E+02  0.45594000000E+02  0.51100000000E-03 0. -1.
         11   -1    0    0    0    0 -0.00000000000E+00 -0.00000000000E+00 -0.45593999997E+02  0.45594000000E+02  0.51100000000E-03 0.  1.
    9900012    2    1    2    0    0  0.13855419052E+02  0.22215865602E+02 -0.36655096857E+02  0.46142318218E+02  0.10000004170E+02 0.  0.
         12    1    1    2    0    0 -0.13855419052E+02 -0.22215865602E+02  0.36655096857E+02  0.45045681782E+02  0.00000000000E+00 0. -1.
         11    1    3    3    0    0  0.32346290120E+01  0.19051642615E+01 -0.91988165670E+01  0.99353259737E+01  0.51100000000E-03 0.  1.
        -11    1    3    3    0    0 -0.44782030646E+00  0.23289656196E+01 -0.17904238423E+01  0.29715722573E+01  0.51100000000E-03 0. -1.
         12    1    3    3    0    0  0.11068610347E+02  0.17981735721E+02 -0.25665856448E+02  0.33235419987E+02  0.00000000000E+00 0. -1.
</event>
<event>
 7    1  0.5664398E-009  0.4614232E+02  0.7816164E-02  0.1320468E+00
        -11   -1    0    0    0    0  0.00000000000E+00  0.00000000000E+00  0.45593999997E+02  0.45594000000E+02  0.51100000000E-03 0. -1.
         11   -1    0    0    0    0 -0.00000000000E+00 -0.00000000000E+00 -0.45593999997E+02  0.45594000000E+02  0.51100000000E-03 0.  1.
    9900012    2    1    2    0    0  0.28919493584E+02  0.17421422921E+02 -0.29820635923E+02  0.46142318602E+02  0.10000007669E+02 0.  0.
         12    1    1    2    0    0 -0.28919493584E+02 -0.17421422921E+02  0.29820635923E+02  0.45045681398E+02  0.00000000000E+00 0. -1.
         11    1    3    3    0    0  0.10432457764E+02  0.80602947505E+01 -0.74280836255E+01  0.15132116609E+02  0.51100000000E-03 0. -1.
        -11    1    3    3    0    0  0.84356719088E+01  0.13811811054E+01 -0.77360432061E+01  0.11528858857E+02  0.51100000000E-03 0.  1.
        -12    1    3    3    0    0  0.10051363912E+02  0.79799470651E+01 -0.14656509091E+02  0.19481343136E+02  0.00000000000E+00 0.  1.
</event>
<event>
 7    1  0.5664398E-009  0.4614232E+02  0.7816164E-02  0.1320468E+00
        -11   -1    0    0    0    0  0.00000000000E+00  0.00000000000E+00  0.45593999997E+02  0.45594000000E+02  0.51100000000E-03 0. -1.
         11   -1    0    0    0    0 -0.00000000000E+00 -0.00000000000E+00 -0.45593999997E+02  0.45594000000E+02  0.51100000000E-03 0.  1.
    9900012    2    1    2    0    0  0.35695665276E+02 -0.66702820000E+01 -0.26654077911E+02  0.46142322619E+02  0.10000044294E+02 0.  0.
         12    1    1    2    0    0 -0.35695665276E+02  0.66702820000E+01  0.26654077911E+02  0.45045677381E+02  0.00000000000E+00 0. -1.
         11    1    3    3    0    0  0.34097088996E+02 -0.58060507701E+01 -0.21834454798E+02  0.40903118709E+02  0.51100000000E-03 0. -1.
        -11    1    3    3    0    0  0.10628017712E+01 -0.46405036589E+00 -0.17626044289E+01  0.21098969124E+01  0.51100000000E-03 0.  1.
         12    1    3    3    0    0  0.53577450914E+00 -0.40018086399E+00 -0.30570186837E+01  0.31293069969E+01  0.00000000000E+00 0. -1.
</event>
<event>
 7    1  0.5664398E-009  0.4614232E+02  0.7816164E-02  0.1320468E+00
        -11   -1    0    0    0    0  0.00000000000E+00  0.00000000000E+00  0.45593999997E+02  0.45594000000E+02  0.51100000000E-03 0. -1.
         11   -1    0    0    0    0 -0.00000000000E+00 -0.00000000000E+00 -0.45593999997E+02  0.45594000000E+02  0.51100000000E-03 0.  1.
    9900012    2    1    2    0    0 -0.31953591106E+02  0.83337867159E+01 -0.30637059766E+02  0.46142318557E+02  0.10000007257E+02 0.  0.
         12    1    1    2    0    0  0.31953591106E+02 -0.83337867159E+01  0.30637059766E+02  0.45045681443E+02  0.00000000000E+00 0. -1.
         11    1    3    3    0    0 -0.67492434600E+01  0.47600441291E+01 -0.94021974746E+01  0.12514456640E+02  0.51100000000E-03 0. -1.
        -11    1    3    3    0    0 -0.14603775926E+02  0.39432938475E+00 -0.14940431174E+02  0.20895986478E+02  0.51100000000E-03 0.  1.
         12    1    3    3    0    0 -0.10600571720E+02  0.31794132021E+01 -0.62944311173E+01  0.12731875439E+02  0.00000000000E+00 0. -1.
</event>
<event>
 7    1  0.5664398E-009  0.4614232E+02  0.7816164E-02  0.1320468E+00
        -11   -1    0    0    0    0  0.00000000000E+00  0.00000000000E+00  0.45593999997E+02  0.45594000000E+02  0.51100000000E-03 0. -1.
         11   -1    0    0    0    0 -0.00000000000E+00 -0.00000000000E+00 -0.45593999997E+02  0.45594000000E+02  0.51100000000E-03 0.  1.
    9900012    2    1    2    0    0  0.17503194725E+01 -0.31768568864E+02  0.31887424967E+02  0.46142318109E+02  0.10000003175E+02 0.  0.
        -12    1    1    2    0    0 -0.17503194725E+01  0.31768568864E+02 -0.31887424967E+02  0.45045681891E+02  0.00000000000E+00 0.  1.
         11    1    3    3    0    0  0.19519594802E+01 -0.24477506065E+02  0.26873399350E+02  0.36402445548E+02  0.51100000000E-03 0. -1.
        -11    1    3    3    0    0  0.14119437620E+01 -0.62661451001E+01  0.36110978310E+01  0.73687303797E+01  0.51100000000E-03 0.  1.
         12    1    3    3    0    0 -0.16135837697E+01 -0.10249176987E+01  0.14029277865E+01  0.23711421816E+01  0.00000000000E+00 0. -1.
</event>
<event>
 7    1  0.5664398E-009  0.4614232E+02  0.7816164E-02  0.1320468E+00
        -11   -1    0    0    0    0  0.00000000000E+00  0.00000000000E+00  0.45593999997E+02  0.45594000000E+02  0.51100000000E-03 0. -1.
         11   -1    0    0    0    0 -0.00000000000E+00 -0.00000000000E+00 -0.45593999997E+02  0.45594000000E+02  0.51100000000E-03 0.  1.
    9900012    2    1    2    0    0 -0.42662650764E+00 -0.12947387751E+02  0.43142747588E+02  0.46142317308E+02  0.99999958653E+01 0.  0.
        -12    1    1    2    0    0  0.42662650764E+00  0.12947387751E+02 -0.43142747588E+02  0.45045682692E+02  0.00000000000E+00 0.  1.
         11    1    3    3    0    0 -0.97684282484E+00 -0.87042428564E+01  0.34433444049E+02  0.35529989234E+02  0.51100000000E-03 0. -1.
        -11    1    3    3    0    0 -0.15321830412E+01 -0.29689532393E+00  0.17435075010E+01  0.23399893958E+01  0.51100000000E-03 0.  1.
         12    1    3    3    0    0  0.20823993584E+01 -0.39462495703E+01  0.69657960385E+01  0.82723386783E+01  0.00000000000E+00 0. -1.
</event>
<event>
 7    1  0.5664398E-009  0.4614232E+02  0.7816164E-02  0.1320468E+00
        -11   -1    0    0    0    0  0.00000000000E+00  0.00000000000E+00  0.45593999997E+02  0.45594000000E+02  0.51100000000E-03 0. -1.
         11   -1    0    0    0    0 -0.00000000000E+00 -0.00000000000E+00 -0.45593999997E+02  0.45594000000E+02  0.51100000000E-03 0.  1.
    9900012    2    1    2    0    0 -0.43708262938E+02  0.76994021169E+00 -0.10867770427E+02  0.46142317732E+02  0.99999997308E+01 0.  0.
         12    1    1    2    0    0  0.43708262938E+02 -0.76994021169E+00  0.10867770427E+02  0.45045682268E+02  0.00000000000E+00 0. -1.
         11    1    3    3    0    0 -0.23106336990E+02  0.25369468119E+01 -0.10361681036E+02  0.25450016549E+02  0.51100000000E-03 0. -1.
        -11    1    3    3    0    0 -0.11480807376E+02 -0.10017116731E+01 -0.57697550470E+00  0.11538858924E+02  0.51100000000E-03 0.  1.
         12    1    3    3    0    0 -0.91211185718E+01 -0.76529492715E+00  0.70886113152E-01  0.91534422579E+01  0.00000000000E+00 0. -1.
</event>
<event>
 7    1  0.5664398E-009  0.4614232E+02  0.7816164E-02  0.1320468E+00
        -11   -1    0    0    0    0  0.00000000000E+00  0.00000000000E+00  0.45593999997E+02  0.45594000000E+02  0.51100000000E-03 0. -1.
         11   -1    0    0    0    0 -0.00000000000E+00 -0.00000000000E+00 -0.45593999997E+02  0.45594000000E+02  0.51100000000E-03 0.  1.
    9900012    2    1    2    0    0  0.19041816037E+02 -0.74477457108E+00 -0.40816270398E+02  0.46142319004E+02  0.10000011338E+02 0.  0.
         12    1    1    2    0    0 -0.19041816037E+02  0.74477457108E+00  0.40816270398E+02  0.45045680996E+02  0.00000000000E+00 0. -1.
         11    1    3    3    0    0  0.81917923682E+01 -0.61583418363E+00 -0.13062060897E+02  0.15430558936E+02  0.51100000000E-03 0. -1.
        -11    1    3    3    0    0  0.74667882401E+01  0.28522083214E+01 -0.12783366099E+02  0.15076553586E+02  0.51100000000E-03 0.  1.
        -12    1    3    3    0    0  0.33832354283E+01 -0.29811487088E+01 -0.14970843402E+02  0.15635206483E+02  0.00000000000E+00 0.  1.
</event>
<event>
 7    1  0.5664398E-009  0.4614232E+02  0.7816164E-02  0.1320468E+00
        -11   -1    0    0    0    0  0.00000000000E+00  0.00000000000E+00  0.45593999997E+02  0.45594000000E+02  0.51100000000E-03 0.  1.
         11   -1    0    0    0    0 -0.00000000000E+00 -0.00000000000E+00 -0.45593999997E+02  0.45594000000E+02  0.51100000000E-03 0. -1.
    9900012    2    1    2    0    0  0.62617319996E+01  0.44538257557E+02 -0.24995625267E+01  0.46142317780E+02  0.10000000171E+02 0.  0.
        -12    1    1    2    0    0 -0.62617319996E+01 -0.44538257557E+02  0.24995625267E+01  0.45045682220E+02  0.00000000000E+00 0.  1.
         11    1    3    3    0    0  0.11393224370E+00  0.16339378994E+00  0.77926224122E-01  0.21389446995E+00  0.51100000000E-03 0. -1.
        -11    1    3    3    0    0  0.47571723047E+01  0.29672248355E+02  0.28691272488E+01  0.30187827053E+02  0.51100000000E-03 0.  1.
         12    1    3    3    0    0  0.13906274511E+01  0.14702615412E+02 -0.54466159996E+01  0.15740596257E+02  0.00000000000E+00 0. -1.
</event>
<event>
 7    1  0.5664398E-009  0.4614232E+02  0.7816164E-02  0.1320468E+00
        -11   -1    0    0    0    0  0.00000000000E+00  0.00000000000E+00  0.45593999997E+02  0.45594000000E+02  0.51100000000E-03 0. -1.
         11   -1    0    0    0    0 -0.00000000000E+00 -0.00000000000E+00 -0.45593999997E+02  0.45594000000E+02  0.51100000000E-03 0.  1.
    9900012    2    1    2    0    0 -0.79071116835E+01  0.17386670165E+02 -0.40795769168E+02  0.46142317669E+02  0.99999991641E+01 0.  0.
         12    1    1    2    0    0  0.79071116835E+01 -0.17386670165E+02  0.40795769168E+02  0.45045682331E+02  0.00000000000E+00 0. -1.
         11    1    3    3    0    0 -0.30720210615E+00  0.11158216037E+01 -0.94060952712E+00  0.14913676706E+01  0.51100000000E-03 0. -1.
        -11    1    3    3    0    0 -0.90572220366E+01  0.15244600391E+02 -0.31886070925E+02  0.36484964456E+02  0.51100000000E-03 0.  1.
        -12    1    3    3    0    0  0.14573124593E+01  0.10262481703E+01 -0.79690887166E+01  0.81659855427E+01  0.00000000000E+00 0.  1.
</event>
<event>
 7    1  0.5664398E-009  0.4614232E+02  0.7816164E-02  0.1320468E+00
        -11   -1    0    0    0    0  0.00000000000E+00  0.00000000000E+00  0.45593999997E+02  0.45594000000E+02  0.51100000000E-03 0. -1.
         11   -1    0    0    0    0 -0.00000000000E+00 -0.00000000000E+00 -0.45593999997E+02  0.45594000000E+02  0.51100000000E-03 0.  1.
    9900012    2    1    2    0    0 -0.24307150629E+02  0.14488676308E+02 -0.35047881398E+02  0.46142319815E+02  0.10000018730E+02 0.  0.
         12    1    1    2    0    0  0.24307150629E+02 -0.14488676308E+02  0.35047881398E+02  0.45045680185E+02  0.00000000000E+00 0. -1.
         11    1    3    3    0    0 -0.12308966028E+02  0.44888219322E+01 -0.10431156732E+02  0.16747214636E+02  0.51100000000E-03 0. -1.
        -11    1    3    3    0    0 -0.61694540206E+01  0.51751991095E+01 -0.92327217079E+01  0.12251040737E+02  0.51100000000E-03 0.  1.
         12    1    3    3    0    0 -0.58287305798E+01  0.48246552660E+01 -0.15384002958E+02  0.17144064443E+02  0.00000000000E+00 0. -1.
</event>
<event>
 7    1  0.5664398E-009  0.4614231E+02  0.7816164E-02  0.1320468E+00
        -11   -1    0    0    0    0  0.00000000000E+00  0.00000000000E+00  0.45593999997E+02  0.45594000000E+02  0.51100000000E-03 0. -1.
         11   -1    0    0    0    0 -0.00000000000E+00 -0.00000000000E+00 -0.45593999997E+02  0.45594000000E+02  0.51100000000E-03 0.  1.
    9900012    2    1    2    0    0  0.20605856658E+02 -0.38295701608E+02 -0.11745281914E+02  0.46142314996E+02  0.99999747864E+01 0.  0.
         12    1    1    2    0    0 -0.20605856658E+02  0.38295701608E+02  0.11745281914E+02  0.45045685004E+02  0.00000000000E+00 0. -1.
         11    1    3    3    0    0  0.33141348011E+01 -0.13484769055E+02 -0.30888904504E+01  0.14225460640E+02  0.51100000000E-03 0. -1.
        -11    1    3    3    0    0  0.36932669374E+01 -0.72190351236E+01 -0.45747796409E+01  0.93103865554E+01  0.51100000000E-03 0.  1.
        -12    1    3    3    0    0  0.13598454920E+02 -0.17591897429E+02 -0.40816118228E+01  0.22606467801E+02  0.00000000000E+00 0.  1.
</event>
<event>
 7    1  0.5664398E-009  0.4614232E+02  0.7816164E-02  0.1320468E+00
        -11   -1    0    0    0    0  0.00000000000E+00  0.00000000000E+00  0.45593999997E+02  0.45594000000E+02  0.51100000000E-03 0. -1.
         11   -1    0    0    0    0 -0.00000000000E+00 -0.00000000000E+00 -0.45593999997E+02  0.45594000000E+02  0.51100000000E-03 0.  1.
    9900012    2    1    2    0    0 -0.22800067085E+01 -0.31218647156E+02 -0.32393073231E+02  0.46142317030E+02  0.99999933329E+01 0.  0.
         12    1    1    2    0    0  0.22800067085E+01  0.31218647156E+02  0.32393073231E+02  0.45045682970E+02  0.00000000000E+00 0. -1.
         11    1    3    3    0    0 -0.10471779446E+01 -0.11589037155E+02 -0.10770459131E+02  0.15855760908E+02  0.51100000000E-03 0. -1.
        -11    1    3    3    0    0  0.66875026743E+00  0.50699004503E+00 -0.28568076958E+00  0.88649849925E+00  0.51100000000E-03 0.  1.
        -12    1    3    3    0    0 -0.19015790313E+01 -0.20136600047E+02 -0.21336933331E+02  0.29400057623E+02  0.00000000000E+00 0.  1.
</event>
<event>
 7    1  0.5664398E-009  0.4614232E+02  0.7816164E-02  0.1320468E+00
        -11   -1    0    0    0    0  0.00000000000E+00  0.00000000000E+00  0.45593999997E+02  0.45594000000E+02  0.51100000000E-03 0. -1.
         11   -1    0    0    0    0 -0.00000000000E+00 -0.00000000000E+00 -0.45593999997E+02  0.45594000000E+02  0.51100000000E-03 0.  1.
    9900012    2    1    2    0    0 -0.21736895106E+01  0.41536434011E+01  0.44801069588E+02  0.46142317457E+02  0.99999972246E+01 0.  0.
        -12    1    1    2    0    0  0.21736895106E+01 -0.41536434011E+01 -0.44801069588E+02  0.45045682543E+02  0.00000000000E+00 0.  1.
         11    1    3    3    0    0 -0.25560885513E+01 -0.23048789163E+00  0.26340810034E+02  0.26465543389E+02  0.51100000000E-03 0. -1.
        -11    1    3    3    0    0  0.13147162467E+01  0.32334258014E+01  0.17643573264E+02  0.17985527488E+02  0.51100000000E-03 0.  1.
         12    1    3    3    0    0 -0.93231720600E+00  0.11507054913E+01  0.81668628958E+00  0.16912465805E+01  0.00000000000E+00 0. -1.
</event>
<event>
 7    1  0.5664398E-009  0.4614232E+02  0.7816164E-02  0.1320468E+00
        -11   -1    0    0    0    0  0.00000000000E+00  0.00000000000E+00  0.45593999997E+02  0.45594000000E+02  0.51100000000E-03 0. -1.
         11   -1    0    0    0    0 -0.00000000000E+00 -0.00000000000E+00 -0.45593999997E+02  0.45594000000E+02  0.51100000000E-03 0.  1.
    9900012    2    1    2    0    0  0.15424012510E+02 -0.39287716263E+01 -0.42139981938E+02  0.46142317786E+02  0.10000000222E+02 0.  0.
         12    1    1    2    0    0 -0.15424012510E+02  0.39287716263E+01  0.42139981938E+02  0.45045682214E+02  0.00000000000E+00 0. -1.
         11    1    3    3    0    0  0.55611322487E+01 -0.54945507826E+01 -0.21530854991E+02  0.22906199971E+02  0.51100000000E-03 0. -1.
        -11    1    3    3    0    0  0.38503765164E+00  0.11770205012E+01 -0.26793163263E+01  0.29516719822E+01  0.51100000000E-03 0.  1.
         12    1    3    3    0    0  0.94778426099E+01  0.38875865512E+00 -0.17929810621E+02  0.20284445833E+02  0.00000000000E+00 0. -1.
</event>
<event>
 7    1  0.5664398E-009  0.4614232E+02  0.7816164E-02  0.1320468E+00
        -11   -1    0    0    0    0  0.00000000000E+00  0.00000000000E+00  0.45593999997E+02  0.45594000000E+02  0.51100000000E-03 0. -1.
         11   -1    0    0    0    0 -0.00000000000E+00 -0.00000000000E+00 -0.45593999997E+02  0.45594000000E+02  0.51100000000E-03 0.  1.
    9900012    2    1    2    0    0 -0.33965783889E+02  0.23418961745E+02 -0.18082896411E+02  0.46142318887E+02  0.10000010262E+02 0.  0.
         12    1    1    2    0    0  0.33965783889E+02 -0.23418961745E+02  0.18082896411E+02  0.45045681113E+02  0.00000000000E+00 0. -1.
         11    1    3    3    0    0 -0.67810312849E+00  0.74891807862E+00  0.96500697003E+00  0.13971187690E+01  0.51100000000E-03 0. -1.
        -11    1    3    3    0    0 -0.10545572135E+02  0.85096956053E+01 -0.82230024069E+01  0.15850608183E+02  0.51100000000E-03 0.  1.
         12    1    3    3    0    0 -0.22742108626E+02  0.14160348061E+02 -0.10824900974E+02  0.28894591934E+02  0.00000000000E+00 0. -1.
</event>
<event>
 7    1  0.5664398E-009  0.4614231E+02  0.7816164E-02  0.1320468E+00
        -11   -1    0    0    0    0  0.00000000000E+00  0.00000000000E+00  0.45593999997E+02  0.45594000000E+02  0.51100000000E-03 0. -1.
         11   -1    0    0    0    0 -0.00000000000E+00 -0.00000000000E+00 -0.45593999997E+02  0.45594000000E+02  0.51100000000E-03 0.  1.
    9900012    2    1    2    0    0  0.25940405756E+02  0.12146846136E+02 -0.34765837210E+02  0.46142312539E+02  0.99999523844E+01 0.  0.
         12    1    1    2    0    0 -0.25940405756E+02 -0.12146846136E+02  0.34765837210E+02  0.45045687461E+02  0.00000000000E+00 0. -1.
         11    1    3    3    0    0  0.33860386244E+01 -0.51012721314E-01 -0.19237918976E+01  0.38947189103E+01  0.51100000000E-03 0. -1.
        -11    1    3    3    0    0  0.16252897768E+02  0.76460993981E+01 -0.17649507202E+02  0.25181831279E+02  0.51100000000E-03 0.  1.
        -12    1    3    3    0    0  0.63014693640E+01  0.45517594593E+01 -0.15192538111E+02  0.17065762350E+02  0.00000000000E+00 0.  1.
</event>
<event>
 7    1  0.5664398E-009  0.4614232E+02  0.7816164E-02  0.1320468E+00
        -11   -1    0    0    0    0  0.00000000000E+00  0.00000000000E+00  0.45593999997E+02  0.45594000000E+02  0.51100000000E-03 0. -1.
         11   -1    0    0    0    0 -0.00000000000E+00 -0.00000000000E+00 -0.45593999997E+02  0.45594000000E+02  0.51100000000E-03 0.  1.
    9900012    2    1    2    0    0  0.18789824422E+02 -0.44867952481E+01 -0.40693049928E+02  0.46142321563E+02  0.10000034665E+02 0.  0.
         12    1    1    2    0    0 -0.18789824422E+02  0.44867952481E+01  0.40693049928E+02  0.45045678437E+02  0.00000000000E+00 0. -1.
         11    1    3    3    0    0  0.41807897807E+01  0.14889739458E+01 -0.11032174324E+02  0.11891379952E+02  0.51100000000E-03 0. -1.
        -11    1    3    3    0    0  0.14741199270E+02 -0.56046894988E+01 -0.29889898921E+02  0.33795288992E+02  0.51100000000E-03 0.  1.
        -12    1    3    3    0    0 -0.13216462873E+00 -0.37107969505E+00  0.22902331617E+00  0.45565261825E+00  0.00000000000E+00 0.  1.
</event>
<event>
 7    1  0.5664398E-009  0.4614231E+02  0.7816164E-02  0.1320468E+00
        -11   -1    0    0    0    0  0.00000000000E+00  0.00000000000E+00  0.45593999997E+02  0.45594000000E+02  0.51100000000E-03 0. -1.
         11   -1    0    0    0    0 -0.00000000000E+00 -0.00000000000E+00 -0.45593999997E+02  0.45594000000E+02  0.51100000000E-03 0.  1.
    9900012    2    1    2    0    0 -0.17847260902E+02 -0.26605867778E+02 -0.31665709719E+02  0.46142311040E+02  0.99999387113E+01 0.  0.
         12    1    1    2    0    0  0.17847260902E+02  0.26605867778E+02  0.31665709719E+02  0.45045688960E+02  0.00000000000E+00 0. -1.
         11    1    3    3    0    0  0.43680702805E+00 -0.71597297292E+00 -0.18540329345E+00  0.85894838032E+00  0.51100000000E-03 0. -1.
        -11    1    3    3    0    0 -0.12992396472E+02 -0.19089353337E+02 -0.17972442968E+02  0.29261142893E+02  0.51100000000E-03 0.  1.
        -12    1    3    3    0    0 -0.52916714571E+01 -0.68005414679E+01 -0.13507863457E+02  0.16022219766E+02  0.00000000000E+00 0.  1.
</event>
<event>
 7    1  0.5664398E-009  0.4614231E+02  0.7816164E-02  0.1320468E+00
        -11   -1    0    0    0    0  0.00000000000E+00  0.00000000000E+00  0.45593999997E+02  0.45594000000E+02  0.51100000000E-03 0. -1.
         11   -1    0    0    0    0 -0.00000000000E+00 -0.00000000000E+00 -0.45593999997E+02  0.45594000000E+02  0.51100000000E-03 0.  1.
    9900012    2    1    2    0    0 -0.87594122734E+01 -0.13316587415E+02  0.42131407695E+02  0.46142308551E+02  0.99999160137E+01 0.  0.
        -12    1    1    2    0    0  0.87594122734E+01  0.13316587415E+02 -0.42131407695E+02  0.45045691449E+02  0.00000000000E+00 0.  1.
         11    1    3    3    0    0 -0.18653954112E+01 -0.51980378279E+00  0.24544571412E+01  0.31263806761E+01  0.51100000000E-03 0. -1.
        -11    1    3    3    0    0 -0.17604493727E+01 -0.17155216269E+01  0.17732425930E+02  0.17901986652E+02  0.51100000000E-03 0.  1.
         12    1    3    3    0    0 -0.51335674895E+01 -0.11081262005E+02  0.21944524624E+02  0.25113941223E+02  0.00000000000E+00 0. -1.
</event>
<event>
 7    1  0.5664398E-009  0.4614232E+02  0.7816164E-02  0.1320468E+00
        -11   -1    0    0    0    0  0.00000000000E+00  0.00000000000E+00  0.45593999997E+02  0.45594000000E+02  0.51100000000E-03 0. -1.
         11   -1    0    0    0    0 -0.00000000000E+00 -0.00000000000E+00 -0.45593999997E+02  0.45594000000E+02  0.51100000000E-03 0.  1.
    9900012    2    1    2    0    0 -0.84970437414E+01  0.30148589629E+02  0.32372461046E+02  0.46142318263E+02  0.10000004580E+02 0.  0.
        -12    1    1    2    0    0  0.84970437414E+01 -0.30148589629E+02 -0.32372461046E+02  0.45045681737E+02  0.00000000000E+00 0.  1.
         11    1    3    3    0    0  0.24043645656E+00  0.15697290919E+00 -0.13647163475E+00  0.31792287127E+00  0.51100000000E-03 0. -1.
        -11    1    3    3    0    0 -0.80151463442E+01  0.16292170013E+02  0.14808068940E+02  0.23429816061E+02  0.51100000000E-03 0.  1.
         12    1    3    3    0    0 -0.72233385371E+00  0.13699446707E+02  0.17700863740E+02  0.22394579331E+02  0.00000000000E+00 0. -1.
</event>
<event>
 7    1  0.5664398E-009  0.4614232E+02  0.7816164E-02  0.1320468E+00
        -11   -1    0    0    0    0  0.00000000000E+00  0.00000000000E+00  0.45593999997E+02  0.45594000000E+02  0.51100000000E-03 0. -1.
         11   -1    0    0    0    0 -0.00000000000E+00 -0.00000000000E+00 -0.45593999997E+02  0.45594000000E+02  0.51100000000E-03 0.  1.
    9900012    2    1    2    0    0  0.27026058058E+02 -0.22204485970E+01  0.35969089117E+02  0.46142316766E+02  0.99999909264E+01 0.  0.
        -12    1    1    2    0    0 -0.27026058058E+02  0.22204485970E+01 -0.35969089117E+02  0.45045683234E+02  0.00000000000E+00 0.  1.
         11    1    3    3    0    0  0.85412558171E+01 -0.30558897559E+01  0.97369961642E+01  0.13307915227E+02  0.51100000000E-03 0. -1.
        -11    1    3    3    0    0  0.10194934726E+02 -0.29370080893E+01  0.13204483777E+02  0.16938745605E+02  0.51100000000E-03 0.  1.
        -12    1    3    3    0    0  0.82898675149E+01  0.37724492482E+01  0.13027609175E+02  0.15895655934E+02  0.00000000000E+00 0.  1.
</event>
<event>
 7    1  0.5664398E-009  0.4614232E+02  0.7816164E-02  0.1320468E+00
        -11   -1    0    0    0    0  0.00000000000E+00  0.00000000000E+00  0.45593999997E+02  0.45594000000E+02  0.51100000000E-03 0. -1.
         11   -1    0    0    0    0 -0.00000000000E+00 -0.00000000000E+00 -0.45593999997E+02  0.45594000000E+02  0.51100000000E-03 0.  1.
    9900012    2    1    2    0    0  0.56347086667E+01 -0.40338554961E+02 -0.19239660861E+02  0.46142317541E+02  0.99999979965E+01 0.  0.
         12    1    1    2    0    0 -0.56347086667E+01  0.40338554961E+02  0.19239660861E+02  0.45045682459E+02  0.00000000000E+00 0. -1.
         11    1    3    3    0    0  0.17287565804E+01 -0.75388380403E+01 -0.60369196444E+01  0.98115787397E+01  0.51100000000E-03 0.  1.
        -11    1    3    3    0    0  0.30619430792E+01 -0.40271508905E+01 -0.21446842256E+01  0.54948257847E+01  0.51100000000E-03 0. -1.
         12    1    3    3    0    0  0.84400900709E+00 -0.28772566030E+02 -0.11058056991E+02  0.30835913017E+02  0.00000000000E+00 0. -1.
</event>
<event>
 7    1  0.5664398E-009  0.4614232E+02  0.7816164E-02  0.1320468E+00
        -11   -1    0    0    0    0  0.00000000000E+00  0.00000000000E+00  0.45593999997E+02  0.45594000000E+02  0.51100000000E-03 0. -1.
         11   -1    0    0    0    0 -0.00000000000E+00 -0.00000000000E+00 -0.45593999997E+02  0.45594000000E+02  0.51100000000E-03 0.  1.
    9900012    2    1    2    0    0 -0.17807734228E+02  0.68064807925E+01  0.40812619487E+02  0.46142317760E+02  0.99999999861E+01 0.  0.
        -12    1    1    2    0    0  0.17807734228E+02 -0.68064807925E+01 -0.40812619487E+02  0.45045682240E+02  0.00000000000E+00 0.  1.
         11    1    3    3    0    0 -0.53982391809E+00 -0.19473530268E+00  0.51069183991E+01  0.51390609548E+01  0.51100000000E-03 0.  1.
        -11    1    3    3    0    0 -0.11340553237E+02  0.18307108989E+01  0.26576829640E+02  0.28953195404E+02  0.51100000000E-03 0. -1.
        -12    1    3    3    0    0 -0.59273570730E+01  0.51705051963E+01  0.91288714476E+01  0.12050061401E+02  0.00000000000E+00 0.  1.
</event>
<event>
 7    1  0.5664398E-009  0.4614232E+02  0.7816164E-02  0.1320468E+00
        -11   -1    0    0    0    0  0.00000000000E+00  0.00000000000E+00  0.45593999997E+02  0.45594000000E+02  0.51100000000E-03 0. -1.
         11   -1    0    0    0    0 -0.00000000000E+00 -0.00000000000E+00 -0.45593999997E+02  0.45594000000E+02  0.51100000000E-03 0.  1.
    9900012    2    1    2    0    0 -0.31893668192E-01 -0.16956348174E+02 -0.41732415661E+02  0.46142320101E+02  0.10000021340E+02 0.  0.
         12    1    1    2    0    0  0.31893668192E-01  0.16956348174E+02  0.41732415661E+02  0.45045679899E+02  0.00000000000E+00 0. -1.
         11    1    3    3    0    0  0.64155668271E+00 -0.25504346592E+01 -0.11389743395E+02  0.11689421149E+02  0.51100000000E-03 0. -1.
        -11    1    3    3    0    0 -0.26249145570E+01 -0.42933793329E+01 -0.16158777324E+02  0.16924224278E+02  0.51100000000E-03 0.  1.
        -12    1    3    3    0    0  0.19514642061E+01 -0.10112534182E+02 -0.14183894942E+02  0.17528674675E+02  0.00000000000E+00 0.  1.
</event>
<event>
 7    1  0.5664398E-009  0.4614232E+02  0.7816164E-02  0.1320468E+00
        -11   -1    0    0    0    0  0.00000000000E+00  0.00000000000E+00  0.45593999997E+02  0.45594000000E+02  0.51100000000E-03 0. -1.
         11   -1    0    0    0    0 -0.00000000000E+00 -0.00000000000E+00 -0.45593999997E+02  0.45594000000E+02  0.51100000000E-03 0.  1.
    9900012    2    1    2    0    0 -0.59620776121E+01  0.26855310588E+01  0.44568542842E+02  0.46142318102E+02  0.10000003112E+02 0.  0.
        -12    1    1    2    0    0  0.59620776121E+01 -0.26855310588E+01 -0.44568542842E+02  0.45045681898E+02  0.00000000000E+00 0.  1.
         11    1    3    3    0    0 -0.77256314938E+00  0.17139251435E+01  0.20306630420E+02  0.20393470340E+02  0.51100000000E-03 0. -1.
        -11    1    3    3    0    0 -0.11659920207E+01 -0.19684113383E+01  0.15508778195E+02  0.15676618958E+02  0.51100000000E-03 0.  1.
        -12    1    3    3    0    0 -0.40235224420E+01  0.29400172536E+01  0.87531342272E+01  0.10072228805E+02  0.00000000000E+00 0.  1.
</event>
<event>
 7    1  0.5664398E-009  0.4614232E+02  0.7816164E-02  0.1320468E+00
        -11   -1    0    0    0    0  0.00000000000E+00  0.00000000000E+00  0.45593999997E+02  0.45594000000E+02  0.51100000000E-03 0. -1.
         11   -1    0    0    0    0 -0.00000000000E+00 -0.00000000000E+00 -0.45593999997E+02  0.45594000000E+02  0.51100000000E-03 0.  1.
    9900012    2    1    2    0    0 -0.86168863044E+01 -0.15749095936E+02 -0.41313783964E+02  0.46142317656E+02  0.99999990415E+01 0.  0.
         12    1    1    2    0    0  0.86168863044E+01  0.15749095936E+02  0.41313783964E+02  0.45045682344E+02  0.00000000000E+00 0. -1.
         11    1    3    3    0    0  0.75691704609E+00  0.61269634575E-01 -0.28470126198E-01  0.75992643853E+00  0.51100000000E-03 0. -1.
        -11    1    3    3    0    0 -0.33516761934E+01 -0.92868897269E+01 -0.19487086463E+02  0.21845516546E+02  0.51100000000E-03 0.  1.
         12    1    3    3    0    0 -0.60221271570E+01 -0.65234758439E+01 -0.21798227375E+02  0.23536874671E+02  0.00000000000E+00 0. -1.
</event>
<event>
 7    1  0.5664398E-009  0.4614232E+02  0.7816164E-02  0.1320468E+00
        -11   -1    0    0    0    0  0.00000000000E+00  0.00000000000E+00  0.45593999997E+02  0.45594000000E+02  0.51100000000E-03 0.  1.
         11   -1    0    0    0    0 -0.00000000000E+00 -0.00000000000E+00 -0.45593999997E+02  0.45594000000E+02  0.51100000000E-03 0. -1.
    9900012    2    1    2    0    0 -0.44438614011E+02 -0.48546212788E+01 -0.55457822403E+01  0.46142318036E+02  0.10000002504E+02 0.  0.
         12    1    1    2    0    0  0.44438614011E+02  0.48546212788E+01  0.55457822403E+01  0.45045681964E+02  0.00000000000E+00 0. -1.
         11    1    3    3    0    0 -0.49419263951E+00 -0.64452248984E+00 -0.11994928915E+01  0.14485920967E+01  0.51100000000E-03 0. -1.
        -11    1    3    3    0    0 -0.89983960526E+01 -0.18371763845E+01 -0.29243846470E+01  0.96383802795E+01  0.51100000000E-03 0.  1.
         12    1    3    3    0    0 -0.34946025319E+02 -0.23729224045E+01 -0.14219047018E+01  0.35055345659E+02  0.00000000000E+00 0. -1.
</event>
<event>
 7    1  0.5664398E-009  0.4614232E+02  0.7816164E-02  0.1320468E+00
        -11   -1    0    0    0    0  0.00000000000E+00  0.00000000000E+00  0.45593999997E+02  0.45594000000E+02  0.51100000000E-03 0. -1.
         11   -1    0    0    0    0 -0.00000000000E+00 -0.00000000000E+00 -0.45593999997E+02  0.45594000000E+02  0.51100000000E-03 0.  1.
    9900012    2    1    2    0    0  0.64862897603E+01 -0.43279168967E+01  0.44365647333E+02  0.46142317823E+02  0.10000000562E+02 0.  0.
        -12    1    1    2    0    0 -0.64862897603E+01  0.43279168967E+01 -0.44365647333E+02  0.45045682177E+02  0.00000000000E+00 0.  1.
         11    1    3    3    0    0 -0.10199462988E+01 -0.77208508266E+00  0.41756435949E+01  0.43671965287E+01  0.51100000000E-03 0. -1.
        -11    1    3    3    0    0  0.16722834780E+01  0.24161451915E+01  0.13214264132E+02  0.13537025760E+02  0.51100000000E-03 0.  1.
        -12    1    3    3    0    0  0.58339525811E+01 -0.59719770056E+01  0.26975739606E+02  0.28238095534E+02  0.00000000000E+00 0.  1.
</event>
<event>
 7    1  0.5664398E-009  0.4614232E+02  0.7816164E-02  0.1320468E+00
        -11   -1    0    0    0    0  0.00000000000E+00  0.00000000000E+00  0.45593999997E+02  0.45594000000E+02  0.51100000000E-03 0. -1.
         11   -1    0    0    0    0 -0.00000000000E+00 -0.00000000000E+00 -0.45593999997E+02  0.45594000000E+02  0.51100000000E-03 0.  1.
    9900012    2    1    2    0    0 -0.35673068136E+02 -0.59929237766E+01  0.26844563370E+02  0.46142317541E+02  0.99999979957E+01 0.  0.
        -12    1    1    2    0    0  0.35673068136E+02  0.59929237766E+01 -0.26844563370E+02  0.45045682459E+02  0.00000000000E+00 0.  1.
         11    1    3    3    0    0 -0.19941838581E+02 -0.15318191825E+01  0.10941855195E+02  0.22797973405E+02  0.51100000000E-03 0. -1.
        -11    1    3    3    0    0 -0.66463344674E+01 -0.43403132272E+01  0.84428529198E+01  0.11588522186E+02  0.51100000000E-03 0.  1.
        -12    1    3    3    0    0 -0.90848950882E+01 -0.12079136691E+00  0.74598552549E+01  0.11755821951E+02  0.00000000000E+00 0.  1.
</event>
<event>
 7    1  0.5664398E-009  0.4614232E+02  0.7816164E-02  0.1320468E+00
        -11   -1    0    0    0    0  0.00000000000E+00  0.00000000000E+00  0.45593999997E+02  0.45594000000E+02  0.51100000000E-03 0.  1.
         11   -1    0    0    0    0 -0.00000000000E+00 -0.00000000000E+00 -0.45593999997E+02  0.45594000000E+02  0.51100000000E-03 0. -1.
    9900012    2    1    2    0    0  0.40330001827E+02  0.15757891765E+01  0.20003031890E+02  0.46142318257E+02  0.10000004524E+02 0.  0.
        -12    1    1    2    0    0 -0.40330001827E+02 -0.15757891765E+01 -0.20003031890E+02  0.45045681743E+02  0.00000000000E+00 0.  1.
         11    1    3    3    0    0  0.27230228796E+02 -0.22501823977E+01  0.10409137260E+02  0.29238652839E+02  0.51100000000E-03 0. -1.
        -11    1    3    3    0    0  0.10151467796E+01  0.46476853445E+00  0.18549614981E+01  0.21650439246E+01  0.51100000000E-03 0.  1.
         12    1    3    3    0    0  0.12084626252E+02  0.33612030397E+01  0.77389331313E+01  0.14738621494E+02  0.00000000000E+00 0. -1.
</event>
<event>
 7    1  0.5664398E-009  0.4614232E+02  0.7816164E-02  0.1320468E+00
        -11   -1    0    0    0    0  0.00000000000E+00  0.00000000000E+00  0.45593999997E+02  0.45594000000E+02  0.51100000000E-03 0. -1.
         11   -1    0    0    0    0 -0.00000000000E+00 -0.00000000000E+00 -0.45593999997E+02  0.45594000000E+02  0.51100000000E-03 0.  1.
    9900012    2    1    2    0    0 -0.20329724112E+02 -0.29401843523E+01 -0.40089539563E+02  0.46142317089E+02  0.99999938742E+01 0.  0.
         12    1    1    2    0    0  0.20329724112E+02  0.29401843523E+01  0.40089539563E+02  0.45045682911E+02  0.00000000000E+00 0. -1.
         11    1    3    3    0    0 -0.52629479255E+01  0.32841339241E+00 -0.58868796059E+01  0.79032795710E+01  0.51100000000E-03 0. -1.
        -11    1    3    3    0    0 -0.76528971397E+01  0.70001738077E+00 -0.99651038900E+01  0.12584123123E+02  0.51100000000E-03 0.  1.
        -12    1    3    3    0    0 -0.74138790469E+01 -0.39686151255E+01 -0.24237556067E+02  0.25654914396E+02  0.00000000000E+00 0.  1.
</event>
<event>
 7    1  0.5664398E-009  0.4614232E+02  0.7816164E-02  0.1320468E+00
        -11   -1    0    0    0    0  0.00000000000E+00  0.00000000000E+00  0.45593999997E+02  0.45594000000E+02  0.51100000000E-03 0. -1.
         11   -1    0    0    0    0 -0.00000000000E+00 -0.00000000000E+00 -0.45593999997E+02  0.45594000000E+02  0.51100000000E-03 0.  1.
    9900012    2    1    2    0    0  0.26795205354E+01  0.31636557764E+02  0.31954057716E+02  0.46142318498E+02  0.10000006722E+02 0.  0.
        -12    1    1    2    0    0 -0.26795205354E+01 -0.31636557764E+02 -0.31954057716E+02  0.45045681502E+02  0.00000000000E+00 0.  1.
         11    1    3    3    0    0  0.27849867479E+01  0.58933937108E+01  0.65862201605E+01  0.92664198524E+01  0.51100000000E-03 0. -1.
        -11    1    3    3    0    0  0.33412885771E+01  0.88193673023E+01  0.10171890243E+02  0.13871294112E+02  0.51100000000E-03 0.  1.
        -12    1    3    3    0    0 -0.34467547896E+01  0.16923796750E+02  0.15195947313E+02  0.23004604534E+02  0.00000000000E+00 0.  1.
</event>
<event>
 7    1  0.5664398E-009  0.4614232E+02  0.7816164E-02  0.1320468E+00
        -11   -1    0    0    0    0  0.00000000000E+00  0.00000000000E+00  0.45593999997E+02  0.45594000000E+02  0.51100000000E-03 0. -1.
         11   -1    0    0    0    0 -0.00000000000E+00 -0.00000000000E+00 -0.45593999997E+02  0.45594000000E+02  0.51100000000E-03 0.  1.
    9900012    2    1    2    0    0  0.11926519227E+01 -0.10820712723E+02 -0.43710447154E+02  0.46142318378E+02  0.10000005623E+02 0.  0.
         12    1    1    2    0    0 -0.11926519227E+01  0.10820712723E+02  0.43710447154E+02  0.45045681622E+02  0.00000000000E+00 0. -1.
         11    1    3    3    0    0  0.97940293309E+00 -0.18725584861E+01 -0.94035780317E+00  0.23130020424E+01  0.51100000000E-03 0. -1.
        -11    1    3    3    0    0 -0.49785847802E+00 -0.24902474733E+01 -0.64355149664E+01  0.69184571030E+01  0.51100000000E-03 0.  1.
         12    1    3    3    0    0  0.71110746767E+00 -0.64579067635E+01 -0.36334574384E+02  0.36910859232E+02  0.00000000000E+00 0. -1.
</event>
<event>
 7    1  0.5664398E-009  0.4614232E+02  0.7816164E-02  0.1320468E+00
        -11   -1    0    0    0    0  0.00000000000E+00  0.00000000000E+00  0.45593999997E+02  0.45594000000E+02  0.51100000000E-03 0.  1.
         11   -1    0    0    0    0 -0.00000000000E+00 -0.00000000000E+00 -0.45593999997E+02  0.45594000000E+02  0.51100000000E-03 0. -1.
    9900012    2    1    2    0    0 -0.16347910061E+02  0.23406916093E+02 -0.34842153220E+02  0.46142317350E+02  0.99999962511E+01 0.  0.
         12    1    1    2    0    0  0.16347910061E+02 -0.23406916093E+02  0.34842153220E+02  0.45045682650E+02  0.00000000000E+00 0. -1.
         11    1    3    3    0    0 -0.29756419191E+01  0.11870922170E+01 -0.82403307280E+01  0.88411924269E+01  0.51100000000E-03 0. -1.
        -11    1    3    3    0    0 -0.11138497883E+02  0.16776533393E+02 -0.18978964549E+02  0.27671633551E+02  0.51100000000E-03 0.  1.
        -12    1    3    3    0    0 -0.22337702592E+01  0.54432904835E+01 -0.76228579434E+01  0.96294913720E+01  0.00000000000E+00 0.  1.
</event>
<event>
 7    1  0.5664398E-009  0.4614232E+02  0.7816164E-02  0.1320468E+00
        -11   -1    0    0    0    0  0.00000000000E+00  0.00000000000E+00  0.45593999997E+02  0.45594000000E+02  0.51100000000E-03 0. -1.
         11   -1    0    0    0    0 -0.00000000000E+00 -0.00000000000E+00 -0.45593999997E+02  0.45594000000E+02  0.51100000000E-03 0.  1.
    9900012    2    1    2    0    0 -0.22292450622E+02 -0.28810266094E+02 -0.26497712672E+02  0.46142316922E+02  0.99999923451E+01 0.  0.
         12    1    1    2    0    0  0.22292450622E+02  0.28810266094E+02  0.26497712672E+02  0.45045683078E+02  0.00000000000E+00 0. -1.
         11    1    3    3    0    0 -0.94285968778E+01 -0.13122282867E+02 -0.13288034815E+02  0.20920435373E+02  0.51100000000E-03 0.  1.
        -11    1    3    3    0    0 -0.78876925540E+01 -0.98139370351E+01 -0.39840836128E+01  0.13206134046E+02  0.51100000000E-03 0. -1.
         12    1    3    3    0    0 -0.49761611900E+01 -0.58740461920E+01 -0.92255942450E+01  0.12015747502E+02  0.00000000000E+00 0. -1.
</event>
<event>
 7    1  0.5664398E-009  0.4614232E+02  0.7816164E-02  0.1320468E+00
        -11   -1    0    0    0    0  0.00000000000E+00  0.00000000000E+00  0.45593999997E+02  0.45594000000E+02  0.51100000000E-03 0. -1.
         11   -1    0    0    0    0 -0.00000000000E+00 -0.00000000000E+00 -0.45593999997E+02  0.45594000000E+02  0.51100000000E-03 0.  1.
    9900012    2    1    2    0    0 -0.18079503920E+02  0.23283948548E+02 -0.34060281055E+02  0.46142317993E+02  0.10000002112E+02 0.  0.
         12    1    1    2    0    0  0.18079503920E+02 -0.23283948548E+02  0.34060281055E+02  0.45045682007E+02  0.00000000000E+00 0. -1.
         11    1    3    3    0    0 -0.68280942493E+01  0.66977585608E+01 -0.11714585590E+02  0.15123305082E+02  0.51100000000E-03 0. -1.
        -11    1    3    3    0    0 -0.25410256352E+01  0.62177647681E+01 -0.12786253367E+02  0.14443188201E+02  0.51100000000E-03 0.  1.
        -12    1    3    3    0    0 -0.87103840355E+01  0.10368425219E+02 -0.95594420987E+01  0.16575824709E+02  0.00000000000E+00 0.  1.
</event>
<event>
 7    1  0.5664398E-009  0.4614232E+02  0.7816164E-02  0.1320468E+00
        -11   -1    0    0    0    0  0.00000000000E+00  0.00000000000E+00  0.45593999997E+02  0.45594000000E+02  0.51100000000E-03 0. -1.
         11   -1    0    0    0    0 -0.00000000000E+00 -0.00000000000E+00 -0.45593999997E+02  0.45594000000E+02  0.51100000000E-03 0.  1.
    9900012    2    1    2    0    0  0.53084015662E+01  0.18852433478E+02  0.40565010973E+02  0.46142317738E+02  0.99999997866E+01 0.  0.
        -12    1    1    2    0    0 -0.53084015662E+01 -0.18852433478E+02 -0.40565010973E+02  0.45045682262E+02  0.00000000000E+00 0.  1.
         11    1    3    3    0    0  0.13191419889E+01 -0.10099629730E-01  0.32116491841E+00  0.13577130608E+01  0.51100000000E-03 0. -1.
        -11    1    3    3    0    0 -0.39351258658E+00  0.68567594614E+01  0.14217209039E+02  0.15789206300E+02  0.51100000000E-03 0.  1.
         12    1    3    3    0    0  0.43827721639E+01  0.12005773646E+02  0.26026637016E+02  0.28995398377E+02  0.00000000000E+00 0. -1.
</event>
<event>
 7    1  0.5664398E-009  0.4614232E+02  0.7816164E-02  0.1320468E+00
        -11   -1    0    0    0    0  0.00000000000E+00  0.00000000000E+00  0.45593999997E+02  0.45594000000E+02  0.51100000000E-03 0. -1.
         11   -1    0    0    0    0 -0.00000000000E+00 -0.00000000000E+00 -0.45593999997E+02  0.45594000000E+02  0.51100000000E-03 0.  1.
    9900012    2    1    2    0    0  0.12045502483E+02  0.90403099078E+01  0.42453411547E+02  0.46142317795E+02  0.10000000308E+02 0.  0.
        -12    1    1    2    0    0 -0.12045502483E+02 -0.90403099078E+01 -0.42453411547E+02  0.45045682205E+02  0.00000000000E+00 0.  1.
         11    1    3    3    0    0  0.69147213159E+01  0.89384048784E+01  0.20688867857E+02  0.23574089719E+02  0.51100000000E-03 0. -1.
        -11    1    3    3    0    0  0.48050885374E+00  0.16198500050E+00  0.26639395090E+00  0.57279481240E+00  0.51100000000E-03 0.  1.
         12    1    3    3    0    0  0.46502723136E+01 -0.60079971115E-01  0.21498149740E+02  0.21995433263E+02  0.00000000000E+00 0. -1.
</event>
<event>
 7    1  0.5664398E-009  0.4614232E+02  0.7816164E-02  0.1320468E+00
        -11   -1    0    0    0    0  0.00000000000E+00  0.00000000000E+00  0.45593999997E+02  0.45594000000E+02  0.51100000000E-03 0. -1.
         11   -1    0    0    0    0 -0.00000000000E+00 -0.00000000000E+00 -0.45593999997E+02  0.45594000000E+02  0.51100000000E-03 0.  1.
    9900012    2    1    2    0    0  0.17207360464E+02 -0.32103421535E+02  0.26502651149E+02  0.46142318228E+02  0.10000004262E+02 0.  0.
        -12    1    1    2    0    0 -0.17207360464E+02  0.32103421535E+02 -0.26502651149E+02  0.45045681772E+02  0.00000000000E+00 0.  1.
         11    1    3    3    0    0  0.64120479200E+00 -0.58417146147E+00 -0.33858380696E+00  0.93114936350E+00  0.51100000000E-03 0. -1.
        -11    1    3    3    0    0  0.39549507693E+01 -0.24939449990E+01  0.43512161073E+01  0.63870555907E+01  0.51100000000E-03 0.  1.
         12    1    3    3    0    0  0.12611204902E+02 -0.29025305074E+02  0.22490018848E+02  0.38824113274E+02  0.00000000000E+00 0. -1.
</event>
<event>
 7    1  0.5664398E-009  0.4614232E+02  0.7816164E-02  0.1320468E+00
        -11   -1    0    0    0    0  0.00000000000E+00  0.00000000000E+00  0.45593999997E+02  0.45594000000E+02  0.51100000000E-03 0. -1.
         11   -1    0    0    0    0 -0.00000000000E+00 -0.00000000000E+00 -0.45593999997E+02  0.45594000000E+02  0.51100000000E-03 0.  1.
    9900012    2    1    2    0    0 -0.97102203997E+01 -0.43244813518E+02  0.80443299497E+01  0.46142317402E+02  0.99999967215E+01 0.  0.
        -12    1    1    2    0    0  0.97102203997E+01  0.43244813518E+02 -0.80443299497E+01  0.45045682598E+02  0.00000000000E+00 0.  1.
         11    1    3    3    0    0 -0.39868654517E+00 -0.12267506887E+02  0.10239279921E+01  0.12316619056E+02  0.51100000000E-03 0. -1.
        -11    1    3    3    0    0 -0.30748608165E+01 -0.25824703437E+01  0.73071183315E+00  0.40814044349E+01  0.51100000000E-03 0.  1.
        -12    1    3    3    0    0 -0.62366730380E+01 -0.28394836287E+02  0.62896901245E+01  0.29744293910E+02  0.00000000000E+00 0.  1.
</event>
<event>
 7    1  0.5664398E-009  0.4614232E+02  0.7816164E-02  0.1320468E+00
        -11   -1    0    0    0    0  0.00000000000E+00  0.00000000000E+00  0.45593999997E+02  0.45594000000E+02  0.51100000000E-03 0.  1.
         11   -1    0    0    0    0 -0.00000000000E+00 -0.00000000000E+00 -0.45593999997E+02  0.45594000000E+02  0.51100000000E-03 0. -1.
    9900012    2    1    2    0    0  0.43644700427E+02  0.10398621405E+02  0.40152349405E+01  0.46142319695E+02  0.10000017633E+02 0.  0.
        -12    1    1    2    0    0 -0.43644700427E+02 -0.10398621405E+02 -0.40152349405E+01  0.45045680305E+02  0.00000000000E+00 0.  1.
         11    1    3    3    0    0  0.39336690577E+01  0.10648088084E+00 -0.32401269902E+00  0.39484268923E+01  0.51100000000E-03 0. -1.
        -11    1    3    3    0    0  0.45702556464E+01  0.26938842527E+01 -0.20318472039E+01  0.56809024249E+01  0.51100000000E-03 0.  1.
        -12    1    3    3    0    0  0.35140775723E+02  0.75982562719E+01  0.63710948433E+01  0.36512990378E+02  0.00000000000E+00 0.  1.
</event>
<event>
 7    1  0.6564263E-009  0.4614232E+02  0.7816164E-02  0.1320468E+00
        -11   -1    0    0    0    0  0.00000000000E+00  0.00000000000E+00  0.45593999997E+02  0.45594000000E+02  0.51100000000E-03 0. -1.
         11   -1    0    0    0    0 -0.00000000000E+00 -0.00000000000E+00 -0.45593999997E+02  0.45594000000E+02  0.51100000000E-03 0.  1.
    9900012    2    1    2    0    0 -0.35716153087E+01 -0.14805595743E+02  0.42392823640E+02  0.46142316551E+02  0.99999889664E+01 0.  0.
        -12    1    1    2    0    0  0.35716153087E+01  0.14805595743E+02 -0.42392823640E+02  0.45045683449E+02  0.00000000000E+00 0.  1.
         11    1    3    3    0    0 -0.75267241471E+00 -0.30453402185E-01  0.16146023433E+01  0.17816801513E+01  0.51100000000E-03 0. -1.
        -11    1    3    3    0    0  0.39529528630E+00  0.10951486955E+01  0.42039453658E+01  0.43621973738E+01  0.51100000000E-03 0.  1.
         12    1    3    3    0    0 -0.32142381803E+01 -0.15870291036E+02  0.36574275931E+02  0.39998439026E+02  0.00000000000E+00 0. -1.
</event>
<event>
 7    1  0.5664398E-009  0.4614232E+02  0.7816164E-02  0.1320468E+00
        -11   -1    0    0    0    0  0.00000000000E+00  0.00000000000E+00  0.45593999997E+02  0.45594000000E+02  0.51100000000E-03 0. -1.
         11   -1    0    0    0    0 -0.00000000000E+00 -0.00000000000E+00 -0.45593999997E+02  0.45594000000E+02  0.51100000000E-03 0.  1.
    9900012    2    1    2    0    0 -0.26704094939E+02 -0.29756884297E+02  0.20749285753E+02  0.46142315314E+02  0.99999776874E+01 0.  0.
        -12    1    1    2    0    0  0.26704094939E+02  0.29756884297E+02 -0.20749285753E+02  0.45045684686E+02  0.00000000000E+00 0.  1.
         11    1    3    3    0    0 -0.68144962018E+01 -0.12778279207E+02  0.53614111444E+01  0.15442360820E+02  0.51100000000E-03 0. -1.
        -11    1    3    3    0    0 -0.14375737435E+02 -0.14579545944E+02  0.10891484624E+02  0.23191580893E+02  0.51100000000E-03 0.  1.
         12    1    3    3    0    0 -0.55138613017E+01 -0.23990591453E+01  0.44963899844E+01  0.75083736008E+01  0.00000000000E+00 0. -1.
</event>
<event>
 7    1  0.6439195E-009  0.4614232E+02  0.7816164E-02  0.1320468E+00
        -11   -1    0    0    0    0  0.00000000000E+00  0.00000000000E+00  0.45593999997E+02  0.45594000000E+02  0.51100000000E-03 0. -1.
         11   -1    0    0    0    0 -0.00000000000E+00 -0.00000000000E+00 -0.45593999997E+02  0.45594000000E+02  0.51100000000E-03 0.  1.
    9900012    2    1    2    0    0  0.11654030830E+02 -0.26421227428E+02 -0.34571887509E+02  0.46142322080E+02  0.10000039379E+02 0.  0.
         12    1    1    2    0    0 -0.11654030830E+02  0.26421227428E+02  0.34571887509E+02  0.45045677920E+02  0.00000000000E+00 0. -1.
         11    1    3    3    0    0  0.26252768470E+01 -0.49484035205E+01 -0.85845375092E+01  0.10250515130E+02  0.51100000000E-03 0. -1.
        -11    1    3    3    0    0  0.95217083682E+01 -0.17482019323E+02 -0.24583248177E+02  0.31632578476E+02  0.51100000000E-03 0.  1.
         12    1    3    3    0    0 -0.49295438495E+00 -0.39908045850E+01 -0.14041018226E+01  0.42592284735E+01  0.00000000000E+00 0. -1.
</event>
<event>
 7    1  0.5664398E-009  0.4614232E+02  0.7816164E-02  0.1320468E+00
        -11   -1    0    0    0    0  0.00000000000E+00  0.00000000000E+00  0.45593999997E+02  0.45594000000E+02  0.51100000000E-03 0. -1.
         11   -1    0    0    0    0 -0.00000000000E+00 -0.00000000000E+00 -0.45593999997E+02  0.45594000000E+02  0.51100000000E-03 0.  1.
    9900012    2    1    2    0    0  0.11450565033E+02 -0.31725600538E+02  0.29857733881E+02  0.46142318280E+02  0.10000004734E+02 0.  0.
        -12    1    1    2    0    0 -0.11450565033E+02  0.31725600538E+02 -0.29857733881E+02  0.45045681720E+02  0.00000000000E+00 0.  1.
         11    1    3    3    0    0  0.84280047668E+01 -0.96632761802E+01  0.97760858108E+01  0.16123958104E+02  0.51100000000E-03 0.  1.
        -11    1    3    3    0    0  0.66371995600E+00 -0.76685352368E+01  0.62160735017E+01  0.98937620195E+01  0.51100000000E-03 0. -1.
        -12    1    3    3    0    0  0.23588403101E+01 -0.14393789121E+02  0.13865574569E+02  0.20124598157E+02  0.00000000000E+00 0.  1.
</event>
<event>
 7    1  0.5821340E-009  0.4614232E+02  0.7816164E-02  0.1320468E+00
        -11   -1    0    0    0    0  0.00000000000E+00  0.00000000000E+00  0.45593999997E+02  0.45594000000E+02  0.51100000000E-03 0. -1.
         11   -1    0    0    0    0 -0.00000000000E+00 -0.00000000000E+00 -0.45593999997E+02  0.45594000000E+02  0.51100000000E-03 0.  1.
    9900012    2    1    2    0    0 -0.12914817853E+02 -0.25635939089E+02 -0.34714832269E+02  0.46142317936E+02  0.10000001597E+02 0.  0.
         12    1    1    2    0    0  0.12914817853E+02  0.25635939089E+02  0.34714832269E+02  0.45045682064E+02  0.00000000000E+00 0. -1.
         11    1    3    3    0    0  0.34781367204E+00 -0.79462412861E-01  0.16573161691E+00  0.39339020766E+00  0.51100000000E-03 0. -1.
        -11    1    3    3    0    0 -0.36630342454E+01 -0.50829779206E+01 -0.12239787657E+02  0.13750159511E+02  0.51100000000E-03 0.  1.
        -12    1    3    3    0    0 -0.95995972799E+01 -0.20473498755E+02 -0.22640776229E+02  0.31998768218E+02  0.00000000000E+00 0.  1.
</event>
<event>
 7    1  0.5664398E-009  0.4614232E+02  0.7816164E-02  0.1320468E+00
        -11   -1    0    0    0    0  0.00000000000E+00  0.00000000000E+00  0.45593999997E+02  0.45594000000E+02  0.51100000000E-03 0. -1.
         11   -1    0    0    0    0 -0.00000000000E+00 -0.00000000000E+00 -0.45593999997E+02  0.45594000000E+02  0.51100000000E-03 0.  1.
    9900012    2    1    2    0    0  0.37685473202E+02 -0.21181229308E+02 -0.12659941992E+02  0.46142317669E+02  0.99999991569E+01 0.  0.
         12    1    1    2    0    0 -0.37685473202E+02  0.21181229308E+02  0.12659941992E+02  0.45045682331E+02  0.00000000000E+00 0. -1.
         11    1    3    3    0    0  0.17537943027E+02 -0.66008934000E+01 -0.92352206382E+01  0.20891159369E+02  0.51100000000E-03 0. -1.
        -11    1    3    3    0    0  0.11378746974E+02 -0.92569430245E+01 -0.95351211358E+00  0.14699525926E+02  0.51100000000E-03 0.  1.
         12    1    3    3    0    0  0.87687832013E+01 -0.53233928839E+01 -0.24712092400E+01  0.10551632373E+02  0.00000000000E+00 0. -1.
</event>
<event>
 7    1  0.5664398E-009  0.4614232E+02  0.7816164E-02  0.1320468E+00
        -11   -1    0    0    0    0  0.00000000000E+00  0.00000000000E+00  0.45593999997E+02  0.45594000000E+02  0.51100000000E-03 0. -1.
         11   -1    0    0    0    0 -0.00000000000E+00 -0.00000000000E+00 -0.45593999997E+02  0.45594000000E+02  0.51100000000E-03 0.  1.
    9900012    2    1    2    0    0  0.20758582018E+02  0.36084274297E+02 -0.17208133592E+02  0.46142318290E+02  0.10000004825E+02 0.  0.
         12    1    1    2    0    0 -0.20758582018E+02 -0.36084274297E+02  0.17208133592E+02  0.45045681710E+02  0.00000000000E+00 0. -1.
         11    1    3    3    0    0  0.61859342451E+01  0.95550028994E+01 -0.26343846405E+00  0.11385660410E+02  0.51100000000E-03 0. -1.
        -11    1    3    3    0    0  0.10412032076E+02  0.16860431308E+02 -0.10794374783E+02  0.22565528646E+02  0.51100000000E-03 0.  1.
         12    1    3    3    0    0  0.41606156978E+01  0.96688400897E+01 -0.61503203443E+01  0.12191129234E+02  0.00000000000E+00 0. -1.
</event>
<event>
 7    1  0.5664398E-009  0.4614232E+02  0.7816164E-02  0.1320468E+00
        -11   -1    0    0    0    0  0.00000000000E+00  0.00000000000E+00  0.45593999997E+02  0.45594000000E+02  0.51100000000E-03 0.  1.
         11   -1    0    0    0    0 -0.00000000000E+00 -0.00000000000E+00 -0.45593999997E+02  0.45594000000E+02  0.51100000000E-03 0. -1.
    9900012    2    1    2    0    0  0.40177075498E+02 -0.38834233394E+01 -0.19995876772E+02  0.46142318072E+02  0.10000002839E+02 0.  0.
         12    1    1    2    0    0 -0.40177075498E+02  0.38834233394E+01  0.19995876772E+02  0.45045681928E+02  0.00000000000E+00 0. -1.
         11    1    3    3    0    0  0.16824249849E+02 -0.65325209930E+01 -0.91625662613E+01  0.20240598663E+02  0.51100000000E-03 0. -1.
        -11    1    3    3    0    0  0.81522117165E+01  0.86787337017E+00 -0.43455501238E+01  0.92787696488E+01  0.51100000000E-03 0.  1.
         12    1    3    3    0    0  0.15200613933E+02  0.17812242834E+01 -0.64877603871E+01  0.16622949760E+02  0.00000000000E+00 0. -1.
</event>
<event>
 7    1  0.5773365E-009  0.4614232E+02  0.7816164E-02  0.1320468E+00
        -11   -1    0    0    0    0  0.00000000000E+00  0.00000000000E+00  0.45593999997E+02  0.45594000000E+02  0.51100000000E-03 0. -1.
         11   -1    0    0    0    0 -0.00000000000E+00 -0.00000000000E+00 -0.45593999997E+02  0.45594000000E+02  0.51100000000E-03 0.  1.
    9900012    2    1    2    0    0 -0.76997735923E+01  0.14373155767E+02 -0.41990943243E+02  0.46142318358E+02  0.10000005447E+02 0.  0.
         12    1    1    2    0    0  0.76997735923E+01 -0.14373155767E+02  0.41990943243E+02  0.45045681642E+02  0.00000000000E+00 0. -1.
         11    1    3    3    0    0 -0.24332358401E+00  0.22985282485E+01 -0.10391316688E+01  0.25342125723E+01  0.51100000000E-03 0. -1.
        -11    1    3    3    0    0 -0.61933058528E+00  0.41469636993E+01 -0.79836472919E+01  0.90177326773E+01  0.51100000000E-03 0.  1.
        -12    1    3    3    0    0 -0.68371194230E+01  0.79276638192E+01 -0.32968164283E+02  0.34590373109E+02  0.00000000000E+00 0.  1.
</event>
<event>
 7    1  0.5664398E-009  0.4614232E+02  0.7816164E-02  0.1320468E+00
        -11   -1    0    0    0    0  0.00000000000E+00  0.00000000000E+00  0.45593999997E+02  0.45594000000E+02  0.51100000000E-03 0. -1.
         11   -1    0    0    0    0 -0.00000000000E+00 -0.00000000000E+00 -0.45593999997E+02  0.45594000000E+02  0.51100000000E-03 0.  1.
    9900012    2    1    2    0    0  0.10345934620E+02  0.18848812485E+02 -0.39582792010E+02  0.46142317426E+02  0.99999969447E+01 0.  0.
         12    1    1    2    0    0 -0.10345934620E+02 -0.18848812485E+02  0.39582792010E+02  0.45045682574E+02  0.00000000000E+00 0. -1.
         11    1    3    3    0    0 -0.58759795755E+00  0.84917516388E+00 -0.49636918142E+01  0.50699710558E+01  0.51100000000E-03 0. -1.
        -11    1    3    3    0    0  0.93128243656E+01  0.12710932939E+02 -0.29914187337E+02  0.33810577016E+02  0.51100000000E-03 0.  1.
         12    1    3    3    0    0  0.16207082123E+01  0.52887043822E+01 -0.47049128585E+01  0.72617693545E+01  0.00000000000E+00 0. -1.
</event>
<event>
 7    1  0.5664398E-009  0.4614232E+02  0.7816164E-02  0.1320468E+00
        -11   -1    0    0    0    0  0.00000000000E+00  0.00000000000E+00  0.45593999997E+02  0.45594000000E+02  0.51100000000E-03 0. -1.
         11   -1    0    0    0    0 -0.00000000000E+00 -0.00000000000E+00 -0.45593999997E+02  0.45594000000E+02  0.51100000000E-03 0.  1.
    9900012    2    1    2    0    0 -0.38469048587E+01 -0.12286287957E+01  0.44864298894E+02  0.46142317400E+02  0.99999967044E+01 0.  0.
        -12    1    1    2    0    0  0.38469048587E+01  0.12286287957E+01 -0.44864298894E+02  0.45045682600E+02  0.00000000000E+00 0.  1.
         11    1    3    3    0    0  0.40354520080E+00 -0.75773375862E-01  0.20585452966E+01  0.20990948842E+01  0.51100000000E-03 0.  1.
        -11    1    3    3    0    0 -0.22017461985E+01  0.35634441979E+01  0.29187207081E+02  0.29486248970E+02  0.51100000000E-03 0. -1.
         12    1    3    3    0    0 -0.20487038610E+01 -0.47162996177E+01  0.13618546516E+02  0.14556973546E+02  0.00000000000E+00 0. -1.
</event>
<event>
 7    1  0.5664398E-009  0.4614232E+02  0.7816164E-02  0.1320468E+00
        -11   -1    0    0    0    0  0.00000000000E+00  0.00000000000E+00  0.45593999997E+02  0.45594000000E+02  0.51100000000E-03 0. -1.
         11   -1    0    0    0    0 -0.00000000000E+00 -0.00000000000E+00 -0.45593999997E+02  0.45594000000E+02  0.51100000000E-03 0.  1.
    9900012    2    1    2    0    0 -0.29967822092E+02  0.52885049377E+01 -0.33212569676E+02  0.46142318410E+02  0.10000005918E+02 0.  0.
         12    1    1    2    0    0  0.29967822092E+02 -0.52885049377E+01  0.33212569676E+02  0.45045681590E+02  0.00000000000E+00 0. -1.
         11    1    3    3    0    0 -0.10608013989E+02 -0.50450608373E+00 -0.79073019192E+01  0.13240464912E+02  0.51100000000E-03 0. -1.
        -11    1    3    3    0    0 -0.11093330660E+02  0.74584005427E+00 -0.11115803663E+02  0.15721938617E+02  0.51100000000E-03 0.  1.
        -12    1    3    3    0    0 -0.82664774431E+01  0.50471709672E+01 -0.14189464093E+02  0.17179914882E+02  0.00000000000E+00 0.  1.
</event>
<event>
 7    1  0.5664398E-009  0.4614232E+02  0.7816164E-02  0.1320468E+00
        -11   -1    0    0    0    0  0.00000000000E+00  0.00000000000E+00  0.45593999997E+02  0.45594000000E+02  0.51100000000E-03 0. -1.
         11   -1    0    0    0    0 -0.00000000000E+00 -0.00000000000E+00 -0.45593999997E+02  0.45594000000E+02  0.51100000000E-03 0.  1.
    9900012    2    1    2    0    0  0.16508583931E+02  0.45838876135E+01 -0.41660149580E+02  0.46142318386E+02  0.10000005694E+02 0.  0.
         12    1    1    2    0    0 -0.16508583931E+02 -0.45838876135E+01  0.41660149580E+02  0.45045681614E+02  0.00000000000E+00 0. -1.
         11    1    3    3    0    0  0.46696998505E+01 -0.91432727491E+00 -0.65052602258E+01  0.80598078095E+01  0.51100000000E-03 0. -1.
        -11    1    3    3    0    0 -0.59300781543E+00 -0.19755193056E+00 -0.41388232939E+01  0.41857548368E+01  0.51100000000E-03 0.  1.
        -12    1    3    3    0    0  0.12431891896E+02  0.56957668189E+01 -0.31016066061E+02  0.33896755739E+02  0.00000000000E+00 0.  1.
</event>
<event>
 7    1  0.5664398E-009  0.4614232E+02  0.7816164E-02  0.1320468E+00
        -11   -1    0    0    0    0  0.00000000000E+00  0.00000000000E+00  0.45593999997E+02  0.45594000000E+02  0.51100000000E-03 0. -1.
         11   -1    0    0    0    0 -0.00000000000E+00 -0.00000000000E+00 -0.45593999997E+02  0.45594000000E+02  0.51100000000E-03 0.  1.
    9900012    2    1    2    0    0  0.25249947834E+02  0.90089422105E+01 -0.36199345933E+02  0.46142317062E+02  0.99999936244E+01 0.  0.
         12    1    1    2    0    0 -0.25249947834E+02 -0.90089422105E+01  0.36199345933E+02  0.45045682938E+02  0.00000000000E+00 0. -1.
         11    1    3    3    0    0  0.98085933191E+01  0.71422650123E+01 -0.17186715909E+02  0.21038147647E+02  0.51100000000E-03 0. -1.
        -11    1    3    3    0    0  0.67345077625E+00  0.12585262953E+01 -0.29428001710E+01  0.32707029048E+01  0.51100000000E-03 0.  1.
         12    1    3    3    0    0  0.14767903739E+02  0.60815090290E+00 -0.16069829853E+02  0.21833466510E+02  0.00000000000E+00 0. -1.
</event>
<event>
 7    1  0.5664398E-009  0.4614232E+02  0.7816164E-02  0.1320468E+00
        -11   -1    0    0    0    0  0.00000000000E+00  0.00000000000E+00  0.45593999997E+02  0.45594000000E+02  0.51100000000E-03 0. -1.
         11   -1    0    0    0    0 -0.00000000000E+00 -0.00000000000E+00 -0.45593999997E+02  0.45594000000E+02  0.51100000000E-03 0.  1.
    9900012    2    1    2    0    0 -0.12623097219E+02  0.10494120399E+02  0.41948114726E+02  0.46142317905E+02  0.10000001311E+02 0.  0.
        -12    1    1    2    0    0  0.12623097219E+02 -0.10494120399E+02 -0.41948114726E+02  0.45045682095E+02  0.00000000000E+00 0.  1.
         11    1    3    3    0    0 -0.15366498386E+01  0.23684040853E+01  0.11025042529E+02  0.11380781769E+02  0.51100000000E-03 0. -1.
        -11    1    3    3    0    0 -0.56073177427E+01 -0.18043114058E+00  0.14647967838E+02  0.15685583499E+02  0.51100000000E-03 0.  1.
         12    1    3    3    0    0 -0.54791296375E+01  0.83061474542E+01  0.16275104359E+02  0.19075952637E+02  0.00000000000E+00 0. -1.
</event>
<event>
 7    1  0.5664398E-009  0.4614232E+02  0.7816164E-02  0.1320468E+00
        -11   -1    0    0    0    0  0.00000000000E+00  0.00000000000E+00  0.45593999997E+02  0.45594000000E+02  0.51100000000E-03 0. -1.
         11   -1    0    0    0    0 -0.00000000000E+00 -0.00000000000E+00 -0.45593999997E+02  0.45594000000E+02  0.51100000000E-03 0.  1.
    9900012    2    1    2    0    0 -0.13296698770E+02  0.17288075047E+02  0.39413624023E+02  0.46142317680E+02  0.99999992591E+01 0.  0.
        -12    1    1    2    0    0  0.13296698770E+02 -0.17288075047E+02 -0.39413624023E+02  0.45045682320E+02  0.00000000000E+00 0.  1.
         11    1    3    3    0    0 -0.64074451354E+01  0.56139881383E+01  0.10739498947E+02  0.13707992335E+02  0.51100000000E-03 0. -1.
        -11    1    3    3    0    0 -0.55750574604E+01  0.30554796767E+01  0.13788616879E+02  0.15183648357E+02  0.51100000000E-03 0.  1.
         12    1    3    3    0    0 -0.13141961742E+01  0.86186072324E+01  0.14885508198E+02  0.17250676987E+02  0.00000000000E+00 0. -1.
</event>
<event>
 7    1  0.5664398E-009  0.4614232E+02  0.7816164E-02  0.1320468E+00
        -11   -1    0    0    0    0  0.00000000000E+00  0.00000000000E+00  0.45593999997E+02  0.45594000000E+02  0.51100000000E-03 0. -1.
         11   -1    0    0    0    0 -0.00000000000E+00 -0.00000000000E+00 -0.45593999997E+02  0.45594000000E+02  0.51100000000E-03 0.  1.
    9900012    2    1    2    0    0 -0.17214595262E+02  0.76693381014E+01  0.40913960866E+02  0.46142320621E+02  0.10000026081E+02 0.  0.
        -12    1    1    2    0    0  0.17214595262E+02 -0.76693381014E+01 -0.40913960866E+02  0.45045679379E+02  0.00000000000E+00 0.  1.
         11    1    3    3    0    0 -0.13235236702E+02  0.65188910975E+01  0.29617865315E+02  0.33089052235E+02  0.51100000000E-03 0. -1.
        -11    1    3    3    0    0 -0.24576022617E+01  0.12225582728E+01  0.11194839705E+02  0.11526443245E+02  0.51100000000E-03 0.  1.
        -12    1    3    3    0    0 -0.15217562981E+01 -0.72111268851E-01  0.10125584596E+00  0.15268251414E+01  0.00000000000E+00 0.  1.
</event>
<event>
 7    1  0.5664398E-009  0.4614232E+02  0.7816164E-02  0.1320468E+00
        -11   -1    0    0    0    0  0.00000000000E+00  0.00000000000E+00  0.45593999997E+02  0.45594000000E+02  0.51100000000E-03 0. -1.
         11   -1    0    0    0    0 -0.00000000000E+00 -0.00000000000E+00 -0.45593999997E+02  0.45594000000E+02  0.51100000000E-03 0.  1.
    9900012    2    1    2    0    0 -0.37608246217E+01 -0.38728780417E+02 -0.22694739555E+02  0.46142318322E+02  0.10000005112E+02 0.  0.
         12    1    1    2    0    0  0.37608246217E+01  0.38728780417E+02  0.22694739555E+02  0.45045681678E+02  0.00000000000E+00 0. -1.
         11    1    3    3    0    0  0.24724541733E+01 -0.58040014559E+01 -0.21919410311E+01  0.66786277246E+01  0.51100000000E-03 0. -1.
        -11    1    3    3    0    0 -0.41936048420E+00 -0.67219693161E+01 -0.56307676385E+01  0.87787401808E+01  0.51100000000E-03 0.  1.
         12    1    3    3    0    0 -0.58139183108E+01 -0.26202809645E+02 -0.14872030885E+02  0.30684950416E+02  0.00000000000E+00 0. -1.
</event>
<event>
 7    1  0.5664398E-009  0.4614232E+02  0.7816164E-02  0.1320468E+00
        -11   -1    0    0    0    0  0.00000000000E+00  0.00000000000E+00  0.45593999997E+02  0.45594000000E+02  0.51100000000E-03 0. -1.
         11   -1    0    0    0    0 -0.00000000000E+00 -0.00000000000E+00 -0.45593999997E+02  0.45594000000E+02  0.51100000000E-03 0.  1.
    9900012    2    1    2    0    0  0.41284018993E+02 -0.60389921782E+01 -0.16978627421E+02  0.46142318300E+02  0.10000004912E+02 0.  0.
         12    1    1    2    0    0 -0.41284018993E+02  0.60389921782E+01  0.16978627421E+02  0.45045681700E+02  0.00000000000E+00 0. -1.
         11    1    3    3    0    0  0.58381050540E+01  0.13831332169E+01 -0.27429874515E+01  0.65970075441E+01  0.51100000000E-03 0. -1.
        -11    1    3    3    0    0  0.80824731889E+01 -0.90808328066E-01 -0.59812508486E+00  0.81050831507E+01  0.51100000000E-03 0.  1.
         12    1    3    3    0    0  0.27363440750E+02 -0.73313170670E+01 -0.13637514885E+02  0.31440227605E+02  0.00000000000E+00 0. -1.
</event>
<event>
 7    1  0.5664398E-009  0.4614232E+02  0.7816164E-02  0.1320468E+00
        -11   -1    0    0    0    0  0.00000000000E+00  0.00000000000E+00  0.45593999997E+02  0.45594000000E+02  0.51100000000E-03 0. -1.
         11   -1    0    0    0    0 -0.00000000000E+00 -0.00000000000E+00 -0.45593999997E+02  0.45594000000E+02  0.51100000000E-03 0.  1.
    9900012    2    1    2    0    0  0.27600098623E+02  0.31487718300E+02 -0.16609383198E+02  0.46142318099E+02  0.10000003077E+02 0.  0.
         12    1    1    2    0    0 -0.27600098623E+02 -0.31487718300E+02  0.16609383198E+02  0.45045681901E+02  0.00000000000E+00 0. -1.
         11    1    3    3    0    0  0.66782196149E+00  0.25980975122E-01 -0.16502923001E+01  0.17804847992E+01  0.51100000000E-03 0. -1.
        -11    1    3    3    0    0  0.13989503916E+02  0.13367034692E+02 -0.49828682439E+01  0.19980310620E+02  0.51100000000E-03 0.  1.
         12    1    3    3    0    0  0.12942772745E+02  0.18094702633E+02 -0.99762226537E+01  0.24381522679E+02  0.00000000000E+00 0. -1.
</event>
<event>
 7    1  0.5664398E-009  0.4614232E+02  0.7816164E-02  0.1320468E+00
        -11   -1    0    0    0    0  0.00000000000E+00  0.00000000000E+00  0.45593999997E+02  0.45594000000E+02  0.51100000000E-03 0. -1.
         11   -1    0    0    0    0 -0.00000000000E+00 -0.00000000000E+00 -0.45593999997E+02  0.45594000000E+02  0.51100000000E-03 0.  1.
    9900012    2    1    2    0    0  0.80785704792E+01 -0.41429101580E+02 -0.15731488357E+02  0.46142317802E+02  0.10000000376E+02 0.  0.
         12    1    1    2    0    0 -0.80785704792E+01  0.41429101580E+02  0.15731488357E+02  0.45045682198E+02  0.00000000000E+00 0. -1.
         11    1    3    3    0    0  0.42456103734E+00  0.28780787036E+00 -0.13944375625E+00  0.53153576263E+00  0.51100000000E-03 0. -1.
        -11    1    3    3    0    0  0.60989601537E+01 -0.18426424589E+02 -0.87162266616E+01  0.21276819442E+02  0.51100000000E-03 0.  1.
         12    1    3    3    0    0  0.15550492882E+01 -0.23290484862E+02 -0.68758179391E+01  0.24333962598E+02  0.00000000000E+00 0. -1.
</event>
<event>
 7    1  0.5664398E-009  0.4614232E+02  0.7816164E-02  0.1320468E+00
        -11   -1    0    0    0    0  0.00000000000E+00  0.00000000000E+00  0.45593999997E+02  0.45594000000E+02  0.51100000000E-03 0. -1.
         11   -1    0    0    0    0 -0.00000000000E+00 -0.00000000000E+00 -0.45593999997E+02  0.45594000000E+02  0.51100000000E-03 0.  1.
    9900012    2    1    2    0    0 -0.45354863746E+01  0.14995354832E+02  0.42233658820E+02  0.46142320512E+02  0.10000025085E+02 0.  0.
        -12    1    1    2    0    0  0.45354863746E+01 -0.14995354832E+02 -0.42233658820E+02  0.45045679488E+02  0.00000000000E+00 0.  1.
         11    1    3    3    0    0 -0.21828705027E+01  0.66560753420E+01  0.24208027264E+02  0.25201127889E+02  0.51100000000E-03 0. -1.
        -11    1    3    3    0    0 -0.20304473359E+01  0.93445783322E+01  0.16728291471E+02  0.19268616878E+02  0.51100000000E-03 0.  1.
         12    1    3    3    0    0 -0.32216853601E+00 -0.10052988418E+01  0.12973400842E+01  0.16725757445E+01  0.00000000000E+00 0. -1.
</event>
<event>
 7    1  0.5664398E-009  0.4614232E+02  0.7816164E-02  0.1320468E+00
        -11   -1    0    0    0    0  0.00000000000E+00  0.00000000000E+00  0.45593999997E+02  0.45594000000E+02  0.51100000000E-03 0. -1.
         11   -1    0    0    0    0 -0.00000000000E+00 -0.00000000000E+00 -0.45593999997E+02  0.45594000000E+02  0.51100000000E-03 0.  1.
    9900012    2    1    2    0    0  0.30228986562E+01  0.39536960815E+02 -0.21372978325E+02  0.46142318861E+02  0.10000010032E+02 0.  0.
         12    1    1    2    0    0 -0.30228986562E+01 -0.39536960815E+02  0.21372978325E+02  0.45045681139E+02  0.00000000000E+00 0. -1.
         11    1    3    3    0    0  0.14732544655E+01  0.11813604220E+02 -0.10300442960E+02  0.15742644277E+02  0.51100000000E-03 0. -1.
        -11    1    3    3    0    0  0.21185708057E+01  0.46782120094E+01 -0.31471428473E+01  0.60231651336E+01  0.51100000000E-03 0.  1.
        -12    1    3    3    0    0 -0.56892661502E+00  0.23045144585E+02 -0.79253925180E+01  0.24376509451E+02  0.00000000000E+00 0.  1.
</event>
<event>
 7    1  0.5664398E-009  0.4614232E+02  0.7816164E-02  0.1320468E+00
        -11   -1    0    0    0    0  0.00000000000E+00  0.00000000000E+00  0.45593999997E+02  0.45594000000E+02  0.51100000000E-03 0. -1.
         11   -1    0    0    0    0 -0.00000000000E+00 -0.00000000000E+00 -0.45593999997E+02  0.45594000000E+02  0.51100000000E-03 0.  1.
    9900012    2    1    2    0    0  0.19975489025E+02  0.92365316951E+01  0.39303688079E+02  0.46142316787E+02  0.99999911149E+01 0.  0.
        -12    1    1    2    0    0 -0.19975489025E+02 -0.92365316951E+01 -0.39303688079E+02  0.45045683213E+02  0.00000000000E+00 0.  1.
         11    1    3    3    0    0  0.72342218988E+01  0.45632572623E+01  0.14366642540E+02  0.16719979110E+02  0.51100000000E-03 0. -1.
        -11    1    3    3    0    0  0.97512564519E+01 -0.36055239490E+00  0.15805063432E+02  0.18574634068E+02  0.51100000000E-03 0.  1.
        -12    1    3    3    0    0  0.29900106743E+01  0.50338268277E+01  0.91319821073E+01  0.10847703608E+02  0.00000000000E+00 0.  1.
</event>
<event>
 7    1  0.5664398E-009  0.4614232E+02  0.7816164E-02  0.1320468E+00
        -11   -1    0    0    0    0  0.00000000000E+00  0.00000000000E+00  0.45593999997E+02  0.45594000000E+02  0.51100000000E-03 0. -1.
         11   -1    0    0    0    0 -0.00000000000E+00 -0.00000000000E+00 -0.45593999997E+02  0.45594000000E+02  0.51100000000E-03 0.  1.
    9900012    2    1    2    0    0  0.19970534926E+02  0.64162774651E+01 -0.39863799586E+02  0.46142318751E+02  0.10000009029E+02 0.  0.
         12    1    1    2    0    0 -0.19970534926E+02 -0.64162774651E+01  0.39863799586E+02  0.45045681249E+02  0.00000000000E+00 0. -1.
         11    1    3    3    0    0  0.95126497269E+01  0.73831461740E+01 -0.24626279551E+02  0.27412679494E+02  0.51100000000E-03 0. -1.
        -11    1    3    3    0    0  0.32897410475E+01  0.20113683706E+00 -0.70674795122E+01  0.77982125583E+01  0.51100000000E-03 0.  1.
        -12    1    3    3    0    0  0.71681441517E+01 -0.11680055460E+01 -0.81700405221E+01  0.10931426699E+02  0.00000000000E+00 0.  1.
</event>
<event>
 7    1  0.5664398E-009  0.4614232E+02  0.7816164E-02  0.1320468E+00
        -11   -1    0    0    0    0  0.00000000000E+00  0.00000000000E+00  0.45593999997E+02  0.45594000000E+02  0.51100000000E-03 0. -1.
         11   -1    0    0    0    0 -0.00000000000E+00 -0.00000000000E+00 -0.45593999997E+02  0.45594000000E+02  0.51100000000E-03 0.  1.
    9900012    2    1    2    0    0 -0.32822057069E+02 -0.79123484537E+01 -0.29819806433E+02  0.46142317144E+02  0.99999943691E+01 0.  0.
         12    1    1    2    0    0  0.32822057069E+02  0.79123484537E+01  0.29819806433E+02  0.45045682856E+02  0.00000000000E+00 0. -1.
         11    1    3    3    0    0 -0.13146444052E+02 -0.42019241892E+01 -0.11705662786E+02  0.18097173802E+02  0.51100000000E-03 0. -1.
        -11    1    3    3    0    0 -0.12075248757E+02 -0.42613633045E+01 -0.15228704139E+02  0.19896840950E+02  0.51100000000E-03 0.  1.
        -12    1    3    3    0    0 -0.76003642600E+01  0.55093904000E+00 -0.28854395070E+01  0.81483023913E+01  0.00000000000E+00 0.  1.
</event>
<event>
 7    1  0.5664398E-009  0.4614232E+02  0.7816164E-02  0.1320468E+00
        -11   -1    0    0    0    0  0.00000000000E+00  0.00000000000E+00  0.45593999997E+02  0.45594000000E+02  0.51100000000E-03 0.  1.
         11   -1    0    0    0    0 -0.00000000000E+00 -0.00000000000E+00 -0.45593999997E+02  0.45594000000E+02  0.51100000000E-03 0. -1.
    9900012    2    1    2    0    0  0.17946835534E+02 -0.28335677316E+02  0.30068488155E+02  0.46142317692E+02  0.99999993687E+01 0.  0.
        -12    1    1    2    0    0 -0.17946835534E+02  0.28335677316E+02 -0.30068488155E+02  0.45045682308E+02  0.00000000000E+00 0.  1.
         11    1    3    3    0    0  0.26804682043E+00 -0.28812021459E+00  0.22154792477E+01  0.22501579754E+01  0.51100000000E-03 0.  1.
        -11    1    3    3    0    0  0.64300113227E+01 -0.15246650383E+02  0.10652608670E+02  0.19679518928E+02  0.51100000000E-03 0. -1.
         12    1    3    3    0    0  0.11248777390E+02 -0.12800906719E+02  0.17200400238E+02  0.24212640788E+02  0.00000000000E+00 0. -1.
</event>
<event>
 7    1  0.5664398E-009  0.4614232E+02  0.7816164E-02  0.1320468E+00
        -11   -1    0    0    0    0  0.00000000000E+00  0.00000000000E+00  0.45593999997E+02  0.45594000000E+02  0.51100000000E-03 0. -1.
         11   -1    0    0    0    0 -0.00000000000E+00 -0.00000000000E+00 -0.45593999997E+02  0.45594000000E+02  0.51100000000E-03 0.  1.
    9900012    2    1    2    0    0  0.13234676166E+02  0.22806284596E+02  0.36521633209E+02  0.46142323598E+02  0.10000053222E+02 0.  0.
        -12    1    1    2    0    0 -0.13234676166E+02 -0.22806284596E+02 -0.36521633209E+02  0.45045676402E+02  0.00000000000E+00 0.  1.
         11    1    3    3    0    0  0.70856432398E+01  0.15346358604E+02  0.23004719415E+02  0.28547052004E+02  0.51100000000E-03 0. -1.
        -11    1    3    3    0    0 -0.96066347319E+00  0.85758418975E+00  0.55017233342E+00  0.14003623848E+01  0.51100000000E-03 0.  1.
         12    1    3    3    0    0  0.71096963990E+01  0.66023418023E+01  0.12966741461E+02  0.16194909209E+02  0.00000000000E+00 0. -1.
</event>
<event>
 7    1  0.5664398E-009  0.4614232E+02  0.7816164E-02  0.1320468E+00
        -11   -1    0    0    0    0  0.00000000000E+00  0.00000000000E+00  0.45593999997E+02  0.45594000000E+02  0.51100000000E-03 0.  1.
         11   -1    0    0    0    0 -0.00000000000E+00 -0.00000000000E+00 -0.45593999997E+02  0.45594000000E+02  0.51100000000E-03 0. -1.
    9900012    2    1    2    0    0 -0.44507456675E+02 -0.38622275885E+00 -0.69318509392E+01  0.46142318462E+02  0.10000006396E+02 0.  0.
         12    1    1    2    0    0  0.44507456675E+02  0.38622275885E+00  0.69318509392E+01  0.45045681538E+02  0.00000000000E+00 0. -1.
         11    1    3    3    0    0 -0.22458243503E+02  0.23850684550E+01 -0.64479181464E+01  0.23486951728E+02  0.51100000000E-03 0. -1.
        -11    1    3    3    0    0 -0.16500767645E+02 -0.56011682156E+00 -0.15694862956E+01  0.16584702326E+02  0.51100000000E-03 0.  1.
        -12    1    3    3    0    0 -0.55484455268E+01 -0.22111743923E+01  0.10855535028E+01  0.60706644088E+01  0.00000000000E+00 0.  1.
</event>
<event>
 7    1  0.8405645E-009  0.4614232E+02  0.7816164E-02  0.1320468E+00
        -11   -1    0    0    0    0  0.00000000000E+00  0.00000000000E+00  0.45593999997E+02  0.45594000000E+02  0.51100000000E-03 0. -1.
         11   -1    0    0    0    0 -0.00000000000E+00 -0.00000000000E+00 -0.45593999997E+02  0.45594000000E+02  0.51100000000E-03 0.  1.
    9900012    2    1    2    0    0 -0.26418827505E+02  0.21764553966E+02 -0.29282468531E+02  0.46142320747E+02  0.10000027229E+02 0.  0.
         12    1    1    2    0    0  0.26418827505E+02 -0.21764553966E+02  0.29282468531E+02  0.45045679253E+02  0.00000000000E+00 0. -1.
         11    1    3    3    0    0  0.36918784333E+00  0.14432810846E+00  0.11670643869E+00  0.41322018405E+00  0.51100000000E-03 0. -1.
        -11    1    3    3    0    0 -0.77479389321E+01  0.10073789197E+02 -0.95192310907E+01  0.15878524720E+02  0.51100000000E-03 0.  1.
        -12    1    3    3    0    0 -0.19040076416E+02  0.11546436660E+02 -0.19879943879E+02  0.29850575843E+02  0.00000000000E+00 0.  1.
</event>
<event>
 7    1  0.5664398E-009  0.4614231E+02  0.7816164E-02  0.1320468E+00
        -11   -1    0    0    0    0  0.00000000000E+00  0.00000000000E+00  0.45593999997E+02  0.45594000000E+02  0.51100000000E-03 0. -1.
         11   -1    0    0    0    0 -0.00000000000E+00 -0.00000000000E+00 -0.45593999997E+02  0.45594000000E+02  0.51100000000E-03 0.  1.
    9900012    2    1    2    0    0 -0.23175633916E+02 -0.51098541608E+01  0.38286984157E+02  0.46142314604E+02  0.99999712092E+01 0.  0.
        -12    1    1    2    0    0  0.23175633916E+02  0.51098541608E+01 -0.38286984157E+02  0.45045685396E+02  0.00000000000E+00 0.  1.
         11    1    3    3    0    0 -0.16125786948E+02 -0.30729874427E+01  0.26539921959E+02  0.31206597289E+02  0.51100000000E-03 0. -1.
        -11    1    3    3    0    0 -0.39081074827E+01  0.61694233948E+00  0.94042581430E+01  0.10202646393E+02  0.51100000000E-03 0.  1.
         12    1    3    3    0    0 -0.31417394847E+01 -0.26538090576E+01  0.23428040558E+01  0.47330709215E+01  0.00000000000E+00 0. -1.
</event>
<event>
 7    1  0.5664398E-009  0.4614231E+02  0.7816164E-02  0.1320468E+00
        -11   -1    0    0    0    0  0.00000000000E+00  0.00000000000E+00  0.45593999997E+02  0.45594000000E+02  0.51100000000E-03 0.  1.
         11   -1    0    0    0    0 -0.00000000000E+00 -0.00000000000E+00 -0.45593999997E+02  0.45594000000E+02  0.51100000000E-03 0. -1.
    9900012    2    1    2    0    0 -0.20566957627E+02 -0.40023178012E+02 -0.20638112961E+01  0.46142313844E+02  0.99999642803E+01 0.  0.
         12    1    1    2    0    0  0.20566957627E+02  0.40023178012E+02  0.20638112961E+01  0.45045686156E+02  0.00000000000E+00 0. -1.
         11    1    3    3    0    0 -0.31245813438E+01 -0.78021398508E+01  0.17692834010E+01  0.85887577006E+01  0.51100000000E-03 0. -1.
        -11    1    3    3    0    0 -0.14308668501E+02 -0.26318155974E+02 -0.22188911199E+00  0.29957178825E+02  0.51100000000E-03 0.  1.
        -12    1    3    3    0    0 -0.31337077830E+01 -0.59028821872E+01 -0.36112055851E+01  0.75963773184E+01  0.00000000000E+00 0.  1.
</event>
<event>
 7    1  0.5664398E-009  0.4614232E+02  0.7816164E-02  0.1320468E+00
        -11   -1    0    0    0    0  0.00000000000E+00  0.00000000000E+00  0.45593999997E+02  0.45594000000E+02  0.51100000000E-03 0. -1.
         11   -1    0    0    0    0 -0.00000000000E+00 -0.00000000000E+00 -0.45593999997E+02  0.45594000000E+02  0.51100000000E-03 0.  1.
    9900012    2    1    2    0    0 -0.20179001534E+02 -0.38358259574E+01 -0.40089995233E+02  0.46142318948E+02  0.10000010823E+02 0.  0.
         12    1    1    2    0    0  0.20179001534E+02  0.38358259574E+01  0.40089995233E+02  0.45045681052E+02  0.00000000000E+00 0. -1.
         11    1    3    3    0    0  0.33882237938E+00  0.10656848389E+01 -0.92988795351E+00  0.14543646887E+01  0.51100000000E-03 0. -1.
        -11    1    3    3    0    0 -0.12644916555E+01 -0.34839000449E+00 -0.54075652564E+01  0.55643577352E+01  0.51100000000E-03 0.  1.
         12    1    3    3    0    0 -0.19253332258E+02 -0.45531207918E+01 -0.33752542023E+02  0.39123596524E+02  0.00000000000E+00 0. -1.
</event>
<event>
 7    1  0.5664398E-009  0.4614233E+02  0.7816164E-02  0.1320468E+00
        -11   -1    0    0    0    0  0.00000000000E+00  0.00000000000E+00  0.45593999997E+02  0.45594000000E+02  0.51100000000E-03 0. -1.
         11   -1    0    0    0    0 -0.00000000000E+00 -0.00000000000E+00 -0.45593999997E+02  0.45594000000E+02  0.51100000000E-03 0.  1.
    9900012    2    1    2    0    0 -0.18672540993E+01  0.25495467199E+02 -0.37089177558E+02  0.46142327872E+02  0.10000092196E+02 0.  0.
         12    1    1    2    0    0  0.18672540993E+01 -0.25495467199E+02  0.37089177558E+02  0.45045672128E+02  0.00000000000E+00 0. -1.
         11    1    3    3    0    0  0.19846222349E+01  0.16008512671E+02 -0.27981251023E+02  0.32298012515E+02  0.51100000000E-03 0. -1.
        -11    1    3    3    0    0 -0.28057754151E+01  0.68109974694E+01 -0.76589553805E+01  0.10626460370E+02  0.51100000000E-03 0.  1.
         12    1    3    3    0    0 -0.10461009191E+01  0.26759570582E+01 -0.14489711549E+01  0.32178549871E+01  0.00000000000E+00 0. -1.
</event>
<event>
 7    1  0.5664398E-009  0.4614232E+02  0.7816164E-02  0.1320468E+00
        -11   -1    0    0    0    0  0.00000000000E+00  0.00000000000E+00  0.45593999997E+02  0.45594000000E+02  0.51100000000E-03 0. -1.
         11   -1    0    0    0    0 -0.00000000000E+00 -0.00000000000E+00 -0.45593999997E+02  0.45594000000E+02  0.51100000000E-03 0.  1.
    9900012    2    1    2    0    0  0.28219430262E+02 -0.29137142888E+02 -0.19590906809E+02  0.46142323519E+02  0.10000052509E+02 0.  0.
         12    1    1    2    0    0 -0.28219430262E+02  0.29137142888E+02  0.19590906809E+02  0.45045676481E+02  0.00000000000E+00 0. -1.
         11    1    3    3    0    0  0.36694161403E+01 -0.47914243596E+01 -0.65611841668E+01  0.89146789138E+01  0.51100000000E-03 0. -1.
        -11    1    3    3    0    0  0.54841117985E+01 -0.55866427599E+01 -0.97340964448E+00  0.78888266645E+01  0.51100000000E-03 0.  1.
        -12    1    3    3    0    0  0.19065902324E+02 -0.18759075768E+02 -0.12056312998E+02  0.29338817941E+02  0.00000000000E+00 0.  1.
</event>
<event>
 7    1  0.5664398E-009  0.4614232E+02  0.7816164E-02  0.1320468E+00
        -11   -1    0    0    0    0  0.00000000000E+00  0.00000000000E+00  0.45593999997E+02  0.45594000000E+02  0.51100000000E-03 0.  1.
         11   -1    0    0    0    0 -0.00000000000E+00 -0.00000000000E+00 -0.45593999997E+02  0.45594000000E+02  0.51100000000E-03 0. -1.
    9900012    2    1    2    0    0 -0.86273159937E+01  0.35977452578E+02 -0.25696413960E+02  0.46142319123E+02  0.10000012417E+02 0.  0.
        -12    1    1    2    0    0  0.86273159937E+01 -0.35977452578E+02  0.25696413960E+02  0.45045680877E+02  0.00000000000E+00 0.  1.
         11    1    3    3    0    0 -0.46844287778E+01  0.18270460614E+02 -0.16617120980E+02  0.25137269421E+02  0.51100000000E-03 0. -1.
        -11    1    3    3    0    0 -0.21811299316E+01  0.15191777917E+01 -0.12720895831E+01  0.29467679091E+01  0.51100000000E-03 0.  1.
        -12    1    3    3    0    0 -0.17617572843E+01  0.16187814173E+02 -0.78072033967E+01  0.18058281792E+02  0.00000000000E+00 0.  1.
</event>
<event>
 7    1  0.5664398E-009  0.4614232E+02  0.7816164E-02  0.1320468E+00
        -11   -1    0    0    0    0  0.00000000000E+00  0.00000000000E+00  0.45593999997E+02  0.45594000000E+02  0.51100000000E-03 0. -1.
         11   -1    0    0    0    0 -0.00000000000E+00 -0.00000000000E+00 -0.45593999997E+02  0.45594000000E+02  0.51100000000E-03 0.  1.
    9900012    2    1    2    0    0  0.42123643208E+02  0.10711960767E+02  0.11830721052E+02  0.46142318951E+02  0.10000010851E+02 0.  0.
        -12    1    1    2    0    0 -0.42123643208E+02 -0.10711960767E+02 -0.11830721052E+02  0.45045681049E+02  0.00000000000E+00 0.  1.
         11    1    3    3    0    0  0.75245996933E+01 -0.65313699033E+00  0.13291153267E+01  0.76689462304E+01  0.51100000000E-03 0. -1.
        -11    1    3    3    0    0  0.53355740323E+01  0.44372305454E+01  0.18919096437E+01  0.71928219447E+01  0.51100000000E-03 0.  1.
         12    1    3    3    0    0  0.29263469482E+02  0.69278672122E+01  0.86096960812E+01  0.31280550776E+02  0.00000000000E+00 0. -1.
</event>
<event>
 7    1  0.5664398E-009  0.4614232E+02  0.7816164E-02  0.1320468E+00
        -11   -1    0    0    0    0  0.00000000000E+00  0.00000000000E+00  0.45593999997E+02  0.45594000000E+02  0.51100000000E-03 0. -1.
         11   -1    0    0    0    0 -0.00000000000E+00 -0.00000000000E+00 -0.45593999997E+02  0.45594000000E+02  0.51100000000E-03 0.  1.
    9900012    2    1    2    0    0 -0.38848239629E+02  0.12299048623E+02 -0.19200555866E+02  0.46142315802E+02  0.99999821350E+01 0.  0.
         12    1    1    2    0    0  0.38848239629E+02 -0.12299048623E+02  0.19200555866E+02  0.45045684198E+02  0.00000000000E+00 0. -1.
         11    1    3    3    0    0 -0.20952209066E+02  0.55610808799E+01 -0.61137762829E+01  0.22523297849E+02  0.51100000000E-03 0. -1.
        -11    1    3    3    0    0 -0.35466025906E+01 -0.51020256243E+00 -0.22337687389E+01  0.42223713278E+01  0.51100000000E-03 0.  1.
        -12    1    3    3    0    0 -0.14349427973E+02  0.72481703058E+01 -0.10853010844E+02  0.19396646625E+02  0.00000000000E+00 0.  1.
</event>
<event>
 7    1  0.5664398E-009  0.4614232E+02  0.7816164E-02  0.1320468E+00
        -11   -1    0    0    0    0  0.00000000000E+00  0.00000000000E+00  0.45593999997E+02  0.45594000000E+02  0.51100000000E-03 0. -1.
         11   -1    0    0    0    0 -0.00000000000E+00 -0.00000000000E+00 -0.45593999997E+02  0.45594000000E+02  0.51100000000E-03 0.  1.
    9900012    2    1    2    0    0 -0.35217602086E+02  0.12303231236E+02 -0.25248058525E+02  0.46142318134E+02  0.10000003396E+02 0.  0.
         12    1    1    2    0    0  0.35217602086E+02 -0.12303231236E+02  0.25248058525E+02  0.45045681866E+02  0.00000000000E+00 0. -1.
         11    1    3    3    0    0 -0.33206245152E+01 -0.55075900717E+00 -0.36969366930E+01  0.49997223751E+01  0.51100000000E-03 0. -1.
        -11    1    3    3    0    0 -0.10075519294E+02  0.58112563407E+01 -0.41198075163E+01  0.12339351828E+02  0.51100000000E-03 0.  1.
        -12    1    3    3    0    0 -0.21821458277E+02  0.70427339024E+01 -0.17431314316E+02  0.28803243930E+02  0.00000000000E+00 0.  1.
</event>
<event>
 7    1  0.5664398E-009  0.4614232E+02  0.7816164E-02  0.1320468E+00
        -11   -1    0    0    0    0  0.00000000000E+00  0.00000000000E+00  0.45593999997E+02  0.45594000000E+02  0.51100000000E-03 0. -1.
         11   -1    0    0    0    0 -0.00000000000E+00 -0.00000000000E+00 -0.45593999997E+02  0.45594000000E+02  0.51100000000E-03 0.  1.
    9900012    2    1    2    0    0  0.68777144844E+01  0.25518596482E+02 -0.36477551401E+02  0.46142317864E+02  0.10000000934E+02 0.  0.
         12    1    1    2    0    0 -0.68777144844E+01 -0.25518596482E+02  0.36477551401E+02  0.45045682136E+02  0.00000000000E+00 0. -1.
         11    1    3    3    0    0  0.21511222719E+01  0.19696459523E+01 -0.16129011765E+01  0.33329090405E+01  0.51100000000E-03 0. -1.
        -11    1    3    3    0    0  0.62214193212E+01  0.17188657236E+02 -0.26561214613E+02  0.32243667873E+02  0.51100000000E-03 0.  1.
        -12    1    3    3    0    0 -0.14948271087E+01  0.63602932935E+01 -0.83034356113E+01  0.10565740950E+02  0.00000000000E+00 0.  1.
</event>
<event>
 7    1  0.5664398E-009  0.4614232E+02  0.7816164E-02  0.1320468E+00
        -11   -1    0    0    0    0  0.00000000000E+00  0.00000000000E+00  0.45593999997E+02  0.45594000000E+02  0.51100000000E-03 0. -1.
         11   -1    0    0    0    0 -0.00000000000E+00 -0.00000000000E+00 -0.45593999997E+02  0.45594000000E+02  0.51100000000E-03 0.  1.
    9900012    2    1    2    0    0  0.32784831072E+02  0.18623415142E+02 -0.24646235318E+02  0.46142315908E+02  0.99999831001E+01 0.  0.
         12    1    1    2    0    0 -0.32784831072E+02 -0.18623415142E+02  0.24646235318E+02  0.45045684092E+02  0.00000000000E+00 0. -1.
         11    1    3    3    0    0  0.14606327260E+02  0.71173010404E+01 -0.12755728306E+02  0.20656944958E+02  0.51100000000E-03 0. -1.
        -11    1    3    3    0    0  0.10047281215E+02  0.55177936589E+01 -0.99998792301E+01  0.15211557828E+02  0.51100000000E-03 0.  1.
         12    1    3    3    0    0  0.81312225977E+01  0.59883204425E+01 -0.18906277820E+01  0.10273813122E+02  0.00000000000E+00 0. -1.
</event>
<event>
 7    1  0.5664398E-009  0.4614232E+02  0.7816164E-02  0.1320468E+00
        -11   -1    0    0    0    0  0.00000000000E+00  0.00000000000E+00  0.45593999997E+02  0.45594000000E+02  0.51100000000E-03 0. -1.
         11   -1    0    0    0    0 -0.00000000000E+00 -0.00000000000E+00 -0.45593999997E+02  0.45594000000E+02  0.51100000000E-03 0.  1.
    9900012    2    1    2    0    0 -0.93138232740E+01  0.18604619681E+02 -0.39952901323E+02  0.46142317614E+02  0.99999986616E+01 0.  0.
         12    1    1    2    0    0  0.93138232740E+01 -0.18604619681E+02  0.39952901323E+02  0.45045682386E+02  0.00000000000E+00 0. -1.
         11    1    3    3    0    0  0.51484295584E+00  0.68695880657E+00 -0.20464364895E+01  0.22192066686E+01  0.51100000000E-03 0. -1.
        -11    1    3    3    0    0 -0.59722064089E+01  0.99350698389E+01 -0.12659913329E+02  0.17165263407E+02  0.51100000000E-03 0.  1.
        -12    1    3    3    0    0 -0.38564598209E+01  0.79825910352E+01 -0.25246551505E+02  0.26757847538E+02  0.00000000000E+00 0.  1.
</event>
<event>
 7    1  0.5664398E-009  0.4614232E+02  0.7816164E-02  0.1320468E+00
        -11   -1    0    0    0    0  0.00000000000E+00  0.00000000000E+00  0.45593999997E+02  0.45594000000E+02  0.51100000000E-03 0. -1.
         11   -1    0    0    0    0 -0.00000000000E+00 -0.00000000000E+00 -0.45593999997E+02  0.45594000000E+02  0.51100000000E-03 0.  1.
    9900012    2    1    2    0    0  0.57260879754E+01  0.34707780610E+02  0.28137077547E+02  0.46142320393E+02  0.10000024003E+02 0.  0.
        -12    1    1    2    0    0 -0.57260879754E+01 -0.34707780610E+02 -0.28137077547E+02  0.45045679607E+02  0.00000000000E+00 0.  1.
         11    1    3    3    0    0  0.27646898594E+01  0.25102941932E+02  0.21479013415E+02  0.33153419450E+02  0.51100000000E-03 0. -1.
        -11    1    3    3    0    0 -0.13453010294E+01  0.19724582276E+01  0.15130771517E+01  0.28266285655E+01  0.51100000000E-03 0.  1.
        -12    1    3    3    0    0  0.43066991455E+01  0.76323804498E+01  0.51449869802E+01  0.10162272378E+02  0.00000000000E+00 0.  1.
</event>
<event>
 7    1  0.5664398E-009  0.4614232E+02  0.7816164E-02  0.1320468E+00
        -11   -1    0    0    0    0  0.00000000000E+00  0.00000000000E+00  0.45593999997E+02  0.45594000000E+02  0.51100000000E-03 0. -1.
         11   -1    0    0    0    0 -0.00000000000E+00 -0.00000000000E+00 -0.45593999997E+02  0.45594000000E+02  0.51100000000E-03 0.  1.
    9900012    2    1    2    0    0  0.30242326024E+01 -0.11228328736E+02 -0.43518871714E+02  0.46142317140E+02  0.99999943390E+01 0.  0.
         12    1    1    2    0    0 -0.30242326024E+01  0.11228328736E+02  0.43518871714E+02  0.45045682860E+02  0.00000000000E+00 0. -1.
         11    1    3    3    0    0  0.89204283221E+00  0.59246652086E+00 -0.13786454144E+01  0.17456862355E+01  0.51100000000E-03 0. -1.
        -11    1    3    3    0    0  0.88763859301E+00 -0.69881845910E+01 -0.12578873317E+02  0.14417027445E+02  0.51100000000E-03 0.  1.
        -12    1    3    3    0    0  0.12445511772E+01 -0.48326106658E+01 -0.29561352982E+02  0.29979603460E+02  0.00000000000E+00 0.  1.
</event>
<event>
 7    1  0.5664398E-009  0.4614232E+02  0.7816164E-02  0.1320468E+00
        -11   -1    0    0    0    0  0.00000000000E+00  0.00000000000E+00  0.45593999997E+02  0.45594000000E+02  0.51100000000E-03 0. -1.
         11   -1    0    0    0    0 -0.00000000000E+00 -0.00000000000E+00 -0.45593999997E+02  0.45594000000E+02  0.51100000000E-03 0.  1.
    9900012    2    1    2    0    0 -0.34221331343E+02  0.16545049356E+02  0.24171788257E+02  0.46142317359E+02  0.99999963320E+01 0.  0.
        -12    1    1    2    0    0  0.34221331343E+02 -0.16545049356E+02 -0.24171788257E+02  0.45045682641E+02  0.00000000000E+00 0.  1.
         11    1    3    3    0    0 -0.79731418461E+01  0.45559354789E+01  0.86066938435E+01  0.12585814164E+02  0.51100000000E-03 0. -1.
        -11    1    3    3    0    0 -0.13163909139E+02  0.30307545864E+01  0.97799596520E+01  0.16676977791E+02  0.51100000000E-03 0.  1.
         12    1    3    3    0    0 -0.13084280358E+02  0.89583592912E+01  0.57851347611E+01  0.16879525404E+02  0.00000000000E+00 0. -1.
</event>
<event>
 7    1  0.5664398E-009  0.4614232E+02  0.7816164E-02  0.1320468E+00
        -11   -1    0    0    0    0  0.00000000000E+00  0.00000000000E+00  0.45593999997E+02  0.45594000000E+02  0.51100000000E-03 0. -1.
         11   -1    0    0    0    0 -0.00000000000E+00 -0.00000000000E+00 -0.45593999997E+02  0.45594000000E+02  0.51100000000E-03 0.  1.
    9900012    2    1    2    0    0 -0.27230058144E+02  0.22602002261E+02  0.27870899092E+02  0.46142316645E+02  0.99999898213E+01 0.  0.
        -12    1    1    2    0    0  0.27230058144E+02 -0.22602002261E+02 -0.27870899092E+02  0.45045683355E+02  0.00000000000E+00 0.  1.
         11    1    3    3    0    0 -0.14936264685E+01 -0.31953324333E+00  0.13004586580E+01  0.20060444918E+01  0.51100000000E-03 0. -1.
        -11    1    3    3    0    0 -0.10607089594E+02  0.70652446946E+01  0.13739438469E+02  0.18740336228E+02  0.51100000000E-03 0.  1.
         12    1    3    3    0    0 -0.15129342082E+02  0.15856290809E+02  0.12831001965E+02  0.25395935925E+02  0.00000000000E+00 0. -1.
</event>
<event>
 7    1  0.5664398E-009  0.4614232E+02  0.7816164E-02  0.1320468E+00
        -11   -1    0    0    0    0  0.00000000000E+00  0.00000000000E+00  0.45593999997E+02  0.45594000000E+02  0.51100000000E-03 0. -1.
         11   -1    0    0    0    0 -0.00000000000E+00 -0.00000000000E+00 -0.45593999997E+02  0.45594000000E+02  0.51100000000E-03 0.  1.
    9900012    2    1    2    0    0 -0.51181861729E+01  0.14175085581E+02 -0.42449789165E+02  0.46142317842E+02  0.10000000736E+02 0.  0.
         12    1    1    2    0    0  0.51181861729E+01 -0.14175085581E+02  0.42449789165E+02  0.45045682158E+02  0.00000000000E+00 0. -1.
         11    1    3    3    0    0 -0.30170348543E+01  0.16356737489E+01 -0.49727469269E+01  0.60420311308E+01  0.51100000000E-03 0. -1.
        -11    1    3    3    0    0 -0.42613176643E+01  0.10305957341E+02 -0.29785773473E+02  0.31805092149E+02  0.51100000000E-03 0.  1.
         12    1    3    3    0    0  0.21601663457E+01  0.22334544907E+01 -0.76912687654E+01  0.82951945622E+01  0.00000000000E+00 0. -1.
</event>
<event>
 7    1  0.5664398E-009  0.4614232E+02  0.7816164E-02  0.1320468E+00
        -11   -1    0    0    0    0  0.00000000000E+00  0.00000000000E+00  0.45593999997E+02  0.45594000000E+02  0.51100000000E-03 0. -1.
         11   -1    0    0    0    0 -0.00000000000E+00 -0.00000000000E+00 -0.45593999997E+02  0.45594000000E+02  0.51100000000E-03 0.  1.
    9900012    2    1    2    0    0  0.75993531760E+00  0.81096258371E-01 -0.45039198269E+02  0.46142318087E+02  0.10000002972E+02 0.  0.
         12    1    1    2    0    0 -0.75993531760E+00 -0.81096258371E-01  0.45039198269E+02  0.45045681913E+02  0.00000000000E+00 0. -1.
         11    1    3    3    0    0  0.14349732019E+00 -0.27438941004E+01 -0.42737733421E+01  0.50808154027E+01  0.51100000000E-03 0. -1.
        -11    1    3    3    0    0 -0.49307979855E+00 -0.65669679183E+00 -0.16704455904E+02  0.16724629313E+02  0.51100000000E-03 0.  1.
        -12    1    3    3    0    0  0.11095177960E+01  0.34816871506E+01 -0.24060969023E+02  0.24336873371E+02  0.00000000000E+00 0.  1.
</event>
<event>
 7    1  0.5664398E-009  0.4614232E+02  0.7816164E-02  0.1320468E+00
        -11   -1    0    0    0    0  0.00000000000E+00  0.00000000000E+00  0.45593999997E+02  0.45594000000E+02  0.51100000000E-03 0. -1.
         11   -1    0    0    0    0 -0.00000000000E+00 -0.00000000000E+00 -0.45593999997E+02  0.45594000000E+02  0.51100000000E-03 0.  1.
    9900012    2    1    2    0    0  0.31025670921E+02 -0.18949585238E+02 -0.26597640668E+02  0.46142317344E+02  0.99999961994E+01 0.  0.
         12    1    1    2    0    0 -0.31025670921E+02  0.18949585238E+02  0.26597640668E+02  0.45045682656E+02  0.00000000000E+00 0. -1.
         11    1    3    3    0    0  0.57987598453E+01 -0.29231366659E+01 -0.73203627042E+01  0.97856044316E+01  0.51100000000E-03 0. -1.
        -11    1    3    3    0    0  0.10017040836E+01  0.81463094440E+00 -0.50146965763E+00  0.13851017022E+01  0.51100000000E-03 0.  1.
        -12    1    3    3    0    0  0.24225206992E+02 -0.16841079517E+02 -0.18775808306E+02  0.34971611211E+02  0.00000000000E+00 0.  1.
</event>
<event>
 7    1  0.5664398E-009  0.4614232E+02  0.7816164E-02  0.1320468E+00
        -11   -1    0    0    0    0  0.00000000000E+00  0.00000000000E+00  0.45593999997E+02  0.45594000000E+02  0.51100000000E-03 0. -1.
         11   -1    0    0    0    0 -0.00000000000E+00 -0.00000000000E+00 -0.45593999997E+02  0.45594000000E+02  0.51100000000E-03 0.  1.
    9900012    2    1    2    0    0 -0.11789781634E+01 -0.42122880399E+02 -0.15918115469E+02  0.46142318268E+02  0.10000004626E+02 0.  0.
         12    1    1    2    0    0  0.11789781634E+01  0.42122880399E+02  0.15918115469E+02  0.45045681732E+02  0.00000000000E+00 0. -1.
         11    1    3    3    0    0 -0.21030715278E+01 -0.60559668780E+01 -0.53996386546E+00  0.64334443276E+01  0.51100000000E-03 0. -1.
        -11    1    3    3    0    0  0.30088103546E+01 -0.10746339553E+02 -0.56005367114E+01  0.12486102885E+02  0.51100000000E-03 0.  1.
        -12    1    3    3    0    0 -0.20847169902E+01 -0.25320573968E+02 -0.97776148919E+01  0.27222771056E+02  0.00000000000E+00 0.  1.
</event>
<event>
 7    1  0.5664398E-009  0.4614232E+02  0.7816164E-02  0.1320468E+00
        -11   -1    0    0    0    0  0.00000000000E+00  0.00000000000E+00  0.45593999997E+02  0.45594000000E+02  0.51100000000E-03 0. -1.
         11   -1    0    0    0    0 -0.00000000000E+00 -0.00000000000E+00 -0.45593999997E+02  0.45594000000E+02  0.51100000000E-03 0.  1.
    9900012    2    1    2    0    0 -0.75162488184E+01 -0.28131825560E+01 -0.44324998671E+02  0.46142317636E+02  0.99999988612E+01 0.  0.
         12    1    1    2    0    0  0.75162488184E+01  0.28131825560E+01  0.44324998671E+02  0.45045682364E+02  0.00000000000E+00 0. -1.
         11    1    3    3    0    0 -0.11805311747E+01  0.41395083941E+00 -0.90426513632E+01  0.91287761003E+01  0.51100000000E-03 0. -1.
        -11    1    3    3    0    0 -0.53147554689E+01 -0.32726719222E+01 -0.35434760132E+02  0.35980261715E+02  0.51100000000E-03 0.  1.
        -12    1    3    3    0    0 -0.10209621748E+01  0.45538526750E-01  0.15241282361E+00  0.10332798211E+01  0.00000000000E+00 0.  1.
</event>
<event>
 7    1  0.5664398E-009  0.4614232E+02  0.7816164E-02  0.1320468E+00
        -11   -1    0    0    0    0  0.00000000000E+00  0.00000000000E+00  0.45593999997E+02  0.45594000000E+02  0.51100000000E-03 0. -1.
         11   -1    0    0    0    0 -0.00000000000E+00 -0.00000000000E+00 -0.45593999997E+02  0.45594000000E+02  0.51100000000E-03 0.  1.
    9900012    2    1    2    0    0  0.35940638176E+02  0.14541614381E+02 -0.22933064093E+02  0.46142318187E+02  0.10000003885E+02 0.  0.
         12    1    1    2    0    0 -0.35940638176E+02 -0.14541614381E+02  0.22933064093E+02  0.45045681813E+02  0.00000000000E+00 0. -1.
         11    1    3    3    0    0  0.94032890009E+01  0.28002466146E+01 -0.21257084782E+01  0.10039016980E+02  0.51100000000E-03 0. -1.
        -11    1    3    3    0    0  0.10955526652E+02  0.20833897469E+01 -0.72256080684E+01  0.13288095773E+02  0.51100000000E-03 0.  1.
        -12    1    3    3    0    0  0.15581822523E+02  0.96579780192E+01 -0.13581747546E+02  0.22815205434E+02  0.00000000000E+00 0.  1.
</event>
<event>
 7    1  0.5664398E-009  0.4614231E+02  0.7816164E-02  0.1320468E+00
        -11   -1    0    0    0    0  0.00000000000E+00  0.00000000000E+00  0.45593999997E+02  0.45594000000E+02  0.51100000000E-03 0. -1.
         11   -1    0    0    0    0 -0.00000000000E+00 -0.00000000000E+00 -0.45593999997E+02  0.45594000000E+02  0.51100000000E-03 0.  1.
    9900012    2    1    2    0    0 -0.11865525996E+01  0.16572020268E+02  0.41869726342E+02  0.46142314893E+02  0.99999738423E+01 0.  0.
        -12    1    1    2    0    0  0.11865525996E+01 -0.16572020268E+02 -0.41869726342E+02  0.45045685107E+02  0.00000000000E+00 0.  1.
         11    1    3    3    0    0 -0.14596069108E+01  0.20181205442E+01  0.97422573337E+01  0.10055587555E+02  0.51100000000E-03 0. -1.
        -11    1    3    3    0    0 -0.98660103583E+00  0.23858000740E-01  0.67099371051E+01  0.67821240790E+01  0.51100000000E-03 0.  1.
        -12    1    3    3    0    0  0.12596553470E+01  0.14530041723E+02  0.25417531903E+02  0.29304603258E+02  0.00000000000E+00 0.  1.
</event>
<event>
 7    1  0.5664398E-009  0.4614232E+02  0.7816164E-02  0.1320468E+00
        -11   -1    0    0    0    0  0.00000000000E+00  0.00000000000E+00  0.45593999997E+02  0.45594000000E+02  0.51100000000E-03 0.  1.
         11   -1    0    0    0    0 -0.00000000000E+00 -0.00000000000E+00 -0.45593999997E+02  0.45594000000E+02  0.51100000000E-03 0. -1.
    9900012    2    1    2    0    0  0.37310455446E+02  0.19862610564E+02  0.15573056375E+02  0.46142317977E+02  0.10000001972E+02 0.  0.
         12    1    1    2    0    0 -0.37310455446E+02 -0.19862610564E+02 -0.15573056375E+02  0.45045682023E+02  0.00000000000E+00 0. -1.
         11    1    3    3    0    0  0.19174246919E+02  0.91513608477E+01  0.46354381775E+01  0.21745952212E+02  0.51100000000E-03 0. -1.
        -11    1    3    3    0    0  0.16606564164E+02  0.75234915645E+01  0.86013937641E+01  0.20158493833E+02  0.51100000000E-03 0.  1.
        -12    1    3    3    0    0  0.15296443635E+01  0.31877581516E+01  0.23362244332E+01  0.42378719323E+01  0.00000000000E+00 0.  1.
</event>
<event>
 7    1  0.9313853E-009  0.4614232E+02  0.7816164E-02  0.1320468E+00
        -11   -1    0    0    0    0  0.00000000000E+00  0.00000000000E+00  0.45593999997E+02  0.45594000000E+02  0.51100000000E-03 0. -1.
         11   -1    0    0    0    0 -0.00000000000E+00 -0.00000000000E+00 -0.45593999997E+02  0.45594000000E+02  0.51100000000E-03 0.  1.
    9900012    2    1    2    0    0  0.22511799235E+02 -0.31875945587E+01  0.38886650630E+02  0.46142318064E+02  0.10000002761E+02 0.  0.
        -12    1    1    2    0    0 -0.22511799235E+02  0.31875945587E+01 -0.38886650630E+02  0.45045681936E+02  0.00000000000E+00 0.  1.
         11    1    3    3    0    0  0.32771716504E+01 -0.27046977484E+01  0.60562540445E+01  0.73982063535E+01  0.51100000000E-03 0. -1.
        -11    1    3    3    0    0  0.72500471875E-01 -0.88130404048E+00  0.41898648336E+01  0.42821630883E+01  0.51100000000E-03 0.  1.
         12    1    3    3    0    0  0.19162127112E+02  0.39840723021E+00  0.28640531752E+02  0.34461948622E+02  0.00000000000E+00 0. -1.
</event>
<event>
 7    1  0.5664398E-009  0.4614231E+02  0.7816164E-02  0.1320468E+00
        -11   -1    0    0    0    0  0.00000000000E+00  0.00000000000E+00  0.45593999997E+02  0.45594000000E+02  0.51100000000E-03 0. -1.
         11   -1    0    0    0    0 -0.00000000000E+00 -0.00000000000E+00 -0.45593999997E+02  0.45594000000E+02  0.51100000000E-03 0.  1.
    9900012    2    1    2    0    0 -0.32157249305E+02 -0.43052743875E+01  0.31248836652E+02  0.46142313608E+02  0.99999621285E+01 0.  0.
        -12    1    1    2    0    0  0.32157249305E+02  0.43052743875E+01 -0.31248836652E+02  0.45045686392E+02  0.00000000000E+00 0.  1.
         11    1    3    3    0    0 -0.20499139499E+02 -0.46432292217E+01  0.24652908088E+02  0.32396607465E+02  0.51100000000E-03 0. -1.
        -11    1    3    3    0    0 -0.62229872874E+01 -0.12359128226E+01  0.28193291917E+01  0.69427421554E+01  0.51100000000E-03 0.  1.
        -12    1    3    3    0    0 -0.54351225186E+01  0.15738676568E+01  0.37765993725E+01  0.68029639874E+01  0.00000000000E+00 0.  1.
</event>
<event>
 7    1  0.5664398E-009  0.4614232E+02  0.7816164E-02  0.1320468E+00
        -11   -1    0    0    0    0  0.00000000000E+00  0.00000000000E+00  0.45593999997E+02  0.45594000000E+02  0.51100000000E-03 0. -1.
         11   -1    0    0    0    0 -0.00000000000E+00 -0.00000000000E+00 -0.45593999997E+02  0.45594000000E+02  0.51100000000E-03 0.  1.
    9900012    2    1    2    0    0  0.17349895406E+02  0.39360712957E+02 -0.13372692392E+02  0.46142317667E+02  0.99999991410E+01 0.  0.
         12    1    1    2    0    0 -0.17349895406E+02 -0.39360712957E+02  0.13372692392E+02  0.45045682333E+02  0.00000000000E+00 0. -1.
         11    1    3    3    0    0  0.89449278057E+01  0.15379862994E+02 -0.88967151028E+01  0.19892296475E+02  0.51100000000E-03 0. -1.
        -11    1    3    3    0    0  0.28476875397E+01  0.29391418214E+01 -0.44337103968E+00  0.41163645502E+01  0.51100000000E-03 0.  1.
        -12    1    3    3    0    0  0.55572800602E+01  0.21041708142E+02 -0.40326062494E+01  0.22133656642E+02  0.00000000000E+00 0.  1.
</event>
<event>
 7    1  0.5664398E-009  0.4614232E+02  0.7816164E-02  0.1320468E+00
        -11   -1    0    0    0    0  0.00000000000E+00  0.00000000000E+00  0.45593999997E+02  0.45594000000E+02  0.51100000000E-03 0. -1.
         11   -1    0    0    0    0 -0.00000000000E+00 -0.00000000000E+00 -0.45593999997E+02  0.45594000000E+02  0.51100000000E-03 0.  1.
    9900012    2    1    2    0    0  0.25054303468E+02  0.63949955423E+01  0.36884944423E+02  0.46142320792E+02  0.10000027638E+02 0.  0.
        -12    1    1    2    0    0 -0.25054303468E+02 -0.63949955423E+01 -0.36884944423E+02  0.45045679208E+02  0.00000000000E+00 0.  1.
         11    1    3    3    0    0  0.54167881995E+01  0.33433888402E+01  0.78333600994E+01  0.10093630370E+02  0.51100000000E-03 0. -1.
        -11    1    3    3    0    0  0.32462963929E+01 -0.10980908505E+01  0.15411520239E+01  0.37575781573E+01  0.51100000000E-03 0.  1.
        -12    1    3    3    0    0  0.16391218876E+02  0.41496975527E+01  0.27510432299E+02  0.32291112265E+02  0.00000000000E+00 0.  1.
</event>
<event>
 7    1  0.5664398E-009  0.4614232E+02  0.7816164E-02  0.1320468E+00
        -11   -1    0    0    0    0  0.00000000000E+00  0.00000000000E+00  0.45593999997E+02  0.45594000000E+02  0.51100000000E-03 0. -1.
         11   -1    0    0    0    0 -0.00000000000E+00 -0.00000000000E+00 -0.45593999997E+02  0.45594000000E+02  0.51100000000E-03 0.  1.
    9900012    2    1    2    0    0 -0.15903301887E+02  0.38891635478E+02 -0.16236968574E+02  0.46142317971E+02  0.10000001910E+02 0.  0.
         12    1    1    2    0    0  0.15903301887E+02 -0.38891635478E+02  0.16236968574E+02  0.45045682029E+02  0.00000000000E+00 0. -1.
         11    1    3    3    0    0 -0.37265877420E+01  0.11298245183E+02 -0.59320379647E+01  0.13293866070E+02  0.51100000000E-03 0. -1.
        -11    1    3    3    0    0 -0.76730380486E+01  0.21905179989E+02 -0.10751562582E+02  0.25579455066E+02  0.51100000000E-03 0.  1.
         12    1    3    3    0    0 -0.45036760961E+01  0.56882103055E+01  0.44663197313E+00  0.72689968344E+01  0.00000000000E+00 0. -1.
</event>
<event>
 7    1  0.5664398E-009  0.4614232E+02  0.7816164E-02  0.1320468E+00
        -11   -1    0    0    0    0  0.00000000000E+00  0.00000000000E+00  0.45593999997E+02  0.45594000000E+02  0.51100000000E-03 0. -1.
         11   -1    0    0    0    0 -0.00000000000E+00 -0.00000000000E+00 -0.45593999997E+02  0.45594000000E+02  0.51100000000E-03 0.  1.
    9900012    2    1    2    0    0 -0.28696182689E+00  0.17254302191E+02  0.41609137440E+02  0.46142316414E+02  0.99999877174E+01 0.  0.
        -12    1    1    2    0    0  0.28696182689E+00 -0.17254302191E+02 -0.41609137440E+02  0.45045683586E+02  0.00000000000E+00 0.  1.
         11    1    3    3    0    0 -0.22728701528E+01  0.86653791107E+01  0.13364883148E+02  0.16089587804E+02  0.51100000000E-03 0. -1.
        -11    1    3    3    0    0  0.39289317305E+00  0.16001068842E+01  0.14098932385E+02  0.14194879420E+02  0.51100000000E-03 0.  1.
         12    1    3    3    0    0  0.15930151529E+01  0.69888161960E+01  0.14145321907E+02  0.15857849191E+02  0.00000000000E+00 0. -1.
</event>
<event>
 7    1  0.5664398E-009  0.4614232E+02  0.7816164E-02  0.1320468E+00
        -11   -1    0    0    0    0  0.00000000000E+00  0.00000000000E+00  0.45593999997E+02  0.45594000000E+02  0.51100000000E-03 0.  1.
         11   -1    0    0    0    0 -0.00000000000E+00 -0.00000000000E+00 -0.45593999997E+02  0.45594000000E+02  0.51100000000E-03 0. -1.
    9900012    2    1    2    0    0  0.19709150363E+02 -0.30510099119E+02 -0.26642009936E+02  0.46142318191E+02  0.10000003916E+02 0.  0.
         12    1    1    2    0    0 -0.19709150363E+02  0.30510099119E+02  0.26642009936E+02  0.45045681809E+02  0.00000000000E+00 0. -1.
         11    1    3    3    0    0  0.60169481873E+00 -0.35661294410E+00 -0.31499867943E+01  0.32267052100E+01  0.51100000000E-03 0. -1.
        -11    1    3    3    0    0  0.11642170237E+02 -0.16416619420E+02 -0.11234351658E+02  0.23048995172E+02  0.51100000000E-03 0.  1.
         12    1    3    3    0    0  0.74652853068E+01 -0.13736866755E+02 -0.12257671484E+02  0.19866617808E+02  0.00000000000E+00 0. -1.
</event>
<event>
 7    1  0.5664398E-009  0.4614232E+02  0.7816164E-02  0.1320468E+00
        -11   -1    0    0    0    0  0.00000000000E+00  0.00000000000E+00  0.45593999997E+02  0.45594000000E+02  0.51100000000E-03 0. -1.
         11   -1    0    0    0    0 -0.00000000000E+00 -0.00000000000E+00 -0.45593999997E+02  0.45594000000E+02  0.51100000000E-03 0.  1.
    9900012    2    1    2    0    0  0.29574886306E+02 -0.25055163955E+02  0.22949472010E+02  0.46142318671E+02  0.10000008298E+02 0.  0.
        -12    1    1    2    0    0 -0.29574886306E+02  0.25055163955E+02 -0.22949472010E+02  0.45045681329E+02  0.00000000000E+00 0.  1.
         11    1    3    3    0    0  0.15736389112E+02 -0.13189995669E+02  0.10579536311E+02  0.23098409401E+02  0.51100000000E-03 0. -1.
        -11    1    3    3    0    0  0.12690619118E+02 -0.94461003336E+01  0.75484681873E+01  0.17528833314E+02  0.51100000000E-03 0.  1.
        -12    1    3    3    0    0  0.11478780760E+01 -0.24190679524E+01  0.48214675117E+01  0.55150759561E+01  0.00000000000E+00 0.  1.
</event>
<event>
 7    1  0.5664398E-009  0.4614232E+02  0.7816164E-02  0.1320468E+00
        -11   -1    0    0    0    0  0.00000000000E+00  0.00000000000E+00  0.45593999997E+02  0.45594000000E+02  0.51100000000E-03 0. -1.
         11   -1    0    0    0    0 -0.00000000000E+00 -0.00000000000E+00 -0.45593999997E+02  0.45594000000E+02  0.51100000000E-03 0.  1.
    9900012    2    1    2    0    0  0.26108889345E+02 -0.15570871562E+02  0.33241351534E+02  0.46142316569E+02  0.99999891261E+01 0.  0.
        -12    1    1    2    0    0 -0.26108889345E+02  0.15570871562E+02 -0.33241351534E+02  0.45045683431E+02  0.00000000000E+00 0.  1.
         11    1    3    3    0    0  0.90100360800E+01 -0.94456367494E+01  0.12669215697E+02  0.18190927145E+02  0.51100000000E-03 0. -1.
        -11    1    3    3    0    0  0.17153086584E+01 -0.26412132789E+01  0.34718982973E+01  0.46874694054E+01  0.51100000000E-03 0.  1.
        -12    1    3    3    0    0  0.15383544607E+02 -0.34840215335E+01  0.17100237539E+02  0.23263920018E+02  0.00000000000E+00 0.  1.
</event>
<event>
 7    1  0.5664398E-009  0.4614232E+02  0.7816164E-02  0.1320468E+00
        -11   -1    0    0    0    0  0.00000000000E+00  0.00000000000E+00  0.45593999997E+02  0.45594000000E+02  0.51100000000E-03 0. -1.
         11   -1    0    0    0    0 -0.00000000000E+00 -0.00000000000E+00 -0.45593999997E+02  0.45594000000E+02  0.51100000000E-03 0.  1.
    9900012    2    1    2    0    0  0.14129921257E+02 -0.27867464392E+02 -0.32447853458E+02  0.46142318293E+02  0.10000004854E+02 0.  0.
         12    1    1    2    0    0 -0.14129921257E+02  0.27867464392E+02  0.32447853458E+02  0.45045681707E+02  0.00000000000E+00 0. -1.
         11    1    3    3    0    0  0.35764799133E+01 -0.22152394860E+01 -0.31033152056E+01  0.52277203518E+01  0.51100000000E-03 0. -1.
        -11    1    3    3    0    0  0.53251782468E+01 -0.12293187500E+02 -0.94814160500E+01  0.16412715584E+02  0.51100000000E-03 0.  1.
        -12    1    3    3    0    0  0.52282630965E+01 -0.13359037406E+02 -0.19863122202E+02  0.24501882357E+02  0.00000000000E+00 0.  1.
</event>
<event>
 7    1  0.5664398E-009  0.4614232E+02  0.7816164E-02  0.1320468E+00
        -11   -1    0    0    0    0  0.00000000000E+00  0.00000000000E+00  0.45593999997E+02  0.45594000000E+02  0.51100000000E-03 0. -1.
         11   -1    0    0    0    0 -0.00000000000E+00 -0.00000000000E+00 -0.45593999997E+02  0.45594000000E+02  0.51100000000E-03 0.  1.
    9900012    2    1    2    0    0  0.20454219310E+02  0.32389275403E+02  0.23699645174E+02  0.46142318408E+02  0.10000005896E+02 0.  0.
        -12    1    1    2    0    0 -0.20454219310E+02 -0.32389275403E+02 -0.23699645174E+02  0.45045681592E+02  0.00000000000E+00 0.  1.
         11    1    3    3    0    0  0.52091982476E+01  0.49119642301E+01  0.32829880052E+01  0.78766204354E+01  0.51100000000E-03 0. -1.
        -11    1    3    3    0    0  0.49355865460E+01  0.94623192765E+01  0.27800666536E+01  0.11028339472E+02  0.51100000000E-03 0.  1.
         12    1    3    3    0    0  0.10309434517E+02  0.18014991897E+02  0.17636590515E+02  0.27237358501E+02  0.00000000000E+00 0. -1.
</event>
<event>
 7    1  0.5664398E-009  0.4614232E+02  0.7816164E-02  0.1320468E+00
        -11   -1    0    0    0    0  0.00000000000E+00  0.00000000000E+00  0.45593999997E+02  0.45594000000E+02  0.51100000000E-03 0. -1.
         11   -1    0    0    0    0 -0.00000000000E+00 -0.00000000000E+00 -0.45593999997E+02  0.45594000000E+02  0.51100000000E-03 0.  1.
    9900012    2    1    2    0    0 -0.37067245258E+02  0.90538729274E+01 -0.23940762944E+02  0.46142318561E+02  0.10000007291E+02 0.  0.
         12    1    1    2    0    0  0.37067245258E+02 -0.90538729274E+01  0.23940762944E+02  0.45045681439E+02  0.00000000000E+00 0. -1.
         11    1    3    3    0    0 -0.74834157017E+01 -0.41737067799E-02 -0.23513302213E+01  0.78441240464E+01  0.51100000000E-03 0. -1.
        -11    1    3    3    0    0 -0.13624100803E+01 -0.57364569088E-01  0.35035216134E+00  0.14079058274E+01  0.51100000000E-03 0.  1.
        -12    1    3    3    0    0 -0.28221419476E+02  0.91154112032E+01 -0.21939784884E+02  0.36890288687E+02  0.00000000000E+00 0.  1.
</event>
<event>
 7    1  0.5664398E-009  0.4614232E+02  0.7816164E-02  0.1320468E+00
        -11   -1    0    0    0    0  0.00000000000E+00  0.00000000000E+00  0.45593999997E+02  0.45594000000E+02  0.51100000000E-03 0.  1.
         11   -1    0    0    0    0 -0.00000000000E+00 -0.00000000000E+00 -0.45593999997E+02  0.45594000000E+02  0.51100000000E-03 0. -1.
    9900012    2    1    2    0    0  0.40083642835E+02 -0.19966585017E+02 -0.48734726756E+01  0.46142315678E+02  0.99999810032E+01 0.  0.
        -12    1    1    2    0    0 -0.40083642835E+02  0.19966585017E+02  0.48734726756E+01  0.45045684322E+02  0.00000000000E+00 0.  1.
         11    1    3    3    0    0  0.21494533748E+01 -0.56726484479E+00 -0.16416500965E+01  0.27635040284E+01  0.51100000000E-03 0.  1.
        -11    1    3    3    0    0  0.31841890819E+02 -0.14423749201E+02 -0.50122649945E+01  0.35313925760E+02  0.51100000000E-03 0. -1.
        -12    1    3    3    0    0  0.60922986410E+01 -0.49755709708E+01  0.17804424154E+01  0.80648858896E+01  0.00000000000E+00 0.  1.
</event>
<event>
 7    1  0.5664398E-009  0.4614232E+02  0.7816164E-02  0.1320468E+00
        -11   -1    0    0    0    0  0.00000000000E+00  0.00000000000E+00  0.45593999997E+02  0.45594000000E+02  0.51100000000E-03 0. -1.
         11   -1    0    0    0    0 -0.00000000000E+00 -0.00000000000E+00 -0.45593999997E+02  0.45594000000E+02  0.51100000000E-03 0.  1.
    9900012    2    1    2    0    0  0.13454985251E+02 -0.29111104488E+02 -0.31632585204E+02  0.46142317862E+02  0.10000000921E+02 0.  0.
         12    1    1    2    0    0 -0.13454985251E+02  0.29111104488E+02  0.31632585204E+02  0.45045682138E+02  0.00000000000E+00 0. -1.
         11    1    3    3    0    0  0.14917928378E+01 -0.77755835428E+01 -0.12168792969E+02  0.14517736321E+02  0.51100000000E-03 0. -1.
        -11    1    3    3    0    0  0.45933173354E+01 -0.10449421110E+02 -0.11754445927E+02  0.16384625873E+02  0.51100000000E-03 0.  1.
         12    1    3    3    0    0  0.73698750777E+01 -0.10886099835E+02 -0.77093463074E+01  0.15239955668E+02  0.00000000000E+00 0. -1.
</event>
<event>
 7    1  0.5664398E-009  0.4614232E+02  0.7816164E-02  0.1320468E+00
        -11   -1    0    0    0    0  0.00000000000E+00  0.00000000000E+00  0.45593999997E+02  0.45594000000E+02  0.51100000000E-03 0. -1.
         11   -1    0    0    0    0 -0.00000000000E+00 -0.00000000000E+00 -0.45593999997E+02  0.45594000000E+02  0.51100000000E-03 0.  1.
    9900012    2    1    2    0    0 -0.21861103615E+02 -0.14028158626E+02 -0.36802396693E+02  0.46142317765E+02  0.10000000035E+02 0.  0.
         12    1    1    2    0    0  0.21861103615E+02  0.14028158626E+02  0.36802396693E+02  0.45045682235E+02  0.00000000000E+00 0. -1.
         11    1    3    3    0    0 -0.97964130129E+01 -0.61378423299E+01 -0.16782630517E+02  0.20378898491E+02  0.51100000000E-03 0. -1.
        -11    1    3    3    0    0 -0.69363232078E+01 -0.18614493468E+01 -0.14286673979E+02  0.15990204094E+02  0.51100000000E-03 0.  1.
         12    1    3    3    0    0 -0.51283673946E+01 -0.60288669489E+01 -0.57330921967E+01  0.97732151801E+01  0.00000000000E+00 0. -1.
</event>
<event>
 7    1  0.5664398E-009  0.4614232E+02  0.7816164E-02  0.1320468E+00
        -11   -1    0    0    0    0  0.00000000000E+00  0.00000000000E+00  0.45593999997E+02  0.45594000000E+02  0.51100000000E-03 0. -1.
         11   -1    0    0    0    0 -0.00000000000E+00 -0.00000000000E+00 -0.45593999997E+02  0.45594000000E+02  0.51100000000E-03 0.  1.
    9900012    2    1    2    0    0 -0.25315807112E+02  0.29696590804E+02  0.22501910534E+02  0.46142316824E+02  0.99999914536E+01 0.  0.
        -12    1    1    2    0    0  0.25315807112E+02 -0.29696590804E+02 -0.22501910534E+02  0.45045683176E+02  0.00000000000E+00 0.  1.
         11    1    3    3    0    0 -0.53427355763E+01  0.57050690686E+01  0.56152111695E+01  0.96240964903E+01  0.51100000000E-03 0. -1.
        -11    1    3    3    0    0 -0.11407449499E+02  0.79187094971E+01  0.96995658039E+01  0.16938637525E+02  0.51100000000E-03 0.  1.
        -12    1    3    3    0    0 -0.85656220370E+01  0.16072812238E+02  0.71871335609E+01  0.19579582809E+02  0.00000000000E+00 0.  1.
</event>
<event>
 7    1  0.5664398E-009  0.4614232E+02  0.7816164E-02  0.1320468E+00
        -11   -1    0    0    0    0  0.00000000000E+00  0.00000000000E+00  0.45593999997E+02  0.45594000000E+02  0.51100000000E-03 0.  1.
         11   -1    0    0    0    0 -0.00000000000E+00 -0.00000000000E+00 -0.45593999997E+02  0.45594000000E+02  0.51100000000E-03 0. -1.
    9900012    2    1    2    0    0  0.14858571477E+02 -0.40450664539E+02  0.13117928874E+02  0.46142318011E+02  0.10000002275E+02 0.  0.
         12    1    1    2    0    0 -0.14858571477E+02  0.40450664539E+02 -0.13117928874E+02  0.45045681989E+02  0.00000000000E+00 0. -1.
         11    1    3    3    0    0  0.75162138403E+01 -0.16355496708E+02  0.39565353126E+01  0.18429593457E+02  0.51100000000E-03 0. -1.
        -11    1    3    3    0    0  0.82070175171E+01 -0.15715318851E+02  0.60956768404E+01  0.18747897469E+02  0.51100000000E-03 0.  1.
        -12    1    3    3    0    0 -0.86465988088E+00 -0.83798489799E+01  0.30657167206E+01  0.89648270840E+01  0.00000000000E+00 0.  1.
</event>
<event>
 7    1  0.5664398E-009  0.4614232E+02  0.7816164E-02  0.1320468E+00
        -11   -1    0    0    0    0  0.00000000000E+00  0.00000000000E+00  0.45593999997E+02  0.45594000000E+02  0.51100000000E-03 0. -1.
         11   -1    0    0    0    0 -0.00000000000E+00 -0.00000000000E+00 -0.45593999997E+02  0.45594000000E+02  0.51100000000E-03 0.  1.
    9900012    2    1    2    0    0  0.23945741122E+02 -0.29724428736E+02  0.23920143940E+02  0.46142317991E+02  0.10000002093E+02 0.  0.
        -12    1    1    2    0    0 -0.23945741122E+02  0.29724428736E+02 -0.23920143940E+02  0.45045682009E+02  0.00000000000E+00 0.  1.
         11    1    3    3    0    0  0.14571655638E+02 -0.17007646055E+02  0.11435992808E+02  0.25147069494E+02  0.51100000000E-03 0. -1.
        -11    1    3    3    0    0  0.75767729373E+01 -0.73874075377E+01  0.10809329589E+02  0.15126892764E+02  0.51100000000E-03 0.  1.
        -12    1    3    3    0    0  0.17973125476E+01 -0.53293751429E+01  0.16748215433E+01  0.58683557331E+01  0.00000000000E+00 0.  1.
</event>
<event>
 7    1  0.5664398E-009  0.4614232E+02  0.7816164E-02  0.1320468E+00
        -11   -1    0    0    0    0  0.00000000000E+00  0.00000000000E+00  0.45593999997E+02  0.45594000000E+02  0.51100000000E-03 0. -1.
         11   -1    0    0    0    0 -0.00000000000E+00 -0.00000000000E+00 -0.45593999997E+02  0.45594000000E+02  0.51100000000E-03 0.  1.
    9900012    2    1    2    0    0 -0.35942816644E+02 -0.30660024327E+01 -0.26978269063E+02  0.46142318289E+02  0.10000004810E+02 0.  0.
         12    1    1    2    0    0  0.35942816644E+02  0.30660024327E+01  0.26978269063E+02  0.45045681711E+02  0.00000000000E+00 0. -1.
         11    1    3    3    0    0 -0.17056339221E+02  0.70611821911E-01 -0.93343694447E+01  0.19443614552E+02  0.51100000000E-03 0. -1.
        -11    1    3    3    0    0 -0.10490806577E+01  0.56853126736E+00  0.18572842987E+00  0.12075981695E+01  0.51100000000E-03 0.  1.
        -12    1    3    3    0    0 -0.17837396765E+02 -0.37051455219E+01 -0.17829628048E+02  0.25491105567E+02  0.00000000000E+00 0.  1.
</event>
<event>
 7    1  0.5664398E-009  0.4614232E+02  0.7816164E-02  0.1320468E+00
        -11   -1    0    0    0    0  0.00000000000E+00  0.00000000000E+00  0.45593999997E+02  0.45594000000E+02  0.51100000000E-03 0.  1.
         11   -1    0    0    0    0 -0.00000000000E+00 -0.00000000000E+00 -0.45593999997E+02  0.45594000000E+02  0.51100000000E-03 0. -1.
    9900012    2    1    2    0    0 -0.12582812324E+02 -0.43044032256E+02 -0.42423476911E+01  0.46142318823E+02  0.10000009681E+02 0.  0.
         12    1    1    2    0    0  0.12582812324E+02  0.43044032256E+02  0.42423476911E+01  0.45045681177E+02  0.00000000000E+00 0. -1.
         11    1    3    3    0    0 -0.64658515709E+01 -0.20081668061E+02 -0.18732826674E+01  0.21179939019E+02  0.51100000000E-03 0. -1.
        -11    1    3    3    0    0 -0.65964367553E+01 -0.21479531912E+02 -0.42874298122E+00  0.22473697734E+02  0.51100000000E-03 0.  1.
         12    1    3    3    0    0  0.47947600246E+00 -0.14828322825E+01 -0.19403220425E+01  0.24886820696E+01  0.00000000000E+00 0. -1.
</event>
<event>
 7    1  0.5664398E-009  0.4614232E+02  0.7816164E-02  0.1320468E+00
        -11   -1    0    0    0    0  0.00000000000E+00  0.00000000000E+00  0.45593999997E+02  0.45594000000E+02  0.51100000000E-03 0. -1.
         11   -1    0    0    0    0 -0.00000000000E+00 -0.00000000000E+00 -0.45593999997E+02  0.45594000000E+02  0.51100000000E-03 0.  1.
    9900012    2    1    2    0    0 -0.21695343345E+02 -0.23311343292E+02 -0.31859172627E+02  0.46142317306E+02  0.99999958504E+01 0.  0.
         12    1    1    2    0    0  0.21695343345E+02  0.23311343292E+02  0.31859172627E+02  0.45045682694E+02  0.00000000000E+00 0. -1.
         11    1    3    3    0    0  0.57623469305E-01  0.24233751142E+00  0.11164690162E+00  0.27297110730E+00  0.51100000000E-03 0. -1.
        -11    1    3    3    0    0 -0.17461094920E+02 -0.17201563834E+02 -0.28078188516E+02  0.37271548194E+02  0.51100000000E-03 0.  1.
         12    1    3    3    0    0 -0.42918718935E+01 -0.63521169688E+01 -0.38926310124E+01  0.85977980049E+01  0.00000000000E+00 0. -1.
</event>
<event>
 7    1  0.5664398E-009  0.4614231E+02  0.7816164E-02  0.1320468E+00
        -11   -1    0    0    0    0  0.00000000000E+00  0.00000000000E+00  0.45593999997E+02  0.45594000000E+02  0.51100000000E-03 0. -1.
         11   -1    0    0    0    0 -0.00000000000E+00 -0.00000000000E+00 -0.45593999997E+02  0.45594000000E+02  0.51100000000E-03 0.  1.
    9900012    2    1    2    0    0  0.38152671306E+02 -0.10218964887E+02  0.21657805440E+02  0.46142310888E+02  0.99999373223E+01 0.  0.
        -12    1    1    2    0    0 -0.38152671306E+02  0.10218964887E+02 -0.21657805440E+02  0.45045689112E+02  0.00000000000E+00 0.  1.
         11    1    3    3    0    0  0.66948783351E+01 -0.18735127019E+01  0.34552988036E+01  0.77634100658E+01  0.51100000000E-03 0.  1.
        -11    1    3    3    0    0  0.32066737107E+02 -0.84032648282E+01  0.17654190215E+02  0.37557434961E+02  0.51100000000E-03 0. -1.
        -12    1    3    3    0    0 -0.60894413616E+00  0.57812642962E-01  0.54831642088E+00  0.82146586056E+00  0.00000000000E+00 0.  1.
</event>
<event>
 7    1  0.5771522E-009  0.4614232E+02  0.7816164E-02  0.1320468E+00
        -11   -1    0    0    0    0  0.00000000000E+00  0.00000000000E+00  0.45593999997E+02  0.45594000000E+02  0.51100000000E-03 0. -1.
         11   -1    0    0    0    0 -0.00000000000E+00 -0.00000000000E+00 -0.45593999997E+02  0.45594000000E+02  0.51100000000E-03 0.  1.
    9900012    2    1    2    0    0 -0.11119818919E+02  0.13545060665E+02 -0.41496920699E+02  0.46142317979E+02  0.10000001991E+02 0.  0.
         12    1    1    2    0    0  0.11119818919E+02 -0.13545060665E+02  0.41496920699E+02  0.45045682021E+02  0.00000000000E+00 0. -1.
         11    1    3    3    0    0  0.71437265204E+00  0.19558864884E+01 -0.29103835541E+01  0.35785685594E+01  0.51100000000E-03 0. -1.
        -11    1    3    3    0    0 -0.28331448260E+01  0.75665555476E+00 -0.25991871067E+01  0.39185470662E+01  0.51100000000E-03 0.  1.
        -12    1    3    3    0    0 -0.90010467448E+01  0.10832518622E+02 -0.35987350038E+02  0.38645202354E+02  0.00000000000E+00 0.  1.
</event>
<event>
 7    1  0.5664398E-009  0.4614232E+02  0.7816164E-02  0.1320468E+00
        -11   -1    0    0    0    0  0.00000000000E+00  0.00000000000E+00  0.45593999997E+02  0.45594000000E+02  0.51100000000E-03 0. -1.
         11   -1    0    0    0    0 -0.00000000000E+00 -0.00000000000E+00 -0.45593999997E+02  0.45594000000E+02  0.51100000000E-03 0.  1.
    9900012    2    1    2    0    0 -0.10051079486E+02 -0.81399318710E+01 -0.43148937044E+02  0.46142318101E+02  0.10000003098E+02 0.  0.
         12    1    1    2    0    0  0.10051079486E+02  0.81399318710E+01  0.43148937044E+02  0.45045681899E+02  0.00000000000E+00 0. -1.
         11    1    3    3    0    0 -0.68183687059E+01 -0.34975091999E+01 -0.22972216683E+02  0.24216636059E+02  0.51100000000E-03 0. -1.
        -11    1    3    3    0    0 -0.50992376998E+01 -0.35982508632E+01 -0.12723985251E+02  0.14172135877E+02  0.51100000000E-03 0.  1.
         12    1    3    3    0    0  0.18665269197E+01 -0.10441718079E+01 -0.74527351103E+01  0.77535461649E+01  0.00000000000E+00 0. -1.
</event>
<event>
 7    1  0.5664398E-009  0.4614232E+02  0.7816164E-02  0.1320468E+00
        -11   -1    0    0    0    0  0.00000000000E+00  0.00000000000E+00  0.45593999997E+02  0.45594000000E+02  0.51100000000E-03 0.  1.
         11   -1    0    0    0    0 -0.00000000000E+00 -0.00000000000E+00 -0.45593999997E+02  0.45594000000E+02  0.51100000000E-03 0. -1.
    9900012    2    1    2    0    0  0.43050484615E+02  0.11934787228E+02 -0.57732118336E+01  0.46142319335E+02  0.10000014349E+02 0.  0.
         12    1    1    2    0    0 -0.43050484615E+02 -0.11934787228E+02  0.57732118336E+01  0.45045680665E+02  0.00000000000E+00 0. -1.
         11    1    3    3    0    0  0.18537861569E+02  0.27817710225E+01 -0.32284760223E+01  0.19021398982E+02  0.51100000000E-03 0. -1.
        -11    1    3    3    0    0  0.22619421354E+02  0.91643033272E+01 -0.60859016653E+00  0.24412969096E+02  0.51100000000E-03 0.  1.
        -12    1    3    3    0    0  0.18932016922E+01 -0.11287122139E-01 -0.19361456447E+01  0.27079512559E+01  0.00000000000E+00 0.  1.
</event>
<event>
 7    1  0.5664398E-009  0.4614232E+02  0.7816164E-02  0.1320468E+00
        -11   -1    0    0    0    0  0.00000000000E+00  0.00000000000E+00  0.45593999997E+02  0.45594000000E+02  0.51100000000E-03 0. -1.
         11   -1    0    0    0    0 -0.00000000000E+00 -0.00000000000E+00 -0.45593999997E+02  0.45594000000E+02  0.51100000000E-03 0.  1.
    9900012    2    1    2    0    0  0.25548578087E+02 -0.21069791425E+02  0.30536003401E+02  0.46142318113E+02  0.10000003212E+02 0.  0.
        -12    1    1    2    0    0 -0.25548578087E+02  0.21069791425E+02 -0.30536003401E+02  0.45045681887E+02  0.00000000000E+00 0.  1.
         11    1    3    3    0    0  0.10108929260E+02 -0.13229505541E+02  0.16035265857E+02  0.23115795876E+02  0.51100000000E-03 0. -1.
        -11    1    3    3    0    0  0.70712114919E+00 -0.16193341498E+00  0.23072958701E+01  0.24186478131E+01  0.51100000000E-03 0.  1.
         12    1    3    3    0    0  0.14732527678E+02 -0.76783524686E+01  0.12193441674E+02  0.20607874424E+02  0.00000000000E+00 0. -1.
</event>
<event>
 7    1  0.5664398E-009  0.4614232E+02  0.7816164E-02  0.1320468E+00
        -11   -1    0    0    0    0  0.00000000000E+00  0.00000000000E+00  0.45593999997E+02  0.45594000000E+02  0.51100000000E-03 0. -1.
         11   -1    0    0    0    0 -0.00000000000E+00 -0.00000000000E+00 -0.45593999997E+02  0.45594000000E+02  0.51100000000E-03 0.  1.
    9900012    2    1    2    0    0  0.24036888314E+01 -0.28650199487E+02 -0.34677105305E+02  0.46142320041E+02  0.10000020786E+02 0.  0.
         12    1    1    2    0    0 -0.24036888314E+01  0.28650199487E+02  0.34677105305E+02  0.45045679959E+02  0.00000000000E+00 0. -1.
         11    1    3    3    0    0  0.95641591992E+00 -0.19873625992E+00  0.22844388598E+00  0.10032020649E+01  0.51100000000E-03 0. -1.
        -11    1    3    3    0    0  0.66042994355E+00 -0.15188007725E+01 -0.16448348972E+01  0.23341819974E+01  0.51100000000E-03 0.  1.
         12    1    3    3    0    0  0.78684296794E+00 -0.26932662455E+02 -0.33260714294E+02  0.42804935978E+02  0.00000000000E+00 0. -1.
</event>
<event>
 7    1  0.5664398E-009  0.4614231E+02  0.7816164E-02  0.1320468E+00
        -11   -1    0    0    0    0  0.00000000000E+00  0.00000000000E+00  0.45593999997E+02  0.45594000000E+02  0.51100000000E-03 0. -1.
         11   -1    0    0    0    0 -0.00000000000E+00 -0.00000000000E+00 -0.45593999997E+02  0.45594000000E+02  0.51100000000E-03 0.  1.
    9900012    2    1    2    0    0  0.29102343393E+02  0.33973499129E+02  0.52885486706E+01  0.46142314513E+02  0.99999703785E+01 0.  0.
        -12    1    1    2    0    0 -0.29102343393E+02 -0.33973499129E+02 -0.52885486706E+01  0.45045685487E+02  0.00000000000E+00 0.  1.
         11    1    3    3    0    0  0.20727402741E+02  0.26202054346E+02  0.43371673931E+01  0.33689522074E+02  0.51100000000E-03 0. -1.
        -11    1    3    3    0    0  0.26880267294E+01  0.32618444865E+01  0.26631406654E+01  0.49957417485E+01  0.51100000000E-03 0.  1.
        -12    1    3    3    0    0  0.56869139225E+01  0.45096002956E+01 -0.17117593880E+01  0.74570506899E+01  0.00000000000E+00 0.  1.
</event>
<event>
 7    1  0.5664398E-009  0.4614232E+02  0.7816164E-02  0.1320468E+00
        -11   -1    0    0    0    0  0.00000000000E+00  0.00000000000E+00  0.45593999997E+02  0.45594000000E+02  0.51100000000E-03 0. -1.
         11   -1    0    0    0    0 -0.00000000000E+00 -0.00000000000E+00 -0.45593999997E+02  0.45594000000E+02  0.51100000000E-03 0.  1.
    9900012    2    1    2    0    0  0.98167556186E+01  0.38845378819E+02  0.20585951327E+02  0.46142317205E+02  0.99999949268E+01 0.  0.
        -12    1    1    2    0    0 -0.98167556186E+01 -0.38845378819E+02 -0.20585951327E+02  0.45045682795E+02  0.00000000000E+00 0.  1.
         11    1    3    3    0    0  0.53334900427E+01  0.17837005117E+02  0.13247508404E+02  0.22849537123E+02  0.51100000000E-03 0. -1.
        -11    1    3    3    0    0 -0.51049340772E+00  0.85002945510E+01  0.40468305040E+01  0.94282791835E+01  0.51100000000E-03 0.  1.
         12    1    3    3    0    0  0.49937589836E+01  0.12508079151E+02  0.32916124192E+01  0.13864500898E+02  0.00000000000E+00 0. -1.
</event>
<event>
 7    1  0.5664398E-009  0.4614232E+02  0.7816164E-02  0.1320468E+00
        -11   -1    0    0    0    0  0.00000000000E+00  0.00000000000E+00  0.45593999997E+02  0.45594000000E+02  0.51100000000E-03 0.  1.
         11   -1    0    0    0    0 -0.00000000000E+00 -0.00000000000E+00 -0.45593999997E+02  0.45594000000E+02  0.51100000000E-03 0. -1.
    9900012    2    1    2    0    0  0.32014038198E+02  0.30302273471E+02 -0.92729261218E+01  0.46142316765E+02  0.99999909180E+01 0.  0.
        -12    1    1    2    0    0 -0.32014038198E+02 -0.30302273471E+02  0.92729261218E+01  0.45045683235E+02  0.00000000000E+00 0.  1.
         11    1    3    3    0    0  0.11816162480E+01  0.12635756810E+00 -0.17793147927E+00  0.12016002101E+01  0.51100000000E-03 0. -1.
        -11    1    3    3    0    0  0.10953395101E+01 -0.37405027907E+00 -0.10340677208E+01  0.15520884531E+01  0.51100000000E-03 0.  1.
         12    1    3    3    0    0  0.29737082440E+02  0.30549966182E+02 -0.80609269217E+01  0.43388628102E+02  0.00000000000E+00 0. -1.
</event>
<event>
 7    1  0.5664398E-009  0.4614232E+02  0.7816164E-02  0.1320468E+00
        -11   -1    0    0    0    0  0.00000000000E+00  0.00000000000E+00  0.45593999997E+02  0.45594000000E+02  0.51100000000E-03 0. -1.
         11   -1    0    0    0    0 -0.00000000000E+00 -0.00000000000E+00 -0.45593999997E+02  0.45594000000E+02  0.51100000000E-03 0.  1.
    9900012    2    1    2    0    0 -0.36162580518E+02 -0.23325653024E+01  0.26757061839E+02  0.46142318199E+02  0.10000003994E+02 0.  0.
        -12    1    1    2    0    0  0.36162580518E+02  0.23325653024E+01 -0.26757061839E+02  0.45045681801E+02  0.00000000000E+00 0.  1.
         11    1    3    3    0    0 -0.10186845886E+02 -0.54242522831E+00  0.12674500405E+02  0.16269880608E+02  0.51100000000E-03 0. -1.
        -11    1    3    3    0    0 -0.22926756024E+01 -0.23231962648E+00  0.59758595406E-01  0.23051909200E+01  0.51100000000E-03 0.  1.
         12    1    3    3    0    0 -0.23683059030E+02 -0.15578204476E+01  0.14022802839E+02  0.27567246671E+02  0.00000000000E+00 0. -1.
</event>
<event>
 7    1  0.5664398E-009  0.4614232E+02  0.7816164E-02  0.1320468E+00
        -11   -1    0    0    0    0  0.00000000000E+00  0.00000000000E+00  0.45593999997E+02  0.45594000000E+02  0.51100000000E-03 0. -1.
         11   -1    0    0    0    0 -0.00000000000E+00 -0.00000000000E+00 -0.45593999997E+02  0.45594000000E+02  0.51100000000E-03 0.  1.
    9900012    2    1    2    0    0 -0.60544245314E+01  0.13282362020E+02 -0.42614973571E+02  0.46142321298E+02  0.10000032255E+02 0.  0.
         12    1    1    2    0    0  0.60544245314E+01 -0.13282362020E+02  0.42614973571E+02  0.45045678702E+02  0.00000000000E+00 0. -1.
         11    1    3    3    0    0 -0.25710213802E+01  0.14460676011E+01 -0.16372108242E+02  0.16635720333E+02  0.51100000000E-03 0. -1.
        -11    1    3    3    0    0  0.31633640452E+00  0.42412725720E+01 -0.46394097106E+01  0.62938529117E+01  0.51100000000E-03 0.  1.
        -12    1    3    3    0    0 -0.37997395557E+01  0.75950218466E+01 -0.21603455619E+02  0.23212748054E+02  0.00000000000E+00 0.  1.
</event>
<event>
 7    1  0.5664398E-009  0.4614232E+02  0.7816164E-02  0.1320468E+00
        -11   -1    0    0    0    0  0.00000000000E+00  0.00000000000E+00  0.45593999997E+02  0.45594000000E+02  0.51100000000E-03 0. -1.
         11   -1    0    0    0    0 -0.00000000000E+00 -0.00000000000E+00 -0.45593999997E+02  0.45594000000E+02  0.51100000000E-03 0.  1.
    9900012    2    1    2    0    0 -0.11770170204E+02 -0.42031775988E+02  0.11131323665E+02  0.46142318010E+02  0.10000002272E+02 0.  0.
        -12    1    1    2    0    0  0.11770170204E+02  0.42031775988E+02 -0.11131323665E+02  0.45045681990E+02  0.00000000000E+00 0.  1.
         11    1    3    3    0    0 -0.98881490665E+01 -0.24250514933E+02  0.83167559690E+01  0.27477834642E+02  0.51100000000E-03 0. -1.
        -11    1    3    3    0    0 -0.10346717353E+01 -0.71731153725E+01 -0.10899900585E+01  0.73288613260E+01  0.51100000000E-03 0.  1.
         12    1    3    3    0    0 -0.84734940266E+00 -0.10608145683E+02  0.39045577542E+01  0.11335622042E+02  0.00000000000E+00 0. -1.
</event>
<event>
 7    1  0.5664398E-009  0.4614232E+02  0.7816164E-02  0.1320468E+00
        -11   -1    0    0    0    0  0.00000000000E+00  0.00000000000E+00  0.45593999997E+02  0.45594000000E+02  0.51100000000E-03 0. -1.
         11   -1    0    0    0    0 -0.00000000000E+00 -0.00000000000E+00 -0.45593999997E+02  0.45594000000E+02  0.51100000000E-03 0.  1.
    9900012    2    1    2    0    0  0.11916144577E+01  0.33780366888E+02 -0.29775499409E+02  0.46142317664E+02  0.99999991121E+01 0.  0.
         12    1    1    2    0    0 -0.11916144577E+01 -0.33780366888E+02  0.29775499409E+02  0.45045682336E+02  0.00000000000E+00 0. -1.
         11    1    3    3    0    0 -0.17525256867E+01  0.17440021789E+02 -0.10728724136E+02  0.20550698969E+02  0.51100000000E-03 0. -1.
        -11    1    3    3    0    0  0.14626428991E+00  0.20036326081E+01 -0.67239927496E+00  0.21185036976E+01  0.51100000000E-03 0.  1.
        -12    1    3    3    0    0  0.27978758545E+01  0.14336712491E+02 -0.18374375998E+02  0.23473114997E+02  0.00000000000E+00 0.  1.
</event>
<event>
 7    1  0.5664398E-009  0.4614232E+02  0.7816164E-02  0.1320468E+00
        -11   -1    0    0    0    0  0.00000000000E+00  0.00000000000E+00  0.45593999997E+02  0.45594000000E+02  0.51100000000E-03 0. -1.
         11   -1    0    0    0    0 -0.00000000000E+00 -0.00000000000E+00 -0.45593999997E+02  0.45594000000E+02  0.51100000000E-03 0.  1.
    9900012    2    1    2    0    0 -0.85387148786E+01 -0.38703880599E+02 -0.21405916811E+02  0.46142319855E+02  0.10000019095E+02 0.  0.
         12    1    1    2    0    0  0.85387148786E+01  0.38703880599E+02  0.21405916811E+02  0.45045680145E+02  0.00000000000E+00 0. -1.
         11    1    3    3    0    0 -0.28881745773E+01 -0.63146410525E+01 -0.39818233389E+00  0.69551990225E+01  0.51100000000E-03 0. -1.
        -11    1    3    3    0    0 -0.28124489015E+01 -0.11542508069E+02 -0.57543121676E+01  0.13200434468E+02  0.51100000000E-03 0.  1.
        -12    1    3    3    0    0 -0.28380913997E+01 -0.20846731477E+02 -0.15253422309E+02  0.25986686365E+02  0.00000000000E+00 0.  1.
</event>
<event>
 7    1  0.5664398E-009  0.4614232E+02  0.7816164E-02  0.1320468E+00
        -11   -1    0    0    0    0  0.00000000000E+00  0.00000000000E+00  0.45593999997E+02  0.45594000000E+02  0.51100000000E-03 0. -1.
         11   -1    0    0    0    0 -0.00000000000E+00 -0.00000000000E+00 -0.45593999997E+02  0.45594000000E+02  0.51100000000E-03 0.  1.
    9900012    2    1    2    0    0 -0.37251057954E+01 -0.40834885270E+02 -0.18648035512E+02  0.46142317669E+02  0.99999991599E+01 0.  0.
         12    1    1    2    0    0  0.37251057954E+01  0.40834885270E+02  0.18648035512E+02  0.45045682331E+02  0.00000000000E+00 0. -1.
         11    1    3    3    0    0 -0.24546882192E+01 -0.17335443516E+02 -0.32104266434E+01  0.17800279089E+02  0.51100000000E-03 0. -1.
        -11    1    3    3    0    0 -0.11775536095E+01 -0.23280675806E+02 -0.14679357004E+02  0.27547414049E+02  0.51100000000E-03 0.  1.
         12    1    3    3    0    0 -0.92863966673E-01 -0.21876594910E+00 -0.75825186387E+00  0.79462453137E+00  0.00000000000E+00 0. -1.
</event>
<event>
 7    1  0.8169084E-009  0.4614232E+02  0.7816164E-02  0.1320468E+00
        -11   -1    0    0    0    0  0.00000000000E+00  0.00000000000E+00  0.45593999997E+02  0.45594000000E+02  0.51100000000E-03 0. -1.
         11   -1    0    0    0    0 -0.00000000000E+00 -0.00000000000E+00 -0.45593999997E+02  0.45594000000E+02  0.51100000000E-03 0.  1.
    9900012    2    1    2    0    0 -0.16141544523E+02 -0.27935629574E+01  0.41961412362E+02  0.46142316733E+02  0.99999906217E+01 0.  0.
        -12    1    1    2    0    0  0.16141544523E+02  0.27935629574E+01 -0.41961412362E+02  0.45045683267E+02  0.00000000000E+00 0.  1.
         11    1    3    3    0    0 -0.56257374369E+01 -0.70432469041E+00  0.79889749222E+01  0.97963623630E+01  0.51100000000E-03 0. -1.
        -11    1    3    3    0    0 -0.22707325866E+01 -0.11249111339E+01  0.17707251115E+01  0.30914590763E+01  0.51100000000E-03 0.  1.
         12    1    3    3    0    0 -0.82450744996E+01 -0.96432713303E+00  0.32201712329E+02  0.33254495293E+02  0.00000000000E+00 0. -1.
</event>
<event>
 7    1  0.5664398E-009  0.4614232E+02  0.7816164E-02  0.1320468E+00
        -11   -1    0    0    0    0  0.00000000000E+00  0.00000000000E+00  0.45593999997E+02  0.45594000000E+02  0.51100000000E-03 0. -1.
         11   -1    0    0    0    0 -0.00000000000E+00 -0.00000000000E+00 -0.45593999997E+02  0.45594000000E+02  0.51100000000E-03 0.  1.
    9900012    2    1    2    0    0 -0.30133218894E+02  0.80339293006E+01 -0.32504747252E+02  0.46142317690E+02  0.99999993500E+01 0.  0.
         12    1    1    2    0    0  0.30133218894E+02 -0.80339293006E+01  0.32504747252E+02  0.45045682310E+02  0.00000000000E+00 0. -1.
         11    1    3    3    0    0 -0.80235966471E+01 -0.15066835426E+01 -0.69960882979E+01  0.10751439447E+02  0.51100000000E-03 0. -1.
        -11    1    3    3    0    0 -0.15037652884E+02  0.70188583962E+01 -0.20456163038E+02  0.26341032325E+02  0.51100000000E-03 0.  1.
        -12    1    3    3    0    0 -0.70719693627E+01  0.25217544469E+01 -0.50524959156E+01  0.90498459177E+01  0.00000000000E+00 0.  1.
</event>
<event>
 7    1  0.5664398E-009  0.4614232E+02  0.7816164E-02  0.1320468E+00
        -11   -1    0    0    0    0  0.00000000000E+00  0.00000000000E+00  0.45593999997E+02  0.45594000000E+02  0.51100000000E-03 0. -1.
         11   -1    0    0    0    0 -0.00000000000E+00 -0.00000000000E+00 -0.45593999997E+02  0.45594000000E+02  0.51100000000E-03 0.  1.
    9900012    2    1    2    0    0  0.55803969112E+01 -0.36050568143E+02  0.26425917350E+02  0.46142318732E+02  0.10000008854E+02 0.  0.
        -12    1    1    2    0    0 -0.55803969112E+01  0.36050568143E+02 -0.26425917350E+02  0.45045681268E+02  0.00000000000E+00 0.  1.
         11    1    3    3    0    0  0.69069952252E+01 -0.22229583655E+02  0.17623965549E+02  0.29197005573E+02  0.51100000000E-03 0. -1.
        -11    1    3    3    0    0  0.85963334126E-01  0.16806398727E+00 -0.18018317245E+00  0.26096251721E+00  0.51100000000E-03 0.  1.
         12    1    3    3    0    0 -0.14125616480E+01 -0.13989048475E+02  0.89821349737E+01  0.16684350642E+02  0.00000000000E+00 0. -1.
</event>
<event>
 7    1  0.5664398E-009  0.4614232E+02  0.7816164E-02  0.1320468E+00
        -11   -1    0    0    0    0  0.00000000000E+00  0.00000000000E+00  0.45593999997E+02  0.45594000000E+02  0.51100000000E-03 0. -1.
         11   -1    0    0    0    0 -0.00000000000E+00 -0.00000000000E+00 -0.45593999997E+02  0.45594000000E+02  0.51100000000E-03 0.  1.
    9900012    2    1    2    0    0  0.38954218894E+01 -0.86219188952E+01 -0.44040907995E+02  0.46142319029E+02  0.10000011561E+02 0.  0.
         12    1    1    2    0    0 -0.38954218894E+01  0.86219188952E+01  0.44040907995E+02  0.45045680971E+02  0.00000000000E+00 0. -1.
         11    1    3    3    0    0  0.61784198555E+00 -0.41246668698E+01 -0.11171780883E+02  0.11924902258E+02  0.51100000000E-03 0. -1.
        -11    1    3    3    0    0  0.61534369371E+00  0.11822867045E+01 -0.83019833416E+00  0.15702481486E+01  0.51100000000E-03 0.  1.
        -12    1    3    3    0    0  0.26622362102E+01 -0.56795387298E+01 -0.32038928778E+02  0.32647168622E+02  0.00000000000E+00 0.  1.
</event>
<event>
 7    1  0.5664398E-009  0.4614232E+02  0.7816164E-02  0.1320468E+00
        -11   -1    0    0    0    0  0.00000000000E+00  0.00000000000E+00  0.45593999997E+02  0.45594000000E+02  0.51100000000E-03 0. -1.
         11   -1    0    0    0    0 -0.00000000000E+00 -0.00000000000E+00 -0.45593999997E+02  0.45594000000E+02  0.51100000000E-03 0.  1.
    9900012    2    1    2    0    0  0.41836375621E+02 -0.13388071647E+02 -0.99795225856E+01  0.46142315872E+02  0.99999827734E+01 0.  0.
         12    1    1    2    0    0 -0.41836375621E+02  0.13388071647E+02  0.99795225856E+01  0.45045684128E+02  0.00000000000E+00 0. -1.
         11    1    3    3    0    0  0.12156754126E+02 -0.18272932515E+01  0.49426688815E+00  0.12303250445E+02  0.51100000000E-03 0. -1.
        -11    1    3    3    0    0  0.24429288542E+02 -0.76967393822E+01 -0.76175934947E+01  0.26721857471E+02  0.51100000000E-03 0.  1.
         12    1    3    3    0    0  0.52503329537E+01 -0.38640390133E+01 -0.28561959791E+01  0.71172079563E+01  0.00000000000E+00 0. -1.
</event>
<event>
 7    1  0.5664398E-009  0.4614232E+02  0.7816164E-02  0.1320468E+00
        -11   -1    0    0    0    0  0.00000000000E+00  0.00000000000E+00  0.45593999997E+02  0.45594000000E+02  0.51100000000E-03 0. -1.
         11   -1    0    0    0    0 -0.00000000000E+00 -0.00000000000E+00 -0.45593999997E+02  0.45594000000E+02  0.51100000000E-03 0.  1.
    9900012    2    1    2    0    0  0.32926091573E+02 -0.25681731683E+01  0.30633158827E+02  0.46142318305E+02  0.10000004960E+02 0.  0.
        -12    1    1    2    0    0 -0.32926091573E+02  0.25681731683E+01 -0.30633158827E+02  0.45045681695E+02  0.00000000000E+00 0.  1.
         11    1    3    3    0    0  0.20975818501E+02  0.73644813637E-01  0.20740878630E+02  0.29498719158E+02  0.51100000000E-03 0. -1.
        -11    1    3    3    0    0  0.11965033662E+02 -0.27435661632E+01  0.10422597663E+02  0.16103407345E+02  0.51100000000E-03 0.  1.
         12    1    3    3    0    0 -0.14760591005E-01  0.10174818122E+00 -0.53031746625E+00  0.54019180153E+00  0.00000000000E+00 0. -1.
</event>
<event>
 7    1  0.5664398E-009  0.4614232E+02  0.7816164E-02  0.1320468E+00
        -11   -1    0    0    0    0  0.00000000000E+00  0.00000000000E+00  0.45593999997E+02  0.45594000000E+02  0.51100000000E-03 0.  1.
         11   -1    0    0    0    0 -0.00000000000E+00 -0.00000000000E+00 -0.45593999997E+02  0.45594000000E+02  0.51100000000E-03 0. -1.
    9900012    2    1    2    0    0  0.14714316683E+02  0.37348318124E+02  0.20437842227E+02  0.46142318997E+02  0.10000011271E+02 0.  0.
         12    1    1    2    0    0 -0.14714316683E+02 -0.37348318124E+02 -0.20437842227E+02  0.45045681003E+02  0.00000000000E+00 0. -1.
         11    1    3    3    0    0  0.93086099667E+00  0.32717546013E+01  0.46074124988E+01  0.57270525196E+01  0.51100000000E-03 0. -1.
        -11    1    3    3    0    0  0.46028574140E+01  0.12143263303E+02  0.85508998306E+01  0.15548730759E+02  0.51100000000E-03 0.  1.
         12    1    3    3    0    0  0.91805982719E+01  0.21933300219E+02  0.72795298975E+01  0.24866535719E+02  0.00000000000E+00 0. -1.
</event>
<event>
 7    1  0.5664398E-009  0.4614232E+02  0.7816164E-02  0.1320468E+00
        -11   -1    0    0    0    0  0.00000000000E+00  0.00000000000E+00  0.45593999997E+02  0.45594000000E+02  0.51100000000E-03 0. -1.
         11   -1    0    0    0    0 -0.00000000000E+00 -0.00000000000E+00 -0.45593999997E+02  0.45594000000E+02  0.51100000000E-03 0.  1.
    9900012    2    1    2    0    0  0.38588212008E+02 -0.57367634782E+01  0.22520055560E+02  0.46142318036E+02  0.10000002506E+02 0.  0.
        -12    1    1    2    0    0 -0.38588212008E+02  0.57367634782E+01 -0.22520055560E+02  0.45045681964E+02  0.00000000000E+00 0.  1.
         11    1    3    3    0    0  0.13824848115E+02 -0.17266118543E+01  0.59510975860E+01  0.15150022331E+02  0.51100000000E-03 0. -1.
        -11    1    3    3    0    0  0.18211601992E+02 -0.57146395865E+00  0.87006260670E+01  0.20191332605E+02  0.51100000000E-03 0.  1.
        -12    1    3    3    0    0  0.65517619009E+01 -0.34386876653E+01  0.78683319073E+01  0.10800963099E+02  0.00000000000E+00 0.  1.
</event>
<event>
 7    1  0.5664398E-009  0.4614232E+02  0.7816164E-02  0.1320468E+00
        -11   -1    0    0    0    0  0.00000000000E+00  0.00000000000E+00  0.45593999997E+02  0.45594000000E+02  0.51100000000E-03 0. -1.
         11   -1    0    0    0    0 -0.00000000000E+00 -0.00000000000E+00 -0.45593999997E+02  0.45594000000E+02  0.51100000000E-03 0.  1.
    9900012    2    1    2    0    0 -0.84855536984E+01 -0.23576451077E+02  0.37433405694E+02  0.46142317312E+02  0.99999959029E+01 0.  0.
        -12    1    1    2    0    0  0.84855536984E+01  0.23576451077E+02 -0.37433405694E+02  0.45045682688E+02  0.00000000000E+00 0.  1.
         11    1    3    3    0    0 -0.16618432121E+01 -0.46450632534E+01  0.74882420767E+01  0.89672796962E+01  0.51100000000E-03 0. -1.
        -11    1    3    3    0    0 -0.74428307875E+01 -0.74735842024E+01  0.14804764885E+02  0.18177768140E+02  0.51100000000E-03 0.  1.
        -12    1    3    3    0    0  0.61912030118E+00 -0.11457803621E+02  0.15140398732E+02  0.18997269476E+02  0.00000000000E+00 0.  1.
</event>
<event>
 7    1  0.5664398E-009  0.4614232E+02  0.7816164E-02  0.1320468E+00
        -11   -1    0    0    0    0  0.00000000000E+00  0.00000000000E+00  0.45593999997E+02  0.45594000000E+02  0.51100000000E-03 0. -1.
         11   -1    0    0    0    0 -0.00000000000E+00 -0.00000000000E+00 -0.45593999997E+02  0.45594000000E+02  0.51100000000E-03 0.  1.
    9900012    2    1    2    0    0 -0.33987886490E+01 -0.32821625969E+02  0.30664354275E+02  0.46142317425E+02  0.99999969376E+01 0.  0.
        -12    1    1    2    0    0  0.33987886490E+01  0.32821625969E+02 -0.30664354275E+02  0.45045682575E+02  0.00000000000E+00 0.  1.
         11    1    3    3    0    0 -0.21289474253E+00 -0.32699468639E+01  0.68086094108E+01  0.75561259276E+01  0.51100000000E-03 0. -1.
        -11    1    3    3    0    0  0.88823647440E+00 -0.32455539982E+01  0.10267682234E+01  0.35180730571E+01  0.51100000000E-03 0.  1.
         12    1    3    3    0    0 -0.40741303808E+01 -0.26306125107E+02  0.22828976641E+02  0.35068118441E+02  0.00000000000E+00 0. -1.
</event>
<event>
 7    1  0.5664398E-009  0.4614231E+02  0.7816164E-02  0.1320468E+00
        -11   -1    0    0    0    0  0.00000000000E+00  0.00000000000E+00  0.45593999997E+02  0.45594000000E+02  0.51100000000E-03 0. -1.
         11   -1    0    0    0    0 -0.00000000000E+00 -0.00000000000E+00 -0.45593999997E+02  0.45594000000E+02  0.51100000000E-03 0.  1.
    9900012    2    1    2    0    0  0.52647051286E+01 -0.14517017833E+02  0.42316110626E+02  0.46142310468E+02  0.99999334993E+01 0.  0.
        -12    1    1    2    0    0 -0.52647051286E+01  0.14517017833E+02 -0.42316110626E+02  0.45045689532E+02  0.00000000000E+00 0.  1.
         11    1    3    3    0    0  0.20778622831E+01 -0.85985529707E+01  0.28663585401E+02  0.29997562453E+02  0.51100000000E-03 0. -1.
        -11    1    3    3    0    0  0.19204919383E+01 -0.36312367329E+00  0.75366179736E+01  0.77859333948E+01  0.51100000000E-03 0.  1.
        -12    1    3    3    0    0  0.12663509072E+01 -0.55553411887E+01  0.61159072520E+01  0.83588146204E+01  0.00000000000E+00 0.  1.
</event>
<event>
 7    1  0.5664398E-009  0.4614232E+02  0.7816164E-02  0.1320468E+00
        -11   -1    0    0    0    0  0.00000000000E+00  0.00000000000E+00  0.45593999997E+02  0.45594000000E+02  0.51100000000E-03 0. -1.
         11   -1    0    0    0    0 -0.00000000000E+00 -0.00000000000E+00 -0.45593999997E+02  0.45594000000E+02  0.51100000000E-03 0.  1.
    9900012    2    1    2    0    0 -0.25311407635E+02 -0.15009762150E+02 -0.34105030796E+02  0.46142318277E+02  0.10000004707E+02 0.  0.
         12    1    1    2    0    0  0.25311407635E+02  0.15009762150E+02  0.34105030796E+02  0.45045681723E+02  0.00000000000E+00 0. -1.
         11    1    3    3    0    0  0.18009821344E+00 -0.50316080053E+00 -0.15218264967E+01  0.16129359271E+01  0.51100000000E-03 0. -1.
        -11    1    3    3    0    0 -0.15575717047E+02 -0.11966486075E+02 -0.24986292146E+02  0.31782299256E+02  0.51100000000E-03 0.  1.
         12    1    3    3    0    0 -0.99157888006E+01 -0.25401152744E+01 -0.75969121537E+01  0.12747083094E+02  0.00000000000E+00 0. -1.
</event>
<event>
 7    1  0.5664398E-009  0.4614232E+02  0.7816164E-02  0.1320468E+00
        -11   -1    0    0    0    0  0.00000000000E+00  0.00000000000E+00  0.45593999997E+02  0.45594000000E+02  0.51100000000E-03 0. -1.
         11   -1    0    0    0    0 -0.00000000000E+00 -0.00000000000E+00 -0.45593999997E+02  0.45594000000E+02  0.51100000000E-03 0.  1.
    9900012    2    1    2    0    0 -0.37483691100E+02  0.10644861044E+02  0.22600295150E+02  0.46142317565E+02  0.99999982135E+01 0.  0.
        -12    1    1    2    0    0  0.37483691100E+02 -0.10644861044E+02 -0.22600295150E+02  0.45045682435E+02  0.00000000000E+00 0.  1.
         11    1    3    3    0    0 -0.62546289377E+01  0.15493988277E+01  0.13117458590E+01  0.65758419488E+01  0.51100000000E-03 0. -1.
        -11    1    3    3    0    0 -0.11753033445E+02  0.48036305486E+00  0.10131337400E+02  0.15524449800E+02  0.51100000000E-03 0.  1.
         12    1    3    3    0    0 -0.19476028718E+02  0.86150991615E+01  0.11157211891E+02  0.24042025817E+02  0.00000000000E+00 0. -1.
</event>
<event>
 7    1  0.5664398E-009  0.4614232E+02  0.7816164E-02  0.1320468E+00
        -11   -1    0    0    0    0  0.00000000000E+00  0.00000000000E+00  0.45593999997E+02  0.45594000000E+02  0.51100000000E-03 0. -1.
         11   -1    0    0    0    0 -0.00000000000E+00 -0.00000000000E+00 -0.45593999997E+02  0.45594000000E+02  0.51100000000E-03 0.  1.
    9900012    2    1    2    0    0 -0.40411288267E+02 -0.93221679559E+01  0.17582337899E+02  0.46142316069E+02  0.99999845675E+01 0.  0.
        -12    1    1    2    0    0  0.40411288267E+02  0.93221679559E+01 -0.17582337899E+02  0.45045683931E+02  0.00000000000E+00 0.  1.
         11    1    3    3    0    0 -0.16525928412E+01  0.93595668691E+00  0.85929182390E+00  0.20845768679E+01  0.51100000000E-03 0. -1.
        -11    1    3    3    0    0 -0.25990790291E+02 -0.66643599065E+01  0.14836133868E+02  0.30660165383E+02  0.51100000000E-03 0.  1.
        -12    1    3    3    0    0 -0.12767905135E+02 -0.35937647363E+01  0.18869122077E+01  0.13397573818E+02  0.00000000000E+00 0.  1.
</event>
<event>
 7    1  0.5664398E-009  0.4614232E+02  0.7816164E-02  0.1320468E+00
        -11   -1    0    0    0    0  0.00000000000E+00  0.00000000000E+00  0.45593999997E+02  0.45594000000E+02  0.51100000000E-03 0. -1.
         11   -1    0    0    0    0 -0.00000000000E+00 -0.00000000000E+00 -0.45593999997E+02  0.45594000000E+02  0.51100000000E-03 0.  1.
    9900012    2    1    2    0    0  0.90577858084E+01 -0.21144090581E+02 -0.38729800606E+02  0.46142317574E+02  0.99999982936E+01 0.  0.
         12    1    1    2    0    0 -0.90577858084E+01  0.21144090581E+02  0.38729800606E+02  0.45045682426E+02  0.00000000000E+00 0. -1.
         11    1    3    3    0    0  0.21851001821E+01 -0.56916551487E+00 -0.16725953495E+01  0.28100155967E+01  0.51100000000E-03 0. -1.
        -11    1    3    3    0    0 -0.76980553228E+00 -0.15202397367E+01 -0.48250754861E+01  0.51171362227E+01  0.51100000000E-03 0.  1.
        -12    1    3    3    0    0  0.76424911586E+01 -0.19054685329E+02 -0.32232129770E+02  0.38215165755E+02  0.00000000000E+00 0.  1.
</event>
<event>
 7    1  0.5664398E-009  0.4614232E+02  0.7816164E-02  0.1320468E+00
        -11   -1    0    0    0    0  0.00000000000E+00  0.00000000000E+00  0.45593999997E+02  0.45594000000E+02  0.51100000000E-03 0. -1.
         11   -1    0    0    0    0 -0.00000000000E+00 -0.00000000000E+00 -0.45593999997E+02  0.45594000000E+02  0.51100000000E-03 0.  1.
    9900012    2    1    2    0    0  0.16075297596E+02 -0.31192050474E+02 -0.28244544167E+02  0.46142317845E+02  0.10000000769E+02 0.  0.
         12    1    1    2    0    0 -0.16075297596E+02  0.31192050474E+02  0.28244544167E+02  0.45045682155E+02  0.00000000000E+00 0. -1.
         11    1    3    3    0    0  0.55321571388E+01 -0.11141277621E+02 -0.15997251963E+02  0.20264375151E+02  0.51100000000E-03 0. -1.
        -11    1    3    3    0    0  0.23103204368E+01 -0.69021998411E+01 -0.36761429811E+01  0.81542608890E+01  0.51100000000E-03 0.  1.
        -12    1    3    3    0    0  0.82328200201E+01 -0.13148573012E+02 -0.85711492227E+01  0.17723681805E+02  0.00000000000E+00 0.  1.
</event>
<event>
 7    1  0.5664398E-009  0.4614232E+02  0.7816164E-02  0.1320468E+00
        -11   -1    0    0    0    0  0.00000000000E+00  0.00000000000E+00  0.45593999997E+02  0.45594000000E+02  0.51100000000E-03 0. -1.
         11   -1    0    0    0    0 -0.00000000000E+00 -0.00000000000E+00 -0.45593999997E+02  0.45594000000E+02  0.51100000000E-03 0.  1.
    9900012    2    1    2    0    0 -0.90489630948E+01  0.13659384482E+02  0.41960113059E+02  0.46142316462E+02  0.99999881519E+01 0.  0.
        -12    1    1    2    0    0  0.90489630948E+01 -0.13659384482E+02 -0.41960113059E+02  0.45045683538E+02  0.00000000000E+00 0.  1.
         11    1    3    3    0    0  0.11924203514E+01  0.16336108065E+01  0.37256181270E+01  0.42391958260E+01  0.51100000000E-03 0.  1.
        -11    1    3    3    0    0 -0.28099159007E+01  0.80993061553E+01  0.16373522136E+02  0.18482061978E+02  0.51100000000E-03 0. -1.
         12    1    3    3    0    0 -0.74314675455E+01  0.39264675202E+01  0.21860972796E+02  0.23421058658E+02  0.00000000000E+00 0. -1.
</event>
<event>
 7    1  0.5664398E-009  0.4614232E+02  0.7816164E-02  0.1320468E+00
        -11   -1    0    0    0    0  0.00000000000E+00  0.00000000000E+00  0.45593999997E+02  0.45594000000E+02  0.51100000000E-03 0. -1.
         11   -1    0    0    0    0 -0.00000000000E+00 -0.00000000000E+00 -0.45593999997E+02  0.45594000000E+02  0.51100000000E-03 0.  1.
    9900012    2    1    2    0    0  0.20261451657E+01  0.98722816726E+01  0.43903829762E+02  0.46142317882E+02  0.10000001105E+02 0.  0.
        -12    1    1    2    0    0 -0.20261451657E+01 -0.98722816726E+01 -0.43903829762E+02  0.45045682118E+02  0.00000000000E+00 0.  1.
         11    1    3    3    0    0 -0.19146733553E+01  0.24301456002E+01  0.14474993193E+02  0.14801925885E+02  0.51100000000E-03 0. -1.
        -11    1    3    3    0    0  0.21402375258E+00  0.70130276816E+01  0.18517368572E+02  0.19802052987E+02  0.51100000000E-03 0.  1.
         12    1    3    3    0    0  0.37267947683E+01  0.42910839090E+00  0.10911467998E+02  0.11538339010E+02  0.00000000000E+00 0. -1.
</event>
<event>
 7    1  0.5664398E-009  0.4614232E+02  0.7816164E-02  0.1320468E+00
        -11   -1    0    0    0    0  0.00000000000E+00  0.00000000000E+00  0.45593999997E+02  0.45594000000E+02  0.51100000000E-03 0. -1.
         11   -1    0    0    0    0 -0.00000000000E+00 -0.00000000000E+00 -0.45593999997E+02  0.45594000000E+02  0.51100000000E-03 0.  1.
    9900012    2    1    2    0    0 -0.20995594570E+02  0.13073384169E+02 -0.37648175416E+02  0.46142317885E+02  0.10000001134E+02 0.  0.
         12    1    1    2    0    0  0.20995594570E+02 -0.13073384169E+02  0.37648175416E+02  0.45045682115E+02  0.00000000000E+00 0. -1.
         11    1    3    3    0    0 -0.99415206585E+01  0.73081481764E+01 -0.16576187530E+02  0.20664289391E+02  0.51100000000E-03 0.  1.
        -11    1    3    3    0    0 -0.27917766805E+01  0.48734088450E+01 -0.56918086753E+01  0.79963002108E+01  0.51100000000E-03 0. -1.
        -12    1    3    3    0    0 -0.82622972309E+01  0.89182714771E+00 -0.15380179211E+02  0.17481728283E+02  0.00000000000E+00 0.  1.
</event>
<event>
 7    1  0.5664398E-009  0.4614232E+02  0.7816164E-02  0.1320468E+00
        -11   -1    0    0    0    0  0.00000000000E+00  0.00000000000E+00  0.45593999997E+02  0.45594000000E+02  0.51100000000E-03 0. -1.
         11   -1    0    0    0    0 -0.00000000000E+00 -0.00000000000E+00 -0.45593999997E+02  0.45594000000E+02  0.51100000000E-03 0.  1.
    9900012    2    1    2    0    0 -0.31952353836E+02 -0.13915954478E+02  0.28539565137E+02  0.46142317822E+02  0.10000000556E+02 0.  0.
        -12    1    1    2    0    0  0.31952353836E+02  0.13915954478E+02 -0.28539565137E+02  0.45045682178E+02  0.00000000000E+00 0.  1.
         11    1    3    3    0    0 -0.99213329433E+01 -0.65836180954E+01  0.91283039013E+01  0.15003426508E+02  0.51100000000E-03 0. -1.
        -11    1    3    3    0    0 -0.25985928029E+01 -0.34758798307E+01  0.51141273062E+01  0.67073633805E+01  0.51100000000E-03 0.  1.
         12    1    3    3    0    0 -0.19432428090E+02 -0.38564565523E+01  0.14297133929E+02  0.24431527934E+02  0.00000000000E+00 0. -1.
</event>
<event>
 7    1  0.5664398E-009  0.4614232E+02  0.7816164E-02  0.1320468E+00
        -11   -1    0    0    0    0  0.00000000000E+00  0.00000000000E+00  0.45593999997E+02  0.45594000000E+02  0.51100000000E-03 0. -1.
         11   -1    0    0    0    0 -0.00000000000E+00 -0.00000000000E+00 -0.45593999997E+02  0.45594000000E+02  0.51100000000E-03 0.  1.
    9900012    2    1    2    0    0 -0.17465552666E+02 -0.20935004460E+02  0.35857962028E+02  0.46142318936E+02  0.10000010718E+02 0.  0.
        -12    1    1    2    0    0  0.17465552666E+02  0.20935004460E+02 -0.35857962028E+02  0.45045681064E+02  0.00000000000E+00 0.  1.
         11    1    3    3    0    0 -0.10189541459E+02 -0.13924129940E+02  0.17483635433E+02  0.24563909663E+02  0.51100000000E-03 0. -1.
        -11    1    3    3    0    0 -0.51405125652E+01 -0.20653929168E+01  0.12106292928E+02  0.13313641352E+02  0.51100000000E-03 0.  1.
        -12    1    3    3    0    0 -0.21354986410E+01 -0.49454816033E+01  0.62680336677E+01  0.82647679213E+01  0.00000000000E+00 0.  1.
</event>
<event>
 7    1  0.5664398E-009  0.4614232E+02  0.7816164E-02  0.1320468E+00
        -11   -1    0    0    0    0  0.00000000000E+00  0.00000000000E+00  0.45593999997E+02  0.45594000000E+02  0.51100000000E-03 0.  1.
         11   -1    0    0    0    0 -0.00000000000E+00 -0.00000000000E+00 -0.45593999997E+02  0.45594000000E+02  0.51100000000E-03 0. -1.
    9900012    2    1    2    0    0 -0.16549604227E+02  0.41809463854E+02 -0.26819336808E+01  0.46142318341E+02  0.10000005289E+02 0.  0.
        -12    1    1    2    0    0  0.16549604227E+02 -0.41809463854E+02  0.26819336808E+01  0.45045681659E+02  0.00000000000E+00 0.  1.
         11    1    3    3    0    0 -0.99223248865E+01  0.33421558693E+02 -0.22853851289E+01  0.34938175426E+02  0.51100000000E-03 0. -1.
        -11    1    3    3    0    0 -0.34274827324E+01  0.45166297661E+01  0.14510082610E+01  0.58526069029E+01  0.51100000000E-03 0.  1.
         12    1    3    3    0    0 -0.31997966076E+01  0.38712753949E+01 -0.18475568129E+01  0.53515360123E+01  0.00000000000E+00 0. -1.
</event>
<event>
 7    1  0.5664398E-009  0.4614232E+02  0.7816164E-02  0.1320468E+00
        -11   -1    0    0    0    0  0.00000000000E+00  0.00000000000E+00  0.45593999997E+02  0.45594000000E+02  0.51100000000E-03 0. -1.
         11   -1    0    0    0    0 -0.00000000000E+00 -0.00000000000E+00 -0.45593999997E+02  0.45594000000E+02  0.51100000000E-03 0.  1.
    9900012    2    1    2    0    0  0.29919950761E+02  0.16166169444E+02 -0.29539211188E+02  0.46142317792E+02  0.10000000279E+02 0.  0.
         12    1    1    2    0    0 -0.29919950761E+02 -0.16166169444E+02  0.29539211188E+02  0.45045682208E+02  0.00000000000E+00 0. -1.
         11    1    3    3    0    0  0.10037866873E+02  0.66849997398E+01 -0.12555907227E+02  0.17409732894E+02  0.51100000000E-03 0. -1.
        -11    1    3    3    0    0  0.83128072052E+01  0.79237234597E+01 -0.78539505387E+01  0.13913040517E+02  0.51100000000E-03 0.  1.
         12    1    3    3    0    0  0.11569276683E+02  0.15574462448E+01 -0.91293534218E+01  0.14819544381E+02  0.00000000000E+00 0. -1.
</event>
<event>
 7    1  0.5664398E-009  0.4614231E+02  0.7816164E-02  0.1320468E+00
        -11   -1    0    0    0    0  0.00000000000E+00  0.00000000000E+00  0.45593999997E+02  0.45594000000E+02  0.51100000000E-03 0.  1.
         11   -1    0    0    0    0 -0.00000000000E+00 -0.00000000000E+00 -0.45593999997E+02  0.45594000000E+02  0.51100000000E-03 0. -1.
    9900012    2    1    2    0    0 -0.40666636300E+02  0.14455051489E+02  0.12899222320E+02  0.46142314769E+02  0.99999727172E+01 0.  0.
        -12    1    1    2    0    0  0.40666636300E+02 -0.14455051489E+02 -0.12899222320E+02  0.45045685231E+02  0.00000000000E+00 0.  1.
         11    1    3    3    0    0 -0.43862026946E+01  0.38684163088E+01  0.86042144269E-01  0.58490018232E+01  0.51100000000E-03 0. -1.
        -11    1    3    3    0    0 -0.20972785413E+02  0.40062685438E+01  0.52098858265E+01  0.21978417282E+02  0.51100000000E-03 0.  1.
        -12    1    3    3    0    0 -0.15307648192E+02  0.65803666360E+01  0.76032943492E+01  0.18314895664E+02  0.00000000000E+00 0.  1.
</event>
<event>
 7    1  0.5664398E-009  0.4614232E+02  0.7816164E-02  0.1320468E+00
        -11   -1    0    0    0    0  0.00000000000E+00  0.00000000000E+00  0.45593999997E+02  0.45594000000E+02  0.51100000000E-03 0.  1.
         11   -1    0    0    0    0 -0.00000000000E+00 -0.00000000000E+00 -0.45593999997E+02  0.45594000000E+02  0.51100000000E-03 0. -1.
    9900012    2    1    2    0    0  0.42480673756E+02 -0.14549045933E+02 -0.35820547339E+01  0.46142317672E+02  0.99999991878E+01 0.  0.
        -12    1    1    2    0    0 -0.42480673756E+02  0.14549045933E+02  0.35820547339E+01  0.45045682328E+02  0.00000000000E+00 0.  1.
         11    1    3    3    0    0  0.31874606591E+02 -0.13546870542E+02 -0.27440015352E+01  0.34742449417E+02  0.51100000000E-03 0. -1.
        -11    1    3    3    0    0  0.68303537169E+01 -0.23699739982E+01  0.26702893742E+00  0.72347642232E+01  0.51100000000E-03 0.  1.
        -12    1    3    3    0    0  0.37757134473E+01  0.13677986073E+01 -0.11050821361E+01  0.41651040315E+01  0.00000000000E+00 0.  1.
</event>
<event>
 7    1  0.5664398E-009  0.4614232E+02  0.7816164E-02  0.1320468E+00
        -11   -1    0    0    0    0  0.00000000000E+00  0.00000000000E+00  0.45593999997E+02  0.45594000000E+02  0.51100000000E-03 0. -1.
         11   -1    0    0    0    0 -0.00000000000E+00 -0.00000000000E+00 -0.45593999997E+02  0.45594000000E+02  0.51100000000E-03 0.  1.
    9900012    2    1    2    0    0  0.36107670088E+02  0.12402711912E+02 -0.23906533707E+02  0.46142318122E+02  0.10000003292E+02 0.  0.
         12    1    1    2    0    0 -0.36107670088E+02 -0.12402711912E+02  0.23906533707E+02  0.45045681878E+02  0.00000000000E+00 0. -1.
         11    1    3    3    0    0  0.14031729297E+01  0.21755339132E+01 -0.99708960901E+00  0.27741719536E+01  0.51100000000E-03 0. -1.
        -11    1    3    3    0    0  0.11358513562E+02  0.26682055069E+01 -0.38161614106E+01  0.12275921111E+02  0.51100000000E-03 0.  1.
        -12    1    3    3    0    0  0.23345983597E+02  0.75589724914E+01 -0.19093282688E+02  0.31092225057E+02  0.00000000000E+00 0.  1.
</event>
<event>
 7    1  0.5664398E-009  0.4614232E+02  0.7816164E-02  0.1320468E+00
        -11   -1    0    0    0    0  0.00000000000E+00  0.00000000000E+00  0.45593999997E+02  0.45594000000E+02  0.51100000000E-03 0. -1.
         11   -1    0    0    0    0 -0.00000000000E+00 -0.00000000000E+00 -0.45593999997E+02  0.45594000000E+02  0.51100000000E-03 0.  1.
    9900012    2    1    2    0    0  0.33259035365E+02  0.29314795463E+02  0.79745121588E+01  0.46142317514E+02  0.99999977451E+01 0.  0.
        -12    1    1    2    0    0 -0.33259035365E+02 -0.29314795463E+02 -0.79745121588E+01  0.45045682486E+02  0.00000000000E+00 0.  1.
         11    1    3    3    0    0  0.25253719071E+02  0.18775623964E+02  0.58139894407E+01  0.32001200847E+02  0.51100000000E-03 0. -1.
        -11    1    3    3    0    0 -0.55769382463E+00  0.32187405161E+00  0.89580696037E-01  0.65011558154E+00  0.51100000000E-03 0.  1.
        -12    1    3    3    0    0  0.85630101183E+01  0.10217297448E+02  0.20709420221E+01  0.13491001085E+02  0.00000000000E+00 0.  1.
</event>
<event>
 7    1  0.5664398E-009  0.4614232E+02  0.7816164E-02  0.1320468E+00
        -11   -1    0    0    0    0  0.00000000000E+00  0.00000000000E+00  0.45593999997E+02  0.45594000000E+02  0.51100000000E-03 0. -1.
         11   -1    0    0    0    0 -0.00000000000E+00 -0.00000000000E+00 -0.45593999997E+02  0.45594000000E+02  0.51100000000E-03 0.  1.
    9900012    2    1    2    0    0  0.25693629168E+02  0.12514473754E+02 -0.34818657753E+02  0.46142316957E+02  0.99999926652E+01 0.  0.
         12    1    1    2    0    0 -0.25693629168E+02 -0.12514473754E+02  0.34818657753E+02  0.45045683043E+02  0.00000000000E+00 0. -1.
         11    1    3    3    0    0  0.56257443705E+01  0.69085899812E+01 -0.11883701111E+02  0.14852608108E+02  0.51100000000E-03 0.  1.
        -11    1    3    3    0    0  0.55431832317E+01  0.34459827619E+00 -0.39582825239E+01  0.68200901103E+01  0.51100000000E-03 0. -1.
         12    1    3    3    0    0  0.14524701566E+02  0.52612854963E+01 -0.18976674117E+02  0.24469618738E+02  0.00000000000E+00 0. -1.
</event>
<event>
 7    1  0.5664398E-009  0.4614232E+02  0.7816164E-02  0.1320468E+00
        -11   -1    0    0    0    0  0.00000000000E+00  0.00000000000E+00  0.45593999997E+02  0.45594000000E+02  0.51100000000E-03 0. -1.
         11   -1    0    0    0    0 -0.00000000000E+00 -0.00000000000E+00 -0.45593999997E+02  0.45594000000E+02  0.51100000000E-03 0.  1.
    9900012    2    1    2    0    0  0.35099083976E+02  0.26831654887E+02  0.87880644590E+01  0.46142317889E+02  0.10000001169E+02 0.  0.
        -12    1    1    2    0    0 -0.35099083976E+02 -0.26831654887E+02 -0.87880644590E+01  0.45045682111E+02  0.00000000000E+00 0.  1.
         11    1    3    3    0    0  0.24382736547E+02  0.20058303886E+02  0.34061540218E+01  0.31756184938E+02  0.51100000000E-03 0. -1.
        -11    1    3    3    0    0  0.45653388982E+01  0.37439221008E+01  0.41337964599E+00  0.59186277924E+01  0.51100000000E-03 0.  1.
        -12    1    3    3    0    0  0.61510085303E+01  0.30294288998E+01  0.49685307912E+01  0.84675051593E+01  0.00000000000E+00 0.  1.
</event>
<event>
 7    1  0.5664398E-009  0.4614232E+02  0.7816164E-02  0.1320468E+00
        -11   -1    0    0    0    0  0.00000000000E+00  0.00000000000E+00  0.45593999997E+02  0.45594000000E+02  0.51100000000E-03 0. -1.
         11   -1    0    0    0    0 -0.00000000000E+00 -0.00000000000E+00 -0.45593999997E+02  0.45594000000E+02  0.51100000000E-03 0.  1.
    9900012    2    1    2    0    0 -0.16434930016E+02 -0.31598292866E+02 -0.27578151169E+02  0.46142318092E+02  0.10000003016E+02 0.  0.
         12    1    1    2    0    0  0.16434930016E+02  0.31598292866E+02  0.27578151169E+02  0.45045681908E+02  0.00000000000E+00 0. -1.
         11    1    3    3    0    0 -0.35950797495E+01 -0.13658925725E+02 -0.63716574429E+01  0.15494801360E+02  0.51100000000E-03 0. -1.
        -11    1    3    3    0    0 -0.13559303944E+00 -0.46894640326E+00 -0.23894300460E+00  0.54349813435E+00  0.51100000000E-03 0.  1.
        -12    1    3    3    0    0 -0.12704257227E+02 -0.17470420738E+02 -0.20967550721E+02  0.30104018597E+02  0.00000000000E+00 0.  1.
</event>
<event>
 7    1  0.5664398E-009  0.4614232E+02  0.7816164E-02  0.1320468E+00
        -11   -1    0    0    0    0  0.00000000000E+00  0.00000000000E+00  0.45593999997E+02  0.45594000000E+02  0.51100000000E-03 0. -1.
         11   -1    0    0    0    0 -0.00000000000E+00 -0.00000000000E+00 -0.45593999997E+02  0.45594000000E+02  0.51100000000E-03 0.  1.
    9900012    2    1    2    0    0 -0.22558019245E+02 -0.38363915088E+02 -0.69612716513E+01  0.46142317453E+02  0.99999971934E+01 0.  0.
         12    1    1    2    0    0  0.22558019245E+02  0.38363915088E+02  0.69612716513E+01  0.45045682547E+02  0.00000000000E+00 0. -1.
         11    1    3    3    0    0 -0.25933073883E+01 -0.45286918757E+01 -0.40506669041E+01  0.66062240307E+01  0.51100000000E-03 0.  1.
        -11    1    3    3    0    0 -0.17797868521E+01 -0.17009252110E+01  0.26882814062E+00  0.24765008869E+01  0.51100000000E-03 0. -1.
        -12    1    3    3    0    0 -0.18184925004E+02 -0.32134298001E+02 -0.31794328878E+01  0.37059592536E+02  0.00000000000E+00 0.  1.
</event>
<event>
 7    1  0.5664398E-009  0.4614232E+02  0.7816164E-02  0.1320468E+00
        -11   -1    0    0    0    0  0.00000000000E+00  0.00000000000E+00  0.45593999997E+02  0.45594000000E+02  0.51100000000E-03 0.  1.
         11   -1    0    0    0    0 -0.00000000000E+00 -0.00000000000E+00 -0.45593999997E+02  0.45594000000E+02  0.51100000000E-03 0. -1.
    9900012    2    1    2    0    0  0.14274804374E+02  0.41822697741E+02  0.87295717939E+01  0.46142317522E+02  0.99999978188E+01 0.  0.
        -12    1    1    2    0    0 -0.14274804374E+02 -0.41822697741E+02 -0.87295717939E+01  0.45045682478E+02  0.00000000000E+00 0.  1.
         11    1    3    3    0    0  0.47999980263E+01  0.14555258416E+02  0.41073306689E+01  0.15867126208E+02  0.51100000000E-03 0. -1.
        -11    1    3    3    0    0  0.30871059032E+00  0.40602315754E+01 -0.18875939700E+01  0.44881838122E+01  0.51100000000E-03 0.  1.
        -12    1    3    3    0    0  0.91660957569E+01  0.23207207749E+02  0.65098350951E+01  0.25787007502E+02  0.00000000000E+00 0.  1.
</event>
<event>
 7    1  0.5664398E-009  0.4614232E+02  0.7816164E-02  0.1320468E+00
        -11   -1    0    0    0    0  0.00000000000E+00  0.00000000000E+00  0.45593999997E+02  0.45594000000E+02  0.51100000000E-03 0. -1.
         11   -1    0    0    0    0 -0.00000000000E+00 -0.00000000000E+00 -0.45593999997E+02  0.45594000000E+02  0.51100000000E-03 0.  1.
    9900012    2    1    2    0    0 -0.51415796188E+01 -0.17614509763E+02 -0.41138870607E+02  0.46142317965E+02  0.10000001861E+02 0.  0.
         12    1    1    2    0    0  0.51415796188E+01  0.17614509763E+02  0.41138870607E+02  0.45045682035E+02  0.00000000000E+00 0. -1.
         11    1    3    3    0    0 -0.32648372999E+01 -0.36474058074E+01 -0.62234569608E+01  0.79179636601E+01  0.51100000000E-03 0. -1.
        -11    1    3    3    0    0 -0.34668224622E+01 -0.33648822691E+01 -0.10413109497E+02  0.11479291805E+02  0.51100000000E-03 0.  1.
         12    1    3    3    0    0  0.15900801433E+01 -0.10602221686E+02 -0.24502304149E+02  0.26745062501E+02  0.00000000000E+00 0. -1.
</event>
<event>
 7    1  0.5664398E-009  0.4614232E+02  0.7816164E-02  0.1320468E+00
        -11   -1    0    0    0    0  0.00000000000E+00  0.00000000000E+00  0.45593999997E+02  0.45594000000E+02  0.51100000000E-03 0. -1.
         11   -1    0    0    0    0 -0.00000000000E+00 -0.00000000000E+00 -0.45593999997E+02  0.45594000000E+02  0.51100000000E-03 0.  1.
    9900012    2    1    2    0    0 -0.17857174544E+02  0.24441552808E+02  0.33359335272E+02  0.46142318341E+02  0.10000005285E+02 0.  0.
        -12    1    1    2    0    0  0.17857174544E+02 -0.24441552808E+02 -0.33359335272E+02  0.45045681659E+02  0.00000000000E+00 0.  1.
         11    1    3    3    0    0 -0.15461654309E+02  0.19146621744E+02  0.30049023635E+02  0.38840696438E+02  0.51100000000E-03 0. -1.
        -11    1    3    3    0    0 -0.14330336899E+01  0.41534467230E+01  0.37159575064E+01  0.57543935986E+01  0.51100000000E-03 0.  1.
        -12    1    3    3    0    0 -0.96248654541E+00  0.11414843416E+01 -0.40564586931E+00  0.15472283036E+01  0.00000000000E+00 0.  1.
</event>
<event>
 7    1  0.5664398E-009  0.4614232E+02  0.7816164E-02  0.1320468E+00
        -11   -1    0    0    0    0  0.00000000000E+00  0.00000000000E+00  0.45593999997E+02  0.45594000000E+02  0.51100000000E-03 0.  1.
         11   -1    0    0    0    0 -0.00000000000E+00 -0.00000000000E+00 -0.45593999997E+02  0.45594000000E+02  0.51100000000E-03 0. -1.
    9900012    2    1    2    0    0  0.79437105659E+01 -0.44206895940E+02  0.34294811958E+01  0.46142317327E+02  0.99999960392E+01 0.  0.
        -12    1    1    2    0    0 -0.79437105659E+01  0.44206895940E+02 -0.34294811958E+01  0.45045682673E+02  0.00000000000E+00 0.  1.
         11    1    3    3    0    0  0.23386797645E+01 -0.87795208617E+01  0.27307957097E+01  0.94871837271E+01  0.51100000000E-03 0. -1.
        -11    1    3    3    0    0  0.69290718259E+00 -0.39702365655E+01  0.25395079066E+01  0.47636120138E+01  0.51100000000E-03 0.  1.
         12    1    3    3    0    0  0.49121236188E+01 -0.31457138513E+02 -0.18408224205E+01  0.31891521586E+02  0.00000000000E+00 0. -1.
</event>
<event>
 7    1  0.5664398E-009  0.4614231E+02  0.7816164E-02  0.1320468E+00
        -11   -1    0    0    0    0  0.00000000000E+00  0.00000000000E+00  0.45593999997E+02  0.45594000000E+02  0.51100000000E-03 0.  1.
         11   -1    0    0    0    0 -0.00000000000E+00 -0.00000000000E+00 -0.45593999997E+02  0.45594000000E+02  0.51100000000E-03 0. -1.
    9900012    2    1    2    0    0  0.42451433082E+02 -0.13319297249E+02 -0.70417322992E+01  0.46142313817E+02  0.99999640323E+01 0.  0.
         12    1    1    2    0    0 -0.42451433082E+02  0.13319297249E+02  0.70417322992E+01  0.45045686183E+02  0.00000000000E+00 0. -1.
         11    1    3    3    0    0  0.22553845253E+02 -0.58762581101E+01 -0.47094314177E+01  0.23777827689E+02  0.51100000000E-03 0. -1.
        -11    1    3    3    0    0  0.17468218473E+02 -0.53731445821E+01 -0.40798535024E+01  0.18725772191E+02  0.51100000000E-03 0.  1.
         12    1    3    3    0    0  0.24293693570E+01 -0.20698945566E+01  0.17475526209E+01  0.36387139364E+01  0.00000000000E+00 0. -1.
</event>
<event>
 7    1  0.5664398E-009  0.4614232E+02  0.7816164E-02  0.1320468E+00
        -11   -1    0    0    0    0  0.00000000000E+00  0.00000000000E+00  0.45593999997E+02  0.45594000000E+02  0.51100000000E-03 0. -1.
         11   -1    0    0    0    0 -0.00000000000E+00 -0.00000000000E+00 -0.45593999997E+02  0.45594000000E+02  0.51100000000E-03 0.  1.
    9900012    2    1    2    0    0  0.27325404570E+01 -0.26436970386E+02  0.36369400762E+02  0.46142317717E+02  0.99999995940E+01 0.  0.
        -12    1    1    2    0    0 -0.27325404570E+01  0.26436970386E+02 -0.36369400762E+02  0.45045682283E+02  0.00000000000E+00 0.  1.
         11    1    3    3    0    0  0.38226054136E+01 -0.11729750960E+02  0.12026746259E+02  0.17229103156E+02  0.51100000000E-03 0. -1.
        -11    1    3    3    0    0  0.94053759003E+00 -0.12616982318E+02  0.18990373218E+02  0.22819008063E+02  0.51100000000E-03 0.  1.
        -12    1    3    3    0    0 -0.20306025466E+01 -0.20902371088E+01  0.53522812850E+01  0.60942064969E+01  0.00000000000E+00 0.  1.
</event>
<event>
 7    1  0.5664398E-009  0.4614232E+02  0.7816164E-02  0.1320468E+00
        -11   -1    0    0    0    0  0.00000000000E+00  0.00000000000E+00  0.45593999997E+02  0.45594000000E+02  0.51100000000E-03 0.  1.
         11   -1    0    0    0    0 -0.00000000000E+00 -0.00000000000E+00 -0.45593999997E+02  0.45594000000E+02  0.51100000000E-03 0. -1.
    9900012    2    1    2    0    0 -0.33483663448E+02 -0.30007262234E+02 -0.27426147434E+01  0.46142318295E+02  0.10000004868E+02 0.  0.
        -12    1    1    2    0    0  0.33483663448E+02  0.30007262234E+02  0.27426147434E+01  0.45045681705E+02  0.00000000000E+00 0.  1.
         11    1    3    3    0    0 -0.89896773836E+01 -0.79789837820E+01  0.27453949222E+01  0.12329463703E+02  0.51100000000E-03 0.  1.
        -11    1    3    3    0    0 -0.21054370142E+01 -0.10085311263E+01  0.79686367078E+00  0.24667776601E+01  0.51100000000E-03 0. -1.
         12    1    3    3    0    0 -0.22388549050E+02 -0.21019747326E+02 -0.62848733364E+01  0.31346076932E+02  0.00000000000E+00 0. -1.
</event>
<event>
 7    1  0.6208703E-009  0.4614232E+02  0.7816164E-02  0.1320468E+00
        -11   -1    0    0    0    0  0.00000000000E+00  0.00000000000E+00  0.45593999997E+02  0.45594000000E+02  0.51100000000E-03 0. -1.
         11   -1    0    0    0    0 -0.00000000000E+00 -0.00000000000E+00 -0.45593999997E+02  0.45594000000E+02  0.51100000000E-03 0.  1.
    9900012    2    1    2    0    0  0.47885681787E+01  0.17146687151E+02 -0.41378427348E+02  0.46142317463E+02  0.99999972779E+01 0.  0.
         12    1    1    2    0    0 -0.47885681787E+01 -0.17146687151E+02  0.41378427348E+02  0.45045682537E+02  0.00000000000E+00 0. -1.
         11    1    3    3    0    0 -0.34072722568E+00 -0.90419100690E+00 -0.17613505346E+01  0.20089829233E+01  0.51100000000E-03 0. -1.
        -11    1    3    3    0    0  0.14716045476E+01  0.33171598550E+01 -0.39175599856E+01  0.53400792083E+01  0.51100000000E-03 0.  1.
        -12    1    3    3    0    0  0.36576908568E+01  0.14733718303E+02 -0.35699516828E+02  0.38793255331E+02  0.00000000000E+00 0.  1.
</event>
<event>
 7    1  0.5664398E-009  0.4614232E+02  0.7816164E-02  0.1320468E+00
        -11   -1    0    0    0    0  0.00000000000E+00  0.00000000000E+00  0.45593999997E+02  0.45594000000E+02  0.51100000000E-03 0. -1.
         11   -1    0    0    0    0 -0.00000000000E+00 -0.00000000000E+00 -0.45593999997E+02  0.45594000000E+02  0.51100000000E-03 0.  1.
    9900012    2    1    2    0    0 -0.50735084337E+00  0.40537395010E+02 -0.19636078679E+02  0.46142318909E+02  0.10000010468E+02 0.  0.
         12    1    1    2    0    0  0.50735084337E+00 -0.40537395010E+02  0.19636078679E+02  0.45045681091E+02  0.00000000000E+00 0. -1.
         11    1    3    3    0    0 -0.10137547344E+01  0.13943062214E+01 -0.20327418900E+01  0.26653007998E+01  0.51100000000E-03 0. -1.
        -11    1    3    3    0    0  0.11393047570E+01  0.98488450738E+01 -0.14549134028E+01  0.10020705459E+02  0.51100000000E-03 0.  1.
        -12    1    3    3    0    0 -0.63290086591E+00  0.29294243714E+02 -0.16148423387E+02  0.33456312651E+02  0.00000000000E+00 0.  1.
</event>
<event>
 7    1  0.5664398E-009  0.4614232E+02  0.7816164E-02  0.1320468E+00
        -11   -1    0    0    0    0  0.00000000000E+00  0.00000000000E+00  0.45593999997E+02  0.45594000000E+02  0.51100000000E-03 0. -1.
         11   -1    0    0    0    0 -0.00000000000E+00 -0.00000000000E+00 -0.45593999997E+02  0.45594000000E+02  0.51100000000E-03 0.  1.
    9900012    2    1    2    0    0 -0.19298292196E+02  0.37265514736E+02 -0.16369815767E+02  0.46142317205E+02  0.99999949278E+01 0.  0.
         12    1    1    2    0    0  0.19298292196E+02 -0.37265514736E+02  0.16369815767E+02  0.45045682795E+02  0.00000000000E+00 0. -1.
         11    1    3    3    0    0 -0.18296498301E+01  0.10693813167E+01  0.69208476585E+00  0.22293892629E+01  0.51100000000E-03 0. -1.
        -11    1    3    3    0    0 -0.11855907824E+02  0.23958077371E+02 -0.89266021368E+01  0.28182197353E+02  0.51100000000E-03 0.  1.
         12    1    3    3    0    0 -0.56127345412E+01  0.12238056048E+02 -0.81352983960E+01  0.15730730589E+02  0.00000000000E+00 0. -1.
</event>
<event>
 7    1  0.5664398E-009  0.4614232E+02  0.7816164E-02  0.1320468E+00
        -11   -1    0    0    0    0  0.00000000000E+00  0.00000000000E+00  0.45593999997E+02  0.45594000000E+02  0.51100000000E-03 0. -1.
         11   -1    0    0    0    0 -0.00000000000E+00 -0.00000000000E+00 -0.45593999997E+02  0.45594000000E+02  0.51100000000E-03 0.  1.
    9900012    2    1    2    0    0  0.17208207288E+02  0.87869474473E+01  0.40691284985E+02  0.46142317440E+02  0.99999970737E+01 0.  0.
        -12    1    1    2    0    0 -0.17208207288E+02 -0.87869474473E+01 -0.40691284985E+02  0.45045682560E+02  0.00000000000E+00 0.  1.
         11    1    3    3    0    0  0.37765784463E+01  0.49015837548E+01  0.19883489583E+02  0.20824054032E+02  0.51100000000E-03 0. -1.
        -11    1    3    3    0    0  0.82082971267E+01  0.28862767456E+01  0.15670999988E+02  0.17924479799E+02  0.51100000000E-03 0.  1.
        -12    1    3    3    0    0  0.52233317153E+01  0.99908694690E+00  0.51367954144E+01  0.73937836096E+01  0.00000000000E+00 0.  1.
</event>
<event>
 7    1  0.5664398E-009  0.4614231E+02  0.7816164E-02  0.1320468E+00
        -11   -1    0    0    0    0  0.00000000000E+00  0.00000000000E+00  0.45593999997E+02  0.45594000000E+02  0.51100000000E-03 0. -1.
         11   -1    0    0    0    0 -0.00000000000E+00 -0.00000000000E+00 -0.45593999997E+02  0.45594000000E+02  0.51100000000E-03 0.  1.
    9900012    2    1    2    0    0 -0.38649129088E+02  0.13927803952E+01  0.23095865773E+02  0.46142311724E+02  0.99999449504E+01 0.  0.
        -12    1    1    2    0    0  0.38649129088E+02 -0.13927803952E+01 -0.23095865773E+02  0.45045688276E+02  0.00000000000E+00 0.  1.
         11    1    3    3    0    0 -0.29394391095E+02 -0.23504868149E+01  0.18943953685E+02  0.35048942889E+02  0.51100000000E-03 0. -1.
        -11    1    3    3    0    0 -0.16107073775E+01 -0.97753705010E-01  0.13112851968E+01  0.20792794837E+01  0.51100000000E-03 0.  1.
        -12    1    3    3    0    0 -0.76440306147E+01  0.38410209152E+01  0.28406268906E+01  0.90140893517E+01  0.00000000000E+00 0.  1.
</event>
<event>
 7    1  0.5664398E-009  0.4614232E+02  0.7816164E-02  0.1320468E+00
        -11   -1    0    0    0    0  0.00000000000E+00  0.00000000000E+00  0.45593999997E+02  0.45594000000E+02  0.51100000000E-03 0. -1.
         11   -1    0    0    0    0 -0.00000000000E+00 -0.00000000000E+00 -0.45593999997E+02  0.45594000000E+02  0.51100000000E-03 0.  1.
    9900012    2    1    2    0    0  0.42864972157E+02  0.83337672850E+01 -0.11056931636E+02  0.46142320380E+02  0.10000023884E+02 0.  0.
         12    1    1    2    0    0 -0.42864972157E+02 -0.83337672850E+01  0.11056931636E+02  0.45045679620E+02  0.00000000000E+00 0. -1.
         11    1    3    3    0    0  0.18208249297E+02  0.28706051226E+01 -0.93671031819E+01  0.20676637505E+02  0.51100000000E-03 0. -1.
        -11    1    3    3    0    0  0.39222839240E+00 -0.22693328344E+00 -0.20891184419E+00  0.49898521692E+00  0.51100000000E-03 0.  1.
        -12    1    3    3    0    0  0.24264494468E+02  0.56900954459E+01 -0.14809166095E+01  0.24966697658E+02  0.00000000000E+00 0.  1.
</event>
<event>
 7    1  0.5664398E-009  0.4614232E+02  0.7816164E-02  0.1320468E+00
        -11   -1    0    0    0    0  0.00000000000E+00  0.00000000000E+00  0.45593999997E+02  0.45594000000E+02  0.51100000000E-03 0. -1.
         11   -1    0    0    0    0 -0.00000000000E+00 -0.00000000000E+00 -0.45593999997E+02  0.45594000000E+02  0.51100000000E-03 0.  1.
    9900012    2    1    2    0    0 -0.60817405283E+01 -0.33946815427E+02  0.28978259159E+02  0.46142319304E+02  0.10000014067E+02 0.  0.
        -12    1    1    2    0    0  0.60817405283E+01  0.33946815427E+02 -0.28978259159E+02  0.45045680696E+02  0.00000000000E+00 0.  1.
         11    1    3    3    0    0  0.14074024438E+01 -0.13731014123E+02  0.11308767120E+02  0.17844039467E+02  0.51100000000E-03 0.  1.
        -11    1    3    3    0    0 -0.13343898697E+01 -0.91028838189E+01  0.55709363612E+01  0.10755390386E+02  0.51100000000E-03 0. -1.
         12    1    3    3    0    0 -0.61547531024E+01 -0.11112917486E+02  0.12098555678E+02  0.17542889451E+02  0.00000000000E+00 0. -1.
</event>
<event>
 7    1  0.5664398E-009  0.4614232E+02  0.7816164E-02  0.1320468E+00
        -11   -1    0    0    0    0  0.00000000000E+00  0.00000000000E+00  0.45593999997E+02  0.45594000000E+02  0.51100000000E-03 0. -1.
         11   -1    0    0    0    0 -0.00000000000E+00 -0.00000000000E+00 -0.45593999997E+02  0.45594000000E+02  0.51100000000E-03 0.  1.
    9900012    2    1    2    0    0 -0.22637833518E+02 -0.63145168037E+00 -0.38938968037E+02  0.46142317972E+02  0.10000001921E+02 0.  0.
         12    1    1    2    0    0  0.22637833518E+02  0.63145168037E+00  0.38938968037E+02  0.45045682028E+02  0.00000000000E+00 0. -1.
         11    1    3    3    0    0 -0.47876769830E+01  0.15005942779E+01 -0.37608634156E+01  0.62703849940E+01  0.51100000000E-03 0. -1.
        -11    1    3    3    0    0 -0.15156293667E+02 -0.28702035217E+00 -0.31472918970E+02  0.34933368677E+02  0.51100000000E-03 0.  1.
         12    1    3    3    0    0 -0.26938628672E+01 -0.18450256061E+01 -0.37051856517E+01  0.49385643003E+01  0.00000000000E+00 0. -1.
</event>
<event>
 7    1  0.5664398E-009  0.4614232E+02  0.7816164E-02  0.1320468E+00
        -11   -1    0    0    0    0  0.00000000000E+00  0.00000000000E+00  0.45593999997E+02  0.45594000000E+02  0.51100000000E-03 0. -1.
         11   -1    0    0    0    0 -0.00000000000E+00 -0.00000000000E+00 -0.45593999997E+02  0.45594000000E+02  0.51100000000E-03 0.  1.
    9900012    2    1    2    0    0 -0.19489633703E+02  0.30197697139E+02 -0.27154497952E+02  0.46142317705E+02  0.99999994845E+01 0.  0.
         12    1    1    2    0    0  0.19489633703E+02 -0.30197697139E+02  0.27154497952E+02  0.45045682295E+02  0.00000000000E+00 0. -1.
         11    1    3    3    0    0 -0.10217899802E+01  0.46770158447E+01 -0.68224678163E+01  0.83345425394E+01  0.51100000000E-03 0. -1.
        -11    1    3    3    0    0 -0.89359962419E+01  0.16425898033E+02 -0.12104153441E+02  0.22274934025E+02  0.51100000000E-03 0.  1.
        -12    1    3    3    0    0 -0.95318474812E+01  0.90947832617E+01 -0.82278766951E+01  0.15532841140E+02  0.00000000000E+00 0.  1.
</event>
<event>
 7    1  0.5664398E-009  0.4614232E+02  0.7816164E-02  0.1320468E+00
        -11   -1    0    0    0    0  0.00000000000E+00  0.00000000000E+00  0.45593999997E+02  0.45594000000E+02  0.51100000000E-03 0. -1.
         11   -1    0    0    0    0 -0.00000000000E+00 -0.00000000000E+00 -0.45593999997E+02  0.45594000000E+02  0.51100000000E-03 0.  1.
    9900012    2    1    2    0    0 -0.14954687358E+02 -0.34730205805E+02  0.24480263001E+02  0.46142321563E+02  0.10000034672E+02 0.  0.
        -12    1    1    2    0    0  0.14954687358E+02  0.34730205805E+02 -0.24480263001E+02  0.45045678437E+02  0.00000000000E+00 0.  1.
         11    1    3    3    0    0 -0.11361005460E+02 -0.20682820014E+02  0.15615799532E+02  0.28296725678E+02  0.51100000000E-03 0. -1.
        -11    1    3    3    0    0 -0.18260295616E+01 -0.36814664567E+01  0.26906974746E-01  0.41095381101E+01  0.51100000000E-03 0.  1.
         12    1    3    3    0    0 -0.17676523360E+01 -0.10365919334E+02  0.88375564937E+01  0.13736057775E+02  0.00000000000E+00 0. -1.
</event>
<event>
 7    1  0.5664398E-009  0.4614232E+02  0.7816164E-02  0.1320468E+00
        -11   -1    0    0    0    0  0.00000000000E+00  0.00000000000E+00  0.45593999997E+02  0.45594000000E+02  0.51100000000E-03 0. -1.
         11   -1    0    0    0    0 -0.00000000000E+00 -0.00000000000E+00 -0.45593999997E+02  0.45594000000E+02  0.51100000000E-03 0.  1.
    9900012    2    1    2    0    0  0.10255625891E+02 -0.30816217847E+02 -0.31213714183E+02  0.46142322095E+02  0.10000039523E+02 0.  0.
         12    1    1    2    0    0 -0.10255625891E+02  0.30816217847E+02  0.31213714183E+02  0.45045677905E+02  0.00000000000E+00 0. -1.
         11    1    3    3    0    0  0.27014481557E+01 -0.14874675115E+02 -0.12945487121E+02  0.19903251467E+02  0.51100000000E-03 0. -1.
        -11    1    3    3    0    0  0.40023878488E+01 -0.14212441310E+02 -0.15553719790E+02  0.21445997204E+02  0.51100000000E-03 0.  1.
        -12    1    3    3    0    0  0.35517898863E+01 -0.17291014219E+01 -0.27145072714E+01  0.47930734242E+01  0.00000000000E+00 0.  1.
</event>
<event>
 7    1  0.5664398E-009  0.4614232E+02  0.7816164E-02  0.1320468E+00
        -11   -1    0    0    0    0  0.00000000000E+00  0.00000000000E+00  0.45593999997E+02  0.45594000000E+02  0.51100000000E-03 0. -1.
         11   -1    0    0    0    0 -0.00000000000E+00 -0.00000000000E+00 -0.45593999997E+02  0.45594000000E+02  0.51100000000E-03 0.  1.
    9900012    2    1    2    0    0  0.31313541909E+02  0.28290286133E+02  0.15755486307E+02  0.46142317131E+02  0.99999942543E+01 0.  0.
        -12    1    1    2    0    0 -0.31313541909E+02 -0.28290286133E+02 -0.15755486307E+02  0.45045682869E+02  0.00000000000E+00 0.  1.
         11    1    3    3    0    0  0.13906474447E+01  0.38878219011E+01  0.11356318045E+01  0.42823730929E+01  0.51100000000E-03 0.  1.
        -11    1    3    3    0    0  0.12888993576E+02  0.14956443604E+02  0.75863752524E+01  0.21151228106E+02  0.51100000000E-03 0. -1.
         12    1    3    3    0    0  0.17033900889E+02  0.94460206278E+01  0.70334792497E+01  0.20708715932E+02  0.00000000000E+00 0. -1.
</event>
<event>
 7    1  0.5664398E-009  0.4614232E+02  0.7816164E-02  0.1320468E+00
        -11   -1    0    0    0    0  0.00000000000E+00  0.00000000000E+00  0.45593999997E+02  0.45594000000E+02  0.51100000000E-03 0. -1.
         11   -1    0    0    0    0 -0.00000000000E+00 -0.00000000000E+00 -0.45593999997E+02  0.45594000000E+02  0.51100000000E-03 0.  1.
    9900012    2    1    2    0    0  0.29201512698E+02  0.21121005549E+02 -0.27023846989E+02  0.46142317351E+02  0.99999962585E+01 0.  0.
         12    1    1    2    0    0 -0.29201512698E+02 -0.21121005549E+02  0.27023846989E+02  0.45045682649E+02  0.00000000000E+00 0. -1.
         11    1    3    3    0    0  0.37796634706E+01  0.62896234058E+01 -0.29975641480E+01  0.79265761600E+01  0.51100000000E-03 0. -1.
        -11    1    3    3    0    0  0.31892189743E+01  0.35197422205E+01 -0.32946790664E+01  0.57805374643E+01  0.51100000000E-03 0.  1.
        -12    1    3    3    0    0  0.22232630253E+02  0.11311639922E+02 -0.20731603775E+02  0.32435203726E+02  0.00000000000E+00 0.  1.
</event>
<event>
 7    1  0.5664398E-009  0.4614232E+02  0.7816164E-02  0.1320468E+00
        -11   -1    0    0    0    0  0.00000000000E+00  0.00000000000E+00  0.45593999997E+02  0.45594000000E+02  0.51100000000E-03 0. -1.
         11   -1    0    0    0    0 -0.00000000000E+00 -0.00000000000E+00 -0.45593999997E+02  0.45594000000E+02  0.51100000000E-03 0.  1.
    9900012    2    1    2    0    0  0.17888061469E+01  0.23015190908E+02  0.38680931638E+02  0.46142319715E+02  0.10000017820E+02 0.  0.
        -12    1    1    2    0    0 -0.17888061469E+01 -0.23015190908E+02 -0.38680931638E+02  0.45045680285E+02  0.00000000000E+00 0.  1.
         11    1    3    3    0    0  0.15722817397E+01  0.12369544726E+02  0.24272074843E+02  0.27287567206E+02  0.51100000000E-03 0. -1.
        -11    1    3    3    0    0 -0.18433322942E+01  0.45030876641E+01  0.96788688269E+01  0.10833105487E+02  0.51100000000E-03 0.  1.
        -12    1    3    3    0    0  0.20598567014E+01  0.61425585179E+01  0.47299879681E+01  0.80216470226E+01  0.00000000000E+00 0.  1.
</event>
<event>
 7    1  0.5664398E-009  0.4614232E+02  0.7816164E-02  0.1320468E+00
        -11   -1    0    0    0    0  0.00000000000E+00  0.00000000000E+00  0.45593999997E+02  0.45594000000E+02  0.51100000000E-03 0. -1.
         11   -1    0    0    0    0 -0.00000000000E+00 -0.00000000000E+00 -0.45593999997E+02  0.45594000000E+02  0.51100000000E-03 0.  1.
    9900012    2    1    2    0    0 -0.36518277949E+02 -0.18511767137E+02 -0.18784118170E+02  0.46142320493E+02  0.10000024908E+02 0.  0.
         12    1    1    2    0    0  0.36518277949E+02  0.18511767137E+02  0.18784118170E+02  0.45045679507E+02  0.00000000000E+00 0. -1.
         11    1    3    3    0    0 -0.93458677681E+01 -0.57420489684E+01 -0.75370827263E+01  0.13308793596E+02  0.51100000000E-03 0. -1.
        -11    1    3    3    0    0 -0.83330221322E+01 -0.54103864660E+01 -0.54362513290E+00  0.99502295508E+01  0.51100000000E-03 0.  1.
        -12    1    3    3    0    0 -0.18839388048E+02 -0.73593317022E+01 -0.10703410311E+02  0.22883297346E+02  0.00000000000E+00 0.  1.
</event>
<event>
 7    1  0.5664398E-009  0.4614232E+02  0.7816164E-02  0.1320468E+00
        -11   -1    0    0    0    0  0.00000000000E+00  0.00000000000E+00  0.45593999997E+02  0.45594000000E+02  0.51100000000E-03 0. -1.
         11   -1    0    0    0    0 -0.00000000000E+00 -0.00000000000E+00 -0.45593999997E+02  0.45594000000E+02  0.51100000000E-03 0.  1.
    9900012    2    1    2    0    0  0.70440647560E+01 -0.32412473766E+02  0.30478290156E+02  0.46142317913E+02  0.10000001381E+02 0.  0.
        -12    1    1    2    0    0 -0.70440647560E+01  0.32412473766E+02 -0.30478290156E+02  0.45045682087E+02  0.00000000000E+00 0.  1.
         11    1    3    3    0    0  0.63794813790E+01 -0.20348331615E+02  0.19067344691E+02  0.28606223379E+02  0.51100000000E-03 0. -1.
        -11    1    3    3    0    0  0.44295717251E+00 -0.19167928890E+00  0.28667352061E+01  0.29070815279E+01  0.51100000000E-03 0.  1.
        -12    1    3    3    0    0  0.22162620455E+00 -0.11872462862E+02  0.85442102590E+01  0.14629013006E+02  0.00000000000E+00 0.  1.
</event>
<event>
 7    1  0.5664398E-009  0.4614232E+02  0.7816164E-02  0.1320468E+00
        -11   -1    0    0    0    0  0.00000000000E+00  0.00000000000E+00  0.45593999997E+02  0.45594000000E+02  0.51100000000E-03 0. -1.
         11   -1    0    0    0    0 -0.00000000000E+00 -0.00000000000E+00 -0.45593999997E+02  0.45594000000E+02  0.51100000000E-03 0.  1.
    9900012    2    1    2    0    0 -0.13196410703E+02  0.11401477985E+02 -0.41532813638E+02  0.46142316917E+02  0.99999923044E+01 0.  0.
         12    1    1    2    0    0  0.13196410703E+02 -0.11401477985E+02  0.41532813638E+02  0.45045683083E+02  0.00000000000E+00 0. -1.
         11    1    3    3    0    0 -0.34078373721E+00 -0.14615260344E+01 -0.30397217157E+01  0.33900000406E+01  0.51100000000E-03 0. -1.
        -11    1    3    3    0    0 -0.38524424292E+01  0.36003635630E+01 -0.15591890072E+02  0.16459373218E+02  0.51100000000E-03 0.  1.
        -12    1    3    3    0    0 -0.90031845370E+01  0.92626404567E+01 -0.22901201850E+02  0.26292943658E+02  0.00000000000E+00 0.  1.
</event>
<event>
 7    1  0.5664398E-009  0.4614232E+02  0.7816164E-02  0.1320468E+00
        -11   -1    0    0    0    0  0.00000000000E+00  0.00000000000E+00  0.45593999997E+02  0.45594000000E+02  0.51100000000E-03 0. -1.
         11   -1    0    0    0    0 -0.00000000000E+00 -0.00000000000E+00 -0.45593999997E+02  0.45594000000E+02  0.51100000000E-03 0.  1.
    9900012    2    1    2    0    0 -0.34233009474E+02  0.24759985584E+02  0.15625543559E+02  0.46142318350E+02  0.10000005374E+02 0.  0.
        -12    1    1    2    0    0  0.34233009474E+02 -0.24759985584E+02 -0.15625543559E+02  0.45045681650E+02  0.00000000000E+00 0.  1.
         11    1    3    3    0    0 -0.15611081598E+02  0.16980244076E+02  0.98157250627E+01  0.25067569015E+02  0.51100000000E-03 0. -1.
        -11    1    3    3    0    0 -0.56771385262E+01  0.32292609255E+01  0.16449226837E+01  0.67352653153E+01  0.51100000000E-03 0.  1.
         12    1    3    3    0    0 -0.12944789349E+02  0.45504805821E+01  0.41648958129E+01  0.14339484020E+02  0.00000000000E+00 0. -1.
</event>
<event>
 7    1  0.5664398E-009  0.4614232E+02  0.7816164E-02  0.1320468E+00
        -11   -1    0    0    0    0  0.00000000000E+00  0.00000000000E+00  0.45593999997E+02  0.45594000000E+02  0.51100000000E-03 0. -1.
         11   -1    0    0    0    0 -0.00000000000E+00 -0.00000000000E+00 -0.45593999997E+02  0.45594000000E+02  0.51100000000E-03 0.  1.
    9900012    2    1    2    0    0  0.16089231889E+02  0.16137826056E+02 -0.38856413310E+02  0.46142315768E+02  0.99999818286E+01 0.  0.
         12    1    1    2    0    0 -0.16089231889E+02 -0.16137826056E+02  0.38856413310E+02  0.45045684232E+02  0.00000000000E+00 0. -1.
         11    1    3    3    0    0  0.43188706182E+01  0.70354273480E+01 -0.14159418836E+02  0.16390211208E+02  0.51100000000E-03 0. -1.
        -11    1    3    3    0    0  0.42448004748E+01  0.66306626775E+01 -0.77605661411E+01  0.11054881533E+02  0.51100000000E-03 0.  1.
         12    1    3    3    0    0  0.75255607964E+01  0.24717360307E+01 -0.16936428332E+02  0.18697223028E+02  0.00000000000E+00 0. -1.
</event>
<event>
 7    1  0.5664398E-009  0.4614232E+02  0.7816164E-02  0.1320468E+00
        -11   -1    0    0    0    0  0.00000000000E+00  0.00000000000E+00  0.45593999997E+02  0.45594000000E+02  0.51100000000E-03 0.  1.
         11   -1    0    0    0    0 -0.00000000000E+00 -0.00000000000E+00 -0.45593999997E+02  0.45594000000E+02  0.51100000000E-03 0. -1.
    9900012    2    1    2    0    0  0.35547489091E+02  0.20227144904E+02 -0.18877290574E+02  0.46142317954E+02  0.10000001756E+02 0.  0.
         12    1    1    2    0    0 -0.35547489091E+02 -0.20227144904E+02  0.18877290574E+02  0.45045682046E+02  0.00000000000E+00 0. -1.
         11    1    3    3    0    0  0.95361008689E-01  0.19540967908E+00  0.58372595866E-01  0.22513614931E+00  0.51100000000E-03 0. -1.
        -11    1    3    3    0    0  0.13378811639E+02  0.46451125151E+01 -0.24815152178E+01  0.14378024523E+02  0.51100000000E-03 0.  1.
         12    1    3    3    0    0  0.22073316444E+02  0.15386622709E+02 -0.16454147952E+02  0.31539157282E+02  0.00000000000E+00 0. -1.
</event>
<event>
 7    1  0.5664398E-009  0.4614232E+02  0.7816164E-02  0.1320468E+00
        -11   -1    0    0    0    0  0.00000000000E+00  0.00000000000E+00  0.45593999997E+02  0.45594000000E+02  0.51100000000E-03 0.  1.
         11   -1    0    0    0    0 -0.00000000000E+00 -0.00000000000E+00 -0.45593999997E+02  0.45594000000E+02  0.51100000000E-03 0. -1.
    9900012    2    1    2    0    0 -0.70677748931E+01  0.34579141443E+02  0.27990053179E+02  0.46142317167E+02  0.99999945861E+01 0.  0.
        -12    1    1    2    0    0  0.70677748931E+01 -0.34579141443E+02 -0.27990053179E+02  0.45045682833E+02  0.00000000000E+00 0.  1.
         11    1    3    3    0    0 -0.19814962164E+01  0.26589706678E+02  0.21164644212E+02  0.34042341185E+02  0.51100000000E-03 0. -1.
        -11    1    3    3    0    0 -0.15299141534E+00 -0.30331399674E+00  0.18699750339E+00  0.38778097063E+00  0.51100000000E-03 0.  1.
         12    1    3    3    0    0 -0.49332872614E+01  0.82927487621E+01  0.66384114636E+01  0.11712195012E+02  0.00000000000E+00 0. -1.
</event>
<event>
 7    1  0.5664398E-009  0.4614232E+02  0.7816164E-02  0.1320468E+00
        -11   -1    0    0    0    0  0.00000000000E+00  0.00000000000E+00  0.45593999997E+02  0.45594000000E+02  0.51100000000E-03 0. -1.
         11   -1    0    0    0    0 -0.00000000000E+00 -0.00000000000E+00 -0.45593999997E+02  0.45594000000E+02  0.51100000000E-03 0.  1.
    9900012    2    1    2    0    0 -0.11067901832E+02  0.20131264269E+02  0.38747219298E+02  0.46142320348E+02  0.10000023588E+02 0.  0.
        -12    1    1    2    0    0  0.11067901832E+02 -0.20131264269E+02 -0.38747219298E+02  0.45045679652E+02  0.00000000000E+00 0.  1.
         11    1    3    3    0    0 -0.64243440975E+01  0.13062362110E+02  0.27663008348E+02  0.31259231150E+02  0.51100000000E-03 0. -1.
        -11    1    3    3    0    0 -0.13020619150E+01  0.61928399080E+01  0.58905841859E+01  0.86455545612E+01  0.51100000000E-03 0.  1.
         12    1    3    3    0    0 -0.33414958196E+01  0.87606225063E+00  0.51936267636E+01  0.62375346363E+01  0.00000000000E+00 0. -1.
</event>
<event>
 7    1  0.5664398E-009  0.4614232E+02  0.7816164E-02  0.1320468E+00
        -11   -1    0    0    0    0  0.00000000000E+00  0.00000000000E+00  0.45593999997E+02  0.45594000000E+02  0.51100000000E-03 0. -1.
         11   -1    0    0    0    0 -0.00000000000E+00 -0.00000000000E+00 -0.45593999997E+02  0.45594000000E+02  0.51100000000E-03 0.  1.
    9900012    2    1    2    0    0  0.16120022301E+01 -0.18962224039E+02 -0.40828286181E+02  0.46142318251E+02  0.10000004469E+02 0.  0.
         12    1    1    2    0    0 -0.16120022301E+01  0.18962224039E+02  0.40828286181E+02  0.45045681749E+02  0.00000000000E+00 0. -1.
         11    1    3    3    0    0  0.25972232101E+01 -0.25120220200E+01 -0.11440090956E+02  0.11997145676E+02  0.51100000000E-03 0. -1.
        -11    1    3    3    0    0  0.13347592340E+01 -0.10783176351E+01 -0.43143587870E+01  0.46430639818E+01  0.51100000000E-03 0.  1.
        -12    1    3    3    0    0 -0.23199802140E+01 -0.15371884384E+02 -0.25073836439E+02  0.29502108594E+02  0.00000000000E+00 0.  1.
</event>
<event>
 7    1  0.5664398E-009  0.4614232E+02  0.7816164E-02  0.1320468E+00
        -11   -1    0    0    0    0  0.00000000000E+00  0.00000000000E+00  0.45593999997E+02  0.45594000000E+02  0.51100000000E-03 0. -1.
         11   -1    0    0    0    0 -0.00000000000E+00 -0.00000000000E+00 -0.45593999997E+02  0.45594000000E+02  0.51100000000E-03 0.  1.
    9900012    2    1    2    0    0  0.27936784290E+02 -0.18747062622E+01  0.35286471045E+02  0.46142317867E+02  0.10000000964E+02 0.  0.
        -12    1    1    2    0    0 -0.27936784290E+02  0.18747062622E+01 -0.35286471045E+02  0.45045682133E+02  0.00000000000E+00 0.  1.
         11    1    3    3    0    0  0.74786099163E+01  0.19329169508E+01  0.13091167925E+02  0.15200146450E+02  0.51100000000E-03 0.  1.
        -11    1    3    3    0    0  0.84348534194E+01  0.16963330262E-02  0.57110422482E+01  0.10186400685E+02  0.51100000000E-03 0. -1.
        -12    1    3    3    0    0  0.12023320954E+02 -0.38093195460E+01  0.16484260872E+02  0.20755770732E+02  0.00000000000E+00 0.  1.
</event>
<event>
 7    1  0.5664398E-009  0.4614232E+02  0.7816164E-02  0.1320468E+00
        -11   -1    0    0    0    0  0.00000000000E+00  0.00000000000E+00  0.45593999997E+02  0.45594000000E+02  0.51100000000E-03 0. -1.
         11   -1    0    0    0    0 -0.00000000000E+00 -0.00000000000E+00 -0.45593999997E+02  0.45594000000E+02  0.51100000000E-03 0.  1.
    9900012    2    1    2    0    0  0.10155901338E+02 -0.41484988703E+02 -0.14316662953E+02  0.46142318100E+02  0.10000003094E+02 0.  0.
         12    1    1    2    0    0 -0.10155901338E+02  0.41484988703E+02  0.14316662953E+02  0.45045681900E+02  0.00000000000E+00 0. -1.
         11    1    3    3    0    0  0.46930021451E+01 -0.22228371964E+02 -0.54683657242E+01  0.23367238032E+02  0.51100000000E-03 0. -1.
        -11    1    3    3    0    0  0.38934108772E+01 -0.17908019690E+02 -0.60589760132E+01  0.19301994925E+02  0.51100000000E-03 0.  1.
         12    1    3    3    0    0  0.15694883153E+01 -0.13485970496E+01 -0.27893212154E+01  0.34730851439E+01  0.00000000000E+00 0. -1.
</event>
<event>
 7    1  0.5664398E-009  0.4614231E+02  0.7816164E-02  0.1320468E+00
        -11   -1    0    0    0    0  0.00000000000E+00  0.00000000000E+00  0.45593999997E+02  0.45594000000E+02  0.51100000000E-03 0.  1.
         11   -1    0    0    0    0 -0.00000000000E+00 -0.00000000000E+00 -0.45593999997E+02  0.45594000000E+02  0.51100000000E-03 0. -1.
    9900012    2    1    2    0    0 -0.44694352975E+02 -0.62562417963E+00  0.55800700614E+01  0.46142314576E+02  0.99999709534E+01 0.  0.
         12    1    1    2    0    0  0.44694352975E+02  0.62562417963E+00 -0.55800700614E+01  0.45045685424E+02  0.00000000000E+00 0. -1.
         11    1    3    3    0    0 -0.46571696663E+00  0.18352003977E+00 -0.43388787059E+00  0.66244308689E+00  0.51100000000E-03 0. -1.
        -11    1    3    3    0    0 -0.34130396383E+02 -0.11410199024E+01  0.91326998723E+00  0.34161673641E+02  0.51100000000E-03 0.  1.
         12    1    3    3    0    0 -0.10098239626E+02  0.33187568305E+00  0.51006879448E+01  0.11318197848E+02  0.00000000000E+00 0. -1.
</event>
<event>
 7    1  0.5664398E-009  0.4614232E+02  0.7816164E-02  0.1320468E+00
        -11   -1    0    0    0    0  0.00000000000E+00  0.00000000000E+00  0.45593999997E+02  0.45594000000E+02  0.51100000000E-03 0. -1.
         11   -1    0    0    0    0 -0.00000000000E+00 -0.00000000000E+00 -0.45593999997E+02  0.45594000000E+02  0.51100000000E-03 0.  1.
    9900012    2    1    2    0    0  0.13039637631E+02 -0.12030626230E+02  0.41404653523E+02  0.46142318183E+02  0.10000003849E+02 0.  0.
        -12    1    1    2    0    0 -0.13039637631E+02  0.12030626230E+02 -0.41404653523E+02  0.45045681817E+02  0.00000000000E+00 0.  1.
         11    1    3    3    0    0  0.93433488019E+01 -0.90458864266E+01  0.21350740593E+02  0.24999607041E+02  0.51100000000E-03 0. -1.
        -11    1    3    3    0    0  0.48086416148E+01 -0.27058612971E+01  0.15745467318E+02  0.16684257876E+02  0.51100000000E-03 0.  1.
        -12    1    3    3    0    0 -0.11123527859E+01 -0.27887850612E+00  0.43084456114E+01  0.44584532663E+01  0.00000000000E+00 0.  1.
</event>
<event>
 7    1  0.5664398E-009  0.4614232E+02  0.7816164E-02  0.1320468E+00
        -11   -1    0    0    0    0  0.00000000000E+00  0.00000000000E+00  0.45593999997E+02  0.45594000000E+02  0.51100000000E-03 0. -1.
         11   -1    0    0    0    0 -0.00000000000E+00 -0.00000000000E+00 -0.45593999997E+02  0.45594000000E+02  0.51100000000E-03 0.  1.
    9900012    2    1    2    0    0 -0.16401313881E+02  0.27296987156E+02  0.31858828705E+02  0.46142316841E+02  0.99999916131E+01 0.  0.
        -12    1    1    2    0    0  0.16401313881E+02 -0.27296987156E+02 -0.31858828705E+02  0.45045683159E+02  0.00000000000E+00 0.  1.
         11    1    3    3    0    0 -0.81545076913E+01  0.93957935864E+01  0.17145276060E+02  0.21183423336E+02  0.51100000000E-03 0. -1.
        -11    1    3    3    0    0 -0.29087679039E+00  0.19093000442E+01  0.19538107203E+00  0.19411877782E+01  0.51100000000E-03 0.  1.
         12    1    3    3    0    0 -0.79559293991E+01  0.15991893525E+02  0.14518171573E+02  0.23017705727E+02  0.00000000000E+00 0. -1.
</event>
<event>
 7    1  0.5664398E-009  0.4614232E+02  0.7816164E-02  0.1320468E+00
        -11   -1    0    0    0    0  0.00000000000E+00  0.00000000000E+00  0.45593999997E+02  0.45594000000E+02  0.51100000000E-03 0. -1.
         11   -1    0    0    0    0 -0.00000000000E+00 -0.00000000000E+00 -0.45593999997E+02  0.45594000000E+02  0.51100000000E-03 0.  1.
    9900012    2    1    2    0    0 -0.29673467467E+02  0.21466942478E+02 -0.26225353751E+02  0.46142317962E+02  0.10000001833E+02 0.  0.
         12    1    1    2    0    0  0.29673467467E+02 -0.21466942478E+02  0.26225353751E+02  0.45045682038E+02  0.00000000000E+00 0. -1.
         11    1    3    3    0    0 -0.33881890577E+01 -0.18512952197E+00 -0.41151565398E+01  0.53337239935E+01  0.51100000000E-03 0. -1.
        -11    1    3    3    0    0 -0.15034755682E+02  0.12361755740E+02 -0.15024734435E+02  0.24588605664E+02  0.51100000000E-03 0.  1.
         12    1    3    3    0    0 -0.11250522728E+02  0.92903162591E+01 -0.70854627766E+01  0.16219988304E+02  0.00000000000E+00 0. -1.
</event>
<event>
 7    1  0.5664398E-009  0.4614232E+02  0.7816164E-02  0.1320468E+00
        -11   -1    0    0    0    0  0.00000000000E+00  0.00000000000E+00  0.45593999997E+02  0.45594000000E+02  0.51100000000E-03 0. -1.
         11   -1    0    0    0    0 -0.00000000000E+00 -0.00000000000E+00 -0.45593999997E+02  0.45594000000E+02  0.51100000000E-03 0.  1.
    9900012    2    1    2    0    0 -0.24273482755E+02  0.16607727072E+02 -0.34118834996E+02  0.46142318020E+02  0.10000002359E+02 0.  0.
         12    1    1    2    0    0  0.24273482755E+02 -0.16607727072E+02  0.34118834996E+02  0.45045681980E+02  0.00000000000E+00 0. -1.
         11    1    3    3    0    0 -0.29153733137E+01  0.41328330260E+01 -0.11069135368E+02  0.12169859015E+02  0.51100000000E-03 0. -1.
        -11    1    3    3    0    0 -0.72716502174E+01  0.61136973036E+01 -0.88630021480E+01  0.12992574762E+02  0.51100000000E-03 0.  1.
        -12    1    3    3    0    0 -0.14086459224E+02  0.63611967421E+01 -0.14186697480E+02  0.20979884243E+02  0.00000000000E+00 0.  1.
</event>
<event>
 7    1  0.5664398E-009  0.4614232E+02  0.7816164E-02  0.1320468E+00
        -11   -1    0    0    0    0  0.00000000000E+00  0.00000000000E+00  0.45593999997E+02  0.45594000000E+02  0.51100000000E-03 0.  1.
         11   -1    0    0    0    0 -0.00000000000E+00 -0.00000000000E+00 -0.45593999997E+02  0.45594000000E+02  0.51100000000E-03 0. -1.
    9900012    2    1    2    0    0 -0.38591141820E+02 -0.22904387424E+02 -0.39020851542E+01  0.46142318090E+02  0.10000002995E+02 0.  0.
        -12    1    1    2    0    0  0.38591141820E+02  0.22904387424E+02  0.39020851542E+01  0.45045681910E+02  0.00000000000E+00 0.  1.
         11    1    3    3    0    0 -0.31857182752E+01 -0.29222981750E+01  0.20367113972E+01  0.47787886675E+01  0.51100000000E-03 0. -1.
        -11    1    3    3    0    0 -0.12383358251E+02 -0.45944300441E+01 -0.11119117590E+01  0.13254912185E+02  0.51100000000E-03 0.  1.
         12    1    3    3    0    0 -0.23022065294E+02 -0.15387659205E+02 -0.48268847923E+01  0.28108617237E+02  0.00000000000E+00 0. -1.
</event>
<event>
 7    1  0.5664398E-009  0.4614232E+02  0.7816164E-02  0.1320468E+00
        -11   -1    0    0    0    0  0.00000000000E+00  0.00000000000E+00  0.45593999997E+02  0.45594000000E+02  0.51100000000E-03 0. -1.
         11   -1    0    0    0    0 -0.00000000000E+00 -0.00000000000E+00 -0.45593999997E+02  0.45594000000E+02  0.51100000000E-03 0.  1.
    9900012    2    1    2    0    0  0.15673079149E+01  0.29243878223E+02  0.34226490297E+02  0.46142317569E+02  0.99999982477E+01 0.  0.
        -12    1    1    2    0    0 -0.15673079149E+01 -0.29243878223E+02 -0.34226490297E+02  0.45045682431E+02  0.00000000000E+00 0.  1.
         11    1    3    3    0    0 -0.35372755180E+01  0.19585734989E+02  0.23474970671E+02  0.30776412745E+02  0.51100000000E-03 0. -1.
        -11    1    3    3    0    0  0.18078200386E+01  0.35431723525E+01  0.32014881118E+01  0.51060562083E+01  0.51100000000E-03 0.  1.
         12    1    3    3    0    0  0.32967633944E+01  0.61149708807E+01  0.75500315146E+01  0.10259848616E+02  0.00000000000E+00 0. -1.
</event>
<event>
 7    1  0.5664398E-009  0.4614232E+02  0.7816164E-02  0.1320468E+00
        -11   -1    0    0    0    0  0.00000000000E+00  0.00000000000E+00  0.45593999997E+02  0.45594000000E+02  0.51100000000E-03 0. -1.
         11   -1    0    0    0    0 -0.00000000000E+00 -0.00000000000E+00 -0.45593999997E+02  0.45594000000E+02  0.51100000000E-03 0.  1.
    9900012    2    1    2    0    0  0.21001867840E+01 -0.34599797943E+02 -0.28767288299E+02  0.46142315653E+02  0.99999807737E+01 0.  0.
         12    1    1    2    0    0 -0.21001867840E+01  0.34599797943E+02  0.28767288299E+02  0.45045684347E+02  0.00000000000E+00 0. -1.
         11    1    3    3    0    0 -0.24562181007E+01 -0.23285506273E+01 -0.30624791634E+01  0.45644204747E+01  0.51100000000E-03 0. -1.
        -11    1    3    3    0    0  0.23187448268E+01 -0.12095092115E+02 -0.10987500480E+02  0.16504332701E+02  0.51100000000E-03 0.  1.
         12    1    3    3    0    0  0.22376600580E+01 -0.20176155201E+02 -0.14717308655E+02  0.25073562477E+02  0.00000000000E+00 0. -1.
</event>
<event>
 7    1  0.5664398E-009  0.4614232E+02  0.7816164E-02  0.1320468E+00
        -11   -1    0    0    0    0  0.00000000000E+00  0.00000000000E+00  0.45593999997E+02  0.45594000000E+02  0.51100000000E-03 0. -1.
         11   -1    0    0    0    0 -0.00000000000E+00 -0.00000000000E+00 -0.45593999997E+02  0.45594000000E+02  0.51100000000E-03 0.  1.
    9900012    2    1    2    0    0  0.53380452329E+01  0.44061467409E+02  0.76945306307E+01  0.46142318311E+02  0.10000005018E+02 0.  0.
        -12    1    1    2    0    0 -0.53380452329E+01 -0.44061467409E+02 -0.76945306307E+01  0.45045681689E+02  0.00000000000E+00 0.  1.
         11    1    3    3    0    0 -0.81268177711E+00  0.67389350440E+01  0.20398881545E+01  0.70876541353E+01  0.51100000000E-03 0. -1.
        -11    1    3    3    0    0 -0.96910963502E+00  0.12853323510E+02 -0.26351696017E+00  0.12892499377E+02  0.51100000000E-03 0.  1.
        -12    1    3    3    0    0  0.71198366450E+01  0.24469208855E+02  0.59181594364E+01  0.26162164799E+02  0.00000000000E+00 0.  1.
</event>
<event>
 7    1  0.5664398E-009  0.4614232E+02  0.7816164E-02  0.1320468E+00
        -11   -1    0    0    0    0  0.00000000000E+00  0.00000000000E+00  0.45593999997E+02  0.45594000000E+02  0.51100000000E-03 0. -1.
         11   -1    0    0    0    0 -0.00000000000E+00 -0.00000000000E+00 -0.45593999997E+02  0.45594000000E+02  0.51100000000E-03 0.  1.
    9900012    2    1    2    0    0 -0.21142928968E+02 -0.24092599837E+01 -0.39702460219E+02  0.46142319558E+02  0.10000016388E+02 0.  0.
         12    1    1    2    0    0  0.21142928968E+02  0.24092599837E+01  0.39702460219E+02  0.45045680442E+02  0.00000000000E+00 0. -1.
         11    1    3    3    0    0 -0.18869231448E+01  0.20582508299E+01 -0.47863396334E+01  0.55412925190E+01  0.51100000000E-03 0. -1.
        -11    1    3    3    0    0 -0.14632908262E+02 -0.33485530607E+01 -0.20415791659E+02  0.25340468842E+02  0.51100000000E-03 0.  1.
        -12    1    3    3    0    0 -0.46230975609E+01 -0.11189577529E+01 -0.14500328927E+02  0.15260558198E+02  0.00000000000E+00 0.  1.
</event>
<event>
 7    1  0.5664398E-009  0.4614232E+02  0.7816164E-02  0.1320468E+00
        -11   -1    0    0    0    0  0.00000000000E+00  0.00000000000E+00  0.45593999997E+02  0.45594000000E+02  0.51100000000E-03 0. -1.
         11   -1    0    0    0    0 -0.00000000000E+00 -0.00000000000E+00 -0.45593999997E+02  0.45594000000E+02  0.51100000000E-03 0.  1.
    9900012    2    1    2    0    0 -0.11636878497E+02 -0.26844379419E+02 -0.34250195458E+02  0.46142317227E+02  0.99999951339E+01 0.  0.
         12    1    1    2    0    0  0.11636878497E+02  0.26844379419E+02  0.34250195458E+02  0.45045682773E+02  0.00000000000E+00 0. -1.
         11    1    3    3    0    0 -0.33494450848E+01 -0.53344354361E+01 -0.42210470874E+01  0.75823625984E+01  0.51100000000E-03 0. -1.
        -11    1    3    3    0    0 -0.70577427780E+01 -0.20515276681E+02 -0.24114959251E+02  0.32437934126E+02  0.51100000000E-03 0.  1.
         12    1    3    3    0    0 -0.12296906340E+01 -0.99466730114E+00 -0.59141891194E+01  0.61220205026E+01  0.00000000000E+00 0. -1.
</event>
<event>
 7    1  0.5664398E-009  0.4614232E+02  0.7816164E-02  0.1320468E+00
        -11   -1    0    0    0    0  0.00000000000E+00  0.00000000000E+00  0.45593999997E+02  0.45594000000E+02  0.51100000000E-03 0. -1.
         11   -1    0    0    0    0 -0.00000000000E+00 -0.00000000000E+00 -0.45593999997E+02  0.45594000000E+02  0.51100000000E-03 0.  1.
    9900012    2    1    2    0    0 -0.34411001951E+01  0.39730471651E+02 -0.20946642997E+02  0.46142318731E+02  0.10000008844E+02 0.  0.
         12    1    1    2    0    0  0.34411001951E+01 -0.39730471651E+02  0.20946642997E+02  0.45045681269E+02  0.00000000000E+00 0. -1.
         11    1    3    3    0    0  0.24886262173E+00  0.15245671252E+01  0.51667761110E+00  0.16288626519E+01  0.51100000000E-03 0. -1.
        -11    1    3    3    0    0  0.56839943932E+00  0.73842756907E+01 -0.15328536783E+01  0.75630844276E+01  0.51100000000E-03 0.  1.
         12    1    3    3    0    0 -0.42583622561E+01  0.30821628835E+02 -0.19930466930E+02  0.36950371651E+02  0.00000000000E+00 0. -1.
</event>
<event>
 7    1  0.5664398E-009  0.4614232E+02  0.7816164E-02  0.1320468E+00
        -11   -1    0    0    0    0  0.00000000000E+00  0.00000000000E+00  0.45593999997E+02  0.45594000000E+02  0.51100000000E-03 0. -1.
         11   -1    0    0    0    0 -0.00000000000E+00 -0.00000000000E+00 -0.45593999997E+02  0.45594000000E+02  0.51100000000E-03 0.  1.
    9900012    2    1    2    0    0 -0.37974118299E+02  0.14584350454E+02 -0.19348811832E+02  0.46142318097E+02  0.10000003065E+02 0.  0.
         12    1    1    2    0    0  0.37974118299E+02 -0.14584350454E+02  0.19348811832E+02  0.45045681903E+02  0.00000000000E+00 0. -1.
         11    1    3    3    0    0 -0.30901337417E+00  0.16371556960E+01 -0.68115434271E+00  0.17999276480E+01  0.51100000000E-03 0. -1.
        -11    1    3    3    0    0 -0.12729507382E+02  0.29469305444E+01 -0.36617467862E+01  0.13569566965E+02  0.51100000000E-03 0.  1.
        -12    1    3    3    0    0 -0.24935597543E+02  0.10000264214E+02 -0.15005910703E+02  0.30772823484E+02  0.00000000000E+00 0.  1.
</event>
<event>
 7    1  0.5664398E-009  0.4614232E+02  0.7816164E-02  0.1320468E+00
        -11   -1    0    0    0    0  0.00000000000E+00  0.00000000000E+00  0.45593999997E+02  0.45594000000E+02  0.51100000000E-03 0. -1.
         11   -1    0    0    0    0 -0.00000000000E+00 -0.00000000000E+00 -0.45593999997E+02  0.45594000000E+02  0.51100000000E-03 0.  1.
    9900012    2    1    2    0    0  0.27876858551E+01 -0.18494261980E+02  0.40979315729E+02  0.46142320560E+02  0.10000025526E+02 0.  0.
        -12    1    1    2    0    0 -0.27876858551E+01  0.18494261980E+02 -0.40979315729E+02  0.45045679440E+02  0.00000000000E+00 0.  1.
         11    1    3    3    0    0 -0.31733901301E+00 -0.34948027224E+01  0.72920541372E+01  0.80924905881E+01  0.51100000000E-03 0. -1.
        -11    1    3    3    0    0  0.18254876012E+01 -0.53263672935E+01  0.22552795012E+02  0.23245024342E+02  0.51100000000E-03 0.  1.
        -12    1    3    3    0    0  0.12795372669E+01 -0.96730919637E+01  0.11134466579E+02  0.14804805630E+02  0.00000000000E+00 0.  1.
</event>
<event>
 7    1  0.5664398E-009  0.4614232E+02  0.7816164E-02  0.1320468E+00
        -11   -1    0    0    0    0  0.00000000000E+00  0.00000000000E+00  0.45593999997E+02  0.45594000000E+02  0.51100000000E-03 0. -1.
         11   -1    0    0    0    0 -0.00000000000E+00 -0.00000000000E+00 -0.45593999997E+02  0.45594000000E+02  0.51100000000E-03 0.  1.
    9900012    2    1    2    0    0 -0.35362532251E+02 -0.23123231819E+02 -0.15617969954E+02  0.46142317383E+02  0.99999965520E+01 0.  0.
         12    1    1    2    0    0  0.35362532251E+02  0.23123231819E+02  0.15617969954E+02  0.45045682617E+02  0.00000000000E+00 0. -1.
         11    1    3    3    0    0 -0.56288627778E+01 -0.31993646394E+01 -0.37258276671E+00  0.64852793654E+01  0.51100000000E-03 0. -1.
        -11    1    3    3    0    0 -0.20613712206E+02 -0.16014902595E+02 -0.77753017660E+01  0.27237062137E+02  0.51100000000E-03 0.  1.
        -12    1    3    3    0    0 -0.91199572670E+01 -0.39089645849E+01 -0.74700854213E+01  0.12419975881E+02  0.00000000000E+00 0.  1.
</event>
<event>
 7    1  0.5664398E-009  0.4614232E+02  0.7816164E-02  0.1320468E+00
        -11   -1    0    0    0    0  0.00000000000E+00  0.00000000000E+00  0.45593999997E+02  0.45594000000E+02  0.51100000000E-03 0. -1.
         11   -1    0    0    0    0 -0.00000000000E+00 -0.00000000000E+00 -0.45593999997E+02  0.45594000000E+02  0.51100000000E-03 0.  1.
    9900012    2    1    2    0    0  0.94331162547E+01 -0.41015163600E+02  0.16058834377E+02  0.46142317755E+02  0.99999999425E+01 0.  0.
         12    1    1    2    0    0 -0.94331162547E+01  0.41015163600E+02 -0.16058834377E+02  0.45045682245E+02  0.00000000000E+00 0. -1.
         11    1    3    3    0    0  0.11792759301E+01 -0.53413531034E+01  0.18424245769E+01  0.57719384333E+01  0.51100000000E-03 0. -1.
        -11    1    3    3    0    0  0.51671581265E+01 -0.32824944343E+02  0.10751367209E+02  0.34925182768E+02  0.51100000000E-03 0.  1.
         12    1    3    3    0    0  0.30866821981E+01 -0.28488661530E+01  0.34650425912E+01  0.54451965537E+01  0.00000000000E+00 0. -1.
</event>
<event>
 7    1  0.5664398E-009  0.4614232E+02  0.7816164E-02  0.1320468E+00
        -11   -1    0    0    0    0  0.00000000000E+00  0.00000000000E+00  0.45593999997E+02  0.45594000000E+02  0.51100000000E-03 0. -1.
         11   -1    0    0    0    0 -0.00000000000E+00 -0.00000000000E+00 -0.45593999997E+02  0.45594000000E+02  0.51100000000E-03 0.  1.
    9900012    2    1    2    0    0  0.31315220351E+02 -0.80951915304E+01 -0.31351849250E+02  0.46142316489E+02  0.99999884032E+01 0.  0.
         12    1    1    2    0    0 -0.31315220351E+02  0.80951915304E+01  0.31351849250E+02  0.45045683511E+02  0.00000000000E+00 0. -1.
         11    1    3    3    0    0  0.20884824538E+02 -0.76415728695E+01 -0.25364043261E+02  0.33732835971E+02  0.51100000000E-03 0. -1.
        -11    1    3    3    0    0  0.55074663879E+01 -0.10367115493E+01 -0.17035952774E+01  0.58574050552E+01  0.51100000000E-03 0.  1.
         12    1    3    3    0    0  0.49229294258E+01  0.58309288835E+00 -0.42842107117E+01  0.65520754628E+01  0.00000000000E+00 0. -1.
</event>
<event>
 7    1  0.5664398E-009  0.4614232E+02  0.7816164E-02  0.1320468E+00
        -11   -1    0    0    0    0  0.00000000000E+00  0.00000000000E+00  0.45593999997E+02  0.45594000000E+02  0.51100000000E-03 0. -1.
         11   -1    0    0    0    0 -0.00000000000E+00 -0.00000000000E+00 -0.45593999997E+02  0.45594000000E+02  0.51100000000E-03 0.  1.
    9900012    2    1    2    0    0  0.21688023785E+02  0.28799715522E+02 -0.27005914883E+02  0.46142318425E+02  0.10000006055E+02 0.  0.
         12    1    1    2    0    0 -0.21688023785E+02 -0.28799715522E+02  0.27005914883E+02  0.45045681575E+02  0.00000000000E+00 0. -1.
         11    1    3    3    0    0  0.85872491026E+00  0.18722273793E+01  0.47343121081E+00  0.21134760949E+01  0.51100000000E-03 0.  1.
        -11    1    3    3    0    0  0.23621777471E+01  0.39852796203E+01 -0.18541418327E+01  0.49900079717E+01  0.51100000000E-03 0. -1.
        -12    1    3    3    0    0  0.18467121128E+02  0.22942208522E+02 -0.25625204261E+02  0.39038834359E+02  0.00000000000E+00 0.  1.
</event>
<event>
 7    1  0.5664398E-009  0.4614232E+02  0.7816164E-02  0.1320468E+00
        -11   -1    0    0    0    0  0.00000000000E+00  0.00000000000E+00  0.45593999997E+02  0.45594000000E+02  0.51100000000E-03 0. -1.
         11   -1    0    0    0    0 -0.00000000000E+00 -0.00000000000E+00 -0.45593999997E+02  0.45594000000E+02  0.51100000000E-03 0.  1.
    9900012    2    1    2    0    0  0.18112320300E+02 -0.20152711360E+02 -0.35985074947E+02  0.46142317179E+02  0.99999946911E+01 0.  0.
         12    1    1    2    0    0 -0.18112320300E+02  0.20152711360E+02  0.35985074947E+02  0.45045682821E+02  0.00000000000E+00 0. -1.
         11    1    3    3    0    0  0.59653659010E+01 -0.76979956487E+01 -0.11348956089E+02  0.14954716043E+02  0.51100000000E-03 0. -1.
        -11    1    3    3    0    0  0.11987817947E+02 -0.10905681890E+02 -0.17368928379E+02  0.23755448847E+02  0.51100000000E-03 0.  1.
         12    1    3    3    0    0  0.15913645216E+00 -0.15490338219E+01 -0.72671904792E+01  0.74321522894E+01  0.00000000000E+00 0. -1.
</event>
<event>
 7    1  0.5664398E-009  0.4614232E+02  0.7816164E-02  0.1320468E+00
        -11   -1    0    0    0    0  0.00000000000E+00  0.00000000000E+00  0.45593999997E+02  0.45594000000E+02  0.51100000000E-03 0. -1.
         11   -1    0    0    0    0 -0.00000000000E+00 -0.00000000000E+00 -0.45593999997E+02  0.45594000000E+02  0.51100000000E-03 0.  1.
    9900012    2    1    2    0    0  0.11807517446E+02 -0.16521496725E+01 -0.43439225966E+02  0.46142318527E+02  0.10000006988E+02 0.  0.
         12    1    1    2    0    0 -0.11807517446E+02  0.16521496725E+01  0.43439225966E+02  0.45045681473E+02  0.00000000000E+00 0. -1.
         11    1    3    3    0    0  0.37987841281E+01  0.29845168464E+01 -0.13827527524E+02  0.14647136899E+02  0.51100000000E-03 0. -1.
        -11    1    3    3    0    0  0.61345710412E+01 -0.35804584437E+01 -0.27767565409E+02  0.28661652665E+02  0.51100000000E-03 0.  1.
         12    1    3    3    0    0  0.18741622767E+01 -0.10562080751E+01 -0.18441330340E+01  0.28335289631E+01  0.00000000000E+00 0. -1.
</event>
<event>
 7    1  0.5664398E-009  0.4614232E+02  0.7816164E-02  0.1320468E+00
        -11   -1    0    0    0    0  0.00000000000E+00  0.00000000000E+00  0.45593999997E+02  0.45594000000E+02  0.51100000000E-03 0. -1.
         11   -1    0    0    0    0 -0.00000000000E+00 -0.00000000000E+00 -0.45593999997E+02  0.45594000000E+02  0.51100000000E-03 0.  1.
    9900012    2    1    2    0    0  0.11496007896E+02  0.31233525907E+02 -0.30354935636E+02  0.46142318125E+02  0.10000003320E+02 0.  0.
         12    1    1    2    0    0 -0.11496007896E+02 -0.31233525907E+02  0.30354935636E+02  0.45045681875E+02  0.00000000000E+00 0. -1.
         11    1    3    3    0    0  0.51389733227E+01  0.12259099255E+02 -0.14917236092E+02  0.19980452804E+02  0.51100000000E-03 0. -1.
        -11    1    3    3    0    0  0.74108096643E+00  0.12578601279E+02 -0.96005793247E+01  0.15841134264E+02  0.51100000000E-03 0.  1.
        -12    1    3    3    0    0  0.56159536065E+01  0.63958253730E+01 -0.58371202194E+01  0.10320731058E+02  0.00000000000E+00 0.  1.
</event>
<event>
 7    1  0.5664398E-009  0.4614232E+02  0.7816164E-02  0.1320468E+00
        -11   -1    0    0    0    0  0.00000000000E+00  0.00000000000E+00  0.45593999997E+02  0.45594000000E+02  0.51100000000E-03 0. -1.
         11   -1    0    0    0    0 -0.00000000000E+00 -0.00000000000E+00 -0.45593999997E+02  0.45594000000E+02  0.51100000000E-03 0.  1.
    9900012    2    1    2    0    0 -0.62946521756E+01 -0.84727744908E+01  0.43791586246E+02  0.46142316749E+02  0.99999907694E+01 0.  0.
        -12    1    1    2    0    0  0.62946521756E+01  0.84727744908E+01 -0.43791586246E+02  0.45045683251E+02  0.00000000000E+00 0.  1.
         11    1    3    3    0    0 -0.18868854432E+00 -0.32451193000E+00  0.20139313497E+02  0.20142811615E+02  0.51100000000E-03 0. -1.
        -11    1    3    3    0    0 -0.85318150204E+00 -0.37751249897E+01  0.10219258526E+02  0.10927613300E+02  0.51100000000E-03 0.  1.
        -12    1    3    3    0    0 -0.52527821292E+01 -0.43731375711E+01  0.13433014224E+02  0.15071891834E+02  0.00000000000E+00 0.  1.
</event>
<event>
 7    1  0.5664398E-009  0.4614232E+02  0.7816164E-02  0.1320468E+00
        -11   -1    0    0    0    0  0.00000000000E+00  0.00000000000E+00  0.45593999997E+02  0.45594000000E+02  0.51100000000E-03 0. -1.
         11   -1    0    0    0    0 -0.00000000000E+00 -0.00000000000E+00 -0.45593999997E+02  0.45594000000E+02  0.51100000000E-03 0.  1.
    9900012    2    1    2    0    0  0.27659915363E+01 -0.20351709198E+02 -0.40090780360E+02  0.46142318227E+02  0.10000004250E+02 0.  0.
         12    1    1    2    0    0 -0.27659915363E+01  0.20351709198E+02  0.40090780360E+02  0.45045681773E+02  0.00000000000E+00 0. -1.
         11    1    3    3    0    0 -0.21465577725E+01 -0.24497190502E+01 -0.35203746536E+01  0.47960266532E+01  0.51100000000E-03 0. -1.
        -11    1    3    3    0    0  0.43330554262E+01 -0.79564591018E+01 -0.14009961532E+02  0.16684113197E+02  0.51100000000E-03 0.  1.
        -12    1    3    3    0    0  0.57949388260E+00 -0.99455310464E+01 -0.22560444174E+02  0.24662178377E+02  0.00000000000E+00 0.  1.
</event>
<event>
 7    1  0.5664398E-009  0.4614232E+02  0.7816164E-02  0.1320468E+00
        -11   -1    0    0    0    0  0.00000000000E+00  0.00000000000E+00  0.45593999997E+02  0.45594000000E+02  0.51100000000E-03 0. -1.
         11   -1    0    0    0    0 -0.00000000000E+00 -0.00000000000E+00 -0.45593999997E+02  0.45594000000E+02  0.51100000000E-03 0.  1.
    9900012    2    1    2    0    0  0.27255837373E+02 -0.44434806810E+01 -0.35587756299E+02  0.46142316634E+02  0.99999897251E+01 0.  0.
         12    1    1    2    0    0 -0.27255837373E+02  0.44434806810E+01  0.35587756299E+02  0.45045683366E+02  0.00000000000E+00 0. -1.
         11    1    3    3    0    0  0.77577361568E+01 -0.95582647560E+00 -0.10354985194E+02  0.12973888898E+02  0.51100000000E-03 0. -1.
        -11    1    3    3    0    0  0.18409268513E+02 -0.43504936547E+01 -0.25503478148E+02  0.31753037022E+02  0.51100000000E-03 0.  1.
         12    1    3    3    0    0  0.10888327033E+01  0.86283944930E+00  0.27070704188E+00  0.14153907141E+01  0.00000000000E+00 0. -1.
</event>
<event>
 7    1  0.5664398E-009  0.4614232E+02  0.7816164E-02  0.1320468E+00
        -11   -1    0    0    0    0  0.00000000000E+00  0.00000000000E+00  0.45593999997E+02  0.45594000000E+02  0.51100000000E-03 0. -1.
         11   -1    0    0    0    0 -0.00000000000E+00 -0.00000000000E+00 -0.45593999997E+02  0.45594000000E+02  0.51100000000E-03 0.  1.
    9900012    2    1    2    0    0  0.27202692314E+02 -0.17882012320E+02 -0.31134559080E+02  0.46142316491E+02  0.99999884141E+01 0.  0.
         12    1    1    2    0    0 -0.27202692314E+02  0.17882012320E+02  0.31134559080E+02  0.45045683509E+02  0.00000000000E+00 0. -1.
         11    1    3    3    0    0  0.87030643125E+01 -0.91361461914E+01 -0.77454963819E+01  0.14805580371E+02  0.51100000000E-03 0. -1.
        -11    1    3    3    0    0  0.51030438808E+01 -0.34798341408E+01 -0.95187536026E+01  0.11347112977E+02  0.51100000000E-03 0.  1.
        -12    1    3    3    0    0  0.13396584121E+02 -0.52660319879E+01 -0.13870309095E+02  0.19989623143E+02  0.00000000000E+00 0.  1.
</event>
<event>
 7    1  0.5664398E-009  0.4614232E+02  0.7816164E-02  0.1320468E+00
        -11   -1    0    0    0    0  0.00000000000E+00  0.00000000000E+00  0.45593999997E+02  0.45594000000E+02  0.51100000000E-03 0.  1.
         11   -1    0    0    0    0 -0.00000000000E+00 -0.00000000000E+00 -0.45593999997E+02  0.45594000000E+02  0.51100000000E-03 0. -1.
    9900012    2    1    2    0    0 -0.42109558470E+02 -0.15375831964E+02  0.44138831516E+01  0.46142317769E+02  0.10000000074E+02 0.  0.
         12    1    1    2    0    0  0.42109558470E+02  0.15375831964E+02 -0.44138831516E+01  0.45045682231E+02  0.00000000000E+00 0. -1.
         11    1    3    3    0    0 -0.12863130715E+02 -0.12718203429E+01  0.18064612895E+01  0.13051473535E+02  0.51100000000E-03 0. -1.
        -11    1    3    3    0    0 -0.20872363148E+02 -0.72959219260E+01  0.28636867699E+01  0.22295441738E+02  0.51100000000E-03 0.  1.
         12    1    3    3    0    0 -0.83740646073E+01 -0.68080896954E+01 -0.25626490774E+00  0.10795402496E+02  0.00000000000E+00 0. -1.
</event>
<event>
 7    1  0.5664398E-009  0.4614232E+02  0.7816164E-02  0.1320468E+00
        -11   -1    0    0    0    0  0.00000000000E+00  0.00000000000E+00  0.45593999997E+02  0.45594000000E+02  0.51100000000E-03 0. -1.
         11   -1    0    0    0    0 -0.00000000000E+00 -0.00000000000E+00 -0.45593999997E+02  0.45594000000E+02  0.51100000000E-03 0.  1.
    9900012    2    1    2    0    0  0.18153643005E+02  0.71637137545E+01 -0.40598521842E+02  0.46142317356E+02  0.99999963035E+01 0.  0.
         12    1    1    2    0    0 -0.18153643005E+02 -0.71637137545E+01  0.40598521842E+02  0.45045682644E+02  0.00000000000E+00 0. -1.
         11    1    3    3    0    0  0.40813462159E-01  0.47440415301E+00 -0.85619708721E+01  0.85752009023E+01  0.51100000000E-03 0. -1.
        -11    1    3    3    0    0  0.48199484450E+01  0.21229156006E+01 -0.11867837100E+02  0.12983999051E+02  0.51100000000E-03 0.  1.
        -12    1    3    3    0    0  0.13292881098E+02  0.45663940009E+01 -0.20168713870E+02  0.24583117403E+02  0.00000000000E+00 0.  1.
</event>
<event>
 7    1  0.5664398E-009  0.4614232E+02  0.7816164E-02  0.1320468E+00
        -11   -1    0    0    0    0  0.00000000000E+00  0.00000000000E+00  0.45593999997E+02  0.45594000000E+02  0.51100000000E-03 0. -1.
         11   -1    0    0    0    0 -0.00000000000E+00 -0.00000000000E+00 -0.45593999997E+02  0.45594000000E+02  0.51100000000E-03 0.  1.
    9900012    2    1    2    0    0  0.29659519506E+02 -0.31548227700E+02  0.12415140592E+02  0.46142317807E+02  0.10000000420E+02 0.  0.
        -12    1    1    2    0    0 -0.29659519506E+02  0.31548227700E+02 -0.12415140592E+02  0.45045682193E+02  0.00000000000E+00 0.  1.
         11    1    3    3    0    0  0.79117441191E+01 -0.60158535869E+01 -0.56184080944E+00  0.99549914486E+01  0.51100000000E-03 0. -1.
        -11    1    3    3    0    0  0.33389268081E+01 -0.25851142615E+01  0.27610955062E+01  0.50452845936E+01  0.51100000000E-03 0.  1.
        -12    1    3    3    0    0  0.18408848579E+02 -0.22947259851E+02  0.10215885895E+02  0.31142041765E+02  0.00000000000E+00 0.  1.
</event>
<event>
 7    1  0.5664398E-009  0.4614232E+02  0.7816164E-02  0.1320468E+00
        -11   -1    0    0    0    0  0.00000000000E+00  0.00000000000E+00  0.45593999997E+02  0.45594000000E+02  0.51100000000E-03 0. -1.
         11   -1    0    0    0    0 -0.00000000000E+00 -0.00000000000E+00 -0.45593999997E+02  0.45594000000E+02  0.51100000000E-03 0.  1.
    9900012    2    1    2    0    0 -0.58868685394E+01  0.76505790663E+00 -0.44652804629E+02  0.46142317676E+02  0.99999992207E+01 0.  0.
         12    1    1    2    0    0  0.58868685394E+01 -0.76505790663E+00  0.44652804629E+02  0.45045682324E+02  0.00000000000E+00 0. -1.
         11    1    3    3    0    0 -0.24474119387E+01  0.22121759552E+01 -0.24468199400E+02  0.24689599628E+02  0.51100000000E-03 0. -1.
        -11    1    3    3    0    0 -0.49176556006E+01  0.24958611544E+00 -0.15341860406E+02  0.16112675470E+02  0.51100000000E-03 0.  1.
         12    1    3    3    0    0  0.14781989999E+01 -0.16967041640E+01 -0.48427448243E+01  0.53400425781E+01  0.00000000000E+00 0. -1.
</event>
<event>
 7    1  0.5664398E-009  0.4614232E+02  0.7816164E-02  0.1320468E+00
        -11   -1    0    0    0    0  0.00000000000E+00  0.00000000000E+00  0.45593999997E+02  0.45594000000E+02  0.51100000000E-03 0. -1.
         11   -1    0    0    0    0 -0.00000000000E+00 -0.00000000000E+00 -0.45593999997E+02  0.45594000000E+02  0.51100000000E-03 0.  1.
    9900012    2    1    2    0    0  0.37882770778E+02  0.15761051949E+02  0.18590278778E+02  0.46142317127E+02  0.99999942209E+01 0.  0.
        -12    1    1    2    0    0 -0.37882770778E+02 -0.15761051949E+02 -0.18590278778E+02  0.45045682873E+02  0.00000000000E+00 0.  1.
         11    1    3    3    0    0  0.29331530243E+02  0.10172113153E+02  0.16476739758E+02  0.35146742462E+02  0.51100000000E-03 0. -1.
        -11    1    3    3    0    0  0.86861117212E+01  0.47999119690E+01  0.16207339546E+01  0.10055569131E+02  0.51100000000E-03 0.  1.
         12    1    3    3    0    0 -0.13487118543E+00  0.78902682748E+00  0.49280506529E+00  0.94000553377E+00  0.00000000000E+00 0. -1.
</event>
<event>
 7    1  0.5664398E-009  0.4614232E+02  0.7816164E-02  0.1320468E+00
        -11   -1    0    0    0    0  0.00000000000E+00  0.00000000000E+00  0.45593999997E+02  0.45594000000E+02  0.51100000000E-03 0. -1.
         11   -1    0    0    0    0 -0.00000000000E+00 -0.00000000000E+00 -0.45593999997E+02  0.45594000000E+02  0.51100000000E-03 0.  1.
    9900012    2    1    2    0    0  0.21529624607E+02  0.25277919965E+02 -0.30440359338E+02  0.46142318185E+02  0.10000003869E+02 0.  0.
         12    1    1    2    0    0 -0.21529624607E+02 -0.25277919965E+02  0.30440359338E+02  0.45045681815E+02  0.00000000000E+00 0. -1.
         11    1    3    3    0    0  0.13706368276E+01  0.58816964813E+01 -0.31331839128E+01  0.68036637560E+01  0.51100000000E-03 0. -1.
        -11    1    3    3    0    0  0.48580910706E+01  0.45367228169E+01 -0.40573919451E+01  0.77875113113E+01  0.51100000000E-03 0.  1.
        -12    1    3    3    0    0  0.15300896709E+02  0.14859500667E+02 -0.23249783480E+02  0.31551143118E+02  0.00000000000E+00 0.  1.
</event>
<event>
 7    1  0.5664398E-009  0.4614233E+02  0.7816164E-02  0.1320468E+00
        -11   -1    0    0    0    0  0.00000000000E+00  0.00000000000E+00  0.45593999997E+02  0.45594000000E+02  0.51100000000E-03 0. -1.
         11   -1    0    0    0    0 -0.00000000000E+00 -0.00000000000E+00 -0.45593999997E+02  0.45594000000E+02  0.51100000000E-03 0.  1.
    9900012    2    1    2    0    0 -0.43039895834E+02 -0.13185562652E+02 -0.16795225515E+01  0.46142328822E+02  0.10000100861E+02 0.  0.
        -12    1    1    2    0    0  0.43039895834E+02  0.13185562652E+02  0.16795225515E+01  0.45045671178E+02  0.00000000000E+00 0.  1.
         11    1    3    3    0    0 -0.16661780304E+02 -0.54962832533E+01 -0.28079463629E+01  0.17768191116E+02  0.51100000000E-03 0. -1.
        -11    1    3    3    0    0 -0.21857065075E+01 -0.28847051073E+01 -0.50954233043E+00  0.36549240951E+01  0.51100000000E-03 0.  1.
         12    1    3    3    0    0 -0.24192409023E+02 -0.48045742914E+01  0.16379661418E+01  0.24719213611E+02  0.00000000000E+00 0. -1.
</event>
<event>
 7    1  0.5664398E-009  0.4614232E+02  0.7816164E-02  0.1320468E+00
        -11   -1    0    0    0    0  0.00000000000E+00  0.00000000000E+00  0.45593999997E+02  0.45594000000E+02  0.51100000000E-03 0. -1.
         11   -1    0    0    0    0 -0.00000000000E+00 -0.00000000000E+00 -0.45593999997E+02  0.45594000000E+02  0.51100000000E-03 0.  1.
    9900012    2    1    2    0    0  0.29740585916E+02  0.14608775605E+02 -0.30515483835E+02  0.46142317310E+02  0.99999958908E+01 0.  0.
         12    1    1    2    0    0 -0.29740585916E+02 -0.14608775605E+02  0.30515483835E+02  0.45045682690E+02  0.00000000000E+00 0. -1.
         11    1    3    3    0    0  0.19438503323E+02  0.12469804578E+02 -0.23402520850E+02  0.32879011847E+02  0.51100000000E-03 0. -1.
        -11    1    3    3    0    0  0.53463437394E+01 -0.32455107099E-01 -0.17007632725E+01  0.56104403289E+01  0.51100000000E-03 0.  1.
        -12    1    3    3    0    0  0.49557388537E+01  0.21714261343E+01 -0.54121997127E+01  0.76528651349E+01  0.00000000000E+00 0.  1.
</event>
<event>
 7    1  0.5664398E-009  0.4614232E+02  0.7816164E-02  0.1320468E+00
        -11   -1    0    0    0    0  0.00000000000E+00  0.00000000000E+00  0.45593999997E+02  0.45594000000E+02  0.51100000000E-03 0. -1.
         11   -1    0    0    0    0 -0.00000000000E+00 -0.00000000000E+00 -0.45593999997E+02  0.45594000000E+02  0.51100000000E-03 0.  1.
    9900012    2    1    2    0    0  0.18243610756E+02 -0.24350459312E+02  0.33216549751E+02  0.46142318970E+02  0.10000011022E+02 0.  0.
        -12    1    1    2    0    0 -0.18243610756E+02  0.24350459312E+02 -0.33216549751E+02  0.45045681030E+02  0.00000000000E+00 0.  1.
         11    1    3    3    0    0  0.21187218004E+01 -0.27197364188E+01  0.19388560939E+01  0.39553901791E+01  0.51100000000E-03 0.  1.
        -11    1    3    3    0    0  0.68910419221E+01 -0.38395020405E+01  0.12109494481E+02  0.14452269426E+02  0.51100000000E-03 0. -1.
         12    1    3    3    0    0  0.92338470333E+01 -0.17791220853E+02  0.19168199176E+02  0.27734659365E+02  0.00000000000E+00 0. -1.
</event>
<event>
 7    1  0.8575567E-009  0.4614232E+02  0.7816164E-02  0.1320468E+00
        -11   -1    0    0    0    0  0.00000000000E+00  0.00000000000E+00  0.45593999997E+02  0.45594000000E+02  0.51100000000E-03 0. -1.
         11   -1    0    0    0    0 -0.00000000000E+00 -0.00000000000E+00 -0.45593999997E+02  0.45594000000E+02  0.51100000000E-03 0.  1.
    9900012    2    1    2    0    0  0.33540401719E+01  0.20523815116E+02  0.39957933292E+02  0.46142323122E+02  0.10000048885E+02 0.  0.
        -12    1    1    2    0    0 -0.33540401719E+01 -0.20523815116E+02 -0.39957933292E+02  0.45045676878E+02  0.00000000000E+00 0.  1.
         11    1    3    3    0    0  0.15626844308E+00  0.33349221001E+01  0.10152993620E+02  0.10687815724E+02  0.51100000000E-03 0. -1.
        -11    1    3    3    0    0 -0.92394308430E+00 -0.32889932232E+00  0.59873367208E+00  0.11490552025E+01  0.51100000000E-03 0.  1.
         12    1    3    3    0    0  0.41217148131E+01  0.17517792338E+02  0.29206206000E+02  0.34305452195E+02  0.00000000000E+00 0. -1.
</event>
<event>
 7    1  0.5664398E-009  0.4614232E+02  0.7816164E-02  0.1320468E+00
        -11   -1    0    0    0    0  0.00000000000E+00  0.00000000000E+00  0.45593999997E+02  0.45594000000E+02  0.51100000000E-03 0.  1.
         11   -1    0    0    0    0 -0.00000000000E+00 -0.00000000000E+00 -0.45593999997E+02  0.45594000000E+02  0.51100000000E-03 0. -1.
    9900012    2    1    2    0    0  0.35639554560E+02  0.22910530507E+02 -0.15298472779E+02  0.46142317335E+02  0.99999961184E+01 0.  0.
         12    1    1    2    0    0 -0.35639554560E+02 -0.22910530507E+02  0.15298472779E+02  0.45045682665E+02  0.00000000000E+00 0. -1.
         11    1    3    3    0    0  0.57436655897E+01  0.83640981034E+00 -0.45151842832E+00  0.58217819376E+01  0.51100000000E-03 0. -1.
        -11    1    3    3    0    0  0.68675030252E+01  0.71134296039E+01 -0.24265806093E+01  0.10180951441E+02  0.51100000000E-03 0.  1.
         12    1    3    3    0    0  0.23028385945E+02  0.14960691093E+02 -0.12420373742E+02  0.30139583957E+02  0.00000000000E+00 0. -1.
</event>
<event>
 7    1  0.5664398E-009  0.4614232E+02  0.7816164E-02  0.1320468E+00
        -11   -1    0    0    0    0  0.00000000000E+00  0.00000000000E+00  0.45593999997E+02  0.45594000000E+02  0.51100000000E-03 0. -1.
         11   -1    0    0    0    0 -0.00000000000E+00 -0.00000000000E+00 -0.45593999997E+02  0.45594000000E+02  0.51100000000E-03 0.  1.
    9900012    2    1    2    0    0  0.20245028637E+02 -0.26005596191E+02  0.30707677341E+02  0.46142315796E+02  0.99999820783E+01 0.  0.
        -12    1    1    2    0    0 -0.20245028637E+02  0.26005596191E+02 -0.30707677341E+02  0.45045684204E+02  0.00000000000E+00 0.  1.
         11    1    3    3    0    0  0.10357367431E+02 -0.12177660497E+02  0.16477871981E+02  0.22958456842E+02  0.51100000000E-03 0. -1.
        -11    1    3    3    0    0 -0.93525264722E+00 -0.23302417219E+01  0.18376138790E+01  0.31115187651E+01  0.51100000000E-03 0.  1.
         12    1    3    3    0    0  0.10822913853E+02 -0.11497693972E+02  0.12392191481E+02  0.20072340189E+02  0.00000000000E+00 0. -1.
</event>
<event>
 7    1  0.5664398E-009  0.4614232E+02  0.7816164E-02  0.1320468E+00
        -11   -1    0    0    0    0  0.00000000000E+00  0.00000000000E+00  0.45593999997E+02  0.45594000000E+02  0.51100000000E-03 0.  1.
         11   -1    0    0    0    0 -0.00000000000E+00 -0.00000000000E+00 -0.45593999997E+02  0.45594000000E+02  0.51100000000E-03 0. -1.
    9900012    2    1    2    0    0  0.38504404653E+02 -0.11167085639E+02  0.20538269677E+02  0.46142317624E+02  0.99999987541E+01 0.  0.
        -12    1    1    2    0    0 -0.38504404653E+02  0.11167085639E+02 -0.20538269677E+02  0.45045682376E+02  0.00000000000E+00 0.  1.
         11    1    3    3    0    0  0.27140579939E+02 -0.98931562348E+01  0.14586865008E+02  0.32361431531E+02  0.51100000000E-03 0. -1.
        -11    1    3    3    0    0  0.10943882897E+02 -0.51054826488E-01  0.60117925860E+01  0.12486505909E+02  0.51100000000E-03 0.  1.
        -12    1    3    3    0    0  0.41994181817E+00 -0.12228745775E+01 -0.60387917705E-01  0.12943801851E+01  0.00000000000E+00 0.  1.
</event>
<event>
 7    1  0.5664398E-009  0.4614232E+02  0.7816164E-02  0.1320468E+00
        -11   -1    0    0    0    0  0.00000000000E+00  0.00000000000E+00  0.45593999997E+02  0.45594000000E+02  0.51100000000E-03 0. -1.
         11   -1    0    0    0    0 -0.00000000000E+00 -0.00000000000E+00 -0.45593999997E+02  0.45594000000E+02  0.51100000000E-03 0.  1.
    9900012    2    1    2    0    0  0.15037636578E+02 -0.37217537556E+01 -0.42298126523E+02  0.46142317940E+02  0.10000001632E+02 0.  0.
         12    1    1    2    0    0 -0.15037636578E+02  0.37217537556E+01  0.42298126523E+02  0.45045682060E+02  0.00000000000E+00 0. -1.
         11    1    3    3    0    0  0.88883782471E+01 -0.18028234540E+01 -0.15591542951E+02  0.18037451376E+02  0.51100000000E-03 0. -1.
        -11    1    3    3    0    0  0.55059711331E+01  0.11275684181E+01 -0.18091093722E+02  0.18943991157E+02  0.51100000000E-03 0.  1.
         12    1    3    3    0    0  0.64328719825E+00 -0.30464987197E+01 -0.86154898501E+01  0.91608754072E+01  0.00000000000E+00 0. -1.
</event>
<event>
 7    1  0.5664398E-009  0.4614232E+02  0.7816164E-02  0.1320468E+00
        -11   -1    0    0    0    0  0.00000000000E+00  0.00000000000E+00  0.45593999997E+02  0.45594000000E+02  0.51100000000E-03 0.  1.
         11   -1    0    0    0    0 -0.00000000000E+00 -0.00000000000E+00 -0.45593999997E+02  0.45594000000E+02  0.51100000000E-03 0. -1.
    9900012    2    1    2    0    0  0.41396284504E+02  0.12487653355E+02  0.12630107151E+02  0.46142318034E+02  0.10000002492E+02 0.  0.
         12    1    1    2    0    0 -0.41396284504E+02 -0.12487653355E+02 -0.12630107151E+02  0.45045681966E+02  0.00000000000E+00 0. -1.
         11    1    3    3    0    0  0.75275428102E+01 -0.49290982164E+00  0.45443844985E+01  0.88067185480E+01  0.51100000000E-03 0. -1.
        -11    1    3    3    0    0  0.23681585944E+02  0.85245313275E+01  0.72130494235E+01  0.26182307564E+02  0.51100000000E-03 0.  1.
         12    1    3    3    0    0  0.10187155751E+02  0.44560318495E+01  0.87267322943E+00  0.11153291922E+02  0.00000000000E+00 0. -1.
</event>
<event>
 7    1  0.5664398E-009  0.4614232E+02  0.7816164E-02  0.1320468E+00
        -11   -1    0    0    0    0  0.00000000000E+00  0.00000000000E+00  0.45593999997E+02  0.45594000000E+02  0.51100000000E-03 0. -1.
         11   -1    0    0    0    0 -0.00000000000E+00 -0.00000000000E+00 -0.45593999997E+02  0.45594000000E+02  0.51100000000E-03 0.  1.
    9900012    2    1    2    0    0 -0.14875626713E+02  0.46941345735E+01  0.42258659890E+02  0.46142317574E+02  0.99999982948E+01 0.  0.
        -12    1    1    2    0    0  0.14875626713E+02 -0.46941345735E+01 -0.42258659890E+02  0.45045682426E+02  0.00000000000E+00 0.  1.
         11    1    3    3    0    0 -0.12302238446E+02  0.42389867825E+01  0.24685217348E+02  0.27904731417E+02  0.51100000000E-03 0. -1.
        -11    1    3    3    0    0 -0.27159714692E+01  0.67841901734E+00  0.55954231138E+01  0.62566375529E+01  0.51100000000E-03 0.  1.
        -12    1    3    3    0    0  0.14258320206E+00 -0.22327122640E+00  0.11978019429E+02  0.11980948604E+02  0.00000000000E+00 0.  1.
</event>
<event>
 7    1  0.5664398E-009  0.4614232E+02  0.7816164E-02  0.1320468E+00
        -11   -1    0    0    0    0  0.00000000000E+00  0.00000000000E+00  0.45593999997E+02  0.45594000000E+02  0.51100000000E-03 0. -1.
         11   -1    0    0    0    0 -0.00000000000E+00 -0.00000000000E+00 -0.45593999997E+02  0.45594000000E+02  0.51100000000E-03 0.  1.
    9900012    2    1    2    0    0 -0.34682430432E+02 -0.11410733985E+02  0.26382525480E+02  0.46142317838E+02  0.10000000699E+02 0.  0.
        -12    1    1    2    0    0  0.34682430432E+02  0.11410733985E+02 -0.26382525480E+02  0.45045682162E+02  0.00000000000E+00 0.  1.
         11    1    3    3    0    0 -0.18645413897E+02 -0.10532962988E+02  0.18028006183E+02  0.27992923675E+02  0.51100000000E-03 0. -1.
        -11    1    3    3    0    0 -0.61813277702E+01 -0.50916780135E+00  0.39080466838E+01  0.73308180987E+01  0.51100000000E-03 0.  1.
         12    1    3    3    0    0 -0.98556887648E+01 -0.36860319593E+00  0.44464726133E+01  0.10818576064E+02  0.00000000000E+00 0. -1.
</event>
<event>
 7    1  0.5664398E-009  0.4614232E+02  0.7816164E-02  0.1320468E+00
        -11   -1    0    0    0    0  0.00000000000E+00  0.00000000000E+00  0.45593999997E+02  0.45594000000E+02  0.51100000000E-03 0. -1.
         11   -1    0    0    0    0 -0.00000000000E+00 -0.00000000000E+00 -0.45593999997E+02  0.45594000000E+02  0.51100000000E-03 0.  1.
    9900012    2    1    2    0    0  0.28701456708E+02 -0.25412717891E+02  0.23654465213E+02  0.46142316829E+02  0.99999915039E+01 0.  0.
        -12    1    1    2    0    0 -0.28701456708E+02  0.25412717891E+02 -0.23654465213E+02  0.45045683171E+02  0.00000000000E+00 0.  1.
         11    1    3    3    0    0  0.84864402454E+01 -0.95423586571E+01  0.10562857346E+02  0.16572574705E+02  0.51100000000E-03 0. -1.
        -11    1    3    3    0    0  0.76632569092E+01 -0.22396930887E+01  0.38645903026E+01  0.88699938025E+01  0.51100000000E-03 0.  1.
        -12    1    3    3    0    0  0.12551759553E+02 -0.13630666146E+02  0.92270175651E+01  0.20699748322E+02  0.00000000000E+00 0.  1.
</event>
<event>
 7    1  0.5664398E-009  0.4614232E+02  0.7816164E-02  0.1320468E+00
        -11   -1    0    0    0    0  0.00000000000E+00  0.00000000000E+00  0.45593999997E+02  0.45594000000E+02  0.51100000000E-03 0. -1.
         11   -1    0    0    0    0 -0.00000000000E+00 -0.00000000000E+00 -0.45593999997E+02  0.45594000000E+02  0.51100000000E-03 0.  1.
    9900012    2    1    2    0    0 -0.27200191356E+02 -0.33058313711E+02  0.14014671591E+02  0.46142317243E+02  0.99999952787E+01 0.  0.
        -12    1    1    2    0    0  0.27200191356E+02  0.33058313711E+02 -0.14014671591E+02  0.45045682757E+02  0.00000000000E+00 0.  1.
         11    1    3    3    0    0 -0.10898092721E+02 -0.11374343169E+02  0.23176734340E+01  0.15922176921E+02  0.51100000000E-03 0. -1.
        -11    1    3    3    0    0 -0.64226513327E+01 -0.43446965821E+01  0.18745601411E+01  0.79775193209E+01  0.51100000000E-03 0.  1.
         12    1    3    3    0    0 -0.98794473017E+01 -0.17339273960E+02  0.98224380162E+01  0.22242621001E+02  0.00000000000E+00 0. -1.
</event>
<event>
 7    1  0.5664398E-009  0.4614232E+02  0.7816164E-02  0.1320468E+00
        -11   -1    0    0    0    0  0.00000000000E+00  0.00000000000E+00  0.45593999997E+02  0.45594000000E+02  0.51100000000E-03 0. -1.
         11   -1    0    0    0    0 -0.00000000000E+00 -0.00000000000E+00 -0.45593999997E+02  0.45594000000E+02  0.51100000000E-03 0.  1.
    9900012    2    1    2    0    0 -0.24905996395E+01 -0.21596381254E+02 -0.39452588359E+02  0.46142317654E+02  0.99999990214E+01 0.  0.
         12    1    1    2    0    0  0.24905996395E+01  0.21596381254E+02  0.39452588359E+02  0.45045682346E+02  0.00000000000E+00 0. -1.
         11    1    3    3    0    0 -0.91375633163E-01 -0.77436580757E+01 -0.11587329698E+02  0.13936958050E+02  0.51100000000E-03 0. -1.
        -11    1    3    3    0    0 -0.43449049909E+01 -0.13329752839E+02 -0.25485287842E+02  0.29087117540E+02  0.51100000000E-03 0.  1.
         12    1    3    3    0    0  0.19456809846E+01 -0.52297033886E+00 -0.23799708186E+01  0.31182420635E+01  0.00000000000E+00 0. -1.
</event>
<event>
 7    1  0.5664398E-009  0.4614232E+02  0.7816164E-02  0.1320468E+00
        -11   -1    0    0    0    0  0.00000000000E+00  0.00000000000E+00  0.45593999997E+02  0.45594000000E+02  0.51100000000E-03 0. -1.
         11   -1    0    0    0    0 -0.00000000000E+00 -0.00000000000E+00 -0.45593999997E+02  0.45594000000E+02  0.51100000000E-03 0.  1.
    9900012    2    1    2    0    0 -0.21826788146E+02  0.27581966359E+01 -0.39307720570E+02  0.46142320675E+02  0.10000026569E+02 0.  0.
         12    1    1    2    0    0  0.21826788146E+02 -0.27581966359E+01  0.39307720570E+02  0.45045679325E+02  0.00000000000E+00 0. -1.
         11    1    3    3    0    0 -0.15702598762E+00  0.92843650440E+00 -0.18327979740E+01  0.20605339546E+01  0.51100000000E-03 0. -1.
        -11    1    3    3    0    0 -0.89763565077E+01 -0.32223393124E+01 -0.16155979185E+02  0.18760973069E+02  0.51100000000E-03 0.  1.
        -12    1    3    3    0    0 -0.12693405650E+02  0.50520994439E+01 -0.21318943411E+02  0.25320813651E+02  0.00000000000E+00 0.  1.
</event>
<event>
 7    1  0.5664398E-009  0.4614232E+02  0.7816164E-02  0.1320468E+00
        -11   -1    0    0    0    0  0.00000000000E+00  0.00000000000E+00  0.45593999997E+02  0.45594000000E+02  0.51100000000E-03 0. -1.
         11   -1    0    0    0    0 -0.00000000000E+00 -0.00000000000E+00 -0.45593999997E+02  0.45594000000E+02  0.51100000000E-03 0.  1.
    9900012    2    1    2    0    0  0.24353459822E+02  0.34694431475E+02 -0.15242009481E+02  0.46142318368E+02  0.10000005535E+02 0.  0.
         12    1    1    2    0    0 -0.24353459822E+02 -0.34694431475E+02  0.15242009481E+02  0.45045681632E+02  0.00000000000E+00 0. -1.
         11    1    3    3    0    0  0.11423426788E+02  0.13873700954E+02 -0.59487871566E+01  0.18930460286E+02  0.51100000000E-03 0. -1.
        -11    1    3    3    0    0  0.65442604537E+01  0.14665483277E+02 -0.30013247198E+01  0.16337432325E+02  0.51100000000E-03 0.  1.
         12    1    3    3    0    0  0.63857725804E+01  0.61552472432E+01 -0.62918976046E+01  0.10874425757E+02  0.00000000000E+00 0. -1.
</event>
<event>
 7    1  0.5664398E-009  0.4614232E+02  0.7816164E-02  0.1320468E+00
        -11   -1    0    0    0    0  0.00000000000E+00  0.00000000000E+00  0.45593999997E+02  0.45594000000E+02  0.51100000000E-03 0. -1.
         11   -1    0    0    0    0 -0.00000000000E+00 -0.00000000000E+00 -0.45593999997E+02  0.45594000000E+02  0.51100000000E-03 0.  1.
    9900012    2    1    2    0    0 -0.17608662004E+02 -0.33235294695E+01 -0.41327991139E+02  0.46142315664E+02  0.99999808758E+01 0.  0.
         12    1    1    2    0    0  0.17608662004E+02  0.33235294695E+01  0.41327991139E+02  0.45045684336E+02  0.00000000000E+00 0. -1.
         11    1    3    3    0    0 -0.41859290107E+01  0.13949241663E+00 -0.12514012792E+02  0.13196286456E+02  0.51100000000E-03 0. -1.
        -11    1    3    3    0    0 -0.73545613746E+01 -0.43953912034E+01 -0.22779391540E+02  0.24337413914E+02  0.51100000000E-03 0.  1.
         12    1    3    3    0    0 -0.60681716187E+01  0.93236931728E+00 -0.60345868082E+01  0.86086152942E+01  0.00000000000E+00 0. -1.
</event>
<event>
 7    1  0.5993992E-009  0.4614232E+02  0.7816164E-02  0.1320468E+00
        -11   -1    0    0    0    0  0.00000000000E+00  0.00000000000E+00  0.45593999997E+02  0.45594000000E+02  0.51100000000E-03 0. -1.
         11   -1    0    0    0    0 -0.00000000000E+00 -0.00000000000E+00 -0.45593999997E+02  0.45594000000E+02  0.51100000000E-03 0.  1.
    9900012    2    1    2    0    0  0.66065503493E+01  0.39054648586E+00  0.44556867739E+02  0.46142317668E+02  0.99999991476E+01 0.  0.
        -12    1    1    2    0    0 -0.66065503493E+01 -0.39054648586E+00 -0.44556867739E+02  0.45045682332E+02  0.00000000000E+00 0.  1.
         11    1    3    3    0    0  0.48175321705E+01 -0.10269392359E+01  0.31526532764E+02  0.31909018925E+02  0.51100000000E-03 0. -1.
        -11    1    3    3    0    0  0.43522225584E+00  0.56294849111E+00  0.12538273974E+02  0.12558449105E+02  0.51100000000E-03 0.  1.
        -12    1    3    3    0    0  0.13537959229E+01  0.85453723061E+00  0.49206100161E+00  0.16748496377E+01  0.00000000000E+00 0.  1.
</event>
<event>
 7    1  0.5664398E-009  0.4614232E+02  0.7816164E-02  0.1320468E+00
        -11   -1    0    0    0    0  0.00000000000E+00  0.00000000000E+00  0.45593999997E+02  0.45594000000E+02  0.51100000000E-03 0. -1.
         11   -1    0    0    0    0 -0.00000000000E+00 -0.00000000000E+00 -0.45593999997E+02  0.45594000000E+02  0.51100000000E-03 0.  1.
    9900012    2    1    2    0    0 -0.28776255427E+02  0.34380941158E+02  0.43579380273E+01  0.46142316353E+02  0.99999871640E+01 0.  0.
        -12    1    1    2    0    0  0.28776255427E+02 -0.34380941158E+02 -0.43579380273E+01  0.45045683647E+02  0.00000000000E+00 0.  1.
         11    1    3    3    0    0 -0.32853400595E+00  0.29300187487E+01  0.72806004217E+00  0.30369419070E+01  0.51100000000E-03 0. -1.
        -11    1    3    3    0    0 -0.61690709510E+01  0.33407626100E+01 -0.30441488256E+00  0.70221649010E+01  0.51100000000E-03 0.  1.
         12    1    3    3    0    0 -0.22278650470E+02  0.28110159800E+02  0.39342928677E+01  0.36083209545E+02  0.00000000000E+00 0. -1.
</event>
<event>
 7    1  0.5664398E-009  0.4614232E+02  0.7816164E-02  0.1320468E+00
        -11   -1    0    0    0    0  0.00000000000E+00  0.00000000000E+00  0.45593999997E+02  0.45594000000E+02  0.51100000000E-03 0. -1.
         11   -1    0    0    0    0 -0.00000000000E+00 -0.00000000000E+00 -0.45593999997E+02  0.45594000000E+02  0.51100000000E-03 0.  1.
    9900012    2    1    2    0    0 -0.57929914640E+01 -0.10512428969E+02 -0.43417088105E+02  0.46142318160E+02  0.10000003639E+02 0.  0.
         12    1    1    2    0    0  0.57929914640E+01  0.10512428969E+02  0.43417088105E+02  0.45045681840E+02  0.00000000000E+00 0. -1.
         11    1    3    3    0    0  0.11048963038E+01  0.70816898801E+00 -0.17658598147E+01  0.22001273382E+01  0.51100000000E-03 0. -1.
        -11    1    3    3    0    0  0.34271570560E+00 -0.27886842524E+01 -0.10427552972E+02  0.10799447910E+02  0.51100000000E-03 0.  1.
         12    1    3    3    0    0 -0.72406034734E+01 -0.84319137041E+01 -0.31223675318E+02  0.33142742912E+02  0.00000000000E+00 0. -1.
</event>
<event>
 7    1  0.5664398E-009  0.4614232E+02  0.7816164E-02  0.1320468E+00
        -11   -1    0    0    0    0  0.00000000000E+00  0.00000000000E+00  0.45593999997E+02  0.45594000000E+02  0.51100000000E-03 0. -1.
         11   -1    0    0    0    0 -0.00000000000E+00 -0.00000000000E+00 -0.45593999997E+02  0.45594000000E+02  0.51100000000E-03 0.  1.
    9900012    2    1    2    0    0 -0.53994202349E+01  0.54413009746E+01 -0.44388646908E+02  0.46142317970E+02  0.10000001909E+02 0.  0.
         12    1    1    2    0    0  0.53994202349E+01 -0.54413009746E+01  0.44388646908E+02  0.45045682030E+02  0.00000000000E+00 0. -1.
         11    1    3    3    0    0 -0.36927865288E+01  0.21541209364E+01 -0.15986441149E+02  0.16548208672E+02  0.51100000000E-03 0. -1.
        -11    1    3    3    0    0 -0.43896791832E+01  0.12701574238E+01 -0.11757823900E+02  0.12614634610E+02  0.51100000000E-03 0.  1.
        -12    1    3    3    0    0  0.26830454771E+01  0.20170226144E+01 -0.16644381858E+02  0.16979474689E+02  0.00000000000E+00 0.  1.
</event>
<event>
 7    1  0.5664398E-009  0.4614232E+02  0.7816164E-02  0.1320468E+00
        -11   -1    0    0    0    0  0.00000000000E+00  0.00000000000E+00  0.45593999997E+02  0.45594000000E+02  0.51100000000E-03 0.  1.
         11   -1    0    0    0    0 -0.00000000000E+00 -0.00000000000E+00 -0.45593999997E+02  0.45594000000E+02  0.51100000000E-03 0. -1.
    9900012    2    1    2    0    0  0.13813797046E+02 -0.42869135191E+02  0.72784998035E+00  0.46142317561E+02  0.99999981734E+01 0.  0.
        -12    1    1    2    0    0 -0.13813797046E+02  0.42869135191E+02 -0.72784998035E+00  0.45045682439E+02  0.00000000000E+00 0.  1.
         11    1    3    3    0    0  0.12929495675E+02 -0.37608147127E+02 -0.13975764109E+01  0.39793187970E+02  0.51100000000E-03 0. -1.
        -11    1    3    3    0    0  0.13277307386E+01 -0.17165347310E+01 -0.42738946233E-01  0.21705269581E+01  0.51100000000E-03 0.  1.
        -12    1    3    3    0    0 -0.44342936760E+00 -0.35444533328E+01  0.21681653375E+01  0.41786026329E+01  0.00000000000E+00 0.  1.
</event>
<event>
 7    1  0.5664398E-009  0.4614232E+02  0.7816164E-02  0.1320468E+00
        -11   -1    0    0    0    0  0.00000000000E+00  0.00000000000E+00  0.45593999997E+02  0.45594000000E+02  0.51100000000E-03 0. -1.
         11   -1    0    0    0    0 -0.00000000000E+00 -0.00000000000E+00 -0.45593999997E+02  0.45594000000E+02  0.51100000000E-03 0.  1.
    9900012    2    1    2    0    0 -0.17335979726E+02  0.19567748467E+02  0.36683517906E+02  0.46142318086E+02  0.10000002959E+02 0.  0.
        -12    1    1    2    0    0  0.17335979726E+02 -0.19567748467E+02 -0.36683517906E+02  0.45045681914E+02  0.00000000000E+00 0.  1.
         11    1    3    3    0    0 -0.74370785940E+01  0.79004570325E+01  0.18999653677E+02  0.21879538373E+02  0.51100000000E-03 0. -1.
        -11    1    3    3    0    0 -0.40086328081E+01  0.95394858920E+01  0.11190162628E+02  0.15241084869E+02  0.51100000000E-03 0.  1.
         12    1    3    3    0    0 -0.58902683242E+01  0.21278055427E+01  0.64937016013E+01  0.90216948433E+01  0.00000000000E+00 0. -1.
</event>
<event>
 7    1  0.5664398E-009  0.4614232E+02  0.7816164E-02  0.1320468E+00
        -11   -1    0    0    0    0  0.00000000000E+00  0.00000000000E+00  0.45593999997E+02  0.45594000000E+02  0.51100000000E-03 0. -1.
         11   -1    0    0    0    0 -0.00000000000E+00 -0.00000000000E+00 -0.45593999997E+02  0.45594000000E+02  0.51100000000E-03 0.  1.
    9900012    2    1    2    0    0 -0.93559979801E+01  0.25980458763E+01  0.43986687073E+02  0.46142321181E+02  0.10000031186E+02 0.  0.
        -12    1    1    2    0    0  0.93559979801E+01 -0.25980458763E+01 -0.43986687073E+02  0.45045678819E+02  0.00000000000E+00 0.  1.
         11    1    3    3    0    0 -0.44035489636E+01  0.11664625327E+01  0.15929892383E+02  0.16568444402E+02  0.51100000000E-03 0. -1.
        -11    1    3    3    0    0 -0.40863154520E+01 -0.45066841412E+00  0.52258384844E+01  0.66490949849E+01  0.51100000000E-03 0.  1.
        -12    1    3    3    0    0 -0.86613356452E+00  0.18822517577E+01  0.22830956206E+02  0.22924781794E+02  0.00000000000E+00 0.  1.
</event>
<event>
 7    1  0.5664398E-009  0.4614232E+02  0.7816164E-02  0.1320468E+00
        -11   -1    0    0    0    0  0.00000000000E+00  0.00000000000E+00  0.45593999997E+02  0.45594000000E+02  0.51100000000E-03 0. -1.
         11   -1    0    0    0    0 -0.00000000000E+00 -0.00000000000E+00 -0.45593999997E+02  0.45594000000E+02  0.51100000000E-03 0.  1.
    9900012    2    1    2    0    0  0.12480541717E+02  0.40198389287E+02 -0.16044896576E+02  0.46142321750E+02  0.10000036377E+02 0.  0.
         12    1    1    2    0    0 -0.12480541717E+02 -0.40198389287E+02  0.16044896576E+02  0.45045678250E+02  0.00000000000E+00 0. -1.
         11    1    3    3    0    0  0.62532239351E+01  0.92069878116E+01 -0.39172160561E+01  0.11798983687E+02  0.51100000000E-03 0. -1.
        -11    1    3    3    0    0  0.61480281236E+01  0.19303546378E+02 -0.59051630478E+01  0.21102040268E+02  0.51100000000E-03 0.  1.
        -12    1    3    3    0    0  0.79289657884E-01  0.11687855098E+02 -0.62225174720E+01  0.13241297796E+02  0.00000000000E+00 0.  1.
</event>
<event>
 7    1  0.5664398E-009  0.4614231E+02  0.7816164E-02  0.1320468E+00
        -11   -1    0    0    0    0  0.00000000000E+00  0.00000000000E+00  0.45593999997E+02  0.45594000000E+02  0.51100000000E-03 0. -1.
         11   -1    0    0    0    0 -0.00000000000E+00 -0.00000000000E+00 -0.45593999997E+02  0.45594000000E+02  0.51100000000E-03 0.  1.
    9900012    2    1    2    0    0 -0.11454432126E+01  0.41513747705E+02  0.17447382346E+02  0.46142307205E+02  0.99999037430E+01 0.  0.
        -12    1    1    2    0    0  0.11454432126E+01 -0.41513747705E+02 -0.17447382346E+02  0.45045692795E+02  0.00000000000E+00 0.  1.
         11    1    3    3    0    0 -0.10491860996E+01  0.30122949734E+02  0.86630853885E+01  0.31361472237E+02  0.51100000000E-03 0. -1.
        -11    1    3    3    0    0 -0.13201413130E+01  0.55710130596E+01  0.29127602881E+01  0.64236385603E+01  0.51100000000E-03 0.  1.
        -12    1    3    3    0    0  0.12238842001E+01  0.58197849109E+01  0.58715366694E+01  0.83571964082E+01  0.00000000000E+00 0.  1.
</event>
<event>
 7    1  0.5664398E-009  0.4614232E+02  0.7816164E-02  0.1320468E+00
        -11   -1    0    0    0    0  0.00000000000E+00  0.00000000000E+00  0.45593999997E+02  0.45594000000E+02  0.51100000000E-03 0. -1.
         11   -1    0    0    0    0 -0.00000000000E+00 -0.00000000000E+00 -0.45593999997E+02  0.45594000000E+02  0.51100000000E-03 0.  1.
    9900012    2    1    2    0    0 -0.13947138791E+02 -0.35100559257E+02  0.24546712734E+02  0.46142322664E+02  0.10000044706E+02 0.  0.
        -12    1    1    2    0    0  0.13947138791E+02  0.35100559257E+02 -0.24546712734E+02  0.45045677336E+02  0.00000000000E+00 0.  1.
         11    1    3    3    0    0 -0.46302244061E+01 -0.89600846834E+01  0.11528556466E+02  0.15317627429E+02  0.51100000000E-03 0. -1.
        -11    1    3    3    0    0 -0.84749245529E+01 -0.23804045100E+02  0.12818381916E+02  0.28333157687E+02  0.51100000000E-03 0.  1.
        -12    1    3    3    0    0 -0.84198983218E+00 -0.23364294739E+01  0.19977435199E+00  0.24915375485E+01  0.00000000000E+00 0.  1.
</event>
<event>
 7    1  0.5664398E-009  0.4614232E+02  0.7816164E-02  0.1320468E+00
        -11   -1    0    0    0    0  0.00000000000E+00  0.00000000000E+00  0.45593999997E+02  0.45594000000E+02  0.51100000000E-03 0.  1.
         11   -1    0    0    0    0 -0.00000000000E+00 -0.00000000000E+00 -0.45593999997E+02  0.45594000000E+02  0.51100000000E-03 0. -1.
    9900012    2    1    2    0    0 -0.67111340188E+00 -0.44422698004E+02  0.74355234177E+01  0.46142317636E+02  0.99999988600E+01 0.  0.
        -12    1    1    2    0    0  0.67111340188E+00  0.44422698004E+02 -0.74355234177E+01  0.45045682364E+02  0.00000000000E+00 0.  1.
         11    1    3    3    0    0  0.66470630573E+00 -0.76651003699E+01 -0.17374872083E+01  0.78876143551E+01  0.51100000000E-03 0. -1.
        -11    1    3    3    0    0 -0.20156253315E+01 -0.60730567729E+01  0.23236713369E+01  0.68076583923E+01  0.51100000000E-03 0.  1.
         12    1    3    3    0    0  0.67980562389E+00 -0.30684540861E+02  0.68493392890E+01  0.31447044889E+02  0.00000000000E+00 0. -1.
</event>
<event>
 7    1  0.5664398E-009  0.4614232E+02  0.7816164E-02  0.1320468E+00
        -11   -1    0    0    0    0  0.00000000000E+00  0.00000000000E+00  0.45593999997E+02  0.45594000000E+02  0.51100000000E-03 0. -1.
         11   -1    0    0    0    0 -0.00000000000E+00 -0.00000000000E+00 -0.45593999997E+02  0.45594000000E+02  0.51100000000E-03 0.  1.
    9900012    2    1    2    0    0  0.20258753130E+02  0.88276451348E+01 -0.39252632186E+02  0.46142317293E+02  0.99999957357E+01 0.  0.
         12    1    1    2    0    0 -0.20258753130E+02 -0.88276451348E+01  0.39252632186E+02  0.45045682707E+02  0.00000000000E+00 0. -1.
         11    1    3    3    0    0  0.11993337198E+02  0.50956184824E+01 -0.18207713707E+02  0.22390317183E+02  0.51100000000E-03 0. -1.
        -11    1    3    3    0    0  0.53255366151E+01 -0.37748879105E-01 -0.62890840084E+01  0.82410765766E+01  0.51100000000E-03 0.  1.
         12    1    3    3    0    0  0.29398793165E+01  0.37697755315E+01 -0.14755834470E+02  0.15510923533E+02  0.00000000000E+00 0. -1.
</event>
<event>
 7    1  0.5664398E-009  0.4614232E+02  0.7816164E-02  0.1320468E+00
        -11   -1    0    0    0    0  0.00000000000E+00  0.00000000000E+00  0.45593999997E+02  0.45594000000E+02  0.51100000000E-03 0. -1.
         11   -1    0    0    0    0 -0.00000000000E+00 -0.00000000000E+00 -0.45593999997E+02  0.45594000000E+02  0.51100000000E-03 0.  1.
    9900012    2    1    2    0    0  0.70257540255E+01 -0.19606518673E+02  0.39941666264E+02  0.46142317654E+02  0.99999990191E+01 0.  0.
        -12    1    1    2    0    0 -0.70257540255E+01  0.19606518673E+02 -0.39941666264E+02  0.45045682346E+02  0.00000000000E+00 0.  1.
         11    1    3    3    0    0  0.11996045497E+01 -0.86507575051E+00  0.17469457831E+01  0.22889357702E+01  0.51100000000E-03 0. -1.
        -11    1    3    3    0    0  0.37551810428E+01 -0.69616566706E+01  0.74572954897E+01  0.10870938531E+02  0.51100000000E-03 0.  1.
        -12    1    3    3    0    0  0.20709684330E+01 -0.11779786251E+02  0.30737424992E+02  0.32982443352E+02  0.00000000000E+00 0.  1.
</event>
<event>
 7    1  0.5664398E-009  0.4614232E+02  0.7816164E-02  0.1320468E+00
        -11   -1    0    0    0    0  0.00000000000E+00  0.00000000000E+00  0.45593999997E+02  0.45594000000E+02  0.51100000000E-03 0. -1.
         11   -1    0    0    0    0 -0.00000000000E+00 -0.00000000000E+00 -0.45593999997E+02  0.45594000000E+02  0.51100000000E-03 0.  1.
    9900012    2    1    2    0    0 -0.25379838927E+02 -0.44516617236E+01 -0.36948070636E+02  0.46142318301E+02  0.10000004920E+02 0.  0.
         12    1    1    2    0    0  0.25379838927E+02  0.44516617236E+01  0.36948070636E+02  0.45045681699E+02  0.00000000000E+00 0. -1.
         11    1    3    3    0    0 -0.77051780875E+00  0.13422507109E+00 -0.42753444590E+01  0.43462954993E+01  0.51100000000E-03 0. -1.
        -11    1    3    3    0    0 -0.13996509273E+02 -0.32477744443E+01 -0.24225316046E+02  0.28165870277E+02  0.51100000000E-03 0.  1.
         12    1    3    3    0    0 -0.10612811845E+02 -0.13381123504E+01 -0.84474101312E+01  0.13630152525E+02  0.00000000000E+00 0. -1.
</event>
<event>
 7    1  0.5664398E-009  0.4614231E+02  0.7816164E-02  0.1320468E+00
        -11   -1    0    0    0    0  0.00000000000E+00  0.00000000000E+00  0.45593999997E+02  0.45594000000E+02  0.51100000000E-03 0. -1.
         11   -1    0    0    0    0 -0.00000000000E+00 -0.00000000000E+00 -0.45593999997E+02  0.45594000000E+02  0.51100000000E-03 0.  1.
    9900012    2    1    2    0    0  0.28191416401E+02  0.41068067771E+01  0.34892583466E+02  0.46142309845E+02  0.99999278167E+01 0.  0.
        -12    1    1    2    0    0 -0.28191416401E+02 -0.41068067771E+01 -0.34892583466E+02  0.45045690155E+02  0.00000000000E+00 0.  1.
         11    1    3    3    0    0  0.78981484047E+01  0.12988746842E+01  0.73896414534E+01  0.10893788356E+02  0.51100000000E-03 0. -1.
        -11    1    3    3    0    0  0.97210568396E+01  0.50734627186E+01  0.11101737360E+02  0.15604087372E+02  0.51100000000E-03 0.  1.
         12    1    3    3    0    0  0.10572211156E+02 -0.22655306257E+01  0.16401204652E+02  0.19644434117E+02  0.00000000000E+00 0. -1.
</event>
<event>
 7    1  0.5664398E-009  0.4614232E+02  0.7816164E-02  0.1320468E+00
        -11   -1    0    0    0    0  0.00000000000E+00  0.00000000000E+00  0.45593999997E+02  0.45594000000E+02  0.51100000000E-03 0. -1.
         11   -1    0    0    0    0 -0.00000000000E+00 -0.00000000000E+00 -0.45593999997E+02  0.45594000000E+02  0.51100000000E-03 0.  1.
    9900012    2    1    2    0    0  0.21892665367E+02 -0.21795255240E+02 -0.32784013655E+02  0.46142317641E+02  0.99999989084E+01 0.  0.
         12    1    1    2    0    0 -0.21892665367E+02  0.21795255240E+02  0.32784013655E+02  0.45045682359E+02  0.00000000000E+00 0. -1.
         11    1    3    3    0    0  0.31091171754E+01 -0.46977235784E+00 -0.25158317624E+01  0.40269970693E+01  0.51100000000E-03 0. -1.
        -11    1    3    3    0    0  0.14008698139E+02 -0.12337437739E+02 -0.15978594596E+02  0.24571761822E+02  0.51100000000E-03 0.  1.
         12    1    3    3    0    0  0.47748500526E+01 -0.89880451427E+01 -0.14289587297E+02  0.17543558750E+02  0.00000000000E+00 0. -1.
</event>
<event>
 7    1  0.6393603E-009  0.4614232E+02  0.7816164E-02  0.1320468E+00
        -11   -1    0    0    0    0  0.00000000000E+00  0.00000000000E+00  0.45593999997E+02  0.45594000000E+02  0.51100000000E-03 0. -1.
         11   -1    0    0    0    0 -0.00000000000E+00 -0.00000000000E+00 -0.45593999997E+02  0.45594000000E+02  0.51100000000E-03 0.  1.
    9900012    2    1    2    0    0 -0.32469512917E+02  0.12719325217E+02  0.28514257621E+02  0.46142318845E+02  0.10000009885E+02 0.  0.
        -12    1    1    2    0    0  0.32469512917E+02 -0.12719325217E+02 -0.28514257621E+02  0.45045681155E+02  0.00000000000E+00 0.  1.
         11    1    3    3    0    0 -0.80511363536E+01  0.46137180927E+01  0.43202998980E+01  0.10235828383E+02  0.51100000000E-03 0. -1.
        -11    1    3    3    0    0 -0.94611308002E+00  0.20076706781E+01  0.27513355640E+01  0.35349284517E+01  0.51100000000E-03 0.  1.
         12    1    3    3    0    0 -0.23472263483E+02  0.60979364464E+01  0.21442622159E+02  0.32371562010E+02  0.00000000000E+00 0. -1.
</event>
<event>
 7    1  0.5664398E-009  0.4614232E+02  0.7816164E-02  0.1320468E+00
        -11   -1    0    0    0    0  0.00000000000E+00  0.00000000000E+00  0.45593999997E+02  0.45594000000E+02  0.51100000000E-03 0. -1.
         11   -1    0    0    0    0 -0.00000000000E+00 -0.00000000000E+00 -0.45593999997E+02  0.45594000000E+02  0.51100000000E-03 0.  1.
    9900012    2    1    2    0    0  0.22898699717E+01  0.11980507047E+02 -0.43362857768E+02  0.46142317772E+02  0.10000000096E+02 0.  0.
         12    1    1    2    0    0 -0.22898699717E+01 -0.11980507047E+02  0.43362857768E+02  0.45045682228E+02  0.00000000000E+00 0. -1.
         11    1    3    3    0    0 -0.79162160034E+00  0.27579220427E+01 -0.37653549839E+01  0.47339937862E+01  0.51100000000E-03 0. -1.
        -11    1    3    3    0    0 -0.78148978818E+00 -0.94619332714E+00 -0.44391043995E+01  0.46056113852E+01  0.51100000000E-03 0.  1.
        -12    1    3    3    0    0  0.38629813602E+01  0.10168778332E+02 -0.35158398385E+02  0.36802712600E+02  0.00000000000E+00 0.  1.
</event>
<event>
 7    1  0.5664398E-009  0.4614232E+02  0.7816164E-02  0.1320468E+00
        -11   -1    0    0    0    0  0.00000000000E+00  0.00000000000E+00  0.45593999997E+02  0.45594000000E+02  0.51100000000E-03 0. -1.
         11   -1    0    0    0    0 -0.00000000000E+00 -0.00000000000E+00 -0.45593999997E+02  0.45594000000E+02  0.51100000000E-03 0.  1.
    9900012    2    1    2    0    0  0.16360797403E+02  0.31161106006E+02  0.28114467759E+02  0.46142317448E+02  0.99999971476E+01 0.  0.
        -12    1    1    2    0    0 -0.16360797403E+02 -0.31161106006E+02 -0.28114467759E+02  0.45045682552E+02  0.00000000000E+00 0.  1.
         11    1    3    3    0    0  0.66460709676E+01  0.18510226255E+02  0.13153770771E+02  0.23660524531E+02  0.51100000000E-03 0. -1.
        -11    1    3    3    0    0  0.67099496010E+01  0.63484355577E+01  0.55936051565E+01  0.10798818296E+02  0.51100000000E-03 0.  1.
        -12    1    3    3    0    0  0.30047768343E+01  0.63024441933E+01  0.93670918307E+01  0.11682974621E+02  0.00000000000E+00 0.  1.
</event>
<event>
 7    1  0.5664398E-009  0.4614232E+02  0.7816164E-02  0.1320468E+00
        -11   -1    0    0    0    0  0.00000000000E+00  0.00000000000E+00  0.45593999997E+02  0.45594000000E+02  0.51100000000E-03 0. -1.
         11   -1    0    0    0    0 -0.00000000000E+00 -0.00000000000E+00 -0.45593999997E+02  0.45594000000E+02  0.51100000000E-03 0.  1.
    9900012    2    1    2    0    0 -0.18794287321E+02 -0.26147681171E+02 -0.31498999737E+02  0.46142318176E+02  0.10000003784E+02 0.  0.
         12    1    1    2    0    0  0.18794287321E+02  0.26147681171E+02  0.31498999737E+02  0.45045681824E+02  0.00000000000E+00 0. -1.
         11    1    3    3    0    0 -0.56447556680E+01 -0.23807114043E+01 -0.38416693035E+01  0.72311462882E+01  0.51100000000E-03 0. -1.
        -11    1    3    3    0    0 -0.19909956329E+01 -0.61747833755E+01 -0.75972780233E+01  0.99905278624E+01  0.51100000000E-03 0.  1.
         12    1    3    3    0    0 -0.11158536020E+02 -0.17592186391E+02 -0.20060052410E+02  0.28920644025E+02  0.00000000000E+00 0. -1.
</event>
<event>
 7    1  0.5664398E-009  0.4614232E+02  0.7816164E-02  0.1320468E+00
        -11   -1    0    0    0    0  0.00000000000E+00  0.00000000000E+00  0.45593999997E+02  0.45594000000E+02  0.51100000000E-03 0.  1.
         11   -1    0    0    0    0 -0.00000000000E+00 -0.00000000000E+00 -0.45593999997E+02  0.45594000000E+02  0.51100000000E-03 0. -1.
    9900012    2    1    2    0    0 -0.38718460223E+02  0.16324812404E+02 -0.16232523769E+02  0.46142317744E+02  0.99999998415E+01 0.  0.
         12    1    1    2    0    0  0.38718460223E+02 -0.16324812404E+02  0.16232523769E+02  0.45045682256E+02  0.00000000000E+00 0. -1.
         11    1    3    3    0    0 -0.10600478026E+01  0.14180350655E+01 -0.75924249393E+00  0.19263889059E+01  0.51100000000E-03 0. -1.
        -11    1    3    3    0    0 -0.12411848209E+02  0.94028133395E+01 -0.53674428033E+01  0.16470468031E+02  0.51100000000E-03 0.  1.
        -12    1    3    3    0    0 -0.25246564211E+02  0.55039639988E+01 -0.10105838472E+02  0.27745460807E+02  0.00000000000E+00 0.  1.
</event>
<event>
 7    1  0.5664398E-009  0.4614232E+02  0.7816164E-02  0.1320468E+00
        -11   -1    0    0    0    0  0.00000000000E+00  0.00000000000E+00  0.45593999997E+02  0.45594000000E+02  0.51100000000E-03 0. -1.
         11   -1    0    0    0    0 -0.00000000000E+00 -0.00000000000E+00 -0.45593999997E+02  0.45594000000E+02  0.51100000000E-03 0.  1.
    9900012    2    1    2    0    0  0.32706322873E+02 -0.61496051509E+01  0.30357740637E+02  0.46142316345E+02  0.99999870877E+01 0.  0.
        -12    1    1    2    0    0 -0.32706322873E+02  0.61496051509E+01 -0.30357740637E+02  0.45045683655E+02  0.00000000000E+00 0.  1.
         11    1    3    3    0    0  0.22429319015E+01 -0.56648540493E+00  0.98514346630E+00  0.25143900133E+01  0.51100000000E-03 0. -1.
        -11    1    3    3    0    0  0.67348621431E+01  0.24638134912E+01  0.73582114907E+01  0.10274824651E+02  0.51100000000E-03 0.  1.
         12    1    3    3    0    0  0.23728528828E+02 -0.80469332371E+01  0.22014385680E+02  0.33353101681E+02  0.00000000000E+00 0. -1.
</event>
<event>
 7    1  0.5664398E-009  0.4614232E+02  0.7816164E-02  0.1320468E+00
        -11   -1    0    0    0    0  0.00000000000E+00  0.00000000000E+00  0.45593999997E+02  0.45594000000E+02  0.51100000000E-03 0. -1.
         11   -1    0    0    0    0 -0.00000000000E+00 -0.00000000000E+00 -0.45593999997E+02  0.45594000000E+02  0.51100000000E-03 0.  1.
    9900012    2    1    2    0    0  0.65993961781E+01  0.30959673914E+02 -0.32047771715E+02  0.46142321954E+02  0.10000038230E+02 0.  0.
         12    1    1    2    0    0 -0.65993961781E+01 -0.30959673914E+02  0.32047771715E+02  0.45045678046E+02  0.00000000000E+00 0. -1.
         11    1    3    3    0    0 -0.17536539235E+01  0.50090773905E+01 -0.52738144200E+01  0.74819300441E+01  0.51100000000E-03 0. -1.
        -11    1    3    3    0    0  0.20189081239E+01  0.28666125458E+01 -0.13945829000E+01  0.37733697442E+01  0.51100000000E-03 0.  1.
         12    1    3    3    0    0  0.63341419778E+01  0.23083983978E+02 -0.25379374395E+02  0.34887022165E+02  0.00000000000E+00 0. -1.
</event>
<event>
 7    1  0.5664398E-009  0.4614232E+02  0.7816164E-02  0.1320468E+00
        -11   -1    0    0    0    0  0.00000000000E+00  0.00000000000E+00  0.45593999997E+02  0.45594000000E+02  0.51100000000E-03 0. -1.
         11   -1    0    0    0    0 -0.00000000000E+00 -0.00000000000E+00 -0.45593999997E+02  0.45594000000E+02  0.51100000000E-03 0.  1.
    9900012    2    1    2    0    0 -0.31327536909E+02  0.94723543933E+01 -0.30951146540E+02  0.46142317202E+02  0.99999949045E+01 0.  0.
         12    1    1    2    0    0  0.31327536909E+02 -0.94723543933E+01  0.30951146540E+02  0.45045682798E+02  0.00000000000E+00 0. -1.
         11    1    3    3    0    0 -0.63430240824E+01 -0.42160728695E+00 -0.92406928105E+01  0.11216154024E+02  0.51100000000E-03 0. -1.
        -11    1    3    3    0    0 -0.24557935906E+01  0.15428248307E+01 -0.64181982959E+00  0.29703810484E+01  0.51100000000E-03 0.  1.
        -12    1    3    3    0    0 -0.22528719236E+02  0.83511368495E+01 -0.21068633900E+02  0.31955782130E+02  0.00000000000E+00 0.  1.
</event>
<event>
 7    1  0.5664398E-009  0.4614232E+02  0.7816164E-02  0.1320468E+00
        -11   -1    0    0    0    0  0.00000000000E+00  0.00000000000E+00  0.45593999997E+02  0.45594000000E+02  0.51100000000E-03 0. -1.
         11   -1    0    0    0    0 -0.00000000000E+00 -0.00000000000E+00 -0.45593999997E+02  0.45594000000E+02  0.51100000000E-03 0.  1.
    9900012    2    1    2    0    0  0.98513185294E-01 -0.10406028288E+02 -0.43827142844E+02  0.46142316750E+02  0.99999907804E+01 0.  0.
         12    1    1    2    0    0 -0.98513185294E-01  0.10406028288E+02  0.43827142844E+02  0.45045683250E+02  0.00000000000E+00 0. -1.
         11    1    3    3    0    0  0.84457779336E+00 -0.76780360068E+01 -0.15639168405E+02  0.17442738811E+02  0.51100000000E-03 0. -1.
        -11    1    3    3    0    0 -0.21099566224E+00 -0.25303859067E+01 -0.61412206344E+01  0.66454467982E+01  0.51100000000E-03 0.  1.
        -12    1    3    3    0    0 -0.53506894583E+00 -0.19760637498E+00 -0.22046753804E+02  0.22054131140E+02  0.00000000000E+00 0.  1.
</event>
<event>
 7    1  0.5664398E-009  0.4614232E+02  0.7816164E-02  0.1320468E+00
        -11   -1    0    0    0    0  0.00000000000E+00  0.00000000000E+00  0.45593999997E+02  0.45594000000E+02  0.51100000000E-03 0. -1.
         11   -1    0    0    0    0 -0.00000000000E+00 -0.00000000000E+00 -0.45593999997E+02  0.45594000000E+02  0.51100000000E-03 0.  1.
    9900012    2    1    2    0    0 -0.91148310259E+01 -0.30101374017E+01  0.44011048454E+02  0.46142318100E+02  0.10000003090E+02 0.  0.
        -12    1    1    2    0    0  0.91148310259E+01  0.30101374017E+01 -0.44011048454E+02  0.45045681900E+02  0.00000000000E+00 0.  1.
         11    1    3    3    0    0 -0.93289069697E-01 -0.16875457291E-01  0.43543924045E+01  0.43554243313E+01  0.51100000000E-03 0. -1.
        -11    1    3    3    0    0  0.56967989141E+00  0.21584134423E+01  0.82516885592E+01  0.85483125883E+01  0.51100000000E-03 0.  1.
         12    1    3    3    0    0 -0.95912218476E+01 -0.51516753867E+01  0.31404967490E+02  0.33238581180E+02  0.00000000000E+00 0. -1.
</event>
<event>
 7    1  0.5664398E-009  0.4614232E+02  0.7816164E-02  0.1320468E+00
        -11   -1    0    0    0    0  0.00000000000E+00  0.00000000000E+00  0.45593999997E+02  0.45594000000E+02  0.51100000000E-03 0. -1.
         11   -1    0    0    0    0 -0.00000000000E+00 -0.00000000000E+00 -0.45593999997E+02  0.45594000000E+02  0.51100000000E-03 0.  1.
    9900012    2    1    2    0    0 -0.15904153828E+02 -0.38885462981E+02  0.16250912879E+02  0.46142317525E+02  0.99999978432E+01 0.  0.
        -12    1    1    2    0    0  0.15904153828E+02  0.38885462981E+02 -0.16250912879E+02  0.45045682475E+02  0.00000000000E+00 0.  1.
         11    1    3    3    0    0 -0.10964938609E+01 -0.82776317953E+01  0.47636788993E+01  0.96132265053E+01  0.51100000000E-03 0. -1.
        -11    1    3    3    0    0 -0.13965617908E+01 -0.97206570605E+00  0.20390115621E+01  0.26557230623E+01  0.51100000000E-03 0.  1.
         12    1    3    3    0    0 -0.13411098177E+02 -0.29635765480E+02  0.94482224176E+01  0.33873367957E+02  0.00000000000E+00 0. -1.
</event>
<event>
 7    1  0.5664398E-009  0.4614232E+02  0.7816164E-02  0.1320468E+00
        -11   -1    0    0    0    0  0.00000000000E+00  0.00000000000E+00  0.45593999997E+02  0.45594000000E+02  0.51100000000E-03 0. -1.
         11   -1    0    0    0    0 -0.00000000000E+00 -0.00000000000E+00 -0.45593999997E+02  0.45594000000E+02  0.51100000000E-03 0.  1.
    9900012    2    1    2    0    0  0.33599630412E+02 -0.25803969008E+01  0.29891802259E+02  0.46142318140E+02  0.10000003452E+02 0.  0.
        -12    1    1    2    0    0 -0.33599630412E+02  0.25803969008E+01 -0.29891802259E+02  0.45045681860E+02  0.00000000000E+00 0.  1.
         11    1    3    3    0    0  0.19420927623E+01  0.17266058250E+01  0.19627508785E+01  0.32565753860E+01  0.51100000000E-03 0. -1.
        -11    1    3    3    0    0  0.10626508883E+01  0.73359379987E+00  0.23832844740E+01  0.27106146754E+01  0.51100000000E-03 0.  1.
         12    1    3    3    0    0  0.30594886761E+02 -0.50405965257E+01  0.25545766906E+02  0.40175128078E+02  0.00000000000E+00 0. -1.
</event>
<event>
 7    1  0.5664398E-009  0.4614232E+02  0.7816164E-02  0.1320468E+00
        -11   -1    0    0    0    0  0.00000000000E+00  0.00000000000E+00  0.45593999997E+02  0.45594000000E+02  0.51100000000E-03 0. -1.
         11   -1    0    0    0    0 -0.00000000000E+00 -0.00000000000E+00 -0.45593999997E+02  0.45594000000E+02  0.51100000000E-03 0.  1.
    9900012    2    1    2    0    0 -0.47426171015E+01 -0.39617674164E+02 -0.20906000638E+02  0.46142318899E+02  0.10000010378E+02 0.  0.
         12    1    1    2    0    0  0.47426171015E+01  0.39617674164E+02  0.20906000638E+02  0.45045681101E+02  0.00000000000E+00 0. -1.
         11    1    3    3    0    0  0.16464398596E+00 -0.30829141320E+01  0.10604157292E+00  0.30891280750E+01  0.51100000000E-03 0. -1.
        -11    1    3    3    0    0 -0.41421531259E+01 -0.25144690616E+02 -0.10592839157E+02  0.27597484312E+02  0.51100000000E-03 0.  1.
        -12    1    3    3    0    0 -0.76510796153E+00 -0.11390069416E+02 -0.10419203055E+02  0.15455706512E+02  0.00000000000E+00 0.  1.
</event>
<event>
 7    1  0.5664398E-009  0.4614232E+02  0.7816164E-02  0.1320468E+00
        -11   -1    0    0    0    0  0.00000000000E+00  0.00000000000E+00  0.45593999997E+02  0.45594000000E+02  0.51100000000E-03 0. -1.
         11   -1    0    0    0    0 -0.00000000000E+00 -0.00000000000E+00 -0.45593999997E+02  0.45594000000E+02  0.51100000000E-03 0.  1.
    9900012    2    1    2    0    0 -0.17822672287E+02 -0.17404911093E+02 -0.37530451893E+02  0.46142318777E+02  0.10000009262E+02 0.  0.
         12    1    1    2    0    0  0.17822672287E+02  0.17404911093E+02  0.37530451893E+02  0.45045681223E+02  0.00000000000E+00 0. -1.
         11    1    3    3    0    0 -0.29803994434E+01 -0.13527230130E+01 -0.18405143952E+01  0.37550144996E+01  0.51100000000E-03 0. -1.
        -11    1    3    3    0    0 -0.10640159425E+02 -0.65942958206E+01 -0.19537732066E+02  0.23203894166E+02  0.51100000000E-03 0.  1.
         12    1    3    3    0    0 -0.42021134185E+01 -0.94578922597E+01 -0.16152205432E+02  0.19183410111E+02  0.00000000000E+00 0. -1.
</event>
<event>
 7    1  0.5664398E-009  0.4614232E+02  0.7816164E-02  0.1320468E+00
        -11   -1    0    0    0    0  0.00000000000E+00  0.00000000000E+00  0.45593999997E+02  0.45594000000E+02  0.51100000000E-03 0. -1.
         11   -1    0    0    0    0 -0.00000000000E+00 -0.00000000000E+00 -0.45593999997E+02  0.45594000000E+02  0.51100000000E-03 0.  1.
    9900012    2    1    2    0    0 -0.22968494496E+02 -0.49740193220E+01  0.38429427234E+02  0.46142317797E+02  0.10000000324E+02 0.  0.
        -12    1    1    2    0    0  0.22968494496E+02  0.49740193220E+01 -0.38429427234E+02  0.45045682203E+02  0.00000000000E+00 0.  1.
         11    1    3    3    0    0 -0.35605533512E+01  0.15589261573E+01  0.71647114901E+01  0.81511276477E+01  0.51100000000E-03 0. -1.
        -11    1    3    3    0    0 -0.23061560753E+01  0.13555269214E+01  0.29208144382E+01  0.39606775079E+01  0.51100000000E-03 0.  1.
        -12    1    3    3    0    0 -0.17101785069E+02 -0.78884724007E+01  0.28343901306E+02  0.34030512641E+02  0.00000000000E+00 0.  1.
</event>
<event>
 7    1  0.5664398E-009  0.4614232E+02  0.7816164E-02  0.1320468E+00
        -11   -1    0    0    0    0  0.00000000000E+00  0.00000000000E+00  0.45593999997E+02  0.45594000000E+02  0.51100000000E-03 0. -1.
         11   -1    0    0    0    0 -0.00000000000E+00 -0.00000000000E+00 -0.45593999997E+02  0.45594000000E+02  0.51100000000E-03 0.  1.
    9900012    2    1    2    0    0  0.32076204916E+02 -0.25555271474E+02 -0.18632195437E+02  0.46142317313E+02  0.99999959146E+01 0.  0.
         12    1    1    2    0    0 -0.32076204916E+02  0.25555271474E+02  0.18632195437E+02  0.45045682687E+02  0.00000000000E+00 0. -1.
         11    1    3    3    0    0  0.37858290700E+01 -0.39053231936E+01 -0.26454291776E+00  0.54455517820E+01  0.51100000000E-03 0. -1.
        -11    1    3    3    0    0  0.13074238381E+02 -0.13636608041E+02 -0.73393798009E+01  0.20267197247E+02  0.51100000000E-03 0.  1.
         12    1    3    3    0    0  0.15216137465E+02 -0.80133402395E+01 -0.11028272718E+02  0.20429568285E+02  0.00000000000E+00 0. -1.
</event>
<event>
 7    1  0.5664398E-009  0.4614232E+02  0.7816164E-02  0.1320468E+00
        -11   -1    0    0    0    0  0.00000000000E+00  0.00000000000E+00  0.45593999997E+02  0.45594000000E+02  0.51100000000E-03 0. -1.
         11   -1    0    0    0    0 -0.00000000000E+00 -0.00000000000E+00 -0.45593999997E+02  0.45594000000E+02  0.51100000000E-03 0.  1.
    9900012    2    1    2    0    0  0.23809364410E+02 -0.12308439258E+02 -0.36204004877E+02  0.46142317857E+02  0.10000000876E+02 0.  0.
         12    1    1    2    0    0 -0.23809364410E+02  0.12308439258E+02  0.36204004877E+02  0.45045682143E+02  0.00000000000E+00 0. -1.
         11    1    3    3    0    0  0.22343097324E+01  0.20027355573E+00 -0.46700244896E+01  0.51808665753E+01  0.51100000000E-03 0. -1.
        -11    1    3    3    0    0  0.43884105626E+01 -0.30237959744E+01 -0.12632224211E+02  0.13710382130E+02  0.51100000000E-03 0.  1.
         12    1    3    3    0    0  0.17186644115E+02 -0.94849168391E+01 -0.18901756176E+02  0.27251069152E+02  0.00000000000E+00 0. -1.
</event>
<event>
 7    1  0.5664398E-009  0.4614232E+02  0.7816164E-02  0.1320468E+00
        -11   -1    0    0    0    0  0.00000000000E+00  0.00000000000E+00  0.45593999997E+02  0.45594000000E+02  0.51100000000E-03 0. -1.
         11   -1    0    0    0    0 -0.00000000000E+00 -0.00000000000E+00 -0.45593999997E+02  0.45594000000E+02  0.51100000000E-03 0.  1.
    9900012    2    1    2    0    0  0.27066594627E+02 -0.16017308082E+02  0.32248391880E+02  0.46142317835E+02  0.10000000672E+02 0.  0.
        -12    1    1    2    0    0 -0.27066594627E+02  0.16017308082E+02 -0.32248391880E+02  0.45045682165E+02  0.00000000000E+00 0.  1.
         11    1    3    3    0    0  0.68437706005E+01 -0.43412074451E+01  0.11530755674E+02  0.14094027273E+02  0.51100000000E-03 0. -1.
        -11    1    3    3    0    0  0.10747646659E+01 -0.25431121983E+01  0.47571788010E+01  0.55002990051E+01  0.51100000000E-03 0.  1.
        -12    1    3    3    0    0  0.19148059360E+02 -0.91329884384E+01  0.15960457406E+02  0.26547991556E+02  0.00000000000E+00 0.  1.
</event>
<event>
 7    1  0.5664398E-009  0.4614232E+02  0.7816164E-02  0.1320468E+00
        -11   -1    0    0    0    0  0.00000000000E+00  0.00000000000E+00  0.45593999997E+02  0.45594000000E+02  0.51100000000E-03 0. -1.
         11   -1    0    0    0    0 -0.00000000000E+00 -0.00000000000E+00 -0.45593999997E+02  0.45594000000E+02  0.51100000000E-03 0.  1.
    9900012    2    1    2    0    0  0.11861664738E+02 -0.37672342408E+02 -0.21661233935E+02  0.46142317317E+02  0.99999959472E+01 0.  0.
         12    1    1    2    0    0 -0.11861664738E+02  0.37672342408E+02  0.21661233935E+02  0.45045682683E+02  0.00000000000E+00 0. -1.
         11    1    3    3    0    0  0.36983260098E+00  0.66846681674E-01 -0.81159376986E+00  0.89438768998E+00  0.51100000000E-03 0. -1.
        -11    1    3    3    0    0 -0.23295574387E+00 -0.73026980559E+01 -0.57898530406E+01  0.93223422898E+01  0.51100000000E-03 0.  1.
        -12    1    3    3    0    0  0.11724787881E+02 -0.30436491033E+02 -0.15059787125E+02  0.35925587337E+02  0.00000000000E+00 0.  1.
</event>
<event>
 7    1  0.5664398E-009  0.4614232E+02  0.7816164E-02  0.1320468E+00
        -11   -1    0    0    0    0  0.00000000000E+00  0.00000000000E+00  0.45593999997E+02  0.45594000000E+02  0.51100000000E-03 0. -1.
         11   -1    0    0    0    0 -0.00000000000E+00 -0.00000000000E+00 -0.45593999997E+02  0.45594000000E+02  0.51100000000E-03 0.  1.
    9900012    2    1    2    0    0 -0.69640780737E+01  0.91845478391E+01 -0.43546058049E+02  0.46142317920E+02  0.10000001448E+02 0.  0.
         12    1    1    2    0    0  0.69640780737E+01 -0.91845478391E+01  0.43546058049E+02  0.45045682080E+02  0.00000000000E+00 0. -1.
         11    1    3    3    0    0  0.10726727750E+01  0.44275147584E+01 -0.77220074575E+01  0.89656518588E+01  0.51100000000E-03 0. -1.
        -11    1    3    3    0    0 -0.58435008311E+01  0.49707701736E+01 -0.25982739034E+02  0.27091655285E+02  0.51100000000E-03 0.  1.
         12    1    3    3    0    0 -0.21932500175E+01 -0.21373709294E+00 -0.98413115578E+01  0.10085010776E+02  0.00000000000E+00 0. -1.
</event>
<event>
 7    1  0.5664398E-009  0.4614232E+02  0.7816164E-02  0.1320468E+00
        -11   -1    0    0    0    0  0.00000000000E+00  0.00000000000E+00  0.45593999997E+02  0.45594000000E+02  0.51100000000E-03 0. -1.
         11   -1    0    0    0    0 -0.00000000000E+00 -0.00000000000E+00 -0.45593999997E+02  0.45594000000E+02  0.51100000000E-03 0.  1.
    9900012    2    1    2    0    0  0.87779449678E+01 -0.16045880680E+02 -0.41165406578E+02  0.46142319814E+02  0.10000018720E+02 0.  0.
         12    1    1    2    0    0 -0.87779449678E+01  0.16045880680E+02  0.41165406578E+02  0.45045680186E+02  0.00000000000E+00 0. -1.
         11    1    3    3    0    0  0.17247115729E+01  0.22324805231E+00 -0.93937527818E+01  0.95533795742E+01  0.51100000000E-03 0. -1.
        -11    1    3    3    0    0  0.44202737004E+01 -0.99396005623E+01 -0.15540721008E+02  0.18969672866E+02  0.51100000000E-03 0.  1.
         12    1    3    3    0    0  0.26329596945E+01 -0.63295281702E+01 -0.16230932789E+02  0.17619267374E+02  0.00000000000E+00 0. -1.
</event>
<event>
 7    1  0.7698033E-009  0.4614232E+02  0.7816164E-02  0.1320468E+00
        -11   -1    0    0    0    0  0.00000000000E+00  0.00000000000E+00  0.45593999997E+02  0.45594000000E+02  0.51100000000E-03 0. -1.
         11   -1    0    0    0    0 -0.00000000000E+00 -0.00000000000E+00 -0.45593999997E+02  0.45594000000E+02  0.51100000000E-03 0.  1.
    9900012    2    1    2    0    0 -0.32604612195E+02 -0.65905630915E+01 -0.30374614532E+02  0.46142318007E+02  0.10000002245E+02 0.  0.
         12    1    1    2    0    0  0.32604612195E+02  0.65905630915E+01  0.30374614532E+02  0.45045681993E+02  0.00000000000E+00 0. -1.
         11    1    3    3    0    0 -0.19140162925E+01  0.20899376249E+00  0.22827370918E+00  0.19388774866E+01  0.51100000000E-03 0. -1.
        -11    1    3    3    0    0 -0.55596458899E+01 -0.25920323222E+01 -0.37715648638E+01  0.72009024270E+01  0.51100000000E-03 0.  1.
        -12    1    3    3    0    0 -0.25130950012E+02 -0.42075245318E+01 -0.26831323377E+02  0.37002538094E+02  0.00000000000E+00 0.  1.
</event>
<event>
 7    1  0.5664398E-009  0.4614232E+02  0.7816164E-02  0.1320468E+00
        -11   -1    0    0    0    0  0.00000000000E+00  0.00000000000E+00  0.45593999997E+02  0.45594000000E+02  0.51100000000E-03 0. -1.
         11   -1    0    0    0    0 -0.00000000000E+00 -0.00000000000E+00 -0.45593999997E+02  0.45594000000E+02  0.51100000000E-03 0.  1.
    9900012    2    1    2    0    0 -0.87781489551E+01  0.26862834379E+02  0.35077710878E+02  0.46142316851E+02  0.99999916968E+01 0.  0.
        -12    1    1    2    0    0  0.87781489551E+01 -0.26862834379E+02 -0.35077710878E+02  0.45045683149E+02  0.00000000000E+00 0.  1.
         11    1    3    3    0    0  0.71434774482E+00  0.76738031147E+01  0.93147340830E+01  0.12089740206E+02  0.51100000000E-03 0. -1.
        -11    1    3    3    0    0 -0.39866848193E+00  0.19253842142E+01  0.58570175508E+01  0.61782437458E+01  0.51100000000E-03 0.  1.
        -12    1    3    3    0    0 -0.90938282180E+01  0.17263647050E+02  0.19905959244E+02  0.27874332899E+02  0.00000000000E+00 0.  1.
</event>
<event>
 7    1  0.5664398E-009  0.4614232E+02  0.7816164E-02  0.1320468E+00
        -11   -1    0    0    0    0  0.00000000000E+00  0.00000000000E+00  0.45593999997E+02  0.45594000000E+02  0.51100000000E-03 0.  1.
         11   -1    0    0    0    0 -0.00000000000E+00 -0.00000000000E+00 -0.45593999997E+02  0.45594000000E+02  0.51100000000E-03 0. -1.
    9900012    2    1    2    0    0  0.16978932544E+02 -0.41716370119E+02  0.75750587353E+00  0.46142317616E+02  0.99999986794E+01 0.  0.
         12    1    1    2    0    0 -0.16978932544E+02  0.41716370119E+02 -0.75750587353E+00  0.45045682384E+02  0.00000000000E+00 0. -1.
         11    1    3    3    0    0  0.10126328519E+02 -0.21649550272E+02 -0.11160885505E+00  0.23901004436E+02  0.51100000000E-03 0. -1.
        -11    1    3    3    0    0  0.79464430299E+01 -0.17582968759E+02  0.17832065465E+01  0.19377475920E+02  0.51100000000E-03 0.  1.
         12    1    3    3    0    0 -0.10938390049E+01 -0.24838510887E+01 -0.91409181795E+00  0.28638372599E+01  0.00000000000E+00 0. -1.
</event>
<event>
 7    1  0.5664398E-009  0.4614232E+02  0.7816164E-02  0.1320468E+00
        -11   -1    0    0    0    0  0.00000000000E+00  0.00000000000E+00  0.45593999997E+02  0.45594000000E+02  0.51100000000E-03 0. -1.
         11   -1    0    0    0    0 -0.00000000000E+00 -0.00000000000E+00 -0.45593999997E+02  0.45594000000E+02  0.51100000000E-03 0.  1.
    9900012    2    1    2    0    0 -0.38581326112E+02 -0.38666561728E+01  0.22926915618E+02  0.46142320803E+02  0.10000027741E+02 0.  0.
        -12    1    1    2    0    0  0.38581326112E+02  0.38666561728E+01 -0.22926915618E+02  0.45045679197E+02  0.00000000000E+00 0.  1.
         11    1    3    3    0    0 -0.15588050341E+02  0.12281064385E+01  0.60587613758E+01  0.16769142749E+02  0.51100000000E-03 0. -1.
        -11    1    3    3    0    0 -0.79862902016E+01  0.52816034101E+00  0.61468369105E+01  0.10091748550E+02  0.51100000000E-03 0.  1.
        -12    1    3    3    0    0 -0.15006985570E+02 -0.56229229523E+01  0.10721317331E+02  0.19281429505E+02  0.00000000000E+00 0.  1.
</event>
<event>
 7    1  0.5664398E-009  0.4614232E+02  0.7816164E-02  0.1320468E+00
        -11   -1    0    0    0    0  0.00000000000E+00  0.00000000000E+00  0.45593999997E+02  0.45594000000E+02  0.51100000000E-03 0. -1.
         11   -1    0    0    0    0 -0.00000000000E+00 -0.00000000000E+00 -0.45593999997E+02  0.45594000000E+02  0.51100000000E-03 0.  1.
    9900012    2    1    2    0    0  0.28225481903E+02 -0.35094807903E+02  0.88890466613E+00  0.46142317389E+02  0.99999966065E+01 0.  0.
        -12    1    1    2    0    0 -0.28225481903E+02  0.35094807903E+02 -0.88890466613E+00  0.45045682611E+02  0.00000000000E+00 0.  1.
         11    1    3    3    0    0  0.63926731220E+01 -0.40829480124E+01  0.16967946125E+01  0.77727631081E+01  0.51100000000E-03 0.  1.
        -11    1    3    3    0    0  0.10162578522E+02 -0.96868617109E+01 -0.75591690964E+00  0.14060039213E+02  0.51100000000E-03 0. -1.
         12    1    3    3    0    0  0.11670230258E+02 -0.21324998180E+02 -0.51973036737E-01  0.24309515068E+02  0.00000000000E+00 0. -1.
</event>
<event>
 7    1  0.5664398E-009  0.4614232E+02  0.7816164E-02  0.1320468E+00
        -11   -1    0    0    0    0  0.00000000000E+00  0.00000000000E+00  0.45593999997E+02  0.45594000000E+02  0.51100000000E-03 0.  1.
         11   -1    0    0    0    0 -0.00000000000E+00 -0.00000000000E+00 -0.45593999997E+02  0.45594000000E+02  0.51100000000E-03 0. -1.
    9900012    2    1    2    0    0 -0.12519184277E+02 -0.43060196137E+02 -0.42664935914E+01  0.46142318366E+02  0.10000005516E+02 0.  0.
         12    1    1    2    0    0  0.12519184277E+02  0.43060196137E+02  0.42664935914E+01  0.45045681634E+02  0.00000000000E+00 0. -1.
         11    1    3    3    0    0 -0.32976460093E+01 -0.20056030413E+02 -0.62326713914E+01  0.21259468904E+02  0.51100000000E-03 0. -1.
        -11    1    3    3    0    0 -0.39610868313E+01 -0.95121887521E+01  0.13081612702E+01  0.10386685222E+02  0.51100000000E-03 0.  1.
         12    1    3    3    0    0 -0.52604514359E+01 -0.13491976972E+02  0.65801652975E+00  0.14496164240E+02  0.00000000000E+00 0. -1.
</event>
<event>
 7    1  0.5664398E-009  0.4614232E+02  0.7816164E-02  0.1320468E+00
        -11   -1    0    0    0    0  0.00000000000E+00  0.00000000000E+00  0.45593999997E+02  0.45594000000E+02  0.51100000000E-03 0. -1.
         11   -1    0    0    0    0 -0.00000000000E+00 -0.00000000000E+00 -0.45593999997E+02  0.45594000000E+02  0.51100000000E-03 0.  1.
    9900012    2    1    2    0    0 -0.86537962341E+01 -0.31348563345E+01  0.44095327158E+02  0.46142318846E+02  0.10000009892E+02 0.  0.
        -12    1    1    2    0    0  0.86537962341E+01  0.31348563345E+01 -0.44095327158E+02  0.45045681154E+02  0.00000000000E+00 0.  1.
         11    1    3    3    0    0 -0.42215380107E+01 -0.95560769497E+00  0.24821179549E+02  0.25195744159E+02  0.51100000000E-03 0. -1.
        -11    1    3    3    0    0  0.12331351464E+01  0.10990494585E+01  0.41602191485E+01  0.44761541111E+01  0.51100000000E-03 0.  1.
         12    1    3    3    0    0 -0.56653933699E+01 -0.32782980980E+01  0.15113928460E+02  0.16470420576E+02  0.00000000000E+00 0. -1.
</event>
<event>
 7    1  0.5664398E-009  0.4614232E+02  0.7816164E-02  0.1320468E+00
        -11   -1    0    0    0    0  0.00000000000E+00  0.00000000000E+00  0.45593999997E+02  0.45594000000E+02  0.51100000000E-03 0. -1.
         11   -1    0    0    0    0 -0.00000000000E+00 -0.00000000000E+00 -0.45593999997E+02  0.45594000000E+02  0.51100000000E-03 0.  1.
    9900012    2    1    2    0    0 -0.42654975942E+02 -0.62842961383E+00  0.14466221870E+02  0.46142317947E+02  0.10000001694E+02 0.  0.
        -12    1    1    2    0    0  0.42654975942E+02  0.62842961383E+00 -0.14466221870E+02  0.45045682053E+02  0.00000000000E+00 0.  1.
         11    1    3    3    0    0 -0.20693153151E+02  0.57013501723E-01  0.63895371844E+01  0.21657239519E+02  0.51100000000E-03 0. -1.
        -11    1    3    3    0    0 -0.10776861796E+02 -0.18693142840E+01  0.55006583097E+00  0.10951605304E+02  0.51100000000E-03 0.  1.
         12    1    3    3    0    0 -0.11184960995E+02  0.11838711685E+01  0.75266188547E+01  0.13533473124E+02  0.00000000000E+00 0. -1.
</event>
<event>
 7    1  0.5664398E-009  0.4614232E+02  0.7816164E-02  0.1320468E+00
        -11   -1    0    0    0    0  0.00000000000E+00  0.00000000000E+00  0.45593999997E+02  0.45594000000E+02  0.51100000000E-03 0. -1.
         11   -1    0    0    0    0 -0.00000000000E+00 -0.00000000000E+00 -0.45593999997E+02  0.45594000000E+02  0.51100000000E-03 0.  1.
    9900012    2    1    2    0    0 -0.25879157504E+02 -0.29079138903E+02  0.22666858793E+02  0.46142316522E+02  0.99999887049E+01 0.  0.
        -12    1    1    2    0    0  0.25879157504E+02  0.29079138903E+02 -0.22666858793E+02  0.45045683478E+02  0.00000000000E+00 0.  1.
         11    1    3    3    0    0 -0.11121720704E+02 -0.13065964135E+02  0.12461505696E+02  0.21206159828E+02  0.51100000000E-03 0. -1.
        -11    1    3    3    0    0 -0.12376120583E+02 -0.15596302504E+02  0.74195783087E+01  0.21247662343E+02  0.51100000000E-03 0.  1.
         12    1    3    3    0    0 -0.23813162157E+01 -0.41687226317E+00  0.27857747888E+01  0.36884943510E+01  0.00000000000E+00 0. -1.
</event>
<event>
 7    1  0.5664398E-009  0.4614231E+02  0.7816164E-02  0.1320468E+00
        -11   -1    0    0    0    0  0.00000000000E+00  0.00000000000E+00  0.45593999997E+02  0.45594000000E+02  0.51100000000E-03 0. -1.
         11   -1    0    0    0    0 -0.00000000000E+00 -0.00000000000E+00 -0.45593999997E+02  0.45594000000E+02  0.51100000000E-03 0.  1.
    9900012    2    1    2    0    0  0.33499688547E+02 -0.16730886190E+02  0.25039212222E+02  0.46142313923E+02  0.99999649983E+01 0.  0.
        -12    1    1    2    0    0 -0.33499688547E+02  0.16730886190E+02 -0.25039212222E+02  0.45045686077E+02  0.00000000000E+00 0.  1.
         11    1    3    3    0    0  0.85753297396E+01 -0.17143441281E+01  0.76351684064E+01  0.11609093539E+02  0.51100000000E-03 0. -1.
        -11    1    3    3    0    0  0.32583891622E+01 -0.47074863471E+01  0.22302525502E+01  0.61442293528E+01  0.51100000000E-03 0.  1.
         12    1    3    3    0    0  0.21665969645E+02 -0.10309055715E+02  0.15173791266E+02  0.28388991031E+02  0.00000000000E+00 0. -1.
</event>
<event>
 7    1  0.5664398E-009  0.4614232E+02  0.7816164E-02  0.1320468E+00
        -11   -1    0    0    0    0  0.00000000000E+00  0.00000000000E+00  0.45593999997E+02  0.45594000000E+02  0.51100000000E-03 0. -1.
         11   -1    0    0    0    0 -0.00000000000E+00 -0.00000000000E+00 -0.45593999997E+02  0.45594000000E+02  0.51100000000E-03 0.  1.
    9900012    2    1    2    0    0 -0.12275339094E+02 -0.15482232372E+02 -0.40481230821E+02  0.46142317434E+02  0.99999970173E+01 0.  0.
         12    1    1    2    0    0  0.12275339094E+02  0.15482232372E+02  0.40481230821E+02  0.45045682566E+02  0.00000000000E+00 0. -1.
         11    1    3    3    0    0 -0.30332388818E+01 -0.51905028077E+01 -0.18465530568E+02  0.19419517938E+02  0.51100000000E-03 0. -1.
        -11    1    3    3    0    0 -0.54356579010E+01 -0.56759400346E+01 -0.17637236027E+02  0.19308929723E+02  0.51100000000E-03 0.  1.
        -12    1    3    3    0    0 -0.38064423113E+01 -0.46157895295E+01 -0.43784642254E+01  0.74138697738E+01  0.00000000000E+00 0.  1.
</event>
<event>
 7    1  0.5664398E-009  0.4614232E+02  0.7816164E-02  0.1320468E+00
        -11   -1    0    0    0    0  0.00000000000E+00  0.00000000000E+00  0.45593999997E+02  0.45594000000E+02  0.51100000000E-03 0.  1.
         11   -1    0    0    0    0 -0.00000000000E+00 -0.00000000000E+00 -0.45593999997E+02  0.45594000000E+02  0.51100000000E-03 0. -1.
    9900012    2    1    2    0    0  0.18171941864E+02  0.27250969481E+02  0.30923755609E+02  0.46142317968E+02  0.10000001884E+02 0.  0.
        -12    1    1    2    0    0 -0.18171941864E+02 -0.27250969481E+02 -0.30923755609E+02  0.45045682032E+02  0.00000000000E+00 0.  1.
         11    1    3    3    0    0  0.12713347760E+00  0.56821712137E+01  0.47862010335E+01  0.74304073386E+01  0.51100000000E-03 0.  1.
        -11    1    3    3    0    0  0.15907117372E+02  0.19788954450E+02  0.25210105629E+02  0.35779722294E+02  0.51100000000E-03 0. -1.
        -12    1    3    3    0    0  0.21376910141E+01  0.17798438174E+01  0.92744894667E+00  0.29321883355E+01  0.00000000000E+00 0.  1.
</event>
<event>
 7    1  0.5664398E-009  0.4614232E+02  0.7816164E-02  0.1320468E+00
        -11   -1    0    0    0    0  0.00000000000E+00  0.00000000000E+00  0.45593999997E+02  0.45594000000E+02  0.51100000000E-03 0. -1.
         11   -1    0    0    0    0 -0.00000000000E+00 -0.00000000000E+00 -0.45593999997E+02  0.45594000000E+02  0.51100000000E-03 0.  1.
    9900012    2    1    2    0    0  0.16824980212E+02  0.76985794736E+01  0.41070249625E+02  0.46142317750E+02  0.99999999019E+01 0.  0.
        -12    1    1    2    0    0 -0.16824980212E+02 -0.76985794736E+01 -0.41070249625E+02  0.45045682250E+02  0.00000000000E+00 0.  1.
         11    1    3    3    0    0  0.48025860441E+01  0.15434474774E+01  0.12513476452E+02  0.13492003409E+02  0.51100000000E-03 0. -1.
        -11    1    3    3    0    0  0.39383309128E+01 -0.14094937491E+01  0.12214341052E+02  0.12910741676E+02  0.51100000000E-03 0.  1.
        -12    1    3    3    0    0  0.80840632552E+01  0.75646257454E+01  0.16342432121E+02  0.19739572665E+02  0.00000000000E+00 0.  1.
</event>
<event>
 7    1  0.5664398E-009  0.4614232E+02  0.7816164E-02  0.1320468E+00
        -11   -1    0    0    0    0  0.00000000000E+00  0.00000000000E+00  0.45593999997E+02  0.45594000000E+02  0.51100000000E-03 0. -1.
         11   -1    0    0    0    0 -0.00000000000E+00 -0.00000000000E+00 -0.45593999997E+02  0.45594000000E+02  0.51100000000E-03 0.  1.
    9900012    2    1    2    0    0  0.40632371963E+02 -0.21796537717E+01 -0.19322855966E+02  0.46142319800E+02  0.10000018596E+02 0.  0.
         12    1    1    2    0    0 -0.40632371963E+02  0.21796537717E+01  0.19322855966E+02  0.45045680200E+02  0.00000000000E+00 0. -1.
         11    1    3    3    0    0  0.16920633607E+02 -0.31620769436E+01 -0.94638390169E+01  0.19643594922E+02  0.51100000000E-03 0. -1.
        -11    1    3    3    0    0 -0.27568007852E+00  0.48298485215E-02  0.32017234843E+00  0.42253216084E+00  0.51100000000E-03 0.  1.
        -12    1    3    3    0    0  0.23987418435E+02  0.97759332333E+00 -0.10179189298E+02  0.26076192717E+02  0.00000000000E+00 0.  1.
</event>
<event>
 7    1  0.5664398E-009  0.4614232E+02  0.7816164E-02  0.1320468E+00
        -11   -1    0    0    0    0  0.00000000000E+00  0.00000000000E+00  0.45593999997E+02  0.45594000000E+02  0.51100000000E-03 0. -1.
         11   -1    0    0    0    0 -0.00000000000E+00 -0.00000000000E+00 -0.45593999997E+02  0.45594000000E+02  0.51100000000E-03 0.  1.
    9900012    2    1    2    0    0 -0.32392213089E+02  0.24442614337E+02  0.19555475573E+02  0.46142317751E+02  0.99999999037E+01 0.  0.
        -12    1    1    2    0    0  0.32392213089E+02 -0.24442614337E+02 -0.19555475573E+02  0.45045682249E+02  0.00000000000E+00 0.  1.
         11    1    3    3    0    0 -0.16285036219E+02  0.11043500505E+02  0.78706315340E+01  0.21192171881E+02  0.51100000000E-03 0. -1.
        -11    1    3    3    0    0  0.85449733067E-01  0.25422522113E+01  0.15320340283E+01  0.29694235952E+01  0.51100000000E-03 0.  1.
        -12    1    3    3    0    0 -0.16192626603E+02  0.10856861621E+02  0.10152810011E+02  0.21980722274E+02  0.00000000000E+00 0.  1.
</event>
<event>
 7    1  0.5664398E-009  0.4614232E+02  0.7816164E-02  0.1320468E+00
        -11   -1    0    0    0    0  0.00000000000E+00  0.00000000000E+00  0.45593999997E+02  0.45594000000E+02  0.51100000000E-03 0. -1.
         11   -1    0    0    0    0 -0.00000000000E+00 -0.00000000000E+00 -0.45593999997E+02  0.45594000000E+02  0.51100000000E-03 0.  1.
    9900012    2    1    2    0    0 -0.37199910385E+02 -0.25111518727E+02 -0.38329913124E+01  0.46142317323E+02  0.99999960038E+01 0.  0.
         12    1    1    2    0    0  0.37199910385E+02  0.25111518727E+02  0.38329913124E+01  0.45045682677E+02  0.00000000000E+00 0. -1.
         11    1    3    3    0    0 -0.21780746858E+02 -0.12457682471E+02 -0.22667182587E+01  0.25193903988E+02  0.51100000000E-03 0. -1.
        -11    1    3    3    0    0 -0.79311108434E+01 -0.51347820053E+01 -0.36597385413E+01  0.10132235287E+02  0.51100000000E-03 0.  1.
         12    1    3    3    0    0 -0.74880526843E+01 -0.75190542505E+01  0.20934654876E+01  0.10816178048E+02  0.00000000000E+00 0. -1.
</event>
<event>
 7    1  0.5664398E-009  0.4614232E+02  0.7816164E-02  0.1320468E+00
        -11   -1    0    0    0    0  0.00000000000E+00  0.00000000000E+00  0.45593999997E+02  0.45594000000E+02  0.51100000000E-03 0. -1.
         11   -1    0    0    0    0 -0.00000000000E+00 -0.00000000000E+00 -0.45593999997E+02  0.45594000000E+02  0.51100000000E-03 0.  1.
    9900012    2    1    2    0    0  0.24351918351E+02 -0.87235529290E+01  0.36878140058E+02  0.46142317441E+02  0.99999970774E+01 0.  0.
        -12    1    1    2    0    0 -0.24351918351E+02  0.87235529290E+01 -0.36878140058E+02  0.45045682559E+02  0.00000000000E+00 0.  1.
         11    1    3    3    0    0  0.31671449261E+01 -0.28236804739E+00  0.33817271238E+01  0.46418333983E+01  0.51100000000E-03 0. -1.
        -11    1    3    3    0    0 -0.41172282745E-01 -0.27416350668E+00  0.51534925703E+01  0.51609443631E+01  0.51100000000E-03 0.  1.
         12    1    3    3    0    0  0.21225945707E+02 -0.81670213749E+01  0.28342920364E+02  0.36339539679E+02  0.00000000000E+00 0. -1.
</event>
<event>
 7    1  0.5664398E-009  0.4614232E+02  0.7816164E-02  0.1320468E+00
        -11   -1    0    0    0    0  0.00000000000E+00  0.00000000000E+00  0.45593999997E+02  0.45594000000E+02  0.51100000000E-03 0. -1.
         11   -1    0    0    0    0 -0.00000000000E+00 -0.00000000000E+00 -0.45593999997E+02  0.45594000000E+02  0.51100000000E-03 0.  1.
    9900012    2    1    2    0    0  0.17723585448E+02 -0.30475025910E+02 -0.28040342744E+02  0.46142317559E+02  0.99999981606E+01 0.  0.
         12    1    1    2    0    0 -0.17723585448E+02  0.30475025910E+02  0.28040342744E+02  0.45045682441E+02  0.00000000000E+00 0. -1.
         11    1    3    3    0    0  0.48577775567E+00 -0.38827158540E+01 -0.56036070851E+01  0.68346086249E+01  0.51100000000E-03 0. -1.
        -11    1    3    3    0    0  0.13336280369E+02 -0.24280699114E+02 -0.18596318309E+02  0.33365128180E+02  0.51100000000E-03 0.  1.
         12    1    3    3    0    0  0.39015273234E+01 -0.23116109413E+01 -0.38404173503E+01  0.59425807545E+01  0.00000000000E+00 0. -1.
</event>
<event>
 7    1  0.5664398E-009  0.4614232E+02  0.7816164E-02  0.1320468E+00
        -11   -1    0    0    0    0  0.00000000000E+00  0.00000000000E+00  0.45593999997E+02  0.45594000000E+02  0.51100000000E-03 0. -1.
         11   -1    0    0    0    0 -0.00000000000E+00 -0.00000000000E+00 -0.45593999997E+02  0.45594000000E+02  0.51100000000E-03 0.  1.
    9900012    2    1    2    0    0  0.20365215459E+02 -0.12773000956E+02 -0.38094906754E+02  0.46142317913E+02  0.10000001383E+02 0.  0.
         12    1    1    2    0    0 -0.20365215459E+02  0.12773000956E+02  0.38094906754E+02  0.45045682087E+02  0.00000000000E+00 0. -1.
         11    1    3    3    0    0  0.82942610001E+01 -0.41642941749E+01 -0.94162918351E+01  0.13221295840E+02  0.51100000000E-03 0. -1.
        -11    1    3    3    0    0  0.88667264875E+01 -0.42637930035E+01 -0.23338128602E+02  0.25327199140E+02  0.51100000000E-03 0.  1.
         12    1    3    3    0    0  0.32042279712E+01 -0.43449137774E+01 -0.53404863171E+01  0.75938229323E+01  0.00000000000E+00 0. -1.
</event>
<event>
 7    1  0.5664398E-009  0.4614232E+02  0.7816164E-02  0.1320468E+00
        -11   -1    0    0    0    0  0.00000000000E+00  0.00000000000E+00  0.45593999997E+02  0.45594000000E+02  0.51100000000E-03 0. -1.
         11   -1    0    0    0    0 -0.00000000000E+00 -0.00000000000E+00 -0.45593999997E+02  0.45594000000E+02  0.51100000000E-03 0.  1.
    9900012    2    1    2    0    0  0.72989039577E+01 -0.41482455136E+02 -0.15970140022E+02  0.46142318127E+02  0.10000003335E+02 0.  0.
         12    1    1    2    0    0 -0.72989039577E+01  0.41482455136E+02  0.15970140022E+02  0.45045681873E+02  0.00000000000E+00 0. -1.
         11    1    3    3    0    0  0.26373846059E+01 -0.64885070493E+01 -0.58768527373E+01  0.91429710513E+01  0.51100000000E-03 0. -1.
        -11    1    3    3    0    0  0.34167142689E+01 -0.10019006946E+02 -0.32716127302E+01  0.11079615819E+02  0.51100000000E-03 0.  1.
        -12    1    3    3    0    0  0.12448050829E+01 -0.24974941141E+02 -0.68216745541E+01  0.25919731256E+02  0.00000000000E+00 0.  1.
</event>
<event>
 7    1  0.5664398E-009  0.4614232E+02  0.7816164E-02  0.1320468E+00
        -11   -1    0    0    0    0  0.00000000000E+00  0.00000000000E+00  0.45593999997E+02  0.45594000000E+02  0.51100000000E-03 0. -1.
         11   -1    0    0    0    0 -0.00000000000E+00 -0.00000000000E+00 -0.45593999997E+02  0.45594000000E+02  0.51100000000E-03 0.  1.
    9900012    2    1    2    0    0  0.27621469384E+02 -0.29230523278E+02 -0.20291486529E+02  0.46142317770E+02  0.10000000079E+02 0.  0.
         12    1    1    2    0    0 -0.27621469384E+02  0.29230523278E+02  0.20291486529E+02  0.45045682230E+02  0.00000000000E+00 0. -1.
         11    1    3    3    0    0  0.67180917239E+00 -0.23218731193E+01 -0.27241750573E+01  0.36419160273E+01  0.51100000000E-03 0. -1.
        -11    1    3    3    0    0  0.69423319764E+01 -0.86521884453E+01 -0.83699997593E+01  0.13896518787E+02  0.51100000000E-03 0.  1.
        -12    1    3    3    0    0  0.20007328235E+02 -0.18256461713E+02 -0.91973117127E+01  0.28603882956E+02  0.00000000000E+00 0.  1.
</event>
<event>
 7    1  0.5664398E-009  0.4614232E+02  0.7816164E-02  0.1320468E+00
        -11   -1    0    0    0    0  0.00000000000E+00  0.00000000000E+00  0.45593999997E+02  0.45594000000E+02  0.51100000000E-03 0.  1.
         11   -1    0    0    0    0 -0.00000000000E+00 -0.00000000000E+00 -0.45593999997E+02  0.45594000000E+02  0.51100000000E-03 0. -1.
    9900012    2    1    2    0    0  0.16246472796E+02 -0.20109087338E+02  0.36888889922E+02  0.46142317948E+02  0.10000001702E+02 0.  0.
        -12    1    1    2    0    0 -0.16246472796E+02  0.20109087338E+02 -0.36888889922E+02  0.45045682052E+02  0.00000000000E+00 0.  1.
         11    1    3    3    0    0  0.55483022445E+00 -0.79054651647E+00  0.63589124162E+01  0.64318401528E+01  0.51100000000E-03 0. -1.
        -11    1    3    3    0    0  0.54121089212E+01 -0.33148920568E+01  0.84396813174E+01  0.10559718430E+02  0.51100000000E-03 0.  1.
         12    1    3    3    0    0  0.10279533650E+02 -0.16003648765E+02  0.22090296188E+02  0.29150759365E+02  0.00000000000E+00 0. -1.
</event>
<event>
 7    1  0.5664398E-009  0.4614232E+02  0.7816164E-02  0.1320468E+00
        -11   -1    0    0    0    0  0.00000000000E+00  0.00000000000E+00  0.45593999997E+02  0.45594000000E+02  0.51100000000E-03 0. -1.
         11   -1    0    0    0    0 -0.00000000000E+00 -0.00000000000E+00 -0.45593999997E+02  0.45594000000E+02  0.51100000000E-03 0.  1.
    9900012    2    1    2    0    0  0.25222370419E+02 -0.53253496329E+01  0.36940305408E+02  0.46142317833E+02  0.10000000657E+02 0.  0.
        -12    1    1    2    0    0 -0.25222370419E+02  0.53253496329E+01 -0.36940305408E+02  0.45045682167E+02  0.00000000000E+00 0.  1.
         11    1    3    3    0    0  0.12006608833E+02 -0.11941434556E+01  0.15387842520E+02  0.19554291906E+02  0.51100000000E-03 0. -1.
        -11    1    3    3    0    0  0.13876422158E+02 -0.45039391863E+01  0.21239695287E+02  0.25767522509E+02  0.51100000000E-03 0.  1.
        -12    1    3    3    0    0 -0.66066057181E+00  0.37273300899E+00  0.31276759993E+00  0.82050341785E+00  0.00000000000E+00 0.  1.
</event>
<event>
 7    1  0.5664398E-009  0.4614232E+02  0.7816164E-02  0.1320468E+00
        -11   -1    0    0    0    0  0.00000000000E+00  0.00000000000E+00  0.45593999997E+02  0.45594000000E+02  0.51100000000E-03 0. -1.
         11   -1    0    0    0    0 -0.00000000000E+00 -0.00000000000E+00 -0.45593999997E+02  0.45594000000E+02  0.51100000000E-03 0.  1.
    9900012    2    1    2    0    0 -0.20830681675E+02  0.98122636409E+01 -0.38715831613E+02  0.46142318361E+02  0.10000005472E+02 0.  0.
         12    1    1    2    0    0  0.20830681675E+02 -0.98122636409E+01  0.38715831613E+02  0.45045681639E+02  0.00000000000E+00 0. -1.
         11    1    3    3    0    0 -0.69917618460E+01  0.45409803353E+01 -0.70052438748E+01  0.10889383735E+02  0.51100000000E-03 0. -1.
        -11    1    3    3    0    0 -0.86193367224E+01  0.12370004796E+01 -0.16058194138E+02  0.18267149065E+02  0.51100000000E-03 0.  1.
        -12    1    3    3    0    0 -0.52195831067E+01  0.40342828260E+01 -0.15652393600E+02  0.16985785561E+02  0.00000000000E+00 0.  1.
</event>
<event>
 7    1  0.5664398E-009  0.4614232E+02  0.7816164E-02  0.1320468E+00
        -11   -1    0    0    0    0  0.00000000000E+00  0.00000000000E+00  0.45593999997E+02  0.45594000000E+02  0.51100000000E-03 0. -1.
         11   -1    0    0    0    0 -0.00000000000E+00 -0.00000000000E+00 -0.45593999997E+02  0.45594000000E+02  0.51100000000E-03 0.  1.
    9900012    2    1    2    0    0  0.69479837444E+01 -0.15500607430E+02 -0.41720140935E+02  0.46142317982E+02  0.10000002016E+02 0.  0.
         12    1    1    2    0    0 -0.69479837444E+01  0.15500607430E+02  0.41720140935E+02  0.45045682018E+02  0.00000000000E+00 0. -1.
         11    1    3    3    0    0  0.23513670647E+01 -0.62224048371E+00 -0.24315800158E+01  0.34392865433E+01  0.51100000000E-03 0. -1.
        -11    1    3    3    0    0 -0.70079295781E+00 -0.73138201792E+01 -0.20278876939E+02  0.21568864749E+02  0.51100000000E-03 0.  1.
         12    1    3    3    0    0  0.52974096375E+01 -0.75645467670E+01 -0.19009683980E+02  0.21134166690E+02  0.00000000000E+00 0. -1.
</event>
<event>
 7    1  0.5664398E-009  0.4614232E+02  0.7816164E-02  0.1320468E+00
        -11   -1    0    0    0    0  0.00000000000E+00  0.00000000000E+00  0.45593999997E+02  0.45594000000E+02  0.51100000000E-03 0. -1.
         11   -1    0    0    0    0 -0.00000000000E+00 -0.00000000000E+00 -0.45593999997E+02  0.45594000000E+02  0.51100000000E-03 0.  1.
    9900012    2    1    2    0    0 -0.18391985551E+02  0.13107835050E+02  0.38974773013E+02  0.46142318702E+02  0.10000008582E+02 0.  0.
        -12    1    1    2    0    0  0.18391985551E+02 -0.13107835050E+02 -0.38974773013E+02  0.45045681298E+02  0.00000000000E+00 0.  1.
         11    1    3    3    0    0 -0.12197376347E+02  0.77018148433E+01  0.19838570906E+02  0.24528816472E+02  0.51100000000E-03 0. -1.
        -11    1    3    3    0    0 -0.69861852125E+01  0.35414554982E+01  0.16697198980E+02  0.18443024289E+02  0.51100000000E-03 0.  1.
        -12    1    3    3    0    0  0.79157600888E+00  0.18645647086E+01  0.24390031259E+01  0.31704779416E+01  0.00000000000E+00 0.  1.
</event>
<event>
 7    1  0.5664398E-009  0.4614232E+02  0.7816164E-02  0.1320468E+00
        -11   -1    0    0    0    0  0.00000000000E+00  0.00000000000E+00  0.45593999997E+02  0.45594000000E+02  0.51100000000E-03 0. -1.
         11   -1    0    0    0    0 -0.00000000000E+00 -0.00000000000E+00 -0.45593999997E+02  0.45594000000E+02  0.51100000000E-03 0.  1.
    9900012    2    1    2    0    0 -0.16398982271E+02 -0.12105167941E+02 -0.40170284669E+02  0.46142317845E+02  0.10000000768E+02 0.  0.
         12    1    1    2    0    0  0.16398982271E+02  0.12105167941E+02  0.40170284669E+02  0.45045682155E+02  0.00000000000E+00 0. -1.
         11    1    3    3    0    0 -0.58430392668E+01 -0.36235787733E+01 -0.89501997053E+01  0.11286164363E+02  0.51100000000E-03 0. -1.
        -11    1    3    3    0    0 -0.47598192597E+01  0.51116710549E+00 -0.89715181640E+01  0.10168840132E+02  0.51100000000E-03 0.  1.
        -12    1    3    3    0    0 -0.57961237446E+01 -0.89927562729E+01 -0.22248566800E+02  0.24687313351E+02  0.00000000000E+00 0.  1.
</event>
<event>
 7    1  0.5664398E-009  0.4614232E+02  0.7816164E-02  0.1320468E+00
        -11   -1    0    0    0    0  0.00000000000E+00  0.00000000000E+00  0.45593999997E+02  0.45594000000E+02  0.51100000000E-03 0. -1.
         11   -1    0    0    0    0 -0.00000000000E+00 -0.00000000000E+00 -0.45593999997E+02  0.45594000000E+02  0.51100000000E-03 0.  1.
    9900012    2    1    2    0    0  0.24544517511E+02 -0.70473788336E+01  0.37108146786E+02  0.46142318230E+02  0.10000004272E+02 0.  0.
        -12    1    1    2    0    0 -0.24544517511E+02  0.70473788336E+01 -0.37108146786E+02  0.45045681770E+02  0.00000000000E+00 0.  1.
         11    1    3    3    0    0  0.13153049652E+02  0.92360913484E+00  0.19203000495E+02  0.23294012047E+02  0.51100000000E-03 0. -1.
        -11    1    3    3    0    0  0.20582392923E+01 -0.28125966947E+01  0.36615022755E+01  0.50550616541E+01  0.51100000000E-03 0.  1.
        -12    1    3    3    0    0  0.93332285673E+01 -0.51583912737E+01  0.14243644015E+02  0.17793244529E+02  0.00000000000E+00 0.  1.
</event>
<event>
 7    1  0.5664398E-009  0.4614232E+02  0.7816164E-02  0.1320468E+00
        -11   -1    0    0    0    0  0.00000000000E+00  0.00000000000E+00  0.45593999997E+02  0.45594000000E+02  0.51100000000E-03 0. -1.
         11   -1    0    0    0    0 -0.00000000000E+00 -0.00000000000E+00 -0.45593999997E+02  0.45594000000E+02  0.51100000000E-03 0.  1.
    9900012    2    1    2    0    0 -0.31299272947E+02 -0.17067070410E+02 -0.27535142865E+02  0.46142317943E+02  0.10000001659E+02 0.  0.
         12    1    1    2    0    0  0.31299272947E+02  0.17067070410E+02  0.27535142865E+02  0.45045682057E+02  0.00000000000E+00 0. -1.
         11    1    3    3    0    0 -0.61382486104E+01 -0.56804280768E+00 -0.18426180709E+01  0.64339731310E+01  0.51100000000E-03 0. -1.
        -11    1    3    3    0    0 -0.36855340323E+01 -0.33238381665E+01 -0.55999007547E+01  0.74826432484E+01  0.51100000000E-03 0.  1.
        -12    1    3    3    0    0 -0.21475490304E+02 -0.13175189435E+02 -0.20092624040E+02  0.32225701564E+02  0.00000000000E+00 0.  1.
</event>
<event>
 7    1  0.5664398E-009  0.4614232E+02  0.7816164E-02  0.1320468E+00
        -11   -1    0    0    0    0  0.00000000000E+00  0.00000000000E+00  0.45593999997E+02  0.45594000000E+02  0.51100000000E-03 0. -1.
         11   -1    0    0    0    0 -0.00000000000E+00 -0.00000000000E+00 -0.45593999997E+02  0.45594000000E+02  0.51100000000E-03 0.  1.
    9900012    2    1    2    0    0  0.10961749763E+00 -0.30454925493E+02  0.33190343626E+02  0.46142318599E+02  0.10000007644E+02 0.  0.
        -12    1    1    2    0    0 -0.10961749763E+00  0.30454925493E+02 -0.33190343626E+02  0.45045681401E+02  0.00000000000E+00 0.  1.
         11    1    3    3    0    0  0.15656524848E+01 -0.46512132401E+01  0.97420843181E+01  0.10908403157E+02  0.51100000000E-03 0. -1.
        -11    1    3    3    0    0 -0.25344253677E+01 -0.10197515107E+02  0.11273459737E+02  0.15411149243E+02  0.51100000000E-03 0.  1.
         12    1    3    3    0    0  0.10783903805E+01 -0.15606197146E+02  0.12174799572E+02  0.19822766199E+02  0.00000000000E+00 0. -1.
</event>
<event>
 7    1  0.5664398E-009  0.4614232E+02  0.7816164E-02  0.1320468E+00
        -11   -1    0    0    0    0  0.00000000000E+00  0.00000000000E+00  0.45593999997E+02  0.45594000000E+02  0.51100000000E-03 0. -1.
         11   -1    0    0    0    0 -0.00000000000E+00 -0.00000000000E+00 -0.45593999997E+02  0.45594000000E+02  0.51100000000E-03 0.  1.
    9900012    2    1    2    0    0 -0.58504986122E+01  0.27403982307E+02  0.35269066202E+02  0.46142316399E+02  0.99999875821E+01 0.  0.
        -12    1    1    2    0    0  0.58504986122E+01 -0.27403982307E+02 -0.35269066202E+02  0.45045683601E+02  0.00000000000E+00 0.  1.
         11    1    3    3    0    0 -0.50253642573E+01  0.22410229702E+02  0.27235671118E+02  0.35626597687E+02  0.51100000000E-03 0. -1.
        -11    1    3    3    0    0 -0.24348565041E+01  0.38458752652E+01  0.68085683432E+01  0.81899869289E+01  0.51100000000E-03 0.  1.
         12    1    3    3    0    0  0.16097221491E+01  0.11478773402E+01  0.12248267403E+01  0.23257317836E+01  0.00000000000E+00 0. -1.
</event>
<event>
 7    1  0.5664398E-009  0.4614232E+02  0.7816164E-02  0.1320468E+00
        -11   -1    0    0    0    0  0.00000000000E+00  0.00000000000E+00  0.45593999997E+02  0.45594000000E+02  0.51100000000E-03 0.  1.
         11   -1    0    0    0    0 -0.00000000000E+00 -0.00000000000E+00 -0.45593999997E+02  0.45594000000E+02  0.51100000000E-03 0. -1.
    9900012    2    1    2    0    0  0.43107944553E+02  0.15466765557E+01 -0.12977921748E+02  0.46142317134E+02  0.99999942784E+01 0.  0.
         12    1    1    2    0    0 -0.43107944553E+02 -0.15466765557E+01  0.12977921748E+02  0.45045682866E+02  0.00000000000E+00 0. -1.
         11    1    3    3    0    0  0.84491591945E+01 -0.23625719765E+01 -0.38248256769E+01  0.95707538448E+01  0.51100000000E-03 0.  1.
        -11    1    3    3    0    0  0.26401082877E+02  0.51780647512E+01 -0.83911385346E+01  0.28182277016E+02  0.51100000000E-03 0. -1.
         12    1    3    3    0    0  0.82577024817E+01 -0.12688162191E+01 -0.76195753684E+00  0.83892862725E+01  0.00000000000E+00 0. -1.
</event>
<event>
 7    1  0.5664398E-009  0.4614232E+02  0.7816164E-02  0.1320468E+00
        -11   -1    0    0    0    0  0.00000000000E+00  0.00000000000E+00  0.45593999997E+02  0.45594000000E+02  0.51100000000E-03 0. -1.
         11   -1    0    0    0    0 -0.00000000000E+00 -0.00000000000E+00 -0.45593999997E+02  0.45594000000E+02  0.51100000000E-03 0.  1.
    9900012    2    1    2    0    0 -0.57492810660E+01 -0.21468298482E+02  0.39181262855E+02  0.46142318393E+02  0.10000005764E+02 0.  0.
        -12    1    1    2    0    0  0.57492810660E+01  0.21468298482E+02 -0.39181262855E+02  0.45045681607E+02  0.00000000000E+00 0.  1.
         11    1    3    3    0    0  0.12721840619E+01 -0.97870205280E+01  0.10714271527E+02  0.14567080618E+02  0.51100000000E-03 0. -1.
        -11    1    3    3    0    0 -0.44136818738E+01 -0.64506747160E+01  0.16174636559E+02  0.17964149299E+02  0.51100000000E-03 0.  1.
         12    1    3    3    0    0 -0.26077832540E+01 -0.52306032381E+01  0.12292354769E+02  0.13611088476E+02  0.00000000000E+00 0. -1.
</event>
<event>
 7    1  0.5664398E-009  0.4614232E+02  0.7816164E-02  0.1320468E+00
        -11   -1    0    0    0    0  0.00000000000E+00  0.00000000000E+00  0.45593999997E+02  0.45594000000E+02  0.51100000000E-03 0. -1.
         11   -1    0    0    0    0 -0.00000000000E+00 -0.00000000000E+00 -0.45593999997E+02  0.45594000000E+02  0.51100000000E-03 0.  1.
    9900012    2    1    2    0    0  0.72619117998E+01 -0.16161799827E+02 -0.41414661687E+02  0.46142319415E+02  0.10000015086E+02 0.  0.
         12    1    1    2    0    0 -0.72619117998E+01  0.16161799827E+02  0.41414661687E+02  0.45045680585E+02  0.00000000000E+00 0. -1.
         11    1    3    3    0    0 -0.54971588133E+00 -0.14087005657E+01 -0.47736693505E+00  0.15857188546E+01  0.51100000000E-03 0. -1.
        -11    1    3    3    0    0  0.27128268110E+01 -0.10346490946E+01 -0.81302860438E+01  0.86331616150E+01  0.51100000000E-03 0.  1.
        -12    1    3    3    0    0  0.50988008701E+01 -0.13718450167E+02 -0.32807008708E+02  0.35923438946E+02  0.00000000000E+00 0.  1.
</event>
<event>
 7    1  0.5664398E-009  0.4614232E+02  0.7816164E-02  0.1320468E+00
        -11   -1    0    0    0    0  0.00000000000E+00  0.00000000000E+00  0.45593999997E+02  0.45594000000E+02  0.51100000000E-03 0. -1.
         11   -1    0    0    0    0 -0.00000000000E+00 -0.00000000000E+00 -0.45593999997E+02  0.45594000000E+02  0.51100000000E-03 0.  1.
    9900012    2    1    2    0    0 -0.47455696788E+01  0.38344487154E+02 -0.23158009559E+02  0.46142317261E+02  0.99999954397E+01 0.  0.
         12    1    1    2    0    0  0.47455696788E+01 -0.38344487154E+02  0.23158009559E+02  0.45045682739E+02  0.00000000000E+00 0. -1.
         11    1    3    3    0    0  0.11403245331E+01  0.12933706461E+02 -0.88933072531E+01  0.15737598833E+02  0.51100000000E-03 0. -1.
        -11    1    3    3    0    0  0.32103661046E+00  0.11802587913E+02 -0.50844065063E+01  0.12855167667E+02  0.51100000000E-03 0.  1.
        -12    1    3    3    0    0 -0.62069308224E+01  0.13608192780E+02 -0.91802957996E+01  0.17549550762E+02  0.00000000000E+00 0.  1.
</event>
<event>
 7    1  0.5664398E-009  0.4614232E+02  0.7816164E-02  0.1320468E+00
        -11   -1    0    0    0    0  0.00000000000E+00  0.00000000000E+00  0.45593999997E+02  0.45594000000E+02  0.51100000000E-03 0. -1.
         11   -1    0    0    0    0 -0.00000000000E+00 -0.00000000000E+00 -0.45593999997E+02  0.45594000000E+02  0.51100000000E-03 0.  1.
    9900012    2    1    2    0    0 -0.23486448665E+02  0.38359183887E+02 -0.24644070860E+01  0.46142316947E+02  0.99999925768E+01 0.  0.
         12    1    1    2    0    0  0.23486448665E+02 -0.38359183887E+02  0.24644070860E+01  0.45045683053E+02  0.00000000000E+00 0. -1.
         11    1    3    3    0    0 -0.22818822411E+00  0.30099439457E+01  0.50665392295E+00  0.30608055934E+01  0.51100000000E-03 0. -1.
        -11    1    3    3    0    0 -0.20730316561E+02  0.27408926558E+02 -0.42508241621E+00  0.34368240792E+02  0.51100000000E-03 0.  1.
        -12    1    3    3    0    0 -0.25279438800E+01  0.79403133835E+01 -0.25459785928E+01  0.87132705618E+01  0.00000000000E+00 0.  1.
</event>
<event>
 7    1  0.5664398E-009  0.4614232E+02  0.7816164E-02  0.1320468E+00
        -11   -1    0    0    0    0  0.00000000000E+00  0.00000000000E+00  0.45593999997E+02  0.45594000000E+02  0.51100000000E-03 0. -1.
         11   -1    0    0    0    0 -0.00000000000E+00 -0.00000000000E+00 -0.45593999997E+02  0.45594000000E+02  0.51100000000E-03 0.  1.
    9900012    2    1    2    0    0  0.44525564536E+01 -0.23176470730E+02 -0.38368469984E+02  0.46142317151E+02  0.99999944356E+01 0.  0.
         12    1    1    2    0    0 -0.44525564536E+01  0.23176470730E+02  0.38368469984E+02  0.45045682849E+02  0.00000000000E+00 0. -1.
         11    1    3    3    0    0 -0.38927448577E+00 -0.47723855834E+00 -0.52560947485E+01  0.52920528657E+01  0.51100000000E-03 0. -1.
        -11    1    3    3    0    0  0.42508590773E+01 -0.14660282969E+02 -0.17087926607E+02  0.22912680673E+02  0.51100000000E-03 0.  1.
        -12    1    3    3    0    0  0.59097186202E+00 -0.80389492028E+01 -0.16024448628E+02  0.17937583613E+02  0.00000000000E+00 0.  1.
</event>
<event>
 7    1  0.5664398E-009  0.4614232E+02  0.7816164E-02  0.1320468E+00
        -11   -1    0    0    0    0  0.00000000000E+00  0.00000000000E+00  0.45593999997E+02  0.45594000000E+02  0.51100000000E-03 0. -1.
         11   -1    0    0    0    0 -0.00000000000E+00 -0.00000000000E+00 -0.45593999997E+02  0.45594000000E+02  0.51100000000E-03 0.  1.
    9900012    2    1    2    0    0  0.31798073021E+01  0.29697607903E+02  0.33720234961E+02  0.46142319459E+02  0.10000015478E+02 0.  0.
        -12    1    1    2    0    0 -0.31798073021E+01 -0.29697607903E+02 -0.33720234961E+02  0.45045680541E+02  0.00000000000E+00 0.  1.
         11    1    3    3    0    0  0.18307654975E+01  0.20156365087E+02  0.24782550085E+02  0.31996961493E+02  0.51100000000E-03 0. -1.
        -11    1    3    3    0    0  0.13614955888E+01 -0.57096841973E-01  0.12211313680E+01  0.18297793219E+01  0.51100000000E-03 0.  1.
        -12    1    3    3    0    0 -0.12453784164E-01  0.95983396574E+01  0.77165535080E+01  0.12315578643E+02  0.00000000000E+00 0.  1.
</event>
<event>
 7    1  0.5664398E-009  0.4614232E+02  0.7816164E-02  0.1320468E+00
        -11   -1    0    0    0    0  0.00000000000E+00  0.00000000000E+00  0.45593999997E+02  0.45594000000E+02  0.51100000000E-03 0. -1.
         11   -1    0    0    0    0 -0.00000000000E+00 -0.00000000000E+00 -0.45593999997E+02  0.45594000000E+02  0.51100000000E-03 0.  1.
    9900012    2    1    2    0    0  0.31951934596E+02  0.11550969234E+02 -0.29576383373E+02  0.46142317986E+02  0.10000002051E+02 0.  0.
         12    1    1    2    0    0 -0.31951934596E+02 -0.11550969234E+02  0.29576383373E+02  0.45045682014E+02  0.00000000000E+00 0. -1.
         11    1    3    3    0    0  0.11531688165E+02  0.76503909284E+01 -0.96143518662E+01  0.16850640206E+02  0.51100000000E-03 0. -1.
        -11    1    3    3    0    0  0.92447681322E+01  0.40440116725E+01 -0.11314860244E+02  0.15160667229E+02  0.51100000000E-03 0.  1.
         12    1    3    3    0    0  0.11175478299E+02 -0.14343336699E+00 -0.86471712635E+01  0.14131010551E+02  0.00000000000E+00 0. -1.
</event>
<event>
 7    1  0.5664398E-009  0.4614232E+02  0.7816164E-02  0.1320468E+00
        -11   -1    0    0    0    0  0.00000000000E+00  0.00000000000E+00  0.45593999997E+02  0.45594000000E+02  0.51100000000E-03 0. -1.
         11   -1    0    0    0    0 -0.00000000000E+00 -0.00000000000E+00 -0.45593999997E+02  0.45594000000E+02  0.51100000000E-03 0.  1.
    9900012    2    1    2    0    0  0.11022423984E+02 -0.22004418590E+02  0.37728307750E+02  0.46142317924E+02  0.10000001490E+02 0.  0.
        -12    1    1    2    0    0 -0.11022423984E+02  0.22004418590E+02 -0.37728307750E+02  0.45045682076E+02  0.00000000000E+00 0.  1.
         11    1    3    3    0    0 -0.43266660113E+00 -0.15975220107E+01  0.97115742500E+00  0.19189642956E+01  0.51100000000E-03 0.  1.
        -11    1    3    3    0    0  0.68503243053E+01 -0.79275677319E+01  0.21928007732E+02  0.24302485400E+02  0.51100000000E-03 0. -1.
         12    1    3    3    0    0  0.46047662795E+01 -0.12479328847E+02  0.14829142593E+02  0.19920868229E+02  0.00000000000E+00 0. -1.
</event>
<event>
 7    1  0.5664398E-009  0.4614232E+02  0.7816164E-02  0.1320468E+00
        -11   -1    0    0    0    0  0.00000000000E+00  0.00000000000E+00  0.45593999997E+02  0.45594000000E+02  0.51100000000E-03 0. -1.
         11   -1    0    0    0    0 -0.00000000000E+00 -0.00000000000E+00 -0.45593999997E+02  0.45594000000E+02  0.51100000000E-03 0.  1.
    9900012    2    1    2    0    0  0.21323044519E+02 -0.39211647309E+02  0.60735482493E+01  0.46142317625E+02  0.99999987611E+01 0.  0.
         12    1    1    2    0    0 -0.21323044519E+02  0.39211647309E+02 -0.60735482493E+01  0.45045682375E+02  0.00000000000E+00 0. -1.
         11    1    3    3    0    0  0.76913880233E+01 -0.13282882520E+02  0.35606055661E+01  0.15756596397E+02  0.51100000000E-03 0. -1.
        -11    1    3    3    0    0  0.13356269899E+02 -0.26053949369E+02  0.14865318587E+01  0.29315661353E+02  0.51100000000E-03 0.  1.
        -12    1    3    3    0    0  0.27538659604E+00  0.12518457898E+00  0.10264108245E+01  0.10700598753E+01  0.00000000000E+00 0.  1.
</event>
<event>
 7    1  0.5664398E-009  0.4614232E+02  0.7816164E-02  0.1320468E+00
        -11   -1    0    0    0    0  0.00000000000E+00  0.00000000000E+00  0.45593999997E+02  0.45594000000E+02  0.51100000000E-03 0. -1.
         11   -1    0    0    0    0 -0.00000000000E+00 -0.00000000000E+00 -0.45593999997E+02  0.45594000000E+02  0.51100000000E-03 0.  1.
    9900012    2    1    2    0    0 -0.88816070237E+01 -0.29227511764E+01  0.44064590635E+02  0.46142316904E+02  0.99999921871E+01 0.  0.
        -12    1    1    2    0    0  0.88816070237E+01  0.29227511764E+01 -0.44064590635E+02  0.45045683096E+02  0.00000000000E+00 0.  1.
         11    1    3    3    0    0 -0.70105565973E+00 -0.31531613586E+01  0.88842278534E+01  0.94532222234E+01  0.51100000000E-03 0.  1.
        -11    1    3    3    0    0 -0.63526637193E+00  0.24171902806E+01  0.10250173488E+02  0.10550470558E+02  0.51100000000E-03 0. -1.
        -12    1    3    3    0    0 -0.75452849921E+01 -0.21867800983E+01  0.24930189294E+02  0.26138624123E+02  0.00000000000E+00 0.  1.
</event>
<event>
 7    1  0.5664398E-009  0.4614232E+02  0.7816164E-02  0.1320468E+00
        -11   -1    0    0    0    0  0.00000000000E+00  0.00000000000E+00  0.45593999997E+02  0.45594000000E+02  0.51100000000E-03 0. -1.
         11   -1    0    0    0    0 -0.00000000000E+00 -0.00000000000E+00 -0.45593999997E+02  0.45594000000E+02  0.51100000000E-03 0.  1.
    9900012    2    1    2    0    0 -0.48374686764E+01 -0.28212365766E+02  0.34781817231E+02  0.46142317685E+02  0.99999993040E+01 0.  0.
        -12    1    1    2    0    0  0.48374686764E+01  0.28212365766E+02 -0.34781817231E+02  0.45045682315E+02  0.00000000000E+00 0.  1.
         11    1    3    3    0    0 -0.15467008689E+01 -0.10227173211E+01  0.72432959161E+00  0.19907003580E+01  0.51100000000E-03 0.  1.
        -11    1    3    3    0    0 -0.30837079180E+01 -0.47970546322E+01  0.70582075635E+01  0.90740995111E+01  0.51100000000E-03 0. -1.
        -12    1    3    3    0    0 -0.20705988952E+00 -0.22392593813E+02  0.26999280076E+02  0.35077517816E+02  0.00000000000E+00 0.  1.
</event>
<event>
 7    1  0.6268768E-009  0.4614232E+02  0.7816164E-02  0.1320468E+00
        -11   -1    0    0    0    0  0.00000000000E+00  0.00000000000E+00  0.45593999997E+02  0.45594000000E+02  0.51100000000E-03 0. -1.
         11   -1    0    0    0    0 -0.00000000000E+00 -0.00000000000E+00 -0.45593999997E+02  0.45594000000E+02  0.51100000000E-03 0.  1.
    9900012    2    1    2    0    0  0.47521527762E+01 -0.26972283697E+02  0.35763478823E+02  0.46142318061E+02  0.10000002736E+02 0.  0.
        -12    1    1    2    0    0 -0.47521527762E+01  0.26972283697E+02 -0.35763478823E+02  0.45045681939E+02  0.00000000000E+00 0.  1.
         11    1    3    3    0    0  0.15924981795E+01 -0.53975336610E+01  0.52948506566E+01  0.77268922479E+01  0.51100000000E-03 0.  1.
        -11    1    3    3    0    0  0.17629274412E+00 -0.13676832518E+02  0.12358976653E+02  0.18434509243E+02  0.51100000000E-03 0. -1.
         12    1    3    3    0    0  0.29833618526E+01 -0.78979175177E+01  0.18109651513E+02  0.19980916570E+02  0.00000000000E+00 0. -1.
</event>
<event>
 7    1  0.5664398E-009  0.4614232E+02  0.7816164E-02  0.1320468E+00
        -11   -1    0    0    0    0  0.00000000000E+00  0.00000000000E+00  0.45593999997E+02  0.45594000000E+02  0.51100000000E-03 0. -1.
         11   -1    0    0    0    0 -0.00000000000E+00 -0.00000000000E+00 -0.45593999997E+02  0.45594000000E+02  0.51100000000E-03 0.  1.
    9900012    2    1    2    0    0 -0.44356157952E+02 -0.63820366846E+01 -0.45732052137E+01  0.46142319336E+02  0.10000014363E+02 0.  0.
         12    1    1    2    0    0  0.44356157952E+02  0.63820366846E+01  0.45732052137E+01  0.45045680664E+02  0.00000000000E+00 0. -1.
         11    1    3    3    0    0 -0.24195576829E+01  0.77414879342E+00 -0.73523088380E+00  0.26446418375E+01  0.51100000000E-03 0. -1.
        -11    1    3    3    0    0 -0.21527220729E+02 -0.48132649287E+01  0.19768741910E+01  0.22147161972E+02  0.51100000000E-03 0.  1.
        -12    1    3    3    0    0 -0.20409379540E+02 -0.23429205493E+01 -0.58148485210E+01  0.21350515526E+02  0.00000000000E+00 0.  1.
</event>
<event>
 7    1  0.5664398E-009  0.4614232E+02  0.7816164E-02  0.1320468E+00
        -11   -1    0    0    0    0  0.00000000000E+00  0.00000000000E+00  0.45593999997E+02  0.45594000000E+02  0.51100000000E-03 0. -1.
         11   -1    0    0    0    0 -0.00000000000E+00 -0.00000000000E+00 -0.45593999997E+02  0.45594000000E+02  0.51100000000E-03 0.  1.
    9900012    2    1    2    0    0 -0.25738291134E+02 -0.57267931806E+01 -0.36522015321E+02  0.46142318811E+02  0.10000009576E+02 0.  0.
         12    1    1    2    0    0  0.25738291134E+02  0.57267931806E+01  0.36522015321E+02  0.45045681189E+02  0.00000000000E+00 0. -1.
         11    1    3    3    0    0 -0.24695971842E+01 -0.14232447394E+01 -0.36235054502E+01  0.46102416259E+01  0.51100000000E-03 0. -1.
        -11    1    3    3    0    0 -0.14205978676E+02 -0.64146418449E+01 -0.24255428676E+02  0.28831983641E+02  0.51100000000E-03 0.  1.
        -12    1    3    3    0    0 -0.90627152742E+01  0.21110934036E+01 -0.86430811950E+01  0.12700093545E+02  0.00000000000E+00 0.  1.
</event>
<event>
 7    1  0.5664398E-009  0.4614232E+02  0.7816164E-02  0.1320468E+00
        -11   -1    0    0    0    0  0.00000000000E+00  0.00000000000E+00  0.45593999997E+02  0.45594000000E+02  0.51100000000E-03 0. -1.
         11   -1    0    0    0    0 -0.00000000000E+00 -0.00000000000E+00 -0.45593999997E+02  0.45594000000E+02  0.51100000000E-03 0.  1.
    9900012    2    1    2    0    0 -0.36397573128E+02 -0.54309262880E+01  0.25977590063E+02  0.46142317905E+02  0.10000001310E+02 0.  0.
        -12    1    1    2    0    0  0.36397573128E+02  0.54309262880E+01 -0.25977590063E+02  0.45045682095E+02  0.00000000000E+00 0.  1.
         11    1    3    3    0    0 -0.12735037912E+02 -0.45607983209E+01  0.87230727778E+01  0.16095778046E+02  0.51100000000E-03 0. -1.
        -11    1    3    3    0    0 -0.14360279460E+02 -0.23604904815E+00  0.14296246432E+02  0.20264649210E+02  0.51100000000E-03 0.  1.
        -12    1    3    3    0    0 -0.93022557554E+01 -0.63407891897E+00  0.29582708536E+01  0.97818906484E+01  0.00000000000E+00 0.  1.
</event>
<event>
 7    1  0.5664398E-009  0.4614232E+02  0.7816164E-02  0.1320468E+00
        -11   -1    0    0    0    0  0.00000000000E+00  0.00000000000E+00  0.45593999997E+02  0.45594000000E+02  0.51100000000E-03 0. -1.
         11   -1    0    0    0    0 -0.00000000000E+00 -0.00000000000E+00 -0.45593999997E+02  0.45594000000E+02  0.51100000000E-03 0.  1.
    9900012    2    1    2    0    0  0.19510072760E+02  0.92014951024E+01 -0.39544948034E+02  0.46142319117E+02  0.10000012363E+02 0.  0.
         12    1    1    2    0    0 -0.19510072760E+02 -0.92014951024E+01  0.39544948034E+02  0.45045680883E+02  0.00000000000E+00 0. -1.
         11    1    3    3    0    0  0.21669721584E+01  0.33028769559E+01 -0.77310044905E+01  0.86817737366E+01  0.51100000000E-03 0. -1.
        -11    1    3    3    0    0  0.14327216657E+02  0.33922546107E+01 -0.29331569990E+02  0.32819468716E+02  0.51100000000E-03 0.  1.
        -12    1    3    3    0    0  0.30158839451E+01  0.25063635358E+01 -0.24823735533E+01  0.46410766641E+01  0.00000000000E+00 0.  1.
</event>
<event>
 7    1  0.5664398E-009  0.4614232E+02  0.7816164E-02  0.1320468E+00
        -11   -1    0    0    0    0  0.00000000000E+00  0.00000000000E+00  0.45593999997E+02  0.45594000000E+02  0.51100000000E-03 0. -1.
         11   -1    0    0    0    0 -0.00000000000E+00 -0.00000000000E+00 -0.45593999997E+02  0.45594000000E+02  0.51100000000E-03 0.  1.
    9900012    2    1    2    0    0 -0.11517573526E+02 -0.23780381794E+02  0.36482219322E+02  0.46142318910E+02  0.10000010478E+02 0.  0.
        -12    1    1    2    0    0  0.11517573526E+02  0.23780381794E+02 -0.36482219322E+02  0.45045681090E+02  0.00000000000E+00 0.  1.
         11    1    3    3    0    0 -0.14172377536E+01 -0.56929355318E+00  0.10009180838E+01  0.18260600406E+01  0.51100000000E-03 0.  1.
        -11    1    3    3    0    0 -0.94747934487E+01 -0.16633098387E+02  0.21098357574E+02  0.28488109193E+02  0.51100000000E-03 0. -1.
         12    1    3    3    0    0 -0.62554232321E+00 -0.65779898536E+01  0.14382943665E+02  0.15828149676E+02  0.00000000000E+00 0. -1.
</event>
<event>
 7    1  0.5664398E-009  0.4614232E+02  0.7816164E-02  0.1320468E+00
        -11   -1    0    0    0    0  0.00000000000E+00  0.00000000000E+00  0.45593999997E+02  0.45594000000E+02  0.51100000000E-03 0. -1.
         11   -1    0    0    0    0 -0.00000000000E+00 -0.00000000000E+00 -0.45593999997E+02  0.45594000000E+02  0.51100000000E-03 0.  1.
    9900012    2    1    2    0    0 -0.70257521168E+01 -0.13632651301E+02 -0.42354492026E+02  0.46142319085E+02  0.10000012074E+02 0.  0.
         12    1    1    2    0    0  0.70257521168E+01  0.13632651301E+02  0.42354492026E+02  0.45045680915E+02  0.00000000000E+00 0. -1.
         11    1    3    3    0    0 -0.19025047519E-01 -0.71129845537E+01 -0.23124167551E+02  0.24193429612E+02  0.51100000000E-03 0. -1.
        -11    1    3    3    0    0 -0.13707944193E+01  0.46905936830E+00 -0.41815149026E+01  0.44253995495E+01  0.51100000000E-03 0.  1.
        -12    1    3    3    0    0 -0.56359326500E+01 -0.69887261156E+01 -0.15048809573E+02  0.17523489924E+02  0.00000000000E+00 0.  1.
</event>
<event>
 7    1  0.5664398E-009  0.4614232E+02  0.7816164E-02  0.1320468E+00
        -11   -1    0    0    0    0  0.00000000000E+00  0.00000000000E+00  0.45593999997E+02  0.45594000000E+02  0.51100000000E-03 0. -1.
         11   -1    0    0    0    0 -0.00000000000E+00 -0.00000000000E+00 -0.45593999997E+02  0.45594000000E+02  0.51100000000E-03 0.  1.
    9900012    2    1    2    0    0 -0.11805833994E+02 -0.39841494577E+02  0.17389398827E+02  0.46142316545E+02  0.99999889068E+01 0.  0.
        -12    1    1    2    0    0  0.11805833994E+02  0.39841494577E+02 -0.17389398827E+02  0.45045683455E+02  0.00000000000E+00 0.  1.
         11    1    3    3    0    0 -0.90560828705E+01 -0.26473162377E+02  0.11435245947E+02  0.30225912944E+02  0.51100000000E-03 0. -1.
        -11    1    3    3    0    0 -0.76787954673E+00 -0.11780390543E+02  0.33332238530E+01  0.12266932047E+02  0.51100000000E-03 0.  1.
        -12    1    3    3    0    0 -0.19818715763E+01 -0.15879416572E+01  0.26209290267E+01  0.36494715528E+01  0.00000000000E+00 0.  1.
</event>
<event>
 7    1  0.5664398E-009  0.4614232E+02  0.7816164E-02  0.1320468E+00
        -11   -1    0    0    0    0  0.00000000000E+00  0.00000000000E+00  0.45593999997E+02  0.45594000000E+02  0.51100000000E-03 0. -1.
         11   -1    0    0    0    0 -0.00000000000E+00 -0.00000000000E+00 -0.45593999997E+02  0.45594000000E+02  0.51100000000E-03 0.  1.
    9900012    2    1    2    0    0 -0.32390981443E+02 -0.16409400681E+01 -0.31260921486E+02  0.46142316796E+02  0.99999912020E+01 0.  0.
         12    1    1    2    0    0  0.32390981443E+02  0.16409400681E+01  0.31260921486E+02  0.45045683204E+02  0.00000000000E+00 0. -1.
         11    1    3    3    0    0 -0.62154253112E+01 -0.37946868343E+00 -0.45578009874E+01  0.77168036377E+01  0.51100000000E-03 0.  1.
        -11    1    3    3    0    0 -0.46595192751E+00 -0.18485862987E+01 -0.16132611557E+01  0.24973975094E+01  0.51100000000E-03 0. -1.
         12    1    3    3    0    0 -0.25709604204E+02  0.58711491399E+00 -0.25089859343E+02  0.35928115649E+02  0.00000000000E+00 0. -1.
</event>
<event>
 7    1  0.5664398E-009  0.4614232E+02  0.7816164E-02  0.1320468E+00
        -11   -1    0    0    0    0  0.00000000000E+00  0.00000000000E+00  0.45593999997E+02  0.45594000000E+02  0.51100000000E-03 0. -1.
         11   -1    0    0    0    0 -0.00000000000E+00 -0.00000000000E+00 -0.45593999997E+02  0.45594000000E+02  0.51100000000E-03 0.  1.
    9900012    2    1    2    0    0  0.31581303482E+02  0.23203147758E+02  0.22211458714E+02  0.46142315482E+02  0.99999792136E+01 0.  0.
        -12    1    1    2    0    0 -0.31581303482E+02 -0.23203147758E+02 -0.22211458714E+02  0.45045684518E+02  0.00000000000E+00 0.  1.
         11    1    3    3    0    0 -0.21527309122E+00  0.46931166451E+00  0.32073966037E+00  0.60784054908E+00  0.51100000000E-03 0.  1.
        -11    1    3    3    0    0  0.27442716458E+02  0.20692805776E+02  0.15947281428E+02  0.37889453450E+02  0.51100000000E-03 0. -1.
         12    1    3    3    0    0  0.43538601153E+01  0.20410303168E+01  0.59434376263E+01  0.76450214830E+01  0.00000000000E+00 0. -1.
</event>
<event>
 7    1  0.5664398E-009  0.4614232E+02  0.7816164E-02  0.1320468E+00
        -11   -1    0    0    0    0  0.00000000000E+00  0.00000000000E+00  0.45593999997E+02  0.45594000000E+02  0.51100000000E-03 0. -1.
         11   -1    0    0    0    0 -0.00000000000E+00 -0.00000000000E+00 -0.45593999997E+02  0.45594000000E+02  0.51100000000E-03 0.  1.
    9900012    2    1    2    0    0 -0.55044790039E+00 -0.36963018094E+02 -0.25739964604E+02  0.46142317884E+02  0.10000001122E+02 0.  0.
         12    1    1    2    0    0  0.55044790039E+00  0.36963018094E+02  0.25739964604E+02  0.45045682116E+02  0.00000000000E+00 0. -1.
         11    1    3    3    0    0 -0.91104596893E+00 -0.43190504010E+01 -0.58109115741E+01  0.72973210637E+01  0.51100000000E-03 0. -1.
        -11    1    3    3    0    0 -0.25925416744E+01 -0.20076506798E+02 -0.10122802276E+02  0.22633128898E+02  0.51100000000E-03 0.  1.
         12    1    3    3    0    0  0.29531397430E+01 -0.12567460894E+02 -0.98062507538E+01  0.16211867922E+02  0.00000000000E+00 0. -1.
</event>
<event>
 7    1  0.5664398E-009  0.4614232E+02  0.7816164E-02  0.1320468E+00
        -11   -1    0    0    0    0  0.00000000000E+00  0.00000000000E+00  0.45593999997E+02  0.45594000000E+02  0.51100000000E-03 0. -1.
         11   -1    0    0    0    0 -0.00000000000E+00 -0.00000000000E+00 -0.45593999997E+02  0.45594000000E+02  0.51100000000E-03 0.  1.
    9900012    2    1    2    0    0 -0.34639383746E+01  0.26815220532E+02  0.36028580361E+02  0.46142317365E+02  0.99999963855E+01 0.  0.
        -12    1    1    2    0    0  0.34639383746E+01 -0.26815220532E+02 -0.36028580361E+02  0.45045682635E+02  0.00000000000E+00 0.  1.
         11    1    3    3    0    0  0.32101808312E+00  0.40480832342E+00  0.50199839532E+01  0.50464999296E+01  0.51100000000E-03 0. -1.
        -11    1    3    3    0    0 -0.38319218397E+01  0.12981325463E+02  0.15955422570E+02  0.20923048186E+02  0.51100000000E-03 0.  1.
         12    1    3    3    0    0  0.46965382037E-01  0.13429086745E+02  0.15053173838E+02  0.20172769249E+02  0.00000000000E+00 0. -1.
</event>
<event>
 7    1  0.5664398E-009  0.4614232E+02  0.7816164E-02  0.1320468E+00
        -11   -1    0    0    0    0  0.00000000000E+00  0.00000000000E+00  0.45593999997E+02  0.45594000000E+02  0.51100000000E-03 0. -1.
         11   -1    0    0    0    0 -0.00000000000E+00 -0.00000000000E+00 -0.45593999997E+02  0.45594000000E+02  0.51100000000E-03 0.  1.
    9900012    2    1    2    0    0 -0.93007315508E+01  0.33072709879E+02 -0.29134270696E+02  0.46142317908E+02  0.10000001340E+02 0.  0.
         12    1    1    2    0    0  0.93007315508E+01 -0.33072709879E+02  0.29134270696E+02  0.45045682092E+02  0.00000000000E+00 0. -1.
         11    1    3    3    0    0 -0.89910175039E+01  0.16119942936E+02 -0.14800877852E+02  0.23659183026E+02  0.51100000000E-03 0. -1.
        -11    1    3    3    0    0 -0.18372643457E+01  0.11638193752E+02 -0.10103780299E+02  0.15521258669E+02  0.51100000000E-03 0.  1.
         12    1    3    3    0    0  0.15275502987E+01  0.53145731907E+01 -0.42296125452E+01  0.69618762124E+01  0.00000000000E+00 0. -1.
</event>
<event>
 7    1  0.5664398E-009  0.4614232E+02  0.7816164E-02  0.1320468E+00
        -11   -1    0    0    0    0  0.00000000000E+00  0.00000000000E+00  0.45593999997E+02  0.45594000000E+02  0.51100000000E-03 0. -1.
         11   -1    0    0    0    0 -0.00000000000E+00 -0.00000000000E+00 -0.45593999997E+02  0.45594000000E+02  0.51100000000E-03 0.  1.
    9900012    2    1    2    0    0  0.35771412039E+02  0.10093352658E+02 -0.25448847115E+02  0.46142317559E+02  0.99999981529E+01 0.  0.
         12    1    1    2    0    0 -0.35771412039E+02 -0.10093352658E+02  0.25448847115E+02  0.45045682441E+02  0.00000000000E+00 0. -1.
         11    1    3    3    0    0  0.81809673959E+01  0.26710246262E+01 -0.86334660267E+01  0.12190132730E+02  0.51100000000E-03 0. -1.
        -11    1    3    3    0    0  0.16732626726E+02  0.74567089152E+00 -0.95807513376E+01  0.19295792772E+02  0.51100000000E-03 0.  1.
        -12    1    3    3    0    0  0.10857817916E+02  0.66766571405E+01 -0.72346297510E+01  0.14656392056E+02  0.00000000000E+00 0.  1.
</event>
<event>
 7    1  0.5664398E-009  0.4614232E+02  0.7816164E-02  0.1320468E+00
        -11   -1    0    0    0    0  0.00000000000E+00  0.00000000000E+00  0.45593999997E+02  0.45594000000E+02  0.51100000000E-03 0.  1.
         11   -1    0    0    0    0 -0.00000000000E+00 -0.00000000000E+00 -0.45593999997E+02  0.45594000000E+02  0.51100000000E-03 0. -1.
    9900012    2    1    2    0    0  0.28076788400E+02 -0.35155694302E+02 -0.22101185075E+01  0.46142317493E+02  0.99999975548E+01 0.  0.
         12    1    1    2    0    0 -0.28076788400E+02  0.35155694302E+02  0.22101185075E+01  0.45045682507E+02  0.00000000000E+00 0. -1.
         11    1    3    3    0    0  0.24355546637E+01 -0.48834381038E+01 -0.13016698624E+01  0.56101906318E+01  0.51100000000E-03 0. -1.
        -11    1    3    3    0    0  0.25259918540E+02 -0.26927989367E+02 -0.20493216361E+01  0.36978099133E+02  0.51100000000E-03 0.  1.
         12    1    3    3    0    0  0.38131519612E+00 -0.33442668307E+01  0.11408729911E+01  0.35540277286E+01  0.00000000000E+00 0. -1.
</event>
<event>
 7    1  0.5664398E-009  0.4614232E+02  0.7816164E-02  0.1320468E+00
        -11   -1    0    0    0    0  0.00000000000E+00  0.00000000000E+00  0.45593999997E+02  0.45594000000E+02  0.51100000000E-03 0. -1.
         11   -1    0    0    0    0 -0.00000000000E+00 -0.00000000000E+00 -0.45593999997E+02  0.45594000000E+02  0.51100000000E-03 0.  1.
    9900012    2    1    2    0    0  0.31801735633E+02 -0.29814998921E+02 -0.11350285824E+02  0.46142317208E+02  0.99999949556E+01 0.  0.
         12    1    1    2    0    0 -0.31801735633E+02  0.29814998921E+02  0.11350285824E+02  0.45045682792E+02  0.00000000000E+00 0. -1.
         11    1    3    3    0    0  0.90041569711E+00 -0.32372344009E+01 -0.75020431095E+00  0.34428537238E+01  0.51100000000E-03 0. -1.
        -11    1    3    3    0    0  0.73924974307E+01 -0.47283367474E+01  0.36652401471E+00  0.87829679935E+01  0.51100000000E-03 0.  1.
        -12    1    3    3    0    0  0.23508822505E+02 -0.21849427773E+02 -0.10966605528E+02  0.33916495491E+02  0.00000000000E+00 0.  1.
</event>
<event>
 7    1  0.5664398E-009  0.4614232E+02  0.7816164E-02  0.1320468E+00
        -11   -1    0    0    0    0  0.00000000000E+00  0.00000000000E+00  0.45593999997E+02  0.45594000000E+02  0.51100000000E-03 0. -1.
         11   -1    0    0    0    0 -0.00000000000E+00 -0.00000000000E+00 -0.45593999997E+02  0.45594000000E+02  0.51100000000E-03 0.  1.
    9900012    2    1    2    0    0  0.42841482535E+02 -0.10245854983E+02  0.94203675121E+01  0.46142317696E+02  0.99999994084E+01 0.  0.
        -12    1    1    2    0    0 -0.42841482535E+02  0.10245854983E+02 -0.94203675121E+01  0.45045682304E+02  0.00000000000E+00 0.  1.
         11    1    3    3    0    0  0.41390636742E+01  0.57245781816E+00  0.29907094137E+01  0.51384724492E+01  0.51100000000E-03 0. -1.
        -11    1    3    3    0    0  0.99797429748E+01 -0.93071808314E+00  0.37911570118E+00  0.10030216098E+02  0.51100000000E-03 0.  1.
        -12    1    3    3    0    0  0.28722675886E+02 -0.98875947178E+01  0.60505423972E+01  0.30973629149E+02  0.00000000000E+00 0.  1.
</event>
<event>
 7    1  0.1095752E-008  0.4614231E+02  0.7816164E-02  0.1320468E+00
        -11   -1    0    0    0    0  0.00000000000E+00  0.00000000000E+00  0.45593999997E+02  0.45594000000E+02  0.51100000000E-03 0. -1.
         11   -1    0    0    0    0 -0.00000000000E+00 -0.00000000000E+00 -0.45593999997E+02  0.45594000000E+02  0.51100000000E-03 0.  1.
    9900012    2    1    2    0    0 -0.18775812502E+02  0.19418743418E+02  0.36048511842E+02  0.46142312780E+02  0.99999545797E+01 0.  0.
        -12    1    1    2    0    0  0.18775812502E+02 -0.19418743418E+02 -0.36048511842E+02  0.45045687220E+02  0.00000000000E+00 0.  1.
         11    1    3    3    0    0 -0.65138038021E+01  0.46840007723E+01  0.66095160158E+01  0.10394960579E+02  0.51100000000E-03 0. -1.
        -11    1    3    3    0    0 -0.18495872874E+01  0.17271742544E+01  0.87249662719E+00  0.26768180111E+01  0.51100000000E-03 0.  1.
         12    1    3    3    0    0 -0.10412421413E+02  0.13007568391E+02  0.28566499199E+02  0.33070534190E+02  0.00000000000E+00 0. -1.
</event>
<event>
 7    1  0.5664398E-009  0.4614232E+02  0.7816164E-02  0.1320468E+00
        -11   -1    0    0    0    0  0.00000000000E+00  0.00000000000E+00  0.45593999997E+02  0.45594000000E+02  0.51100000000E-03 0.  1.
         11   -1    0    0    0    0 -0.00000000000E+00 -0.00000000000E+00 -0.45593999997E+02  0.45594000000E+02  0.51100000000E-03 0. -1.
    9900012    2    1    2    0    0 -0.41448259423E+02 -0.14966667862E+02  0.93356381391E+01  0.46142317681E+02  0.99999992696E+01 0.  0.
         12    1    1    2    0    0  0.41448259423E+02  0.14966667862E+02 -0.93356381391E+01  0.45045682319E+02  0.00000000000E+00 0. -1.
         11    1    3    3    0    0 -0.31367540140E+02 -0.80851176552E+01  0.61505393853E+01  0.32971515539E+02  0.51100000000E-03 0. -1.
        -11    1    3    3    0    0 -0.94764364882E+00 -0.15966681130E+01  0.16952731813E+01  0.25142253218E+01  0.51100000000E-03 0.  1.
        -12    1    3    3    0    0 -0.91330756342E+01 -0.52848820943E+01  0.14898255725E+01  0.10656576820E+02  0.00000000000E+00 0.  1.
</event>
<event>
 7    1  0.5664398E-009  0.4614232E+02  0.7816164E-02  0.1320468E+00
        -11   -1    0    0    0    0  0.00000000000E+00  0.00000000000E+00  0.45593999997E+02  0.45594000000E+02  0.51100000000E-03 0. -1.
         11   -1    0    0    0    0 -0.00000000000E+00 -0.00000000000E+00 -0.45593999997E+02  0.45594000000E+02  0.51100000000E-03 0.  1.
    9900012    2    1    2    0    0  0.23626795865E+02 -0.47488913303E+01 -0.38057010904E+02  0.46142317291E+02  0.99999957173E+01 0.  0.
         12    1    1    2    0    0 -0.23626795865E+02  0.47488913303E+01  0.38057010904E+02  0.45045682709E+02  0.00000000000E+00 0. -1.
         11    1    3    3    0    0  0.11103364875E+02  0.23252279275E+01 -0.17000744239E+02  0.20438118832E+02  0.51100000000E-03 0. -1.
        -11    1    3    3    0    0  0.71183740269E+01 -0.21675194617E+01 -0.10450539105E+02  0.12828996736E+02  0.51100000000E-03 0.  1.
         12    1    3    3    0    0  0.54050569636E+01 -0.49065997961E+01 -0.10605727560E+02  0.12875201724E+02  0.00000000000E+00 0. -1.
</event>
<event>
 7    1  0.5664398E-009  0.4614232E+02  0.7816164E-02  0.1320468E+00
        -11   -1    0    0    0    0  0.00000000000E+00  0.00000000000E+00  0.45593999997E+02  0.45594000000E+02  0.51100000000E-03 0. -1.
         11   -1    0    0    0    0 -0.00000000000E+00 -0.00000000000E+00 -0.45593999997E+02  0.45594000000E+02  0.51100000000E-03 0.  1.
    9900012    2    1    2    0    0  0.25291276238E+02  0.24578834212E+02  0.28024021196E+02  0.46142317532E+02  0.99999979140E+01 0.  0.
        -12    1    1    2    0    0 -0.25291276238E+02 -0.24578834212E+02 -0.28024021196E+02  0.45045682468E+02  0.00000000000E+00 0.  1.
         11    1    3    3    0    0  0.44548250695E+01  0.85042823794E+01  0.82812691674E+01  0.12678631806E+02  0.51100000000E-03 0. -1.
        -11    1    3    3    0    0  0.55830680315E+01  0.25619344705E+01  0.20470960674E+01  0.64749331615E+01  0.51100000000E-03 0.  1.
         12    1    3    3    0    0  0.15253383137E+02  0.13512617362E+02  0.17695655961E+02  0.26988752565E+02  0.00000000000E+00 0. -1.
</event>
<event>
 7    1  0.6487497E-009  0.4614232E+02  0.7816164E-02  0.1320468E+00
        -11   -1    0    0    0    0  0.00000000000E+00  0.00000000000E+00  0.45593999997E+02  0.45594000000E+02  0.51100000000E-03 0. -1.
         11   -1    0    0    0    0 -0.00000000000E+00 -0.00000000000E+00 -0.45593999997E+02  0.45594000000E+02  0.51100000000E-03 0.  1.
    9900012    2    1    2    0    0  0.28615009438E+02 -0.17849905991E+02 -0.29860937004E+02  0.46142317990E+02  0.10000002087E+02 0.  0.
         12    1    1    2    0    0 -0.28615009438E+02  0.17849905991E+02  0.29860937004E+02  0.45045682010E+02  0.00000000000E+00 0. -1.
         11    1    3    3    0    0  0.53012312161E+01 -0.42516444432E+01 -0.70317117040E+01  0.97787781766E+01  0.51100000000E-03 0. -1.
        -11    1    3    3    0    0  0.22937571129E+02 -0.13547258164E+02 -0.23545097431E+02  0.35553227510E+02  0.51100000000E-03 0.  1.
         12    1    3    3    0    0  0.37620709205E+00 -0.51003382955E-01  0.71587213076E+00  0.81031230324E+00  0.00000000000E+00 0. -1.
</event>
<event>
 7    1  0.5664398E-009  0.4614232E+02  0.7816164E-02  0.1320468E+00
        -11   -1    0    0    0    0  0.00000000000E+00  0.00000000000E+00  0.45593999997E+02  0.45594000000E+02  0.51100000000E-03 0. -1.
         11   -1    0    0    0    0 -0.00000000000E+00 -0.00000000000E+00 -0.45593999997E+02  0.45594000000E+02  0.51100000000E-03 0.  1.
    9900012    2    1    2    0    0 -0.71719756063E+01  0.30229620175E+02  0.32616656870E+02  0.46142317905E+02  0.10000001313E+02 0.  0.
        -12    1    1    2    0    0  0.71719756063E+01 -0.30229620175E+02 -0.32616656870E+02  0.45045682095E+02  0.00000000000E+00 0.  1.
         11    1    3    3    0    0  0.16706765821E+01  0.41213818067E+01  0.57118196467E+01  0.72389109800E+01  0.51100000000E-03 0. -1.
        -11    1    3    3    0    0 -0.15931430889E+00  0.27830611136E+01  0.51081294810E+01  0.58192608867E+01  0.51100000000E-03 0.  1.
         12    1    3    3    0    0 -0.86833378796E+01  0.23325177255E+02  0.21796707742E+02  0.33084146038E+02  0.00000000000E+00 0. -1.
</event>
<event>
 7    1  0.8259282E-009  0.4614232E+02  0.7816164E-02  0.1320468E+00
        -11   -1    0    0    0    0  0.00000000000E+00  0.00000000000E+00  0.45593999997E+02  0.45594000000E+02  0.51100000000E-03 0. -1.
         11   -1    0    0    0    0 -0.00000000000E+00 -0.00000000000E+00 -0.45593999997E+02  0.45594000000E+02  0.51100000000E-03 0.  1.
    9900012    2    1    2    0    0 -0.19805155004E+02 -0.81422193532E+00  0.40450048509E+02  0.46142317116E+02  0.99999941184E+01 0.  0.
        -12    1    1    2    0    0  0.19805155004E+02  0.81422193532E+00 -0.40450048509E+02  0.45045682884E+02  0.00000000000E+00 0.  1.
         11    1    3    3    0    0 -0.78524985539E+01 -0.28436138033E+01  0.12336690353E+02  0.14897711305E+02  0.51100000000E-03 0. -1.
        -11    1    3    3    0    0 -0.41797748094E-01  0.37578906748E+00 -0.23915948413E+00  0.44739467470E+00  0.51100000000E-03 0.  1.
         12    1    3    3    0    0 -0.11910858702E+02  0.16536028006E+01  0.28352517640E+02  0.30797211136E+02  0.00000000000E+00 0. -1.
</event>
<event>
 7    1  0.5664398E-009  0.4614232E+02  0.7816164E-02  0.1320468E+00
        -11   -1    0    0    0    0  0.00000000000E+00  0.00000000000E+00  0.45593999997E+02  0.45594000000E+02  0.51100000000E-03 0.  1.
         11   -1    0    0    0    0 -0.00000000000E+00 -0.00000000000E+00 -0.45593999997E+02  0.45594000000E+02  0.51100000000E-03 0. -1.
    9900012    2    1    2    0    0 -0.28632210368E+02 -0.34771166025E+02 -0.52541358818E+00  0.46142317446E+02  0.99999971287E+01 0.  0.
         12    1    1    2    0    0  0.28632210368E+02  0.34771166025E+02  0.52541358818E+00  0.45045682554E+02  0.00000000000E+00 0. -1.
         11    1    3    3    0    0 -0.59052421036E+01 -0.13142809490E+02  0.24500702404E+01  0.14615340230E+02  0.51100000000E-03 0. -1.
        -11    1    3    3    0    0 -0.14633977410E+02 -0.13607629873E+02 -0.15316128036E+01  0.20041624776E+02  0.51100000000E-03 0.  1.
         12    1    3    3    0    0 -0.80929908543E+01 -0.80207266617E+01 -0.14438710250E+01  0.11485352441E+02  0.00000000000E+00 0. -1.
</event>
<event>
 7    1  0.5664398E-009  0.4614232E+02  0.7816164E-02  0.1320468E+00
        -11   -1    0    0    0    0  0.00000000000E+00  0.00000000000E+00  0.45593999997E+02  0.45594000000E+02  0.51100000000E-03 0. -1.
         11   -1    0    0    0    0 -0.00000000000E+00 -0.00000000000E+00 -0.45593999997E+02  0.45594000000E+02  0.51100000000E-03 0.  1.
    9900012    2    1    2    0    0 -0.18749811371E+00  0.98618544244E+01 -0.43952498813E+02  0.46142317852E+02  0.10000000831E+02 0.  0.
         12    1    1    2    0    0  0.18749811371E+00 -0.98618544244E+01  0.43952498813E+02  0.45045682148E+02  0.00000000000E+00 0. -1.
         11    1    3    3    0    0 -0.24327245936E+01  0.24127387246E+01 -0.64426619591E+01  0.72970782154E+01  0.51100000000E-03 0. -1.
        -11    1    3    3    0    0 -0.19004009378E+01  0.33869295516E+01 -0.20711193401E+02  0.21072169985E+02  0.51100000000E-03 0.  1.
        -12    1    3    3    0    0  0.41456274177E+01  0.40621861482E+01 -0.16798643453E+02  0.17773069652E+02  0.00000000000E+00 0.  1.
</event>
<event>
 7    1  0.5664398E-009  0.4614232E+02  0.7816164E-02  0.1320468E+00
        -11   -1    0    0    0    0  0.00000000000E+00  0.00000000000E+00  0.45593999997E+02  0.45594000000E+02  0.51100000000E-03 0. -1.
         11   -1    0    0    0    0 -0.00000000000E+00 -0.00000000000E+00 -0.45593999997E+02  0.45594000000E+02  0.51100000000E-03 0.  1.
    9900012    2    1    2    0    0 -0.27634712122E+01  0.33354629610E+02 -0.30148723793E+02  0.46142316123E+02  0.99999850643E+01 0.  0.
         12    1    1    2    0    0  0.27634712122E+01 -0.33354629610E+02  0.30148723793E+02  0.45045683877E+02  0.00000000000E+00 0. -1.
         11    1    3    3    0    0 -0.49311185977E+01  0.81210733666E+01 -0.93281154395E+01  0.13314709954E+02  0.51100000000E-03 0.  1.
        -11    1    3    3    0    0  0.65228511709E-01  0.28900908475E+01 -0.30437618056E+01  0.41977810872E+01  0.51100000000E-03 0. -1.
         12    1    3    3    0    0  0.21024188738E+01  0.22343465396E+02 -0.17776846548E+02  0.28629825082E+02  0.00000000000E+00 0. -1.
</event>
<event>
 7    1  0.5664398E-009  0.4614232E+02  0.7816164E-02  0.1320468E+00
        -11   -1    0    0    0    0  0.00000000000E+00  0.00000000000E+00  0.45593999997E+02  0.45594000000E+02  0.51100000000E-03 0. -1.
         11   -1    0    0    0    0 -0.00000000000E+00 -0.00000000000E+00 -0.45593999997E+02  0.45594000000E+02  0.51100000000E-03 0.  1.
    9900012    2    1    2    0    0 -0.17249536572E+02 -0.18967605139E+01 -0.41568849208E+02  0.46142318332E+02  0.10000005209E+02 0.  0.
         12    1    1    2    0    0  0.17249536572E+02  0.18967605139E+01  0.41568849208E+02  0.45045681668E+02  0.00000000000E+00 0. -1.
         11    1    3    3    0    0  0.58037947860E+00  0.15876422152E+00 -0.16380212010E+01  0.17450387197E+01  0.51100000000E-03 0. -1.
        -11    1    3    3    0    0 -0.10271859034E+02 -0.22007921027E+01 -0.30806133784E+02  0.32548002287E+02  0.51100000000E-03 0.  1.
        -12    1    3    3    0    0 -0.75580570162E+01  0.14526736733E+00 -0.91246942232E+01  0.11849277325E+02  0.00000000000E+00 0.  1.
</event>
<event>
 7    1  0.5664398E-009  0.4614232E+02  0.7816164E-02  0.1320468E+00
        -11   -1    0    0    0    0  0.00000000000E+00  0.00000000000E+00  0.45593999997E+02  0.45594000000E+02  0.51100000000E-03 0.  1.
         11   -1    0    0    0    0 -0.00000000000E+00 -0.00000000000E+00 -0.45593999997E+02  0.45594000000E+02  0.51100000000E-03 0. -1.
    9900012    2    1    2    0    0  0.44612575165E+02 -0.57988601620E+01 -0.22814219167E+01  0.46142317322E+02  0.99999959924E+01 0.  0.
         12    1    1    2    0    0 -0.44612575165E+02  0.57988601620E+01  0.22814219167E+01  0.45045682678E+02  0.00000000000E+00 0. -1.
         11    1    3    3    0    0  0.67582488433E+01  0.13229532008E+01  0.11577610350E+01  0.69831614240E+01  0.51100000000E-03 0. -1.
        -11    1    3    3    0    0  0.24637824687E+02 -0.41571295427E+01 -0.51356016048E+01  0.25508401272E+02  0.51100000000E-03 0.  1.
        -12    1    3    3    0    0  0.13216501634E+02 -0.29646838202E+01  0.16964186531E+01  0.13650754626E+02  0.00000000000E+00 0.  1.
</event>
<event>
 7    1  0.5664398E-009  0.4614232E+02  0.7816164E-02  0.1320468E+00
        -11   -1    0    0    0    0  0.00000000000E+00  0.00000000000E+00  0.45593999997E+02  0.45594000000E+02  0.51100000000E-03 0. -1.
         11   -1    0    0    0    0 -0.00000000000E+00 -0.00000000000E+00 -0.45593999997E+02  0.45594000000E+02  0.51100000000E-03 0.  1.
    9900012    2    1    2    0    0 -0.31111278900E+02  0.83858879813E+01 -0.31478223039E+02  0.46142319655E+02  0.10000017270E+02 0.  0.
         12    1    1    2    0    0  0.31111278900E+02 -0.83858879813E+01  0.31478223039E+02  0.45045680345E+02  0.00000000000E+00 0. -1.
         11    1    3    3    0    0  0.36806394681E+00  0.48967610664E+00 -0.18305500716E+01  0.19303283617E+01  0.51100000000E-03 0. -1.
        -11    1    3    3    0    0 -0.23852604919E+02  0.38725514847E+01 -0.21362277648E+02  0.32253531946E+02  0.51100000000E-03 0.  1.
        -12    1    3    3    0    0 -0.76267379273E+01  0.40236603900E+01 -0.82853953199E+01  0.11958459347E+02  0.00000000000E+00 0.  1.
</event>
<event>
 7    1  0.5664398E-009  0.4614232E+02  0.7816164E-02  0.1320468E+00
        -11   -1    0    0    0    0  0.00000000000E+00  0.00000000000E+00  0.45593999997E+02  0.45594000000E+02  0.51100000000E-03 0. -1.
         11   -1    0    0    0    0 -0.00000000000E+00 -0.00000000000E+00 -0.45593999997E+02  0.45594000000E+02  0.51100000000E-03 0.  1.
    9900012    2    1    2    0    0 -0.20804869818E+02 -0.25673711530E+02 -0.30612602191E+02  0.46142317801E+02  0.10000000364E+02 0.  0.
         12    1    1    2    0    0  0.20804869818E+02  0.25673711530E+02  0.30612602191E+02  0.45045682199E+02  0.00000000000E+00 0. -1.
         11    1    3    3    0    0 -0.13816720691E+01 -0.19197621742E+01 -0.27727860632E+01  0.36445640789E+01  0.51100000000E-03 0. -1.
        -11    1    3    3    0    0 -0.19285055035E+02 -0.22335620869E+02 -0.28410410545E+02  0.40962723724E+02  0.51100000000E-03 0.  1.
         12    1    3    3    0    0 -0.13814271384E+00 -0.14183284866E+01  0.57059441722E+00  0.15350299978E+01  0.00000000000E+00 0. -1.
</event>
<event>
 7    1  0.5664398E-009  0.4614232E+02  0.7816164E-02  0.1320468E+00
        -11   -1    0    0    0    0  0.00000000000E+00  0.00000000000E+00  0.45593999997E+02  0.45594000000E+02  0.51100000000E-03 0. -1.
         11   -1    0    0    0    0 -0.00000000000E+00 -0.00000000000E+00 -0.45593999997E+02  0.45594000000E+02  0.51100000000E-03 0.  1.
    9900012    2    1    2    0    0 -0.11774115070E+02  0.43415531807E+02 -0.23611945353E+01  0.46142318438E+02  0.10000006174E+02 0.  0.
         12    1    1    2    0    0  0.11774115070E+02 -0.43415531807E+02  0.23611945353E+01  0.45045681562E+02  0.00000000000E+00 0. -1.
         11    1    3    3    0    0 -0.18810785231E+00 -0.29367562616E+00  0.47050336028E+00  0.58566510111E+00  0.51100000000E-03 0. -1.
        -11    1    3    3    0    0 -0.64925229359E+01  0.15603445344E+02 -0.73658689820E+00  0.16916350706E+02  0.51100000000E-03 0.  1.
        -12    1    3    3    0    0 -0.50934842817E+01  0.28105762089E+02 -0.20951109974E+01  0.28640302631E+02  0.00000000000E+00 0.  1.
</event>
<event>
 7    1  0.5664398E-009  0.4614232E+02  0.7816164E-02  0.1320468E+00
        -11   -1    0    0    0    0  0.00000000000E+00  0.00000000000E+00  0.45593999997E+02  0.45594000000E+02  0.51100000000E-03 0. -1.
         11   -1    0    0    0    0 -0.00000000000E+00 -0.00000000000E+00 -0.45593999997E+02  0.45594000000E+02  0.51100000000E-03 0.  1.
    9900012    2    1    2    0    0  0.34383098653E+02 -0.18199695330E+02 -0.22708740424E+02  0.46142320133E+02  0.10000021626E+02 0.  0.
         12    1    1    2    0    0 -0.34383098653E+02  0.18199695330E+02  0.22708740424E+02  0.45045679867E+02  0.00000000000E+00 0. -1.
         11    1    3    3    0    0  0.68446688397E+00  0.63534381716E+00  0.16914475249E+00  0.94908739834E+00  0.51100000000E-03 0. -1.
        -11    1    3    3    0    0  0.62967454818E+00 -0.10454009191E+01  0.40528475119E-02  0.12203973963E+01  0.51100000000E-03 0.  1.
        -12    1    3    3    0    0  0.33068957221E+02 -0.17789638228E+02 -0.22881938024E+02  0.43972835338E+02  0.00000000000E+00 0.  1.
</event>
<event>
 7    1  0.5664398E-009  0.4614232E+02  0.7816164E-02  0.1320468E+00
        -11   -1    0    0    0    0  0.00000000000E+00  0.00000000000E+00  0.45593999997E+02  0.45594000000E+02  0.51100000000E-03 0. -1.
         11   -1    0    0    0    0 -0.00000000000E+00 -0.00000000000E+00 -0.45593999997E+02  0.45594000000E+02  0.51100000000E-03 0.  1.
    9900012    2    1    2    0    0  0.44648858226E+02  0.44701741943E+01 -0.39509721607E+01  0.46142321192E+02  0.10000031286E+02 0.  0.
         12    1    1    2    0    0 -0.44648858226E+02 -0.44701741943E+01  0.39509721607E+01  0.45045678808E+02  0.00000000000E+00 0. -1.
         11    1    3    3    0    0  0.72111322863E+01  0.14566243684E+01 -0.35801684071E+01  0.81816740027E+01  0.51100000000E-03 0. -1.
        -11    1    3    3    0    0  0.14477882356E+02  0.98196886540E+00 -0.28156900902E+01  0.14781794590E+02  0.51100000000E-03 0.  1.
        -12    1    3    3    0    0  0.22959843585E+02  0.20315809605E+01  0.24448863366E+01  0.23178852599E+02  0.00000000000E+00 0.  1.
</event>
<event>
 7    1  0.5664398E-009  0.4614232E+02  0.7816164E-02  0.1320468E+00
        -11   -1    0    0    0    0  0.00000000000E+00  0.00000000000E+00  0.45593999997E+02  0.45594000000E+02  0.51100000000E-03 0. -1.
         11   -1    0    0    0    0 -0.00000000000E+00 -0.00000000000E+00 -0.45593999997E+02  0.45594000000E+02  0.51100000000E-03 0.  1.
    9900012    2    1    2    0    0 -0.42239865396E+02 -0.55408119631E+01 -0.14635801827E+02  0.46142317399E+02  0.99999966946E+01 0.  0.
         12    1    1    2    0    0  0.42239865396E+02  0.55408119631E+01  0.14635801827E+02  0.45045682601E+02  0.00000000000E+00 0. -1.
         11    1    3    3    0    0 -0.10864739202E+02 -0.34764256206E+01 -0.62759067134E+01  0.13019796402E+02  0.51100000000E-03 0. -1.
        -11    1    3    3    0    0 -0.25898983039E+02 -0.84649652399E+00 -0.90994478509E+01  0.27464046138E+02  0.51100000000E-03 0.  1.
         12    1    3    3    0    0 -0.54761431559E+01 -0.12178898185E+01  0.73955273778E+00  0.56584748587E+01  0.00000000000E+00 0. -1.
</event>
<event>
 7    1  0.5664398E-009  0.4614232E+02  0.7816164E-02  0.1320468E+00
        -11   -1    0    0    0    0  0.00000000000E+00  0.00000000000E+00  0.45593999997E+02  0.45594000000E+02  0.51100000000E-03 0.  1.
         11   -1    0    0    0    0 -0.00000000000E+00 -0.00000000000E+00 -0.45593999997E+02  0.45594000000E+02  0.51100000000E-03 0. -1.
    9900012    2    1    2    0    0  0.39533825167E+02 -0.15078596978E+02  0.15453998416E+02  0.46142317785E+02  0.10000000216E+02 0.  0.
        -12    1    1    2    0    0 -0.39533825167E+02  0.15078596978E+02 -0.15453998416E+02  0.45045682215E+02  0.00000000000E+00 0.  1.
         11    1    3    3    0    0  0.20726261029E+02 -0.77979971453E+01  0.11311407080E+02  0.24866334393E+02  0.51100000000E-03 0. -1.
        -11    1    3    3    0    0  0.79177724937E+01 -0.64350766248E+00  0.29239423968E+01  0.84649077240E+01  0.51100000000E-03 0.  1.
        -12    1    3    3    0    0  0.10889791644E+02 -0.66370921704E+01  0.12186489384E+01  0.12811075668E+02  0.00000000000E+00 0.  1.
</event>
<event>
 7    1  0.5664398E-009  0.4614232E+02  0.7816164E-02  0.1320468E+00
        -11   -1    0    0    0    0  0.00000000000E+00  0.00000000000E+00  0.45593999997E+02  0.45594000000E+02  0.51100000000E-03 0. -1.
         11   -1    0    0    0    0 -0.00000000000E+00 -0.00000000000E+00 -0.45593999997E+02  0.45594000000E+02  0.51100000000E-03 0.  1.
    9900012    2    1    2    0    0  0.20975478005E+02 -0.30636647752E+02  0.25505660060E+02  0.46142316987E+02  0.99999929411E+01 0.  0.
        -12    1    1    2    0    0 -0.20975478005E+02  0.30636647752E+02 -0.25505660060E+02  0.45045683013E+02  0.00000000000E+00 0.  1.
         11    1    3    3    0    0  0.14679138070E+02 -0.13215827213E+02  0.14648781167E+02  0.24591095408E+02  0.51100000000E-03 0. -1.
        -11    1    3    3    0    0  0.10687422722E+01 -0.31764689001E+01  0.11718270655E+01  0.35504004916E+01  0.51100000000E-03 0.  1.
         12    1    3    3    0    0  0.52275976626E+01 -0.14244351640E+02  0.96850518267E+01  0.18000821088E+02  0.00000000000E+00 0. -1.
</event>
<event>
 7    1  0.5664398E-009  0.4614232E+02  0.7816164E-02  0.1320468E+00
        -11   -1    0    0    0    0  0.00000000000E+00  0.00000000000E+00  0.45593999997E+02  0.45594000000E+02  0.51100000000E-03 0. -1.
         11   -1    0    0    0    0 -0.00000000000E+00 -0.00000000000E+00 -0.45593999997E+02  0.45594000000E+02  0.51100000000E-03 0.  1.
    9900012    2    1    2    0    0  0.33756083363E+02 -0.87149491226E+01 -0.28525249271E+02  0.46142319317E+02  0.10000014188E+02 0.  0.
         12    1    1    2    0    0 -0.33756083363E+02  0.87149491226E+01  0.28525249271E+02  0.45045680683E+02  0.00000000000E+00 0. -1.
         11    1    3    3    0    0  0.60269686518E+01  0.49687559340E+00 -0.35858634778E+01  0.70306225633E+01  0.51100000000E-03 0. -1.
        -11    1    3    3    0    0  0.17533506303E+02 -0.94221000051E+01 -0.15709209655E+02  0.25357032162E+02  0.51100000000E-03 0.  1.
        -12    1    3    3    0    0  0.10195608408E+02  0.21027528913E+00 -0.92301761375E+01  0.13754664592E+02  0.00000000000E+00 0.  1.
</event>
<event>
 7    1  0.5664398E-009  0.4614232E+02  0.7816164E-02  0.1320468E+00
        -11   -1    0    0    0    0  0.00000000000E+00  0.00000000000E+00  0.45593999997E+02  0.45594000000E+02  0.51100000000E-03 0. -1.
         11   -1    0    0    0    0 -0.00000000000E+00 -0.00000000000E+00 -0.45593999997E+02  0.45594000000E+02  0.51100000000E-03 0.  1.
    9900012    2    1    2    0    0 -0.17780038413E+02 -0.41146880601E+02  0.44629565492E+01  0.46142317295E+02  0.99999957512E+01 0.  0.
        -12    1    1    2    0    0  0.17780038413E+02  0.41146880601E+02 -0.44629565492E+01  0.45045682705E+02  0.00000000000E+00 0.  1.
         11    1    3    3    0    0 -0.13811114287E+02 -0.27110148651E+02  0.34024356580E+01  0.30615087888E+02  0.51100000000E-03 0. -1.
        -11    1    3    3    0    0 -0.44698131806E+01 -0.14165196308E+02  0.65158585069E+00  0.14867971640E+02  0.51100000000E-03 0.  1.
        -12    1    3    3    0    0  0.50088905436E+00  0.12846435764E+00  0.40893504053E+00  0.65925776699E+00  0.00000000000E+00 0.  1.
</event>
<event>
 7    1  0.5664398E-009  0.4614232E+02  0.7816164E-02  0.1320468E+00
        -11   -1    0    0    0    0  0.00000000000E+00  0.00000000000E+00  0.45593999997E+02  0.45594000000E+02  0.51100000000E-03 0. -1.
         11   -1    0    0    0    0 -0.00000000000E+00 -0.00000000000E+00 -0.45593999997E+02  0.45594000000E+02  0.51100000000E-03 0.  1.
    9900012    2    1    2    0    0 -0.39104729594E+01 -0.12510107793E+02 -0.43096622972E+02  0.46142317551E+02  0.99999980825E+01 0.  0.
         12    1    1    2    0    0  0.39104729594E+01  0.12510107793E+02  0.43096622972E+02  0.45045682449E+02  0.00000000000E+00 0. -1.
         11    1    3    3    0    0 -0.13327635741E+01 -0.55620351738E+01 -0.10393353591E+02  0.11863148534E+02  0.51100000000E-03 0. -1.
        -11    1    3    3    0    0 -0.38652590050E+01 -0.77114806041E+01 -0.29641098925E+02  0.30870728952E+02  0.51100000000E-03 0.  1.
         12    1    3    3    0    0  0.12875496197E+01  0.76340798480E+00 -0.30621704555E+01  0.34084400645E+01  0.00000000000E+00 0. -1.
</event>
<event>
 7    1  0.5664398E-009  0.4614232E+02  0.7816164E-02  0.1320468E+00
        -11   -1    0    0    0    0  0.00000000000E+00  0.00000000000E+00  0.45593999997E+02  0.45594000000E+02  0.51100000000E-03 0. -1.
         11   -1    0    0    0    0 -0.00000000000E+00 -0.00000000000E+00 -0.45593999997E+02  0.45594000000E+02  0.51100000000E-03 0.  1.
    9900012    2    1    2    0    0  0.25687116411E+02 -0.25513094158E+02 -0.26802378485E+02  0.46142318570E+02  0.10000007377E+02 0.  0.
         12    1    1    2    0    0 -0.25687116411E+02  0.25513094158E+02  0.26802378485E+02  0.45045681430E+02  0.00000000000E+00 0. -1.
         11    1    3    3    0    0  0.32001336469E+01 -0.25093956041E+01 -0.80940073368E+00  0.41464504657E+01  0.51100000000E-03 0. -1.
        -11    1    3    3    0    0  0.65807317701E+01 -0.11485921204E+02 -0.88084633449E+01  0.15900359848E+02  0.51100000000E-03 0.  1.
        -12    1    3    3    0    0  0.15906250994E+02 -0.11517777350E+02 -0.17184514406E+02  0.26095508256E+02  0.00000000000E+00 0.  1.
</event>
<event>
 7    1  0.5664398E-009  0.4614232E+02  0.7816164E-02  0.1320468E+00
        -11   -1    0    0    0    0  0.00000000000E+00  0.00000000000E+00  0.45593999997E+02  0.45594000000E+02  0.51100000000E-03 0. -1.
         11   -1    0    0    0    0 -0.00000000000E+00 -0.00000000000E+00 -0.45593999997E+02  0.45594000000E+02  0.51100000000E-03 0.  1.
    9900012    2    1    2    0    0  0.37431733670E+01 -0.16537712313E+02  0.41732550472E+02  0.46142322690E+02  0.10000044946E+02 0.  0.
        -12    1    1    2    0    0 -0.37431733670E+01  0.16537712313E+02 -0.41732550472E+02  0.45045677310E+02  0.00000000000E+00 0.  1.
         11    1    3    3    0    0  0.31775280719E+01 -0.80221921436E+01  0.24513999115E+02  0.25988235883E+02  0.51100000000E-03 0. -1.
        -11    1    3    3    0    0  0.51540524875E+00 -0.85871783400E+01  0.17691996565E+02  0.19672621003E+02  0.51100000000E-03 0.  1.
        -12    1    3    3    0    0  0.50240046369E-01  0.71658170219E-01 -0.47344520791E+00  0.48146580409E+00  0.00000000000E+00 0.  1.
</event>
<event>
 7    1  0.5664398E-009  0.4614232E+02  0.7816164E-02  0.1320468E+00
        -11   -1    0    0    0    0  0.00000000000E+00  0.00000000000E+00  0.45593999997E+02  0.45594000000E+02  0.51100000000E-03 0. -1.
         11   -1    0    0    0    0 -0.00000000000E+00 -0.00000000000E+00 -0.45593999997E+02  0.45594000000E+02  0.51100000000E-03 0.  1.
    9900012    2    1    2    0    0 -0.13075430327E+02 -0.19363882139E+02 -0.38512161632E+02  0.46142318706E+02  0.10000008612E+02 0.  0.
         12    1    1    2    0    0  0.13075430327E+02  0.19363882139E+02  0.38512161632E+02  0.45045681294E+02  0.00000000000E+00 0. -1.
         11    1    3    3    0    0 -0.11410773107E+01 -0.54844209491E+01 -0.13905754078E+02  0.14991695278E+02  0.51100000000E-03 0. -1.
        -11    1    3    3    0    0 -0.74839886564E+01 -0.10151135063E+02 -0.20390846646E+02  0.23975868212E+02  0.51100000000E-03 0.  1.
         12    1    3    3    0    0 -0.44503643602E+01 -0.37283261264E+01 -0.42155609077E+01  0.71747552160E+01  0.00000000000E+00 0. -1.
</event>
<event>
 7    1  0.5664398E-009  0.4614232E+02  0.7816164E-02  0.1320468E+00
        -11   -1    0    0    0    0  0.00000000000E+00  0.00000000000E+00  0.45593999997E+02  0.45594000000E+02  0.51100000000E-03 0. -1.
         11   -1    0    0    0    0 -0.00000000000E+00 -0.00000000000E+00 -0.45593999997E+02  0.45594000000E+02  0.51100000000E-03 0.  1.
    9900012    2    1    2    0    0  0.20619592304E+02 -0.10900593906E+02  0.38537293601E+02  0.46142317273E+02  0.99999955464E+01 0.  0.
        -12    1    1    2    0    0 -0.20619592304E+02  0.10900593906E+02 -0.38537293601E+02  0.45045682727E+02  0.00000000000E+00 0.  1.
         11    1    3    3    0    0  0.25070912859E+01  0.72287417842E-01  0.20530188883E+01  0.32412372643E+01  0.51100000000E-03 0.  1.
        -11    1    3    3    0    0  0.81920896241E+01 -0.81527968500E+01  0.13928189535E+02  0.18098974912E+02  0.51100000000E-03 0. -1.
         12    1    3    3    0    0  0.99204113944E+01 -0.28200844739E+01  0.22556085178E+02  0.24802105097E+02  0.00000000000E+00 0. -1.
</event>
<event>
 7    1  0.5664398E-009  0.4614232E+02  0.7816164E-02  0.1320468E+00
        -11   -1    0    0    0    0  0.00000000000E+00  0.00000000000E+00  0.45593999997E+02  0.45594000000E+02  0.51100000000E-03 0. -1.
         11   -1    0    0    0    0 -0.00000000000E+00 -0.00000000000E+00 -0.45593999997E+02  0.45594000000E+02  0.51100000000E-03 0.  1.
    9900012    2    1    2    0    0  0.62423586334E+01  0.20893041294E+02  0.39416079729E+02  0.46142316999E+02  0.99999930511E+01 0.  0.
        -12    1    1    2    0    0 -0.62423586334E+01 -0.20893041294E+02 -0.39416079729E+02  0.45045683001E+02  0.00000000000E+00 0.  1.
         11    1    3    3    0    0  0.26581402460E+01  0.15097010631E+02  0.23536619326E+02  0.28088394207E+02  0.51100000000E-03 0. -1.
        -11    1    3    3    0    0  0.87854541593E+00  0.55000804908E+01  0.12705614388E+02  0.13872828287E+02  0.51100000000E-03 0.  1.
         12    1    3    3    0    0  0.27056729714E+01  0.29595017241E+00  0.31738460150E+01  0.41810945050E+01  0.00000000000E+00 0. -1.
</event>
<event>
 7    1  0.5664398E-009  0.4614231E+02  0.7816164E-02  0.1320468E+00
        -11   -1    0    0    0    0  0.00000000000E+00  0.00000000000E+00  0.45593999997E+02  0.45594000000E+02  0.51100000000E-03 0. -1.
         11   -1    0    0    0    0 -0.00000000000E+00 -0.00000000000E+00 -0.45593999997E+02  0.45594000000E+02  0.51100000000E-03 0.  1.
    9900012    2    1    2    0    0 -0.20370084407E+02 -0.11692775105E+02  0.38437644213E+02  0.46142314068E+02  0.99999663254E+01 0.  0.
        -12    1    1    2    0    0  0.20370084407E+02  0.11692775105E+02 -0.38437644213E+02  0.45045685932E+02  0.00000000000E+00 0.  1.
         11    1    3    3    0    0 -0.16950997930E+02 -0.12242140547E+02  0.33592212695E+02  0.39568208071E+02  0.51100000000E-03 0. -1.
        -11    1    3    3    0    0 -0.27876094262E+01  0.92390931937E-01  0.50492833245E+01  0.57684109380E+01  0.51100000000E-03 0.  1.
        -12    1    3    3    0    0 -0.63147705140E+00  0.45697451029E+00 -0.20385180593E+00  0.80569505912E+00  0.00000000000E+00 0.  1.
</event>
<event>
 7    1  0.1171117E-008  0.4614232E+02  0.7816164E-02  0.1320468E+00
        -11   -1    0    0    0    0  0.00000000000E+00  0.00000000000E+00  0.45593999997E+02  0.45594000000E+02  0.51100000000E-03 0. -1.
         11   -1    0    0    0    0 -0.00000000000E+00 -0.00000000000E+00 -0.45593999997E+02  0.45594000000E+02  0.51100000000E-03 0.  1.
    9900012    2    1    2    0    0 -0.36192219168E+01  0.23544639402E+00  0.44899434776E+02  0.46142318237E+02  0.10000004339E+02 0.  0.
        -12    1    1    2    0    0  0.36192219168E+01 -0.23544639402E+00 -0.44899434776E+02  0.45045681763E+02  0.00000000000E+00 0.  1.
         11    1    3    3    0    0 -0.95217624516E-02  0.17210577268E+01  0.22573307607E+01  0.28386040209E+01  0.51100000000E-03 0. -1.
        -11    1    3    3    0    0 -0.23993085762E+01 -0.37840971969E+00  0.43957727783E+01  0.50222200409E+01  0.51100000000E-03 0.  1.
         12    1    3    3    0    0 -0.12103915781E+01 -0.11072016131E+01  0.38246331237E+02  0.38281494175E+02  0.00000000000E+00 0. -1.
</event>
<event>
 7    1  0.5664398E-009  0.4614232E+02  0.7816164E-02  0.1320468E+00
        -11   -1    0    0    0    0  0.00000000000E+00  0.00000000000E+00  0.45593999997E+02  0.45594000000E+02  0.51100000000E-03 0.  1.
         11   -1    0    0    0    0 -0.00000000000E+00 -0.00000000000E+00 -0.45593999997E+02  0.45594000000E+02  0.51100000000E-03 0. -1.
    9900012    2    1    2    0    0 -0.43966292558E+02  0.36379338671E+01 -0.91018665961E+01  0.46142318524E+02  0.10000006958E+02 0.  0.
         12    1    1    2    0    0  0.43966292558E+02 -0.36379338671E+01  0.91018665961E+01  0.45045681476E+02  0.00000000000E+00 0. -1.
         11    1    3    3    0    0  0.36048406144E+00  0.23859058385E-02 -0.12784065968E+00  0.38248914558E+00  0.51100000000E-03 0. -1.
        -11    1    3    3    0    0 -0.15940045343E+02  0.22873134594E+01 -0.52560219137E+00  0.16111893319E+02  0.51100000000E-03 0.  1.
        -12    1    3    3    0    0 -0.28386731277E+02  0.13482345019E+01 -0.84484237450E+01  0.29647936060E+02  0.00000000000E+00 0.  1.
</event>
<event>
 7    1  0.5664398E-009  0.4614231E+02  0.7816164E-02  0.1320468E+00
        -11   -1    0    0    0    0  0.00000000000E+00  0.00000000000E+00  0.45593999997E+02  0.45594000000E+02  0.51100000000E-03 0. -1.
         11   -1    0    0    0    0 -0.00000000000E+00 -0.00000000000E+00 -0.45593999997E+02  0.45594000000E+02  0.51100000000E-03 0.  1.
    9900012    2    1    2    0    0 -0.35678254314E+01 -0.15180670746E+02  0.42260285344E+02  0.46142313637E+02  0.99999623917E+01 0.  0.
        -12    1    1    2    0    0  0.35678254314E+01  0.15180670746E+02 -0.42260285344E+02  0.45045686363E+02  0.00000000000E+00 0.  1.
         11    1    3    3    0    0 -0.21385642155E+01 -0.37019999035E+01  0.10373779793E+02  0.11220230285E+02  0.51100000000E-03 0.  1.
        -11    1    3    3    0    0 -0.12965988689E+01  0.62071657916E-01  0.10850920285E+02  0.10928288649E+02  0.51100000000E-03 0. -1.
         12    1    3    3    0    0 -0.13266234703E+00 -0.11540742500E+02  0.21035585266E+02  0.23993794703E+02  0.00000000000E+00 0. -1.
</event>
<event>
 7    1  0.5664398E-009  0.4614232E+02  0.7816164E-02  0.1320468E+00
        -11   -1    0    0    0    0  0.00000000000E+00  0.00000000000E+00  0.45593999997E+02  0.45594000000E+02  0.51100000000E-03 0. -1.
         11   -1    0    0    0    0 -0.00000000000E+00 -0.00000000000E+00 -0.45593999997E+02  0.45594000000E+02  0.51100000000E-03 0.  1.
    9900012    2    1    2    0    0  0.39026884255E+02  0.30840515563E+01  0.22282379474E+02  0.46142317591E+02  0.99999984523E+01 0.  0.
        -12    1    1    2    0    0 -0.39026884255E+02 -0.30840515563E+01 -0.22282379474E+02  0.45045682409E+02  0.00000000000E+00 0.  1.
         11    1    3    3    0    0  0.22423842525E+02 -0.10569457858E+00  0.11087101263E+02  0.25015269329E+02  0.51100000000E-03 0. -1.
        -11    1    3    3    0    0  0.94471396278E+01  0.37701598438E+01  0.39059758423E+01  0.10895834063E+02  0.51100000000E-03 0.  1.
        -12    1    3    3    0    0  0.71559021026E+01 -0.58041370892E+00  0.72893023682E+01  0.10231214199E+02  0.00000000000E+00 0.  1.
</event>
<event>
 7    1  0.5664398E-009  0.4614232E+02  0.7816164E-02  0.1320468E+00
        -11   -1    0    0    0    0  0.00000000000E+00  0.00000000000E+00  0.45593999997E+02  0.45594000000E+02  0.51100000000E-03 0. -1.
         11   -1    0    0    0    0 -0.00000000000E+00 -0.00000000000E+00 -0.45593999997E+02  0.45594000000E+02  0.51100000000E-03 0.  1.
    9900012    2    1    2    0    0 -0.30556491569E+01 -0.17540065107E+02  0.41377802213E+02  0.46142318834E+02  0.10000009787E+02 0.  0.
        -12    1    1    2    0    0  0.30556491569E+01  0.17540065107E+02 -0.41377802213E+02  0.45045681166E+02  0.00000000000E+00 0.  1.
         11    1    3    3    0    0  0.27462173411E+00 -0.23556263023E+01  0.33255583858E+01  0.40845723413E+01  0.51100000000E-03 0. -1.
        -11    1    3    3    0    0 -0.26520887902E+00 -0.85282674766E+01  0.10406191255E+02  0.13456986981E+02  0.51100000000E-03 0.  1.
         12    1    3    3    0    0 -0.30650620120E+01 -0.66561713283E+01  0.27646052572E+02  0.28600759513E+02  0.00000000000E+00 0. -1.
</event>
<event>
 7    1  0.5664398E-009  0.4614232E+02  0.7816164E-02  0.1320468E+00
        -11   -1    0    0    0    0  0.00000000000E+00  0.00000000000E+00  0.45593999997E+02  0.45594000000E+02  0.51100000000E-03 0. -1.
         11   -1    0    0    0    0 -0.00000000000E+00 -0.00000000000E+00 -0.45593999997E+02  0.45594000000E+02  0.51100000000E-03 0.  1.
    9900012    2    1    2    0    0  0.17505613448E+02  0.75544579151E+01  0.40811727075E+02  0.46142318704E+02  0.10000008601E+02 0.  0.
        -12    1    1    2    0    0 -0.17505613448E+02 -0.75544579151E+01 -0.40811727075E+02  0.45045681296E+02  0.00000000000E+00 0.  1.
         11    1    3    3    0    0  0.37824100732E+01  0.38612600747E+01  0.11933607409E+02  0.13100646602E+02  0.51100000000E-03 0. -1.
        -11    1    3    3    0    0  0.90078658080E+01  0.52345595569E+01  0.14675404588E+02  0.17997493165E+02  0.51100000000E-03 0.  1.
        -12    1    3    3    0    0  0.47153375670E+01 -0.15413617166E+01  0.14202715078E+02  0.15044178937E+02  0.00000000000E+00 0.  1.
</event>
<event>
 7    1  0.5664398E-009  0.4614232E+02  0.7816164E-02  0.1320468E+00
        -11   -1    0    0    0    0  0.00000000000E+00  0.00000000000E+00  0.45593999997E+02  0.45594000000E+02  0.51100000000E-03 0. -1.
         11   -1    0    0    0    0 -0.00000000000E+00 -0.00000000000E+00 -0.45593999997E+02  0.45594000000E+02  0.51100000000E-03 0.  1.
    9900012    2    1    2    0    0  0.12239532909E+01 -0.29453369075E+02 -0.34060453835E+02  0.46142317333E+02  0.99999960958E+01 0.  0.
         12    1    1    2    0    0 -0.12239532909E+01  0.29453369075E+02  0.34060453835E+02  0.45045682667E+02  0.00000000000E+00 0. -1.
         11    1    3    3    0    0  0.30107162785E+01 -0.66294497745E+01 -0.10166513846E+02  0.12504879882E+02  0.51100000000E-03 0. -1.
        -11    1    3    3    0    0 -0.84014811695E+00 -0.21214506055E+02 -0.19354681987E+02  0.28729163425E+02  0.51100000000E-03 0.  1.
        -12    1    3    3    0    0 -0.94661487059E+00 -0.16094132451E+01 -0.45392580018E+01  0.49082740260E+01  0.00000000000E+00 0.  1.
</event>
<event>
 7    1  0.5664398E-009  0.4614232E+02  0.7816164E-02  0.1320468E+00
        -11   -1    0    0    0    0  0.00000000000E+00  0.00000000000E+00  0.45593999997E+02  0.45594000000E+02  0.51100000000E-03 0. -1.
         11   -1    0    0    0    0 -0.00000000000E+00 -0.00000000000E+00 -0.45593999997E+02  0.45594000000E+02  0.51100000000E-03 0.  1.
    9900012    2    1    2    0    0 -0.27603696569E+02  0.29456129106E+02  0.19987144038E+02  0.46142317266E+02  0.99999954848E+01 0.  0.
        -12    1    1    2    0    0  0.27603696569E+02 -0.29456129106E+02 -0.19987144038E+02  0.45045682734E+02  0.00000000000E+00 0.  1.
         11    1    3    3    0    0 -0.64677603657E+01  0.35127151487E+01  0.54869902494E+01  0.91803134000E+01  0.51100000000E-03 0. -1.
        -11    1    3    3    0    0 -0.35846645290E+01  0.79556340751E+01  0.22918612099E+01  0.90218934481E+01  0.51100000000E-03 0.  1.
         12    1    3    3    0    0 -0.17551271674E+02  0.17987779882E+02  0.12208292579E+02  0.27940110418E+02  0.00000000000E+00 0. -1.
</event>
<event>
 7    1  0.5664398E-009  0.4614232E+02  0.7816164E-02  0.1320468E+00
        -11   -1    0    0    0    0  0.00000000000E+00  0.00000000000E+00  0.45593999997E+02  0.45594000000E+02  0.51100000000E-03 0. -1.
         11   -1    0    0    0    0 -0.00000000000E+00 -0.00000000000E+00 -0.45593999997E+02  0.45594000000E+02  0.51100000000E-03 0.  1.
    9900012    2    1    2    0    0 -0.17604425672E+02 -0.77548564853E+01  0.40731558564E+02  0.46142318016E+02  0.10000002323E+02 0.  0.
        -12    1    1    2    0    0  0.17604425672E+02  0.77548564853E+01 -0.40731558564E+02  0.45045681984E+02  0.00000000000E+00 0.  1.
         11    1    3    3    0    0 -0.46014596565E+01  0.56770932095E+00  0.57726324256E+01  0.74039861038E+01  0.51100000000E-03 0.  1.
        -11    1    3    3    0    0 -0.80956680425E+01 -0.53695782064E+01  0.14208475440E+02  0.17212001213E+02  0.51100000000E-03 0. -1.
        -12    1    3    3    0    0 -0.49072979727E+01 -0.29529875999E+01  0.20750450699E+02  0.21526330699E+02  0.00000000000E+00 0.  1.
</event>
<event>
 7    1  0.5664398E-009  0.4614232E+02  0.7816164E-02  0.1320468E+00
        -11   -1    0    0    0    0  0.00000000000E+00  0.00000000000E+00  0.45593999997E+02  0.45594000000E+02  0.51100000000E-03 0. -1.
         11   -1    0    0    0    0 -0.00000000000E+00 -0.00000000000E+00 -0.45593999997E+02  0.45594000000E+02  0.51100000000E-03 0.  1.
    9900012    2    1    2    0    0 -0.53190741296E+00 -0.20185893101E+02 -0.40266120245E+02  0.46142316019E+02  0.99999841101E+01 0.  0.
         12    1    1    2    0    0  0.53190741296E+00  0.20185893101E+02  0.40266120245E+02  0.45045683981E+02  0.00000000000E+00 0. -1.
         11    1    3    3    0    0 -0.10036518380E+01 -0.20937793959E+01 -0.16544021495E+01  0.28510131364E+01  0.51100000000E-03 0. -1.
        -11    1    3    3    0    0 -0.23612201334E+01 -0.69469906318E+01 -0.95945158252E+01  0.12078525305E+02  0.51100000000E-03 0.  1.
         12    1    3    3    0    0  0.28329645584E+01 -0.11145123073E+02 -0.29017202270E+02  0.31212777577E+02  0.00000000000E+00 0. -1.
</event>
<event>
 7    1  0.5720490E-009  0.4614232E+02  0.7816164E-02  0.1320468E+00
        -11   -1    0    0    0    0  0.00000000000E+00  0.00000000000E+00  0.45593999997E+02  0.45594000000E+02  0.51100000000E-03 0. -1.
         11   -1    0    0    0    0 -0.00000000000E+00 -0.00000000000E+00 -0.45593999997E+02  0.45594000000E+02  0.51100000000E-03 0.  1.
    9900012    2    1    2    0    0 -0.30268576955E+02  0.65304529123E+00  0.33354164921E+02  0.46142317225E+02  0.99999951122E+01 0.  0.
        -12    1    1    2    0    0  0.30268576955E+02 -0.65304529123E+00 -0.33354164921E+02  0.45045682775E+02  0.00000000000E+00 0.  1.
         11    1    3    3    0    0 -0.60476640694E+01 -0.12033708859E+01  0.94460320780E+01  0.11280508165E+02  0.51100000000E-03 0. -1.
        -11    1    3    3    0    0 -0.54452623800E+01 -0.12791346284E+01  0.22547789347E+01  0.60308453877E+01  0.51100000000E-03 0.  1.
         12    1    3    3    0    0 -0.18775650506E+02  0.31355508055E+01  0.21653353909E+02  0.28830963672E+02  0.00000000000E+00 0. -1.
</event>
<event>
 7    1  0.5664398E-009  0.4614232E+02  0.7816164E-02  0.1320468E+00
        -11   -1    0    0    0    0  0.00000000000E+00  0.00000000000E+00  0.45593999997E+02  0.45594000000E+02  0.51100000000E-03 0.  1.
         11   -1    0    0    0    0 -0.00000000000E+00 -0.00000000000E+00 -0.45593999997E+02  0.45594000000E+02  0.51100000000E-03 0. -1.
    9900012    2    1    2    0    0  0.39885583730E+02 -0.97429984303E+01 -0.18529103210E+02  0.46142317924E+02  0.10000001490E+02 0.  0.
         12    1    1    2    0    0 -0.39885583730E+02  0.97429984303E+01  0.18529103210E+02  0.45045682076E+02  0.00000000000E+00 0. -1.
         11    1    3    3    0    0  0.69048623901E+01 -0.18676760106E+01 -0.55822757842E+01  0.90734305254E+01  0.51100000000E-03 0. -1.
        -11    1    3    3    0    0  0.12664129101E+02 -0.10015964766E+00 -0.23860232663E+01  0.12887331188E+02  0.51100000000E-03 0.  1.
         12    1    3    3    0    0  0.20316592238E+02 -0.77751627721E+01 -0.10560804159E+02  0.24181556211E+02  0.00000000000E+00 0. -1.
</event>
<event>
 7    1  0.5963853E-009  0.4614232E+02  0.7816164E-02  0.1320468E+00
        -11   -1    0    0    0    0  0.00000000000E+00  0.00000000000E+00  0.45593999997E+02  0.45594000000E+02  0.51100000000E-03 0. -1.
         11   -1    0    0    0    0 -0.00000000000E+00 -0.00000000000E+00 -0.45593999997E+02  0.45594000000E+02  0.51100000000E-03 0.  1.
    9900012    2    1    2    0    0  0.50080495487E+01 -0.15248389167E+02  0.42089423119E+02  0.46142317955E+02  0.10000001766E+02 0.  0.
        -12    1    1    2    0    0 -0.50080495487E+01  0.15248389167E+02 -0.42089423119E+02  0.45045682045E+02  0.00000000000E+00 0.  1.
         11    1    3    3    0    0  0.24152928212E+01  0.39299592008E-01  0.46239992537E+01  0.52169486512E+01  0.51100000000E-03 0. -1.
        -11    1    3    3    0    0 -0.50068666827E+00 -0.49575427039E-01  0.19157227194E+00  0.53837260262E+00  0.51100000000E-03 0.  1.
         12    1    3    3    0    0  0.30934433958E+01 -0.15238113332E+02  0.37273851593E+02  0.40386996701E+02  0.00000000000E+00 0. -1.
</event>
<event>
 7    1  0.5664398E-009  0.4614232E+02  0.7816164E-02  0.1320468E+00
        -11   -1    0    0    0    0  0.00000000000E+00  0.00000000000E+00  0.45593999997E+02  0.45594000000E+02  0.51100000000E-03 0. -1.
         11   -1    0    0    0    0 -0.00000000000E+00 -0.00000000000E+00 -0.45593999997E+02  0.45594000000E+02  0.51100000000E-03 0.  1.
    9900012    2    1    2    0    0 -0.92211229181E+01 -0.44062512363E+02  0.16060641709E+01  0.46142317124E+02  0.99999941910E+01 0.  0.
        -12    1    1    2    0    0  0.92211229181E+01  0.44062512363E+02 -0.16060641709E+01  0.45045682876E+02  0.00000000000E+00 0.  1.
         11    1    3    3    0    0 -0.45263193360E+01 -0.20191499277E+02 -0.23141505377E+01  0.20821611435E+02  0.51100000000E-03 0. -1.
        -11    1    3    3    0    0 -0.48959520883E+01 -0.12876553585E+02  0.42569265246E+00  0.13782495912E+02  0.51100000000E-03 0.  1.
        -12    1    3    3    0    0  0.20114850616E+00 -0.10994459501E+02  0.34945220561E+01  0.11538209777E+02  0.00000000000E+00 0.  1.
</event>
<event>
 7    1  0.5664398E-009  0.4614232E+02  0.7816164E-02  0.1320468E+00
        -11   -1    0    0    0    0  0.00000000000E+00  0.00000000000E+00  0.45593999997E+02  0.45594000000E+02  0.51100000000E-03 0. -1.
         11   -1    0    0    0    0 -0.00000000000E+00 -0.00000000000E+00 -0.45593999997E+02  0.45594000000E+02  0.51100000000E-03 0.  1.
    9900012    2    1    2    0    0 -0.28134043629E+02 -0.31344712579E+02 -0.15971789186E+02  0.46142317994E+02  0.10000002122E+02 0.  0.
         12    1    1    2    0    0  0.28134043629E+02  0.31344712579E+02  0.15971789186E+02  0.45045682006E+02  0.00000000000E+00 0. -1.
         11    1    3    3    0    0 -0.15983616576E+02 -0.12511816016E+02 -0.63568643405E+01  0.21270431669E+02  0.51100000000E-03 0. -1.
        -11    1    3    3    0    0 -0.12071053740E+02 -0.19106526673E+02 -0.96693529256E+01  0.24581824304E+02  0.51100000000E-03 0.  1.
        -12    1    3    3    0    0 -0.79373313545E-01  0.27363010976E+00  0.54428079813E-01  0.29006202051E+00  0.00000000000E+00 0.  1.
</event>
<event>
 7    1  0.5664398E-009  0.4614232E+02  0.7816164E-02  0.1320468E+00
        -11   -1    0    0    0    0  0.00000000000E+00  0.00000000000E+00  0.45593999997E+02  0.45594000000E+02  0.51100000000E-03 0. -1.
         11   -1    0    0    0    0 -0.00000000000E+00 -0.00000000000E+00 -0.45593999997E+02  0.45594000000E+02  0.51100000000E-03 0.  1.
    9900012    2    1    2    0    0  0.11870076724E+02  0.29199168497E+02 -0.32181097718E+02  0.46142320821E+02  0.10000027903E+02 0.  0.
         12    1    1    2    0    0 -0.11870076724E+02 -0.29199168497E+02  0.32181097718E+02  0.45045679179E+02  0.00000000000E+00 0. -1.
         11    1    3    3    0    0  0.10576374153E+01  0.26290435048E+01 -0.75479575633E+00  0.29326069542E+01  0.51100000000E-03 0. -1.
        -11    1    3    3    0    0  0.11490748000E+02  0.22977815379E+02 -0.25184084597E+02  0.35975761374E+02  0.51100000000E-03 0.  1.
        -12    1    3    3    0    0 -0.67830869177E+00  0.35923096131E+01 -0.62422173646E+01  0.72339524926E+01  0.00000000000E+00 0.  1.
</event>
<event>
 7    1  0.5664398E-009  0.4614232E+02  0.7816164E-02  0.1320468E+00
        -11   -1    0    0    0    0  0.00000000000E+00  0.00000000000E+00  0.45593999997E+02  0.45594000000E+02  0.51100000000E-03 0. -1.
         11   -1    0    0    0    0 -0.00000000000E+00 -0.00000000000E+00 -0.45593999997E+02  0.45594000000E+02  0.51100000000E-03 0.  1.
    9900012    2    1    2    0    0  0.74323905686E+01  0.10522772688E+02 -0.43164155261E+02  0.46142317921E+02  0.10000001456E+02 0.  0.
         12    1    1    2    0    0 -0.74323905686E+01 -0.10522772688E+02  0.43164155261E+02  0.45045682079E+02  0.00000000000E+00 0. -1.
         11    1    3    3    0    0  0.59087905535E+01  0.11508777461E+02 -0.28813463049E+02  0.31584512306E+02  0.51100000000E-03 0. -1.
        -11    1    3    3    0    0  0.29667108566E+00  0.43291706990E+00 -0.21139258053E+01  0.21780985960E+01  0.51100000000E-03 0.  1.
         12    1    3    3    0    0  0.12269289295E+01 -0.14189218427E+01 -0.12236766406E+02  0.12379707019E+02  0.00000000000E+00 0. -1.
</event>
<event>
 7    1  0.5664398E-009  0.4614232E+02  0.7816164E-02  0.1320468E+00
        -11   -1    0    0    0    0  0.00000000000E+00  0.00000000000E+00  0.45593999997E+02  0.45594000000E+02  0.51100000000E-03 0. -1.
         11   -1    0    0    0    0 -0.00000000000E+00 -0.00000000000E+00 -0.45593999997E+02  0.45594000000E+02  0.51100000000E-03 0.  1.
    9900012    2    1    2    0    0  0.33902000043E+01 -0.30355747676E+02  0.33108135138E+02  0.46142317795E+02  0.10000000305E+02 0.  0.
        -12    1    1    2    0    0 -0.33902000043E+01  0.30355747676E+02 -0.33108135138E+02  0.45045682205E+02  0.00000000000E+00 0.  1.
         11    1    3    3    0    0 -0.52930432920E+00 -0.12837757024E+01  0.12095742576E+01  0.18415518653E+01  0.51100000000E-03 0. -1.
        -11    1    3    3    0    0  0.18213309941E+01 -0.15281979101E+02  0.10055736348E+02  0.18384068254E+02  0.51100000000E-03 0.  1.
         12    1    3    3    0    0  0.20981733393E+01 -0.13789992872E+02  0.21842824533E+02  0.25916697675E+02  0.00000000000E+00 0. -1.
</event>
<event>
 7    1  0.8763410E-009  0.4614232E+02  0.7816164E-02  0.1320468E+00
        -11   -1    0    0    0    0  0.00000000000E+00  0.00000000000E+00  0.45593999997E+02  0.45594000000E+02  0.51100000000E-03 0. -1.
         11   -1    0    0    0    0 -0.00000000000E+00 -0.00000000000E+00 -0.45593999997E+02  0.45594000000E+02  0.51100000000E-03 0.  1.
    9900012    2    1    2    0    0 -0.18742072245E+02 -0.18816173487E+02 -0.36384059366E+02  0.46142318379E+02  0.10000005639E+02 0.  0.
         12    1    1    2    0    0  0.18742072245E+02  0.18816173487E+02  0.36384059366E+02  0.45045681621E+02  0.00000000000E+00 0. -1.
         11    1    3    3    0    0 -0.48004023479E+01 -0.17617662041E+01 -0.34699452352E+01  0.61796604321E+01  0.51100000000E-03 0. -1.
        -11    1    3    3    0    0 -0.73188739383E+00 -0.71492228782E-01 -0.12674176252E+00  0.74621312740E+00  0.51100000000E-03 0.  1.
        -12    1    3    3    0    0 -0.13209782503E+02 -0.16982915054E+02 -0.32787372368E+02  0.39216444820E+02  0.00000000000E+00 0.  1.
</event>
<event>
 7    1  0.5664398E-009  0.4614232E+02  0.7816164E-02  0.1320468E+00
        -11   -1    0    0    0    0  0.00000000000E+00  0.00000000000E+00  0.45593999997E+02  0.45594000000E+02  0.51100000000E-03 0. -1.
         11   -1    0    0    0    0 -0.00000000000E+00 -0.00000000000E+00 -0.45593999997E+02  0.45594000000E+02  0.51100000000E-03 0.  1.
    9900012    2    1    2    0    0  0.22598148100E+02 -0.68497808445E+01  0.38360368041E+02  0.46142316173E+02  0.99999855217E+01 0.  0.
        -12    1    1    2    0    0 -0.22598148100E+02  0.68497808445E+01 -0.38360368041E+02  0.45045683827E+02  0.00000000000E+00 0.  1.
         11    1    3    3    0    0  0.17648639173E+01 -0.17415306214E+01  0.20651273547E+01  0.32268289084E+01  0.51100000000E-03 0. -1.
        -11    1    3    3    0    0  0.33877776760E+01 -0.40011813873E+01  0.10770233425E+02  0.11978498169E+02  0.51100000000E-03 0.  1.
         12    1    3    3    0    0  0.17445506506E+02 -0.11070688358E+01  0.25525007261E+02  0.30936989096E+02  0.00000000000E+00 0. -1.
</event>
<event>
 7    1  0.5664398E-009  0.4614232E+02  0.7816164E-02  0.1320468E+00
        -11   -1    0    0    0    0  0.00000000000E+00  0.00000000000E+00  0.45593999997E+02  0.45594000000E+02  0.51100000000E-03 0. -1.
         11   -1    0    0    0    0 -0.00000000000E+00 -0.00000000000E+00 -0.45593999997E+02  0.45594000000E+02  0.51100000000E-03 0.  1.
    9900012    2    1    2    0    0  0.32109617778E+02  0.29273099598E+02  0.11881566568E+02  0.46142317210E+02  0.99999949728E+01 0.  0.
        -12    1    1    2    0    0 -0.32109617778E+02 -0.29273099598E+02 -0.11881566568E+02  0.45045682790E+02  0.00000000000E+00 0.  1.
         11    1    3    3    0    0  0.56036882509E+01  0.42150190643E+01  0.20601147093E+01  0.73083363772E+01  0.51100000000E-03 0. -1.
        -11    1    3    3    0    0  0.17968211856E+02  0.17329373396E+02  0.22778951932E+01  0.25066962848E+02  0.51100000000E-03 0.  1.
        -12    1    3    3    0    0  0.85377176711E+01  0.77287071371E+01  0.75435566651E+01  0.13767017985E+02  0.00000000000E+00 0.  1.
</event>
<event>
 7    1  0.5664398E-009  0.4614232E+02  0.7816164E-02  0.1320468E+00
        -11   -1    0    0    0    0  0.00000000000E+00  0.00000000000E+00  0.45593999997E+02  0.45594000000E+02  0.51100000000E-03 0. -1.
         11   -1    0    0    0    0 -0.00000000000E+00 -0.00000000000E+00 -0.45593999997E+02  0.45594000000E+02  0.51100000000E-03 0.  1.
    9900012    2    1    2    0    0 -0.29430873126E+02  0.16486635586E+02  0.29851768577E+02  0.46142317265E+02  0.99999954753E+01 0.  0.
        -12    1    1    2    0    0  0.29430873126E+02 -0.16486635586E+02 -0.29851768577E+02  0.45045682735E+02  0.00000000000E+00 0.  1.
         11    1    3    3    0    0 -0.11240874115E+02  0.41360640877E+01  0.12996788186E+02  0.17674297168E+02  0.51100000000E-03 0. -1.
        -11    1    3    3    0    0 -0.14753975264E+02  0.12544087066E+02  0.13133627254E+02  0.23399275021E+02  0.51100000000E-03 0.  1.
        -12    1    3    3    0    0 -0.34360237481E+01 -0.19351556730E+00  0.37213531366E+01  0.50687450754E+01  0.00000000000E+00 0.  1.
</event>
<event>
 7    1  0.5664398E-009  0.4614232E+02  0.7816164E-02  0.1320468E+00
        -11   -1    0    0    0    0  0.00000000000E+00  0.00000000000E+00  0.45593999997E+02  0.45594000000E+02  0.51100000000E-03 0. -1.
         11   -1    0    0    0    0 -0.00000000000E+00 -0.00000000000E+00 -0.45593999997E+02  0.45594000000E+02  0.51100000000E-03 0.  1.
    9900012    2    1    2    0    0 -0.31788769748E+02  0.89724804214E+01 -0.30628128231E+02  0.46142317344E+02  0.99999961956E+01 0.  0.
         12    1    1    2    0    0  0.31788769748E+02 -0.89724804214E+01  0.30628128231E+02  0.45045682656E+02  0.00000000000E+00 0. -1.
         11    1    3    3    0    0 -0.63368978521E+01  0.35185332111E+01 -0.10531936374E+02  0.12785070762E+02  0.51100000000E-03 0. -1.
        -11    1    3    3    0    0 -0.16042954542E+02  0.45572401334E+01 -0.15805567822E+02  0.22977397644E+02  0.51100000000E-03 0.  1.
         12    1    3    3    0    0 -0.94089173540E+01  0.89670707690E+00 -0.42906240357E+01  0.10379848938E+02  0.00000000000E+00 0. -1.
</event>
<event>
 7    1  0.5664398E-009  0.4614232E+02  0.7816164E-02  0.1320468E+00
        -11   -1    0    0    0    0  0.00000000000E+00  0.00000000000E+00  0.45593999997E+02  0.45594000000E+02  0.51100000000E-03 0. -1.
         11   -1    0    0    0    0 -0.00000000000E+00 -0.00000000000E+00 -0.45593999997E+02  0.45594000000E+02  0.51100000000E-03 0.  1.
    9900012    2    1    2    0    0  0.26827607349E+02 -0.15056476038E+02  0.32904338128E+02  0.46142318138E+02  0.10000003438E+02 0.  0.
        -12    1    1    2    0    0 -0.26827607349E+02  0.15056476038E+02 -0.32904338128E+02  0.45045681862E+02  0.00000000000E+00 0.  1.
         11    1    3    3    0    0  0.12084167651E+02 -0.48467316435E+01  0.13989417014E+02  0.19110774555E+02  0.51100000000E-03 0. -1.
        -11    1    3    3    0    0  0.62778249851E+00 -0.25150261179E+01  0.55482365161E+01  0.61239199814E+01  0.51100000000E-03 0.  1.
         12    1    3    3    0    0  0.14115657199E+02 -0.76947182770E+01  0.13366684598E+02  0.20907623602E+02  0.00000000000E+00 0. -1.
</event>
<event>
 7    1  0.5664398E-009  0.4614233E+02  0.7816164E-02  0.1320468E+00
        -11   -1    0    0    0    0  0.00000000000E+00  0.00000000000E+00  0.45593999997E+02  0.45594000000E+02  0.51100000000E-03 0. -1.
         11   -1    0    0    0    0 -0.00000000000E+00 -0.00000000000E+00 -0.45593999997E+02  0.45594000000E+02  0.51100000000E-03 0.  1.
    9900012    2    1    2    0    0 -0.30316108022E+02  0.16285717267E+02 -0.29065817348E+02  0.46142326172E+02  0.10000076699E+02 0.  0.
         12    1    1    2    0    0  0.30316108022E+02 -0.16285717267E+02  0.29065817348E+02  0.45045673828E+02  0.00000000000E+00 0. -1.
         11    1    3    3    0    0 -0.19570494190E+01  0.16636459340E+01 -0.56447739880E+01  0.62017121715E+01  0.51100000000E-03 0. -1.
        -11    1    3    3    0    0 -0.21142336692E+02  0.81537123024E+01 -0.16230904439E+02  0.27873350790E+02  0.51100000000E-03 0.  1.
         12    1    3    3    0    0 -0.72167219108E+01  0.64683590303E+01 -0.71901389215E+01  0.12067263211E+02  0.00000000000E+00 0. -1.
</event>
<event>
 7    1  0.5664398E-009  0.4614232E+02  0.7816164E-02  0.1320468E+00
        -11   -1    0    0    0    0  0.00000000000E+00  0.00000000000E+00  0.45593999997E+02  0.45594000000E+02  0.51100000000E-03 0. -1.
         11   -1    0    0    0    0 -0.00000000000E+00 -0.00000000000E+00 -0.45593999997E+02  0.45594000000E+02  0.51100000000E-03 0.  1.
    9900012    2    1    2    0    0  0.12790378604E+02 -0.30312098172E+02  0.30768432645E+02  0.46142317323E+02  0.99999960025E+01 0.  0.
        -12    1    1    2    0    0 -0.12790378604E+02  0.30312098172E+02 -0.30768432645E+02  0.45045682677E+02  0.00000000000E+00 0.  1.
         11    1    3    3    0    0  0.28654473016E+01 -0.15248116476E+02  0.13464255512E+02  0.20542687776E+02  0.51100000000E-03 0. -1.
        -11    1    3    3    0    0  0.37576719439E+01 -0.10518556385E+02  0.94973512295E+01  0.14661507682E+02  0.51100000000E-03 0.  1.
        -12    1    3    3    0    0  0.61672593580E+01 -0.45454253115E+01  0.78068259039E+01  0.10938121866E+02  0.00000000000E+00 0.  1.
</event>
<event>
 7    1  0.7206549E-009  0.4614232E+02  0.7816164E-02  0.1320468E+00
        -11   -1    0    0    0    0  0.00000000000E+00  0.00000000000E+00  0.45593999997E+02  0.45594000000E+02  0.51100000000E-03 0. -1.
         11   -1    0    0    0    0 -0.00000000000E+00 -0.00000000000E+00 -0.45593999997E+02  0.45594000000E+02  0.51100000000E-03 0.  1.
    9900012    2    1    2    0    0 -0.12299021872E+02  0.71146168108E+01  0.42746108482E+02  0.46142317612E+02  0.99999986439E+01 0.  0.
        -12    1    1    2    0    0  0.12299021872E+02 -0.71146168108E+01 -0.42746108482E+02  0.45045682388E+02  0.00000000000E+00 0.  1.
         11    1    3    3    0    0 -0.58674183906E+01  0.39245182448E+01  0.11245935261E+02  0.13277782277E+02  0.51100000000E-03 0. -1.
        -11    1    3    3    0    0 -0.16777567479E+01 -0.89937809130E+00  0.22384434002E+01  0.29384311755E+01  0.51100000000E-03 0.  1.
         12    1    3    3    0    0 -0.47538467338E+01  0.40894766573E+01  0.29261729821E+02  0.29926104160E+02  0.00000000000E+00 0. -1.
</event>
<event>
 7    1  0.5664398E-009  0.4614232E+02  0.7816164E-02  0.1320468E+00
        -11   -1    0    0    0    0  0.00000000000E+00  0.00000000000E+00  0.45593999997E+02  0.45594000000E+02  0.51100000000E-03 0. -1.
         11   -1    0    0    0    0 -0.00000000000E+00 -0.00000000000E+00 -0.45593999997E+02  0.45594000000E+02  0.51100000000E-03 0.  1.
    9900012    2    1    2    0    0 -0.43099557600E+02 -0.10351811490E+02 -0.80238170678E+01  0.46142317557E+02  0.99999981367E+01 0.  0.
         12    1    1    2    0    0  0.43099557600E+02  0.10351811490E+02  0.80238170678E+01  0.45045682443E+02  0.00000000000E+00 0. -1.
         11    1    3    3    0    0  0.20710625850E+00 -0.75372282823E-01  0.60006901842E+00  0.63926291251E+00  0.51100000000E-03 0. -1.
        -11    1    3    3    0    0 -0.22360816576E+02 -0.42944985414E+01 -0.61111884399E+01  0.23575314634E+02  0.51100000000E-03 0.  1.
         12    1    3    3    0    0 -0.20945847283E+02 -0.59819406659E+01 -0.25126976463E+01  0.21927740011E+02  0.00000000000E+00 0. -1.
</event>
<event>
 7    1  0.5664398E-009  0.4614232E+02  0.7816164E-02  0.1320468E+00
        -11   -1    0    0    0    0  0.00000000000E+00  0.00000000000E+00  0.45593999997E+02  0.45594000000E+02  0.51100000000E-03 0.  1.
         11   -1    0    0    0    0 -0.00000000000E+00 -0.00000000000E+00 -0.45593999997E+02  0.45594000000E+02  0.51100000000E-03 0. -1.
    9900012    2    1    2    0    0 -0.73129360966E+01 -0.40338973849E+02  0.18665522297E+02  0.46142316876E+02  0.99999919286E+01 0.  0.
        -12    1    1    2    0    0  0.73129360966E+01  0.40338973849E+02 -0.18665522297E+02  0.45045683124E+02  0.00000000000E+00 0.  1.
         11    1    3    3    0    0  0.93845905641E+00 -0.58481345458E+01  0.27582259582E+00  0.59293727689E+01  0.51100000000E-03 0. -1.
        -11    1    3    3    0    0 -0.52882234123E+01 -0.12589111426E+02  0.66736432170E+01  0.15198307386E+02  0.51100000000E-03 0.  1.
         12    1    3    3    0    0 -0.29631717407E+01 -0.21901727877E+02  0.11716056484E+02  0.25014636721E+02  0.00000000000E+00 0. -1.
</event>
<event>
 7    1  0.5664398E-009  0.4614232E+02  0.7816164E-02  0.1320468E+00
        -11   -1    0    0    0    0  0.00000000000E+00  0.00000000000E+00  0.45593999997E+02  0.45594000000E+02  0.51100000000E-03 0. -1.
         11   -1    0    0    0    0 -0.00000000000E+00 -0.00000000000E+00 -0.45593999997E+02  0.45594000000E+02  0.51100000000E-03 0.  1.
    9900012    2    1    2    0    0  0.36071760718E+02 -0.15730981661E+02  0.21919805128E+02  0.46142316942E+02  0.99999925337E+01 0.  0.
        -12    1    1    2    0    0 -0.36071760718E+02  0.15730981661E+02 -0.21919805128E+02  0.45045683058E+02  0.00000000000E+00 0.  1.
         11    1    3    3    0    0  0.69027193720E+01 -0.13200582514E+01  0.35647106183E+01  0.78801808716E+01  0.51100000000E-03 0. -1.
        -11    1    3    3    0    0  0.16673653689E+02 -0.36420069946E+01  0.88745009786E+01  0.19236208310E+02  0.51100000000E-03 0.  1.
         12    1    3    3    0    0  0.12495387657E+02 -0.10768916415E+02  0.94805935308E+01  0.19025927760E+02  0.00000000000E+00 0. -1.
</event>
<event>
 7    1  0.5664398E-009  0.4614232E+02  0.7816164E-02  0.1320468E+00
        -11   -1    0    0    0    0  0.00000000000E+00  0.00000000000E+00  0.45593999997E+02  0.45594000000E+02  0.51100000000E-03 0. -1.
         11   -1    0    0    0    0 -0.00000000000E+00 -0.00000000000E+00 -0.45593999997E+02  0.45594000000E+02  0.51100000000E-03 0.  1.
    9900012    2    1    2    0    0 -0.37484520283E+02 -0.23290108140E+02  0.90330029329E+01  0.46142317188E+02  0.99999947737E+01 0.  0.
        -12    1    1    2    0    0  0.37484520283E+02  0.23290108140E+02 -0.90330029329E+01  0.45045682812E+02  0.00000000000E+00 0.  1.
         11    1    3    3    0    0 -0.11708246539E+02 -0.77816390042E+01  0.38476816049E+01  0.14575376379E+02  0.51100000000E-03 0. -1.
        -11    1    3    3    0    0 -0.89466810661E+01 -0.76126543410E+01 -0.14329142187E+01  0.11834223744E+02  0.51100000000E-03 0.  1.
        -12    1    3    3    0    0 -0.16829592678E+02 -0.78958147946E+01  0.66182355468E+01  0.19732717064E+02  0.00000000000E+00 0.  1.
</event>
<event>
 7    1  0.5664398E-009  0.4614232E+02  0.7816164E-02  0.1320468E+00
        -11   -1    0    0    0    0  0.00000000000E+00  0.00000000000E+00  0.45593999997E+02  0.45594000000E+02  0.51100000000E-03 0. -1.
         11   -1    0    0    0    0 -0.00000000000E+00 -0.00000000000E+00 -0.45593999997E+02  0.45594000000E+02  0.51100000000E-03 0.  1.
    9900012    2    1    2    0    0 -0.35284473521E+01 -0.24415612537E+01 -0.44840857064E+02  0.46142316252E+02  0.99999862418E+01 0.  0.
         12    1    1    2    0    0  0.35284473521E+01  0.24415612537E+01  0.44840857064E+02  0.45045683748E+02  0.00000000000E+00 0. -1.
         11    1    3    3    0    0 -0.27005661862E+01  0.11739918782E+00 -0.38900369220E+01  0.47370062076E+01  0.51100000000E-03 0. -1.
        -11    1    3    3    0    0  0.18098045246E+01 -0.30363610905E+00 -0.25663250401E+02  0.25728777831E+02  0.51100000000E-03 0.  1.
         12    1    3    3    0    0 -0.26376856906E+01 -0.22553243325E+01 -0.15287569741E+02  0.15676532213E+02  0.00000000000E+00 0. -1.
</event>
<event>
 7    1  0.5664398E-009  0.4614232E+02  0.7816164E-02  0.1320468E+00
        -11   -1    0    0    0    0  0.00000000000E+00  0.00000000000E+00  0.45593999997E+02  0.45594000000E+02  0.51100000000E-03 0. -1.
         11   -1    0    0    0    0 -0.00000000000E+00 -0.00000000000E+00 -0.45593999997E+02  0.45594000000E+02  0.51100000000E-03 0.  1.
    9900012    2    1    2    0    0  0.16892648353E+02 -0.15500001635E+01 -0.41729471399E+02  0.46142324823E+02  0.10000064396E+02 0.  0.
         12    1    1    2    0    0 -0.16892648353E+02  0.15500001635E+01  0.41729471399E+02  0.45045675177E+02  0.00000000000E+00 0. -1.
         11    1    3    3    0    0  0.10985159992E+01  0.13269773035E+01 -0.11745983415E+02  0.11871635641E+02  0.51100000000E-03 0. -1.
        -11    1    3    3    0    0  0.90910019768E+01  0.22577062702E+00 -0.14502028285E+02  0.17117421358E+02  0.51100000000E-03 0.  1.
         12    1    3    3    0    0  0.67031303773E+01 -0.31027480940E+01 -0.15481459700E+02  0.17153267824E+02  0.00000000000E+00 0. -1.
</event>
<event>
 7    1  0.5664398E-009  0.4614232E+02  0.7816164E-02  0.1320468E+00
        -11   -1    0    0    0    0  0.00000000000E+00  0.00000000000E+00  0.45593999997E+02  0.45594000000E+02  0.51100000000E-03 0. -1.
         11   -1    0    0    0    0 -0.00000000000E+00 -0.00000000000E+00 -0.45593999997E+02  0.45594000000E+02  0.51100000000E-03 0.  1.
    9900012    2    1    2    0    0 -0.59804030645E+01  0.52276859290E+01 -0.44339819794E+02  0.46142317184E+02  0.99999947383E+01 0.  0.
         12    1    1    2    0    0  0.59804030645E+01 -0.52276859290E+01  0.44339819794E+02  0.45045682816E+02  0.00000000000E+00 0. -1.
         11    1    3    3    0    0 -0.21806028468E+01  0.35268849096E+01 -0.13977107769E+02  0.14579214238E+02  0.51100000000E-03 0. -1.
        -11    1    3    3    0    0 -0.17290537372E+01  0.45075309041E+01 -0.13339861033E+02  0.14186590651E+02  0.51100000000E-03 0.  1.
         12    1    3    3    0    0 -0.20707464805E+01 -0.28067298847E+01 -0.17022850992E+02  0.17376512295E+02  0.00000000000E+00 0. -1.
</event>
<event>
 7    1  0.5664398E-009  0.4614232E+02  0.7816164E-02  0.1320468E+00
        -11   -1    0    0    0    0  0.00000000000E+00  0.00000000000E+00  0.45593999997E+02  0.45594000000E+02  0.51100000000E-03 0. -1.
         11   -1    0    0    0    0 -0.00000000000E+00 -0.00000000000E+00 -0.45593999997E+02  0.45594000000E+02  0.51100000000E-03 0.  1.
    9900012    2    1    2    0    0  0.18715627922E+02  0.48929232375E+01 -0.40680438743E+02  0.46142317380E+02  0.99999965269E+01 0.  0.
         12    1    1    2    0    0 -0.18715627922E+02 -0.48929232375E+01  0.40680438743E+02  0.45045682620E+02  0.00000000000E+00 0. -1.
         11    1    3    3    0    0 -0.51053911548E+00 -0.55695452056E+00 -0.63301627860E+01  0.63750929158E+01  0.51100000000E-03 0. -1.
        -11    1    3    3    0    0  0.15683797375E+02  0.39316127443E+01 -0.27134756855E+02  0.31586929397E+02  0.51100000000E-03 0.  1.
         12    1    3    3    0    0  0.35423696622E+01  0.15182650137E+01 -0.72155191026E+01  0.81802950677E+01  0.00000000000E+00 0. -1.
</event>
<event>
 7    1  0.5664398E-009  0.4614232E+02  0.7816164E-02  0.1320468E+00
        -11   -1    0    0    0    0  0.00000000000E+00  0.00000000000E+00  0.45593999997E+02  0.45594000000E+02  0.51100000000E-03 0. -1.
         11   -1    0    0    0    0 -0.00000000000E+00 -0.00000000000E+00 -0.45593999997E+02  0.45594000000E+02  0.51100000000E-03 0.  1.
    9900012    2    1    2    0    0 -0.35486384206E+02 -0.13105010592E+02 -0.24455852287E+02  0.46142317879E+02  0.10000001073E+02 0.  0.
         12    1    1    2    0    0  0.35486384206E+02  0.13105010592E+02  0.24455852287E+02  0.45045682121E+02  0.00000000000E+00 0. -1.
         11    1    3    3    0    0 -0.10205350095E+02 -0.30666625088E+01 -0.77764620474E+01  0.13191927522E+02  0.51100000000E-03 0. -1.
        -11    1    3    3    0    0 -0.15819973443E+02 -0.10423311469E+02 -0.10894334049E+02  0.21854141400E+02  0.51100000000E-03 0.  1.
         12    1    3    3    0    0 -0.94610606685E+01  0.38496338486E+00 -0.57850561906E+01  0.11096248957E+02  0.00000000000E+00 0. -1.
</event>
<event>
 7    1  0.5664398E-009  0.4614232E+02  0.7816164E-02  0.1320468E+00
        -11   -1    0    0    0    0  0.00000000000E+00  0.00000000000E+00  0.45593999997E+02  0.45594000000E+02  0.51100000000E-03 0.  1.
         11   -1    0    0    0    0 -0.00000000000E+00 -0.00000000000E+00 -0.45593999997E+02  0.45594000000E+02  0.51100000000E-03 0. -1.
    9900012    2    1    2    0    0  0.34982783655E+02  0.32234889095E+01  0.28194458145E+02  0.46142317598E+02  0.99999985154E+01 0.  0.
        -12    1    1    2    0    0 -0.34982783655E+02 -0.32234889095E+01 -0.28194458145E+02  0.45045682402E+02  0.00000000000E+00 0.  1.
         11    1    3    3    0    0  0.99958978940E+01  0.17177989640E+01  0.65034970638E+01  0.12048414099E+02  0.51100000000E-03 0. -1.
        -11    1    3    3    0    0  0.21446867820E+02  0.33157119562E+01  0.15247851447E+02  0.26522802625E+02  0.51100000000E-03 0.  1.
        -12    1    3    3    0    0  0.35400179409E+01 -0.18100220106E+01  0.64431096333E+01  0.75711008742E+01  0.00000000000E+00 0.  1.
</event>
<event>
 7    1  0.5664398E-009  0.4614232E+02  0.7816164E-02  0.1320468E+00
        -11   -1    0    0    0    0  0.00000000000E+00  0.00000000000E+00  0.45593999997E+02  0.45594000000E+02  0.51100000000E-03 0. -1.
         11   -1    0    0    0    0 -0.00000000000E+00 -0.00000000000E+00 -0.45593999997E+02  0.45594000000E+02  0.51100000000E-03 0.  1.
    9900012    2    1    2    0    0 -0.37705491324E+01  0.44299878239E+02  0.72399729353E+01  0.46142318066E+02  0.10000002784E+02 0.  0.
         12    1    1    2    0    0  0.37705491324E+01 -0.44299878239E+02 -0.72399729353E+01  0.45045681934E+02  0.00000000000E+00 0. -1.
         11    1    3    3    0    0  0.77874479389E+00  0.21469338869E+01  0.15850508179E+01  0.27799559215E+01  0.51100000000E-03 0. -1.
        -11    1    3    3    0    0 -0.33663507905E+01  0.14758403938E+02 -0.91874197556E+00  0.15165318708E+02  0.51100000000E-03 0.  1.
        -12    1    3    3    0    0 -0.11829431357E+01  0.27394540414E+02  0.65736640930E+01  0.28197043437E+02  0.00000000000E+00 0.  1.
</event>
<event>
 7    1  0.5664398E-009  0.4614232E+02  0.7816164E-02  0.1320468E+00
        -11   -1    0    0    0    0  0.00000000000E+00  0.00000000000E+00  0.45593999997E+02  0.45594000000E+02  0.51100000000E-03 0. -1.
         11   -1    0    0    0    0 -0.00000000000E+00 -0.00000000000E+00 -0.45593999997E+02  0.45594000000E+02  0.51100000000E-03 0.  1.
    9900012    2    1    2    0    0 -0.44774699272E+02  0.47774605491E+01 -0.12311300389E+01  0.46142317572E+02  0.99999982797E+01 0.  0.
        -12    1    1    2    0    0  0.44774699272E+02 -0.47774605491E+01  0.12311300389E+01  0.45045682428E+02  0.00000000000E+00 0.  1.
         11    1    3    3    0    0 -0.23567486149E+02  0.19716671094E+01 -0.47516290019E+01  0.24122434641E+02  0.51100000000E-03 0. -1.
        -11    1    3    3    0    0 -0.28049784902E+00 -0.43952841292E+00 -0.11314390573E+00  0.53354107021E+00  0.51100000000E-03 0.  1.
         12    1    3    3    0    0 -0.20926715274E+02  0.32453218527E+01  0.36336428688E+01  0.21486341862E+02  0.00000000000E+00 0. -1.
</event>
<event>
 7    1  0.5664398E-009  0.4614232E+02  0.7816164E-02  0.1320468E+00
        -11   -1    0    0    0    0  0.00000000000E+00  0.00000000000E+00  0.45593999997E+02  0.45594000000E+02  0.51100000000E-03 0. -1.
         11   -1    0    0    0    0 -0.00000000000E+00 -0.00000000000E+00 -0.45593999997E+02  0.45594000000E+02  0.51100000000E-03 0.  1.
    9900012    2    1    2    0    0  0.34867964420E+02 -0.20519637952E+02  0.19806136996E+02  0.46142317108E+02  0.99999940442E+01 0.  0.
        -12    1    1    2    0    0 -0.34867964420E+02  0.20519637952E+02 -0.19806136996E+02  0.45045682892E+02  0.00000000000E+00 0.  1.
         11    1    3    3    0    0  0.13212096259E+02 -0.84115115685E+01  0.83389503560E+01  0.17744044289E+02  0.51100000000E-03 0. -1.
        -11    1    3    3    0    0  0.62094717311E+00 -0.18166653088E+01 -0.65583909341E+00  0.20287861922E+01  0.51100000000E-03 0.  1.
         12    1    3    3    0    0  0.21034920988E+02 -0.10291461075E+02  0.12123025733E+02  0.26369486627E+02  0.00000000000E+00 0. -1.
</event>
<event>
 7    1  0.5664398E-009  0.4614232E+02  0.7816164E-02  0.1320468E+00
        -11   -1    0    0    0    0  0.00000000000E+00  0.00000000000E+00  0.45593999997E+02  0.45594000000E+02  0.51100000000E-03 0. -1.
         11   -1    0    0    0    0 -0.00000000000E+00 -0.00000000000E+00 -0.45593999997E+02  0.45594000000E+02  0.51100000000E-03 0.  1.
    9900012    2    1    2    0    0  0.41156666652E+01  0.14805494594E+02  0.42343501052E+02  0.46142318036E+02  0.10000002507E+02 0.  0.
        -12    1    1    2    0    0 -0.41156666652E+01 -0.14805494594E+02 -0.42343501052E+02  0.45045681964E+02  0.00000000000E+00 0.  1.
         11    1    3    3    0    0  0.36764287215E+01  0.97912669070E+01  0.17876278991E+02  0.20711020898E+02  0.51100000000E-03 0. -1.
        -11    1    3    3    0    0  0.10507985318E+01 -0.62228400552E+00  0.33286905053E+01  0.35456446070E+01  0.51100000000E-03 0.  1.
        -12    1    3    3    0    0 -0.61156058805E+00  0.56365116929E+01  0.21138531555E+02  0.21885652531E+02  0.00000000000E+00 0.  1.
</event>
<event>
 7    1  0.5664398E-009  0.4614232E+02  0.7816164E-02  0.1320468E+00
        -11   -1    0    0    0    0  0.00000000000E+00  0.00000000000E+00  0.45593999997E+02  0.45594000000E+02  0.51100000000E-03 0. -1.
         11   -1    0    0    0    0 -0.00000000000E+00 -0.00000000000E+00 -0.45593999997E+02  0.45594000000E+02  0.51100000000E-03 0.  1.
    9900012    2    1    2    0    0  0.27504033041E+02 -0.23198121932E+02 -0.27101455611E+02  0.46142316623E+02  0.99999896177E+01 0.  0.
         12    1    1    2    0    0 -0.27504033041E+02  0.23198121932E+02  0.27101455611E+02  0.45045683377E+02  0.00000000000E+00 0. -1.
         11    1    3    3    0    0  0.97402480947E+01 -0.13359733340E+02 -0.13261307818E+02  0.21194744470E+02  0.51100000000E-03 0. -1.
        -11    1    3    3    0    0  0.69738736527E+01 -0.41655926466E+01 -0.81066624990E+01  0.11476282192E+02  0.51100000000E-03 0.  1.
        -12    1    3    3    0    0  0.10789911294E+02 -0.56727959452E+01 -0.57334852943E+01  0.13471289960E+02  0.00000000000E+00 0.  1.
</event>
<event>
 7    1  0.5664398E-009  0.4614232E+02  0.7816164E-02  0.1320468E+00
        -11   -1    0    0    0    0  0.00000000000E+00  0.00000000000E+00  0.45593999997E+02  0.45594000000E+02  0.51100000000E-03 0. -1.
         11   -1    0    0    0    0 -0.00000000000E+00 -0.00000000000E+00 -0.45593999997E+02  0.45594000000E+02  0.51100000000E-03 0.  1.
    9900012    2    1    2    0    0 -0.20527581131E+02  0.94041563200E+01  0.38978117949E+02  0.46142318498E+02  0.10000006719E+02 0.  0.
        -12    1    1    2    0    0  0.20527581131E+02 -0.94041563200E+01 -0.38978117949E+02  0.45045681502E+02  0.00000000000E+00 0.  1.
         11    1    3    3    0    0 -0.15514882207E+00 -0.22236714206E+00  0.17389760363E+01  0.17599875621E+01  0.51100000000E-03 0. -1.
        -11    1    3    3    0    0 -0.68455933765E+01  0.19225773501E+01  0.53562542103E+01  0.89021296200E+01  0.51100000000E-03 0.  1.
        -12    1    3    3    0    0 -0.13526838932E+02  0.77039461119E+01  0.31882887702E+02  0.35480201316E+02  0.00000000000E+00 0.  1.
</event>
<event>
 7    1  0.5664398E-009  0.4614232E+02  0.7816164E-02  0.1320468E+00
        -11   -1    0    0    0    0  0.00000000000E+00  0.00000000000E+00  0.45593999997E+02  0.45594000000E+02  0.51100000000E-03 0. -1.
         11   -1    0    0    0    0 -0.00000000000E+00 -0.00000000000E+00 -0.45593999997E+02  0.45594000000E+02  0.51100000000E-03 0.  1.
    9900012    2    1    2    0    0  0.30291197386E+02  0.19014898942E+02 -0.27385953871E+02  0.46142317740E+02  0.99999998065E+01 0.  0.
         12    1    1    2    0    0 -0.30291197386E+02 -0.19014898942E+02  0.27385953871E+02  0.45045682260E+02  0.00000000000E+00 0. -1.
         11    1    3    3    0    0  0.82890296862E+01  0.17958284942E+01 -0.59018050965E+01  0.10332681974E+02  0.51100000000E-03 0. -1.
        -11    1    3    3    0    0  0.74578938093E+01  0.23093237360E+01 -0.63411247075E+01  0.10057982850E+02  0.51100000000E-03 0.  1.
        -12    1    3    3    0    0  0.14544273891E+02  0.14909746712E+02 -0.15143024067E+02  0.25751652916E+02  0.00000000000E+00 0.  1.
</event>
<event>
 7    1  0.5664398E-009  0.4614232E+02  0.7816164E-02  0.1320468E+00
        -11   -1    0    0    0    0  0.00000000000E+00  0.00000000000E+00  0.45593999997E+02  0.45594000000E+02  0.51100000000E-03 0. -1.
         11   -1    0    0    0    0 -0.00000000000E+00 -0.00000000000E+00 -0.45593999997E+02  0.45594000000E+02  0.51100000000E-03 0.  1.
    9900012    2    1    2    0    0  0.10744058414E+02  0.87554943489E+01 -0.42860472007E+02  0.46142317264E+02  0.99999954658E+01 0.  0.
         12    1    1    2    0    0 -0.10744058414E+02 -0.87554943489E+01  0.42860472007E+02  0.45045682736E+02  0.00000000000E+00 0. -1.
         11    1    3    3    0    0  0.46453642876E+01  0.19483520407E+01 -0.83030723955E+01  0.97116680598E+01  0.51100000000E-03 0. -1.
        -11    1    3    3    0    0  0.76939840096E+01  0.59046881510E+01 -0.28992125781E+02  0.30571327902E+02  0.51100000000E-03 0.  1.
        -12    1    3    3    0    0 -0.15952898831E+01  0.90245415722E+00 -0.55652738301E+01  0.58593213021E+01  0.00000000000E+00 0.  1.
</event>
<event>
 7    1  0.5664398E-009  0.4614232E+02  0.7816164E-02  0.1320468E+00
        -11   -1    0    0    0    0  0.00000000000E+00  0.00000000000E+00  0.45593999997E+02  0.45594000000E+02  0.51100000000E-03 0. -1.
         11   -1    0    0    0    0 -0.00000000000E+00 -0.00000000000E+00 -0.45593999997E+02  0.45594000000E+02  0.51100000000E-03 0.  1.
    9900012    2    1    2    0    0  0.12058415142E+02 -0.25290936507E+02  0.35271470367E+02  0.46142317999E+02  0.10000002166E+02 0.  0.
        -12    1    1    2    0    0 -0.12058415142E+02  0.25290936507E+02 -0.35271470367E+02  0.45045682001E+02  0.00000000000E+00 0.  1.
         11    1    3    3    0    0  0.85552856630E+01 -0.16647096932E+02  0.18691008285E+02  0.26451323975E+02  0.51100000000E-03 0. -1.
        -11    1    3    3    0    0  0.38288760339E+01 -0.35127770828E+01  0.10594458139E+02  0.11800103306E+02  0.51100000000E-03 0.  1.
         12    1    3    3    0    0 -0.32574655527E+00 -0.51310624924E+01  0.59860039426E+01  0.78908907177E+01  0.00000000000E+00 0. -1.
</event>
<event>
 7    1  0.5664398E-009  0.4614231E+02  0.7816164E-02  0.1320468E+00
        -11   -1    0    0    0    0  0.00000000000E+00  0.00000000000E+00  0.45593999997E+02  0.45594000000E+02  0.51100000000E-03 0. -1.
         11   -1    0    0    0    0 -0.00000000000E+00 -0.00000000000E+00 -0.45593999997E+02  0.45594000000E+02  0.51100000000E-03 0.  1.
    9900012    2    1    2    0    0  0.26393155979E+02 -0.10624904192E+02 -0.34923156067E+02  0.46142310958E+02  0.99999379627E+01 0.  0.
         12    1    1    2    0    0 -0.26393155979E+02  0.10624904192E+02  0.34923156067E+02  0.45045689042E+02  0.00000000000E+00 0. -1.
         11    1    3    3    0    0  0.23111614130E+00 -0.19487908554E+01 -0.44311854032E+01  0.48462980519E+01  0.51100000000E-03 0. -1.
        -11    1    3    3    0    0  0.14896275113E+02 -0.64192005042E+01 -0.19856823229E+02  0.25639785029E+02  0.51100000000E-03 0.  1.
        -12    1    3    3    0    0  0.11265764725E+02 -0.22569128320E+01 -0.10635147435E+02  0.15656227877E+02  0.00000000000E+00 0.  1.
</event>
<event>
 7    1  0.5664398E-009  0.4614232E+02  0.7816164E-02  0.1320468E+00
        -11   -1    0    0    0    0  0.00000000000E+00  0.00000000000E+00  0.45593999997E+02  0.45594000000E+02  0.51100000000E-03 0. -1.
         11   -1    0    0    0    0 -0.00000000000E+00 -0.00000000000E+00 -0.45593999997E+02  0.45594000000E+02  0.51100000000E-03 0.  1.
    9900012    2    1    2    0    0  0.44768979327E+01  0.84254926863E+01 -0.44023651540E+02  0.46142318331E+02  0.10000005197E+02 0.  0.
         12    1    1    2    0    0 -0.44768979327E+01 -0.84254926863E+01  0.44023651540E+02  0.45045681669E+02  0.00000000000E+00 0. -1.
         11    1    3    3    0    0  0.19920244123E+01  0.46138409109E+01 -0.31818262280E+02  0.32212691660E+02  0.51100000000E-03 0. -1.
        -11    1    3    3    0    0 -0.13655582874E+00  0.32450271967E+01 -0.98099926834E+01  0.10333673389E+02  0.51100000000E-03 0.  1.
        -12    1    3    3    0    0  0.26214293491E+01  0.56662457877E+00 -0.23953965763E+01  0.35959532816E+01  0.00000000000E+00 0.  1.
</event>
<event>
 7    1  0.5664398E-009  0.4614232E+02  0.7816164E-02  0.1320468E+00
        -11   -1    0    0    0    0  0.00000000000E+00  0.00000000000E+00  0.45593999997E+02  0.45594000000E+02  0.51100000000E-03 0. -1.
         11   -1    0    0    0    0 -0.00000000000E+00 -0.00000000000E+00 -0.45593999997E+02  0.45594000000E+02  0.51100000000E-03 0.  1.
    9900012    2    1    2    0    0 -0.67070015369E+01 -0.33384836721E+02 -0.29488680848E+02  0.46142317736E+02  0.99999997689E+01 0.  0.
         12    1    1    2    0    0  0.67070015369E+01  0.33384836721E+02  0.29488680848E+02  0.45045682264E+02  0.00000000000E+00 0. -1.
         11    1    3    3    0    0 -0.30380936817E+01 -0.16057642265E+02 -0.15737891783E+02  0.22688303735E+02  0.51100000000E-03 0.  1.
        -11    1    3    3    0    0  0.44396501852E+00 -0.11149443858E+02 -0.57926452288E+01  0.12572268781E+02  0.51100000000E-03 0. -1.
         12    1    3    3    0    0 -0.41128728738E+01 -0.61777505980E+01 -0.79581438360E+01  0.10881745220E+02  0.00000000000E+00 0. -1.
</event>
<event>
 7    1  0.5664398E-009  0.4614232E+02  0.7816164E-02  0.1320468E+00
        -11   -1    0    0    0    0  0.00000000000E+00  0.00000000000E+00  0.45593999997E+02  0.45594000000E+02  0.51100000000E-03 0. -1.
         11   -1    0    0    0    0 -0.00000000000E+00 -0.00000000000E+00 -0.45593999997E+02  0.45594000000E+02  0.51100000000E-03 0.  1.
    9900012    2    1    2    0    0  0.17166451429E+02 -0.58270850345E+01  0.41236773835E+02  0.46142317732E+02  0.99999997341E+01 0.  0.
        -12    1    1    2    0    0 -0.17166451429E+02  0.58270850345E+01 -0.41236773835E+02  0.45045682268E+02  0.00000000000E+00 0.  1.
         11    1    3    3    0    0  0.14996424539E+02 -0.44707433486E+01  0.32543222730E+02  0.36110132109E+02  0.51100000000E-03 0. -1.
        -11    1    3    3    0    0  0.68311128393E+00 -0.26243980154E+01  0.67574779338E+01  0.72813195408E+01  0.51100000000E-03 0.  1.
         12    1    3    3    0    0  0.14869156063E+01  0.12680563296E+01  0.19360731715E+01  0.27508660819E+01  0.00000000000E+00 0. -1.
</event>
<event>
 7    1  0.5664398E-009  0.4614232E+02  0.7816164E-02  0.1320468E+00
        -11   -1    0    0    0    0  0.00000000000E+00  0.00000000000E+00  0.45593999997E+02  0.45594000000E+02  0.51100000000E-03 0. -1.
         11   -1    0    0    0    0 -0.00000000000E+00 -0.00000000000E+00 -0.45593999997E+02  0.45594000000E+02  0.51100000000E-03 0.  1.
    9900012    2    1    2    0    0 -0.19837094229E+02  0.13141021271E+02  0.38248093185E+02  0.46142318966E+02  0.10000010991E+02 0.  0.
        -12    1    1    2    0    0  0.19837094229E+02 -0.13141021271E+02 -0.38248093185E+02  0.45045681034E+02  0.00000000000E+00 0.  1.
         11    1    3    3    0    0 -0.63180186567E+01  0.18415837645E+00  0.13076666685E+02  0.14524134601E+02  0.51100000000E-03 0. -1.
        -11    1    3    3    0    0 -0.95255713008E+01  0.10713122358E+02  0.20975231825E+02  0.25406059310E+02  0.51100000000E-03 0.  1.
        -12    1    3    3    0    0 -0.39935042714E+01  0.22437405365E+01  0.41961946747E+01  0.62121250558E+01  0.00000000000E+00 0.  1.
</event>
<event>
 7    1  0.5664398E-009  0.4614232E+02  0.7816164E-02  0.1320468E+00
        -11   -1    0    0    0    0  0.00000000000E+00  0.00000000000E+00  0.45593999997E+02  0.45594000000E+02  0.51100000000E-03 0. -1.
         11   -1    0    0    0    0 -0.00000000000E+00 -0.00000000000E+00 -0.45593999997E+02  0.45594000000E+02  0.51100000000E-03 0.  1.
    9900012    2    1    2    0    0 -0.32560647253E+01  0.11513136636E+02 -0.43427630761E+02  0.46142318895E+02  0.10000010341E+02 0.  0.
         12    1    1    2    0    0  0.32560647253E+01 -0.11513136636E+02  0.43427630761E+02  0.45045681105E+02  0.00000000000E+00 0. -1.
         11    1    3    3    0    0  0.23428674860E+01  0.30161053776E+01 -0.87079649238E+01  0.95086577960E+01  0.51100000000E-03 0. -1.
        -11    1    3    3    0    0  0.28282056625E+00  0.11392447931E+01 -0.77588584751E+00  0.14070768568E+01  0.51100000000E-03 0.  1.
         12    1    3    3    0    0 -0.58817527775E+01  0.73577864650E+01 -0.33943779990E+02  0.35226584242E+02  0.00000000000E+00 0. -1.
</event>
<event>
 7    1  0.5664398E-009  0.4614232E+02  0.7816164E-02  0.1320468E+00
        -11   -1    0    0    0    0  0.00000000000E+00  0.00000000000E+00  0.45593999997E+02  0.45594000000E+02  0.51100000000E-03 0. -1.
         11   -1    0    0    0    0 -0.00000000000E+00 -0.00000000000E+00 -0.45593999997E+02  0.45594000000E+02  0.51100000000E-03 0.  1.
    9900012    2    1    2    0    0 -0.33240772715E+02 -0.26449995154E+02  0.14985402421E+02  0.46142317631E+02  0.99999988173E+01 0.  0.
        -12    1    1    2    0    0  0.33240772715E+02  0.26449995154E+02 -0.14985402421E+02  0.45045682369E+02  0.00000000000E+00 0.  1.
         11    1    3    3    0    0 -0.20681087035E+02 -0.17239875431E+02  0.97694776552E+01  0.28641985961E+02  0.51100000000E-03 0. -1.
        -11    1    3    3    0    0 -0.51744628547E+00 -0.85627315477E+00  0.23671581386E+01  0.25699012215E+01  0.51100000000E-03 0.  1.
         12    1    3    3    0    0 -0.12042239394E+02 -0.83538465679E+01  0.28487666269E+01  0.14930430449E+02  0.00000000000E+00 0. -1.
</event>
<event>
 7    1  0.5664398E-009  0.4614233E+02  0.7816164E-02  0.1320468E+00
        -11   -1    0    0    0    0  0.00000000000E+00  0.00000000000E+00  0.45593999997E+02  0.45594000000E+02  0.51100000000E-03 0. -1.
         11   -1    0    0    0    0 -0.00000000000E+00 -0.00000000000E+00 -0.45593999997E+02  0.45594000000E+02  0.51100000000E-03 0.  1.
    9900012    2    1    2    0    0  0.22115956334E+02  0.18943495104E+02  0.34367728138E+02  0.46142331299E+02  0.10000123452E+02 0.  0.
        -12    1    1    2    0    0 -0.22115956334E+02 -0.18943495104E+02 -0.34367728138E+02  0.45045668701E+02  0.00000000000E+00 0.  1.
         11    1    3    3    0    0  0.79454711511E+01  0.84780059394E+01  0.16271916798E+02  0.19994558586E+02  0.51100000000E-03 0. -1.
        -11    1    3    3    0    0 -0.39462168352E+00  0.78823758418E+00  0.27308421156E+01  0.28695894625E+01  0.51100000000E-03 0.  1.
         12    1    3    3    0    0  0.14565106867E+02  0.96772515801E+01  0.15364969225E+02  0.23278183251E+02  0.00000000000E+00 0. -1.
</event>
<event>
 7    1  0.5664398E-009  0.4614232E+02  0.7816164E-02  0.1320468E+00
        -11   -1    0    0    0    0  0.00000000000E+00  0.00000000000E+00  0.45593999997E+02  0.45594000000E+02  0.51100000000E-03 0. -1.
         11   -1    0    0    0    0 -0.00000000000E+00 -0.00000000000E+00 -0.45593999997E+02  0.45594000000E+02  0.51100000000E-03 0.  1.
    9900012    2    1    2    0    0  0.38170684133E+02  0.40132513103E+01 -0.23579782346E+02  0.46142318201E+02  0.10000004011E+02 0.  0.
         12    1    1    2    0    0 -0.38170684133E+02 -0.40132513103E+01  0.23579782346E+02  0.45045681799E+02  0.00000000000E+00 0. -1.
         11    1    3    3    0    0  0.21682524381E+01  0.61873802449E+00  0.46868868734E-01  0.22552942890E+01  0.51100000000E-03 0. -1.
        -11    1    3    3    0    0  0.15987360125E+02  0.37211499961E+01 -0.69204116759E+01  0.17813891745E+02  0.51100000000E-03 0.  1.
        -12    1    3    3    0    0  0.20015071569E+02 -0.32663671030E+00 -0.16706239539E+02  0.26073132167E+02  0.00000000000E+00 0.  1.
</event>
<event>
 7    1  0.5664398E-009  0.4614232E+02  0.7816164E-02  0.1320468E+00
        -11   -1    0    0    0    0  0.00000000000E+00  0.00000000000E+00  0.45593999997E+02  0.45594000000E+02  0.51100000000E-03 0. -1.
         11   -1    0    0    0    0 -0.00000000000E+00 -0.00000000000E+00 -0.45593999997E+02  0.45594000000E+02  0.51100000000E-03 0.  1.
    9900012    2    1    2    0    0  0.14349568823E+02  0.37554794446E+02 -0.20318483530E+02  0.46142317807E+02  0.10000000415E+02 0.  0.
         12    1    1    2    0    0 -0.14349568823E+02 -0.37554794446E+02  0.20318483530E+02  0.45045682193E+02  0.00000000000E+00 0. -1.
         11    1    3    3    0    0  0.31511692248E+01  0.20096387850E+01 -0.24042417287E+01  0.44439727813E+01  0.51100000000E-03 0. -1.
        -11    1    3    3    0    0  0.90835325698E+01  0.32146323749E+02 -0.14419165001E+02  0.36384186319E+02  0.51100000000E-03 0.  1.
        -12    1    3    3    0    0  0.21148670287E+01  0.33988319123E+01 -0.34950768000E+01  0.53141587062E+01  0.00000000000E+00 0.  1.
</event>
<event>
 7    1  0.5664398E-009  0.4614232E+02  0.7816164E-02  0.1320468E+00
        -11   -1    0    0    0    0  0.00000000000E+00  0.00000000000E+00  0.45593999997E+02  0.45594000000E+02  0.51100000000E-03 0. -1.
         11   -1    0    0    0    0 -0.00000000000E+00 -0.00000000000E+00 -0.45593999997E+02  0.45594000000E+02  0.51100000000E-03 0.  1.
    9900012    2    1    2    0    0 -0.89977902592E+01  0.21291340173E+02 -0.38663060610E+02  0.46142315948E+02  0.99999834693E+01 0.  0.
         12    1    1    2    0    0  0.89977902592E+01 -0.21291340173E+02  0.38663060610E+02  0.45045684052E+02  0.00000000000E+00 0. -1.
         11    1    3    3    0    0 -0.47703343691E+00  0.66873421173E+01 -0.67284899089E+01  0.94984568331E+01  0.51100000000E-03 0. -1.
        -11    1    3    3    0    0 -0.44934306784E+00  0.41591081124E+01 -0.41983418461E+01  0.59267329956E+01  0.51100000000E-03 0.  1.
        -12    1    3    3    0    0 -0.80714137545E+01  0.10444889943E+02 -0.27736228855E+02  0.30717126120E+02  0.00000000000E+00 0.  1.
</event>
<event>
 7    1  0.5664398E-009  0.4614232E+02  0.7816164E-02  0.1320468E+00
        -11   -1    0    0    0    0  0.00000000000E+00  0.00000000000E+00  0.45593999997E+02  0.45594000000E+02  0.51100000000E-03 0. -1.
         11   -1    0    0    0    0 -0.00000000000E+00 -0.00000000000E+00 -0.45593999997E+02  0.45594000000E+02  0.51100000000E-03 0.  1.
    9900012    2    1    2    0    0  0.25980909773E+01  0.33754232164E+02  0.29715570531E+02  0.46142318767E+02  0.10000009176E+02 0.  0.
        -12    1    1    2    0    0 -0.25980909773E+01 -0.33754232164E+02 -0.29715570531E+02  0.45045681233E+02  0.00000000000E+00 0.  1.
         11    1    3    3    0    0  0.57424008907E+00  0.84863091527E+01  0.10650103057E+02  0.13629816217E+02  0.51100000000E-03 0. -1.
        -11    1    3    3    0    0  0.33293857639E+01  0.65759810318E+01  0.73770864284E+01  0.10428314367E+02  0.51100000000E-03 0.  1.
         12    1    3    3    0    0 -0.13055348756E+01  0.18691941980E+02  0.11688381045E+02  0.22084188184E+02  0.00000000000E+00 0. -1.
</event>
<event>
 7    1  0.5664398E-009  0.4614232E+02  0.7816164E-02  0.1320468E+00
        -11   -1    0    0    0    0  0.00000000000E+00  0.00000000000E+00  0.45593999997E+02  0.45594000000E+02  0.51100000000E-03 0.  1.
         11   -1    0    0    0    0 -0.00000000000E+00 -0.00000000000E+00 -0.45593999997E+02  0.45594000000E+02  0.51100000000E-03 0. -1.
    9900012    2    1    2    0    0  0.44834447498E+02  0.28325154955E+01 -0.33110137693E+01  0.46142316093E+02  0.99999847857E+01 0.  0.
        -12    1    1    2    0    0 -0.44834447498E+02 -0.28325154955E+01  0.33110137693E+01  0.45045683907E+02  0.00000000000E+00 0.  1.
         11    1    3    3    0    0  0.41830121982E+01 -0.17790894568E+00 -0.10550258744E+00  0.41881229328E+01  0.51100000000E-03 0. -1.
        -11    1    3    3    0    0  0.59708533936E+01  0.35658545585E+01  0.95760724242E+00  0.70202151586E+01  0.51100000000E-03 0.  1.
        -12    1    3    3    0    0  0.34680581906E+02 -0.55543011731E+00 -0.41631184243E+01  0.34933978001E+02  0.00000000000E+00 0.  1.
</event>
<event>
 7    1  0.5664398E-009  0.4614232E+02  0.7816164E-02  0.1320468E+00
        -11   -1    0    0    0    0  0.00000000000E+00  0.00000000000E+00  0.45593999997E+02  0.45594000000E+02  0.51100000000E-03 0.  1.
         11   -1    0    0    0    0 -0.00000000000E+00 -0.00000000000E+00 -0.45593999997E+02  0.45594000000E+02  0.51100000000E-03 0. -1.
    9900012    2    1    2    0    0  0.88075419108E+01  0.42305294223E+02  0.12720168317E+02  0.46142318788E+02  0.10000009368E+02 0.  0.
        -12    1    1    2    0    0 -0.88075419108E+01 -0.42305294223E+02 -0.12720168317E+02  0.45045681212E+02  0.00000000000E+00 0.  1.
         11    1    3    3    0    0  0.34856880534E+01  0.22362188144E+02  0.45447138672E+01  0.23084018371E+02  0.51100000000E-03 0. -1.
        -11    1    3    3    0    0  0.12692917654E+01  0.11792988947E+01  0.24976975892E+01  0.30397929168E+01  0.51100000000E-03 0.  1.
        -12    1    3    3    0    0  0.40525620919E+01  0.18763807185E+02  0.56777568602E+01  0.20018507500E+02  0.00000000000E+00 0.  1.
</event>
<event>
 7    1  0.5664398E-009  0.4614232E+02  0.7816164E-02  0.1320468E+00
        -11   -1    0    0    0    0  0.00000000000E+00  0.00000000000E+00  0.45593999997E+02  0.45594000000E+02  0.51100000000E-03 0. -1.
         11   -1    0    0    0    0 -0.00000000000E+00 -0.00000000000E+00 -0.45593999997E+02  0.45594000000E+02  0.51100000000E-03 0.  1.
    9900012    2    1    2    0    0 -0.32448133842E+02  0.20438497100E+02 -0.23632605197E+02  0.46142316722E+02  0.99999905256E+01 0.  0.
         12    1    1    2    0    0  0.32448133842E+02 -0.20438497100E+02  0.23632605197E+02  0.45045683278E+02  0.00000000000E+00 0. -1.
         11    1    3    3    0    0 -0.11231886970E+00  0.19397692331E+01 -0.12852019036E+01  0.23296060612E+01  0.51100000000E-03 0. -1.
        -11    1    3    3    0    0 -0.32284437341E+02  0.18215928053E+02 -0.21356355270E+02  0.42780823273E+02  0.51100000000E-03 0.  1.
        -12    1    3    3    0    0 -0.51377631881E-01  0.28279981375E+00 -0.99104802377E+00  0.10318873878E+01  0.00000000000E+00 0.  1.
</event>
<event>
 7    1  0.5664398E-009  0.4614232E+02  0.7816164E-02  0.1320468E+00
        -11   -1    0    0    0    0  0.00000000000E+00  0.00000000000E+00  0.45593999997E+02  0.45594000000E+02  0.51100000000E-03 0. -1.
         11   -1    0    0    0    0 -0.00000000000E+00 -0.00000000000E+00 -0.45593999997E+02  0.45594000000E+02  0.51100000000E-03 0.  1.
    9900012    2    1    2    0    0 -0.13627318631E+02 -0.42900978803E+02 -0.17075211697E+01  0.46142318477E+02  0.10000006526E+02 0.  0.
         12    1    1    2    0    0  0.13627318631E+02  0.42900978803E+02  0.17075211697E+01  0.45045681523E+02  0.00000000000E+00 0. -1.
         11    1    3    3    0    0  0.93440354571E+00 -0.15198978576E+01  0.11603543056E+01  0.21282908305E+01  0.51100000000E-03 0. -1.
        -11    1    3    3    0    0 -0.52765235153E+01 -0.13533233647E+02 -0.66660985342E-01  0.14525651700E+02  0.51100000000E-03 0.  1.
         12    1    3    3    0    0 -0.92851986613E+01 -0.27847847299E+02 -0.28012144900E+01  0.29488375947E+02  0.00000000000E+00 0. -1.
</event>
<event>
 7    1  0.5664398E-009  0.4614232E+02  0.7816164E-02  0.1320468E+00
        -11   -1    0    0    0    0  0.00000000000E+00  0.00000000000E+00  0.45593999997E+02  0.45594000000E+02  0.51100000000E-03 0. -1.
         11   -1    0    0    0    0 -0.00000000000E+00 -0.00000000000E+00 -0.45593999997E+02  0.45594000000E+02  0.51100000000E-03 0.  1.
    9900012    2    1    2    0    0  0.10080102702E+02 -0.12988773072E+02 -0.41938013881E+02  0.46142315360E+02  0.99999781079E+01 0.  0.
         12    1    1    2    0    0 -0.10080102702E+02  0.12988773072E+02  0.41938013881E+02  0.45045684640E+02  0.00000000000E+00 0. -1.
         11    1    3    3    0    0 -0.65386560450E+00  0.33491962263E+00 -0.92283996398E+00  0.11795529842E+01  0.51100000000E-03 0. -1.
        -11    1    3    3    0    0  0.11291321861E+02 -0.13664743456E+02 -0.40046501014E+02  0.43794307927E+02  0.51100000000E-03 0.  1.
        -12    1    3    3    0    0 -0.55735355464E+00  0.34105076157E+00 -0.96867290285E+00  0.11684544491E+01  0.00000000000E+00 0.  1.
</event>
<event>
 7    1  0.5664398E-009  0.4614232E+02  0.7816164E-02  0.1320468E+00
        -11   -1    0    0    0    0  0.00000000000E+00  0.00000000000E+00  0.45593999997E+02  0.45594000000E+02  0.51100000000E-03 0. -1.
         11   -1    0    0    0    0 -0.00000000000E+00 -0.00000000000E+00 -0.45593999997E+02  0.45594000000E+02  0.51100000000E-03 0.  1.
    9900012    2    1    2    0    0  0.13780852969E+02  0.28342791055E+02 -0.32185210797E+02  0.46142317550E+02  0.99999980775E+01 0.  0.
         12    1    1    2    0    0 -0.13780852969E+02 -0.28342791055E+02  0.32185210797E+02  0.45045682450E+02  0.00000000000E+00 0. -1.
         11    1    3    3    0    0  0.86717309505E+00  0.36306058084E+01 -0.12938736676E+01  0.39506198300E+01  0.51100000000E-03 0. -1.
        -11    1    3    3    0    0  0.47746221782E+01  0.16248044112E+02 -0.16886958758E+02  0.23915796678E+02  0.51100000000E-03 0.  1.
         12    1    3    3    0    0  0.81390576962E+01  0.84641411338E+01 -0.14004378372E+02  0.18275901042E+02  0.00000000000E+00 0. -1.
</event>
<event>
 7    1  0.5664398E-009  0.4614232E+02  0.7816164E-02  0.1320468E+00
        -11   -1    0    0    0    0  0.00000000000E+00  0.00000000000E+00  0.45593999997E+02  0.45594000000E+02  0.51100000000E-03 0. -1.
         11   -1    0    0    0    0 -0.00000000000E+00 -0.00000000000E+00 -0.45593999997E+02  0.45594000000E+02  0.51100000000E-03 0.  1.
    9900012    2    1    2    0    0  0.52796542895E+01 -0.10948379723E+02 -0.43374781137E+02  0.46142318668E+02  0.10000008270E+02 0.  0.
         12    1    1    2    0    0 -0.52796542895E+01  0.10948379723E+02  0.43374781137E+02  0.45045681332E+02  0.00000000000E+00 0. -1.
         11    1    3    3    0    0 -0.55370353744E+00 -0.28592486742E+01 -0.29367163602E+01  0.41359634705E+01  0.51100000000E-03 0. -1.
        -11    1    3    3    0    0  0.17843708308E+01  0.17924921837E+00 -0.34325196504E+01  0.38727639943E+01  0.51100000000E-03 0.  1.
        -12    1    3    3    0    0  0.40489869961E+01 -0.82683802668E+01 -0.37005545127E+02  0.38133591203E+02  0.00000000000E+00 0.  1.
</event>
<event>
 7    1  0.5664398E-009  0.4614232E+02  0.7816164E-02  0.1320468E+00
        -11   -1    0    0    0    0  0.00000000000E+00  0.00000000000E+00  0.45593999997E+02  0.45594000000E+02  0.51100000000E-03 0. -1.
         11   -1    0    0    0    0 -0.00000000000E+00 -0.00000000000E+00 -0.45593999997E+02  0.45594000000E+02  0.51100000000E-03 0.  1.
    9900012    2    1    2    0    0 -0.11371938608E+02  0.11282770680E+02  0.42100970159E+02  0.46142316630E+02  0.99999896900E+01 0.  0.
        -12    1    1    2    0    0  0.11371938608E+02 -0.11282770680E+02 -0.42100970159E+02  0.45045683370E+02  0.00000000000E+00 0.  1.
         11    1    3    3    0    0 -0.14892404138E+01 -0.30477321844E+00  0.44951780690E+01  0.47452449734E+01  0.51100000000E-03 0. -1.
        -11    1    3    3    0    0 -0.98722592035E+01  0.10159226490E+02  0.37349809840E+02  0.39945959496E+02  0.51100000000E-03 0.  1.
        -12    1    3    3    0    0 -0.10438990576E-01  0.14283174089E+01  0.25598224934E+00  0.14511121615E+01  0.00000000000E+00 0.  1.
</event>
<event>
 7    1  0.5664398E-009  0.4614232E+02  0.7816164E-02  0.1320468E+00
        -11   -1    0    0    0    0  0.00000000000E+00  0.00000000000E+00  0.45593999997E+02  0.45594000000E+02  0.51100000000E-03 0. -1.
         11   -1    0    0    0    0 -0.00000000000E+00 -0.00000000000E+00 -0.45593999997E+02  0.45594000000E+02  0.51100000000E-03 0.  1.
    9900012    2    1    2    0    0  0.27223515061E+02  0.35199962268E+02  0.69968878638E+01  0.46142317014E+02  0.99999931853E+01 0.  0.
         12    1    1    2    0    0 -0.27223515061E+02 -0.35199962268E+02 -0.69968878638E+01  0.45045682986E+02  0.00000000000E+00 0. -1.
         11    1    3    3    0    0  0.32899636938E+01  0.28140052446E+01  0.81343517511E+00  0.44050157398E+01  0.51100000000E-03 0. -1.
        -11    1    3    3    0    0  0.13789809194E+02  0.24738789151E+02  0.63808838240E+01  0.29032433671E+02  0.51100000000E-03 0.  1.
        -12    1    3    3    0    0  0.10143742173E+02  0.76471678725E+01 -0.19743113535E+00  0.12704867603E+02  0.00000000000E+00 0.  1.
</event>
<event>
 7    1  0.5664398E-009  0.4614232E+02  0.7816164E-02  0.1320468E+00
        -11   -1    0    0    0    0  0.00000000000E+00  0.00000000000E+00  0.45593999997E+02  0.45594000000E+02  0.51100000000E-03 0. -1.
         11   -1    0    0    0    0 -0.00000000000E+00 -0.00000000000E+00 -0.45593999997E+02  0.45594000000E+02  0.51100000000E-03 0.  1.
    9900012    2    1    2    0    0 -0.31942939439E+02 -0.28771823146E+02 -0.13451560255E+02  0.46142315851E+02  0.99999825794E+01 0.  0.
         12    1    1    2    0    0  0.31942939439E+02  0.28771823146E+02  0.13451560255E+02  0.45045684149E+02  0.00000000000E+00 0. -1.
         11    1    3    3    0    0 -0.59511119962E+01 -0.40254223692E+01  0.17210670764E+00  0.71867503242E+01  0.51100000000E-03 0. -1.
        -11    1    3    3    0    0 -0.10793599347E+02 -0.14853463229E+02 -0.67863556747E+01  0.19575029511E+02  0.51100000000E-03 0.  1.
        -12    1    3    3    0    0 -0.15198228097E+02 -0.98929375481E+01 -0.68373112877E+01  0.19380536016E+02  0.00000000000E+00 0.  1.
</event>
<event>
 7    1  0.5664398E-009  0.4614232E+02  0.7816164E-02  0.1320468E+00
        -11   -1    0    0    0    0  0.00000000000E+00  0.00000000000E+00  0.45593999997E+02  0.45594000000E+02  0.51100000000E-03 0. -1.
         11   -1    0    0    0    0 -0.00000000000E+00 -0.00000000000E+00 -0.45593999997E+02  0.45594000000E+02  0.51100000000E-03 0.  1.
    9900012    2    1    2    0    0 -0.91510317999E+01  0.21905143075E+01 -0.44051943390E+02  0.46142318160E+02  0.10000003641E+02 0.  0.
         12    1    1    2    0    0  0.91510317999E+01 -0.21905143075E+01  0.44051943390E+02  0.45045681840E+02  0.00000000000E+00 0. -1.
         11    1    3    3    0    0  0.54691696972E+00  0.42488484402E+00 -0.14351815902E+01  0.15935469119E+01  0.51100000000E-03 0. -1.
        -11    1    3    3    0    0 -0.69980499996E+01  0.33390052310E+01 -0.39025343308E+02  0.39788177645E+02  0.51100000000E-03 0.  1.
        -12    1    3    3    0    0 -0.26998987700E+01 -0.15733757675E+01 -0.35914184919E+01  0.47605936036E+01  0.00000000000E+00 0.  1.
</event>
<event>
 7    1  0.5664398E-009  0.4614232E+02  0.7816164E-02  0.1320468E+00
        -11   -1    0    0    0    0  0.00000000000E+00  0.00000000000E+00  0.45593999997E+02  0.45594000000E+02  0.51100000000E-03 0. -1.
         11   -1    0    0    0    0 -0.00000000000E+00 -0.00000000000E+00 -0.45593999997E+02  0.45594000000E+02  0.51100000000E-03 0.  1.
    9900012    2    1    2    0    0  0.29896798928E+02  0.19003596015E+02  0.27823697991E+02  0.46142318547E+02  0.10000007168E+02 0.  0.
        -12    1    1    2    0    0 -0.29896798928E+02 -0.19003596015E+02 -0.27823697991E+02  0.45045681453E+02  0.00000000000E+00 0.  1.
         11    1    3    3    0    0  0.28071820218E+01  0.30239042698E+01  0.37026792310E+01  0.55438345651E+01  0.51100000000E-03 0. -1.
        -11    1    3    3    0    0  0.23415444932E+02  0.16427755478E+02  0.19237659877E+02  0.34470882919E+02  0.51100000000E-03 0.  1.
        -12    1    3    3    0    0  0.36741719740E+01 -0.44806373303E+00  0.48833588831E+01  0.61276010628E+01  0.00000000000E+00 0.  1.
</event>
<event>
 7    1  0.5664398E-009  0.4614232E+02  0.7816164E-02  0.1320468E+00
        -11   -1    0    0    0    0  0.00000000000E+00  0.00000000000E+00  0.45593999997E+02  0.45594000000E+02  0.51100000000E-03 0. -1.
         11   -1    0    0    0    0 -0.00000000000E+00 -0.00000000000E+00 -0.45593999997E+02  0.45594000000E+02  0.51100000000E-03 0.  1.
    9900012    2    1    2    0    0  0.32090845283E+02 -0.21435133079E+02  0.23234159058E+02  0.46142318429E+02  0.10000006086E+02 0.  0.
        -12    1    1    2    0    0 -0.32090845283E+02  0.21435133079E+02 -0.23234159058E+02  0.45045681571E+02  0.00000000000E+00 0.  1.
         11    1    3    3    0    0  0.72160964861E+01 -0.20656121712E+01  0.65741609088E+01  0.99778952718E+01  0.51100000000E-03 0. -1.
        -11    1    3    3    0    0  0.14849742515E+02 -0.77665248991E+01  0.83391214685E+01  0.18718298771E+02  0.51100000000E-03 0.  1.
        -12    1    3    3    0    0  0.10025006282E+02 -0.11602996008E+02  0.83208766812E+01  0.17446124385E+02  0.00000000000E+00 0.  1.
</event>
<event>
 7    1  0.5664398E-009  0.4614232E+02  0.7816164E-02  0.1320468E+00
        -11   -1    0    0    0    0  0.00000000000E+00  0.00000000000E+00  0.45593999997E+02  0.45594000000E+02  0.51100000000E-03 0. -1.
         11   -1    0    0    0    0 -0.00000000000E+00 -0.00000000000E+00 -0.45593999997E+02  0.45594000000E+02  0.51100000000E-03 0.  1.
    9900012    2    1    2    0    0  0.60245134965E+01 -0.12201273420E+02  0.42941211398E+02  0.46142317940E+02  0.10000001634E+02 0.  0.
        -12    1    1    2    0    0 -0.60245134965E+01  0.12201273420E+02 -0.42941211398E+02  0.45045682060E+02  0.00000000000E+00 0.  1.
         11    1    3    3    0    0  0.69483459271E+00 -0.26732367819E+01  0.15193887845E+02  0.15442901868E+02  0.51100000000E-03 0. -1.
        -11    1    3    3    0    0 -0.20657785763E+00 -0.70541169346E+01  0.14203816176E+02  0.15860379389E+02  0.51100000000E-03 0.  1.
         12    1    3    3    0    0  0.55362567614E+01 -0.24739197035E+01  0.13543507376E+02  0.14839036683E+02  0.00000000000E+00 0. -1.
</event>
<event>
 7    1  0.5664398E-009  0.4614232E+02  0.7816164E-02  0.1320468E+00
        -11   -1    0    0    0    0  0.00000000000E+00  0.00000000000E+00  0.45593999997E+02  0.45594000000E+02  0.51100000000E-03 0. -1.
         11   -1    0    0    0    0 -0.00000000000E+00 -0.00000000000E+00 -0.45593999997E+02  0.45594000000E+02  0.51100000000E-03 0.  1.
    9900012    2    1    2    0    0  0.52867580169E+01  0.30317141952E+02  0.32894291540E+02  0.46142319604E+02  0.10000016803E+02 0.  0.
        -12    1    1    2    0    0 -0.52867580169E+01 -0.30317141952E+02 -0.32894291540E+02  0.45045680396E+02  0.00000000000E+00 0.  1.
         11    1    3    3    0    0  0.32906056986E+01  0.10784562341E+02  0.93447725913E+01  0.14644440781E+02  0.51100000000E-03 0. -1.
        -11    1    3    3    0    0  0.11257729953E-01  0.11304735438E+02  0.18385724353E+02  0.21583142272E+02  0.51100000000E-03 0.  1.
        -12    1    3    3    0    0  0.19848945884E+01  0.82278441728E+01  0.51637945954E+01  0.99147365513E+01  0.00000000000E+00 0.  1.
</event>
<event>
 7    1  0.5664398E-009  0.4614232E+02  0.7816164E-02  0.1320468E+00
        -11   -1    0    0    0    0  0.00000000000E+00  0.00000000000E+00  0.45593999997E+02  0.45594000000E+02  0.51100000000E-03 0. -1.
         11   -1    0    0    0    0 -0.00000000000E+00 -0.00000000000E+00 -0.45593999997E+02  0.45594000000E+02  0.51100000000E-03 0.  1.
    9900012    2    1    2    0    0 -0.43786000045E+01 -0.14803392590E+02 -0.42317856086E+02  0.46142317478E+02  0.99999974140E+01 0.  0.
         12    1    1    2    0    0  0.43786000045E+01  0.14803392590E+02  0.42317856086E+02  0.45045682522E+02  0.00000000000E+00 0. -1.
         11    1    3    3    0    0 -0.19051373595E+00 -0.65533822305E+01 -0.18328355335E+02  0.19465654977E+02  0.51100000000E-03 0. -1.
        -11    1    3    3    0    0 -0.24301750480E+01 -0.69953777698E+01 -0.95919395433E+01  0.12118018211E+02  0.51100000000E-03 0.  1.
         12    1    3    3    0    0 -0.17579112205E+01 -0.12546325895E+01 -0.14397561208E+02  0.14558644289E+02  0.00000000000E+00 0. -1.
</event>
<event>
 7    1  0.5664398E-009  0.4614232E+02  0.7816164E-02  0.1320468E+00
        -11   -1    0    0    0    0  0.00000000000E+00  0.00000000000E+00  0.45593999997E+02  0.45594000000E+02  0.51100000000E-03 0.  1.
         11   -1    0    0    0    0 -0.00000000000E+00 -0.00000000000E+00 -0.45593999997E+02  0.45594000000E+02  0.51100000000E-03 0. -1.
    9900012    2    1    2    0    0  0.39372473546E+02 -0.13507724717E+02 -0.17218095508E+02  0.46142321927E+02  0.10000037984E+02 0.  0.
         12    1    1    2    0    0 -0.39372473546E+02  0.13507724717E+02  0.17218095508E+02  0.45045678073E+02  0.00000000000E+00 0. -1.
         11    1    3    3    0    0  0.11059324050E+02 -0.48496602517E+01 -0.44039214574E+01  0.12853885695E+02  0.51100000000E-03 0. -1.
        -11    1    3    3    0    0  0.28712451344E+02 -0.84354353131E+01 -0.11785986822E+02  0.32163191955E+02  0.51100000000E-03 0.  1.
         12    1    3    3    0    0 -0.39930184784E+00 -0.22262915242E+00 -0.10281872282E+01  0.11252442763E+01  0.00000000000E+00 0. -1.
</event>
<event>
 7    1  0.5664398E-009  0.4614232E+02  0.7816164E-02  0.1320468E+00
        -11   -1    0    0    0    0  0.00000000000E+00  0.00000000000E+00  0.45593999997E+02  0.45594000000E+02  0.51100000000E-03 0. -1.
         11   -1    0    0    0    0 -0.00000000000E+00 -0.00000000000E+00 -0.45593999997E+02  0.45594000000E+02  0.51100000000E-03 0.  1.
    9900012    2    1    2    0    0 -0.11244233815E+02 -0.12497178146E+02  0.41791164914E+02  0.46142315184E+02  0.99999764972E+01 0.  0.
        -12    1    1    2    0    0  0.11244233815E+02  0.12497178146E+02 -0.41791164914E+02  0.45045684816E+02  0.00000000000E+00 0.  1.
         11    1    3    3    0    0 -0.44841061248E+01 -0.35362408559E+01  0.81749487036E+01  0.99720606545E+01  0.51100000000E-03 0. -1.
        -11    1    3    3    0    0 -0.56883758943E+01 -0.49414053787E+01  0.12090371117E+02  0.14246128647E+02  0.51100000000E-03 0.  1.
        -12    1    3    3    0    0 -0.10717517964E+01 -0.40195319114E+01  0.21525845094E+02  0.21924125882E+02  0.00000000000E+00 0.  1.
</event>
<event>
 7    1  0.5664398E-009  0.4614232E+02  0.7816164E-02  0.1320468E+00
        -11   -1    0    0    0    0  0.00000000000E+00  0.00000000000E+00  0.45593999997E+02  0.45594000000E+02  0.51100000000E-03 0. -1.
         11   -1    0    0    0    0 -0.00000000000E+00 -0.00000000000E+00 -0.45593999997E+02  0.45594000000E+02  0.51100000000E-03 0.  1.
    9900012    2    1    2    0    0  0.39225173645E+02 -0.38394329518E+01  0.21811874178E+02  0.46142319319E+02  0.10000014205E+02 0.  0.
        -12    1    1    2    0    0 -0.39225173645E+02  0.38394329518E+01 -0.21811874178E+02  0.45045680681E+02  0.00000000000E+00 0.  1.
         11    1    3    3    0    0  0.46140411461E+01 -0.26096745951E+01  0.33891342047E+01  0.62917412621E+01  0.51100000000E-03 0. -1.
        -11    1    3    3    0    0  0.24125610030E+02 -0.32605028611E+01  0.10308531576E+02  0.26437506723E+02  0.51100000000E-03 0.  1.
        -12    1    3    3    0    0  0.10485522469E+02  0.20307445045E+01  0.81142083969E+01  0.13413071334E+02  0.00000000000E+00 0.  1.
</event>
<event>
 7    1  0.5664398E-009  0.4614232E+02  0.7816164E-02  0.1320468E+00
        -11   -1    0    0    0    0  0.00000000000E+00  0.00000000000E+00  0.45593999997E+02  0.45594000000E+02  0.51100000000E-03 0.  1.
         11   -1    0    0    0    0 -0.00000000000E+00 -0.00000000000E+00 -0.45593999997E+02  0.45594000000E+02  0.51100000000E-03 0. -1.
    9900012    2    1    2    0    0  0.56765128461E+01 -0.40496076805E+02  0.18893342175E+02  0.46142318596E+02  0.10000007609E+02 0.  0.
        -12    1    1    2    0    0 -0.56765128461E+01  0.40496076805E+02 -0.18893342175E+02  0.45045681404E+02  0.00000000000E+00 0.  1.
         11    1    3    3    0    0  0.11975020698E+01 -0.22475710291E+02  0.11841126505E+02  0.25432338498E+02  0.51100000000E-03 0. -1.
        -11    1    3    3    0    0  0.14377155349E+01 -0.15073007830E+02  0.46418278040E+01  0.15836955409E+02  0.51100000000E-03 0.  1.
        -12    1    3    3    0    0  0.30412952415E+01 -0.29473586840E+01  0.24103878657E+01  0.48730246891E+01  0.00000000000E+00 0.  1.
</event>
<event>
 7    1  0.5664398E-009  0.4614230E+02  0.7816164E-02  0.1320468E+00
        -11   -1    0    0    0    0  0.00000000000E+00  0.00000000000E+00  0.45593999997E+02  0.45594000000E+02  0.51100000000E-03 0. -1.
         11   -1    0    0    0    0 -0.00000000000E+00 -0.00000000000E+00 -0.45593999997E+02  0.45594000000E+02  0.51100000000E-03 0.  1.
    9900012    2    1    2    0    0  0.63069586680E+01  0.36806413682E+02 -0.25191766330E+02  0.46142302019E+02  0.99998564526E+01 0.  0.
         12    1    1    2    0    0 -0.63069586680E+01 -0.36806413682E+02  0.25191766330E+02  0.45045697981E+02  0.00000000000E+00 0. -1.
         11    1    3    3    0    0  0.56863505268E+01  0.20440947659E+02 -0.15220535170E+02  0.26111905611E+02  0.51100000000E-03 0. -1.
        -11    1    3    3    0    0  0.22401015271E+01  0.13622471412E+02 -0.96180482228E+01  0.16825475747E+02  0.51100000000E-03 0.  1.
        -12    1    3    3    0    0 -0.16194933860E+01  0.27429946106E+01 -0.35318293724E+00  0.32049206618E+01  0.00000000000E+00 0.  1.
</event>
<event>
 7    1  0.5664398E-009  0.4614232E+02  0.7816164E-02  0.1320468E+00
        -11   -1    0    0    0    0  0.00000000000E+00  0.00000000000E+00  0.45593999997E+02  0.45594000000E+02  0.51100000000E-03 0. -1.
         11   -1    0    0    0    0 -0.00000000000E+00 -0.00000000000E+00 -0.45593999997E+02  0.45594000000E+02  0.51100000000E-03 0.  1.
    9900012    2    1    2    0    0 -0.26923020724E+02  0.23549561668E+02 -0.27380335893E+02  0.46142315487E+02  0.99999792612E+01 0.  0.
         12    1    1    2    0    0  0.26923020724E+02 -0.23549561668E+02  0.27380335893E+02  0.45045684513E+02  0.00000000000E+00 0. -1.
         11    1    3    3    0    0 -0.36339759832E+01  0.49671980142E+01 -0.53430282018E+01  0.81502630746E+01  0.51100000000E-03 0. -1.
        -11    1    3    3    0    0 -0.16622496493E+02  0.17536721682E+02 -0.16447524864E+02  0.29229523968E+02  0.51100000000E-03 0.  1.
         12    1    3    3    0    0 -0.66665482481E+01  0.10456419719E+01 -0.55897828270E+01  0.87625284440E+01  0.00000000000E+00 0. -1.
</event>
<event>
 7    1  0.5664398E-009  0.4614232E+02  0.7816164E-02  0.1320468E+00
        -11   -1    0    0    0    0  0.00000000000E+00  0.00000000000E+00  0.45593999997E+02  0.45594000000E+02  0.51100000000E-03 0. -1.
         11   -1    0    0    0    0 -0.00000000000E+00 -0.00000000000E+00 -0.45593999997E+02  0.45594000000E+02  0.51100000000E-03 0.  1.
    9900012    2    1    2    0    0  0.30581553988E+02  0.15321250079E+02 -0.29311115460E+02  0.46142316102E+02  0.99999848690E+01 0.  0.
         12    1    1    2    0    0 -0.30581553988E+02 -0.15321250079E+02  0.29311115460E+02  0.45045683898E+02  0.00000000000E+00 0. -1.
         11    1    3    3    0    0  0.52445299304E+01  0.62364655413E+01 -0.59926972864E+01  0.10114890887E+02  0.51100000000E-03 0. -1.
        -11    1    3    3    0    0  0.10582258624E+02  0.65302955800E+01 -0.94597054509E+01  0.15624179512E+02  0.51100000000E-03 0.  1.
         12    1    3    3    0    0  0.14754765434E+02  0.25544889580E+01 -0.13858712723E+02  0.20403245702E+02  0.00000000000E+00 0. -1.
</event>
<event>
 7    1  0.5664398E-009  0.4614232E+02  0.7816164E-02  0.1320468E+00
        -11   -1    0    0    0    0  0.00000000000E+00  0.00000000000E+00  0.45593999997E+02  0.45594000000E+02  0.51100000000E-03 0. -1.
         11   -1    0    0    0    0 -0.00000000000E+00 -0.00000000000E+00 -0.45593999997E+02  0.45594000000E+02  0.51100000000E-03 0.  1.
    9900012    2    1    2    0    0 -0.29142636412E+02 -0.29897848812E+02  0.16909730477E+02  0.46142316461E+02  0.99999881452E+01 0.  0.
        -12    1    1    2    0    0  0.29142636412E+02  0.29897848812E+02 -0.16909730477E+02  0.45045683539E+02  0.00000000000E+00 0.  1.
         11    1    3    3    0    0 -0.77751814692E+01 -0.44794947840E+01  0.24301507788E+01  0.92965022169E+01  0.51100000000E-03 0. -1.
        -11    1    3    3    0    0 -0.86510510626E+01 -0.81609612294E+01  0.84117044332E+01  0.14567043091E+02  0.51100000000E-03 0.  1.
         12    1    3    3    0    0 -0.12716403881E+02 -0.17257392799E+02  0.60678752654E+01  0.22278771153E+02  0.00000000000E+00 0. -1.
</event>
<event>
 7    1  0.5664398E-009  0.4614232E+02  0.7816164E-02  0.1320468E+00
        -11   -1    0    0    0    0  0.00000000000E+00  0.00000000000E+00  0.45593999997E+02  0.45594000000E+02  0.51100000000E-03 0.  1.
         11   -1    0    0    0    0 -0.00000000000E+00 -0.00000000000E+00 -0.45593999997E+02  0.45594000000E+02  0.51100000000E-03 0. -1.
    9900012    2    1    2    0    0  0.21200574178E+02  0.38844805889E+02 -0.84101261523E+01  0.46142317499E+02  0.99999976142E+01 0.  0.
         12    1    1    2    0    0 -0.21200574178E+02 -0.38844805889E+02  0.84101261523E+01  0.45045682501E+02  0.00000000000E+00 0. -1.
         11    1    3    3    0    0  0.16921805555E+02  0.31294965141E+02 -0.75850783806E+01  0.36376582587E+02  0.51100000000E-03 0. -1.
        -11    1    3    3    0    0  0.51805530833E+01  0.63351505062E+01 -0.39601348416E+00  0.81932343507E+01  0.51100000000E-03 0.  1.
         12    1    3    3    0    0 -0.90178446025E+00  0.12146902423E+01 -0.42903428757E+00  0.15725005620E+01  0.00000000000E+00 0. -1.
</event>
<event>
 7    1  0.5664398E-009  0.4614232E+02  0.7816164E-02  0.1320468E+00
        -11   -1    0    0    0    0  0.00000000000E+00  0.00000000000E+00  0.45593999997E+02  0.45594000000E+02  0.51100000000E-03 0. -1.
         11   -1    0    0    0    0 -0.00000000000E+00 -0.00000000000E+00 -0.45593999997E+02  0.45594000000E+02  0.51100000000E-03 0.  1.
    9900012    2    1    2    0    0  0.13116654711E+02 -0.25772430794E+02 -0.34537641466E+02  0.46142317655E+02  0.99999990350E+01 0.  0.
         12    1    1    2    0    0 -0.13116654711E+02  0.25772430794E+02  0.34537641466E+02  0.45045682345E+02  0.00000000000E+00 0. -1.
         11    1    3    3    0    0  0.35051156276E+01 -0.47331887680E+01 -0.22872974001E+01  0.63182783362E+01  0.51100000000E-03 0. -1.
        -11    1    3    3    0    0  0.44899124349E+01 -0.61632150544E+01 -0.10939363240E+02  0.13334699165E+02  0.51100000000E-03 0.  1.
        -12    1    3    3    0    0  0.51216266484E+01 -0.14876026972E+02 -0.21310980826E+02  0.26489340154E+02  0.00000000000E+00 0.  1.
</event>
<event>
 7    1  0.5664398E-009  0.4614232E+02  0.7816164E-02  0.1320468E+00
        -11   -1    0    0    0    0  0.00000000000E+00  0.00000000000E+00  0.45593999997E+02  0.45594000000E+02  0.51100000000E-03 0. -1.
         11   -1    0    0    0    0 -0.00000000000E+00 -0.00000000000E+00 -0.45593999997E+02  0.45594000000E+02  0.51100000000E-03 0.  1.
    9900012    2    1    2    0    0  0.11299778387E+02 -0.25892544747E+02 -0.35085675796E+02  0.46142317508E+02  0.99999976944E+01 0.  0.
         12    1    1    2    0    0 -0.11299778387E+02  0.25892544747E+02  0.35085675796E+02  0.45045682492E+02  0.00000000000E+00 0. -1.
         11    1    3    3    0    0  0.62872605074E+01 -0.11395754303E+02 -0.20032504582E+02  0.23889204694E+02  0.51100000000E-03 0. -1.
        -11    1    3    3    0    0  0.22551501260E+01 -0.54033655061E+01 -0.97450683018E+01  0.11368747396E+02  0.51100000000E-03 0.  1.
         12    1    3    3    0    0  0.27573677533E+01 -0.90934249384E+01 -0.53081029123E+01  0.10884365419E+02  0.00000000000E+00 0. -1.
</event>
<event>
 7    1  0.5664398E-009  0.4614232E+02  0.7816164E-02  0.1320468E+00
        -11   -1    0    0    0    0  0.00000000000E+00  0.00000000000E+00  0.45593999997E+02  0.45594000000E+02  0.51100000000E-03 0. -1.
         11   -1    0    0    0    0 -0.00000000000E+00 -0.00000000000E+00 -0.45593999997E+02  0.45594000000E+02  0.51100000000E-03 0.  1.
    9900012    2    1    2    0    0  0.38223485549E+02  0.28997314536E+01 -0.23657349561E+02  0.46142317873E+02  0.10000001018E+02 0.  0.
         12    1    1    2    0    0 -0.38223485549E+02 -0.28997314536E+01  0.23657349561E+02  0.45045682127E+02  0.00000000000E+00 0. -1.
         11    1    3    3    0    0  0.35371711365E+01 -0.18636889402E+01 -0.89821164201E+00  0.40977677496E+01  0.51100000000E-03 0. -1.
        -11    1    3    3    0    0  0.96245133137E+01  0.20112138038E+01 -0.89616043698E+01  0.13303630731E+02  0.51100000000E-03 0.  1.
         12    1    3    3    0    0  0.25061801099E+02  0.27522065899E+01 -0.13797533549E+02  0.28740919392E+02  0.00000000000E+00 0. -1.
</event>
<event>
 7    1  0.5664398E-009  0.4614232E+02  0.7816164E-02  0.1320468E+00
        -11   -1    0    0    0    0  0.00000000000E+00  0.00000000000E+00  0.45593999997E+02  0.45594000000E+02  0.51100000000E-03 0. -1.
         11   -1    0    0    0    0 -0.00000000000E+00 -0.00000000000E+00 -0.45593999997E+02  0.45594000000E+02  0.51100000000E-03 0.  1.
    9900012    2    1    2    0    0 -0.18155190260E+02  0.16222690401E+02 -0.37898901411E+02  0.46142319348E+02  0.10000014473E+02 0.  0.
         12    1    1    2    0    0  0.18155190260E+02 -0.16222690401E+02  0.37898901411E+02  0.45045680652E+02  0.00000000000E+00 0. -1.
         11    1    3    3    0    0 -0.70555397238E+00  0.20448207301E+01 -0.15444748461E+01  0.26579129101E+01  0.51100000000E-03 0. -1.
        -11    1    3    3    0    0 -0.15623184040E+02  0.13087984844E+02 -0.26651934021E+02  0.33551524766E+02  0.51100000000E-03 0.  1.
         12    1    3    3    0    0 -0.18264522479E+01  0.10898848275E+01 -0.97024925439E+01  0.99328816723E+01  0.00000000000E+00 0. -1.
</event>
<event>
 7    1  0.5664398E-009  0.4614232E+02  0.7816164E-02  0.1320468E+00
        -11   -1    0    0    0    0  0.00000000000E+00  0.00000000000E+00  0.45593999997E+02  0.45594000000E+02  0.51100000000E-03 0.  1.
         11   -1    0    0    0    0 -0.00000000000E+00 -0.00000000000E+00 -0.45593999997E+02  0.45594000000E+02  0.51100000000E-03 0. -1.
    9900012    2    1    2    0    0 -0.11754146188E+02 -0.24306646086E+02 -0.36057457574E+02  0.46142320482E+02  0.10000024809E+02 0.  0.
         12    1    1    2    0    0  0.11754146188E+02  0.24306646086E+02  0.36057457574E+02  0.45045679518E+02  0.00000000000E+00 0. -1.
         11    1    3    3    0    0  0.44538359416E+00 -0.15730036844E+00 -0.32248740456E+00  0.57193385901E+00  0.51100000000E-03 0. -1.
        -11    1    3    3    0    0 -0.11107838864E+02 -0.13103247249E+02 -0.21552135293E+02  0.27560364813E+02  0.51100000000E-03 0.  1.
         12    1    3    3    0    0 -0.10916909175E+01 -0.11046098468E+02 -0.14182834877E+02  0.18010021809E+02  0.00000000000E+00 0. -1.
</event>
<event>
 7    1  0.5664398E-009  0.4614232E+02  0.7816164E-02  0.1320468E+00
        -11   -1    0    0    0    0  0.00000000000E+00  0.00000000000E+00  0.45593999997E+02  0.45594000000E+02  0.51100000000E-03 0. -1.
         11   -1    0    0    0    0 -0.00000000000E+00 -0.00000000000E+00 -0.45593999997E+02  0.45594000000E+02  0.51100000000E-03 0.  1.
    9900012    2    1    2    0    0 -0.17038660935E+02 -0.35726657606E+02 -0.21503568149E+02  0.46142317929E+02  0.10000001529E+02 0.  0.
         12    1    1    2    0    0  0.17038660935E+02  0.35726657606E+02  0.21503568149E+02  0.45045682071E+02  0.00000000000E+00 0. -1.
         11    1    3    3    0    0 -0.21052111142E+01 -0.74224259891E+01 -0.28947836213E+01  0.82403940364E+01  0.51100000000E-03 0.  1.
        -11    1    3    3    0    0 -0.13695160259E+02 -0.18486796339E+02 -0.11522717934E+02  0.25731150038E+02  0.51100000000E-03 0. -1.
         12    1    3    3    0    0 -0.12382895622E+01 -0.98174352773E+01 -0.70860665931E+01  0.12170773855E+02  0.00000000000E+00 0. -1.
</event>
<event>
 7    1  0.5664398E-009  0.4614232E+02  0.7816164E-02  0.1320468E+00
        -11   -1    0    0    0    0  0.00000000000E+00  0.00000000000E+00  0.45593999997E+02  0.45594000000E+02  0.51100000000E-03 0. -1.
         11   -1    0    0    0    0 -0.00000000000E+00 -0.00000000000E+00 -0.45593999997E+02  0.45594000000E+02  0.51100000000E-03 0.  1.
    9900012    2    1    2    0    0  0.14608686146E+02 -0.39020040572E+01 -0.42431993848E+02  0.46142318204E+02  0.10000004034E+02 0.  0.
         12    1    1    2    0    0 -0.14608686146E+02  0.39020040572E+01  0.42431993848E+02  0.45045681796E+02  0.00000000000E+00 0. -1.
         11    1    3    3    0    0 -0.40636672414E+00  0.39703470752E+00 -0.24436271899E+01  0.25088014226E+01  0.51100000000E-03 0. -1.
        -11    1    3    3    0    0  0.10384778204E+02 -0.55160137700E+01 -0.33942604230E+02  0.35921726134E+02  0.51100000000E-03 0.  1.
        -12    1    3    3    0    0  0.46302746660E+01  0.12169750053E+01 -0.60457624285E+01  0.77117906473E+01  0.00000000000E+00 0.  1.
</event>
<event>
 7    1  0.5664398E-009  0.4614232E+02  0.7816164E-02  0.1320468E+00
        -11   -1    0    0    0    0  0.00000000000E+00  0.00000000000E+00  0.45593999997E+02  0.45594000000E+02  0.51100000000E-03 0. -1.
         11   -1    0    0    0    0 -0.00000000000E+00 -0.00000000000E+00 -0.45593999997E+02  0.45594000000E+02  0.51100000000E-03 0.  1.
    9900012    2    1    2    0    0  0.34344130778E+02  0.23809648081E+02 -0.16813525959E+02  0.46142319676E+02  0.10000017462E+02 0.  0.
         12    1    1    2    0    0 -0.34344130778E+02 -0.23809648081E+02  0.16813525959E+02  0.45045680324E+02  0.00000000000E+00 0. -1.
         11    1    3    3    0    0  0.12048218901E+02  0.57810964517E+01 -0.55465387020E+01  0.14468750696E+02  0.51100000000E-03 0. -1.
        -11    1    3    3    0    0  0.10580578172E+02  0.94399083508E+01 -0.17029320434E+01  0.14281473381E+02  0.51100000000E-03 0.  1.
         12    1    3    3    0    0  0.11715333705E+02  0.85886432789E+01 -0.95640552133E+01  0.17392095599E+02  0.00000000000E+00 0. -1.
</event>
<event>
 7    1  0.5664398E-009  0.4614232E+02  0.7816164E-02  0.1320468E+00
        -11   -1    0    0    0    0  0.00000000000E+00  0.00000000000E+00  0.45593999997E+02  0.45594000000E+02  0.51100000000E-03 0. -1.
         11   -1    0    0    0    0 -0.00000000000E+00 -0.00000000000E+00 -0.45593999997E+02  0.45594000000E+02  0.51100000000E-03 0.  1.
    9900012    2    1    2    0    0 -0.26630230336E+02  0.24747368361E+02  0.26599098982E+02  0.46142317907E+02  0.10000001329E+02 0.  0.
        -12    1    1    2    0    0  0.26630230336E+02 -0.24747368361E+02 -0.26599098982E+02  0.45045682093E+02  0.00000000000E+00 0.  1.
         11    1    3    3    0    0 -0.10068171348E+02  0.13978854280E+02  0.93197645524E+01  0.19586588596E+02  0.51100000000E-03 0. -1.
        -11    1    3    3    0    0 -0.29665410135E+01  0.14702327935E+01  0.11565350677E+01  0.35070676749E+01  0.51100000000E-03 0.  1.
         12    1    3    3    0    0 -0.13595517975E+02  0.92982812876E+01  0.16122799362E+02  0.23048661636E+02  0.00000000000E+00 0. -1.
</event>
<event>
 7    1  0.5664398E-009  0.4614232E+02  0.7816164E-02  0.1320468E+00
        -11   -1    0    0    0    0  0.00000000000E+00  0.00000000000E+00  0.45593999997E+02  0.45594000000E+02  0.51100000000E-03 0. -1.
         11   -1    0    0    0    0 -0.00000000000E+00 -0.00000000000E+00 -0.45593999997E+02  0.45594000000E+02  0.51100000000E-03 0.  1.
    9900012    2    1    2    0    0 -0.12247017529E+02  0.12681974602E+02 -0.41452274269E+02  0.46142323623E+02  0.10000053450E+02 0.  0.
         12    1    1    2    0    0  0.12247017529E+02 -0.12681974602E+02  0.41452274269E+02  0.45045676377E+02  0.00000000000E+00 0. -1.
         11    1    3    3    0    0 -0.10144015413E+02  0.94794951451E+01 -0.39126380870E+02  0.41516690103E+02  0.51100000000E-03 0.  1.
        -11    1    3    3    0    0 -0.56604641221E+00  0.34045050968E+00 -0.56696154294E-01  0.66297044078E+00  0.51100000000E-03 0. -1.
        -12    1    3    3    0    0 -0.15369557046E+01  0.28620289477E+01 -0.22691972452E+01  0.39626630784E+01  0.00000000000E+00 0.  1.
</event>
<event>
 7    1  0.5664398E-009  0.4614232E+02  0.7816164E-02  0.1320468E+00
        -11   -1    0    0    0    0  0.00000000000E+00  0.00000000000E+00  0.45593999997E+02  0.45594000000E+02  0.51100000000E-03 0.  1.
         11   -1    0    0    0    0 -0.00000000000E+00 -0.00000000000E+00 -0.45593999997E+02  0.45594000000E+02  0.51100000000E-03 0. -1.
    9900012    2    1    2    0    0 -0.36938941472E+02  0.23710445266E+02  0.10121405127E+02  0.46142318148E+02  0.10000003525E+02 0.  0.
         12    1    1    2    0    0  0.36938941472E+02 -0.23710445266E+02 -0.10121405127E+02  0.45045681852E+02  0.00000000000E+00 0. -1.
         11    1    3    3    0    0  0.24830966935E+00 -0.40931302011E+00  0.28862349824E-01  0.47961248595E+00  0.51100000000E-03 0. -1.
        -11    1    3    3    0    0 -0.30196047392E+01  0.10855887697E+01  0.16172899555E+01  0.35933470218E+01  0.51100000000E-03 0.  1.
        -12    1    3    3    0    0 -0.34167646402E+02  0.23034169517E+02  0.84752528221E+01  0.42069358640E+02  0.00000000000E+00 0.  1.
</event>
<event>
 7    1  0.5664398E-009  0.4614231E+02  0.7816164E-02  0.1320468E+00
        -11   -1    0    0    0    0  0.00000000000E+00  0.00000000000E+00  0.45593999997E+02  0.45594000000E+02  0.51100000000E-03 0. -1.
         11   -1    0    0    0    0 -0.00000000000E+00 -0.00000000000E+00 -0.45593999997E+02  0.45594000000E+02  0.51100000000E-03 0.  1.
    9900012    2    1    2    0    0 -0.28098557564E+02  0.32810947903E+02  0.12768194443E+02  0.46142311762E+02  0.99999452949E+01 0.  0.
        -12    1    1    2    0    0  0.28098557564E+02 -0.32810947903E+02 -0.12768194443E+02  0.45045688238E+02  0.00000000000E+00 0.  1.
         11    1    3    3    0    0 -0.19954861266E+02  0.21587504014E+02  0.47990846024E+01  0.29786708966E+02  0.51100000000E-03 0. -1.
        -11    1    3    3    0    0 -0.34740941759E+01  0.21968370110E+01  0.25673658460E+01  0.48463172455E+01  0.51100000000E-03 0.  1.
        -12    1    3    3    0    0 -0.46696021223E+01  0.90266068781E+01  0.54017439944E+01  0.11509285551E+02  0.00000000000E+00 0.  1.
</event>
<event>
 7    1  0.5664398E-009  0.4614232E+02  0.7816164E-02  0.1320468E+00
        -11   -1    0    0    0    0  0.00000000000E+00  0.00000000000E+00  0.45593999997E+02  0.45594000000E+02  0.51100000000E-03 0. -1.
         11   -1    0    0    0    0 -0.00000000000E+00 -0.00000000000E+00 -0.45593999997E+02  0.45594000000E+02  0.51100000000E-03 0.  1.
    9900012    2    1    2    0    0 -0.23862065840E+02 -0.37131017745E+02 -0.90001556408E+01  0.46142318004E+02  0.10000002215E+02 0.  0.
         12    1    1    2    0    0  0.23862065840E+02  0.37131017745E+02  0.90001556408E+01  0.45045681996E+02  0.00000000000E+00 0. -1.
         11    1    3    3    0    0 -0.69600507562E+01 -0.11169832358E+02 -0.15322110149E+01  0.13249721971E+02  0.51100000000E-03 0. -1.
        -11    1    3    3    0    0 -0.11881531864E+02 -0.11237198050E+02 -0.23843831090E+01  0.16526666406E+02  0.51100000000E-03 0.  1.
         12    1    3    3    0    0 -0.50204832199E+01 -0.14723987337E+02 -0.50835615168E+01  0.16365929627E+02  0.00000000000E+00 0. -1.
</event>
<event>
 7    1  0.5664398E-009  0.4614232E+02  0.7816164E-02  0.1320468E+00
        -11   -1    0    0    0    0  0.00000000000E+00  0.00000000000E+00  0.45593999997E+02  0.45594000000E+02  0.51100000000E-03 0.  1.
         11   -1    0    0    0    0 -0.00000000000E+00 -0.00000000000E+00 -0.45593999997E+02  0.45594000000E+02  0.51100000000E-03 0. -1.
    9900012    2    1    2    0    0  0.26697177209E+01 -0.40513615330E+02  0.19509821397E+02  0.46142317068E+02  0.99999936822E+01 0.  0.
        -12    1    1    2    0    0 -0.26697177209E+01  0.40513615330E+02 -0.19509821397E+02  0.45045682932E+02  0.00000000000E+00 0.  1.
         11    1    3    3    0    0  0.13553121925E+01 -0.71942037385E+01  0.54540230462E+01  0.91290638195E+01  0.51100000000E-03 0.  1.
        -11    1    3    3    0    0  0.14286369691E+01 -0.70891020722E+01  0.64811843699E+01  0.97109280132E+01  0.51100000000E-03 0. -1.
         12    1    3    3    0    0 -0.11423144072E+00 -0.26230309519E+02  0.75746139813E+01  0.27302325236E+02  0.00000000000E+00 0. -1.
</event>
<event>
 7    1  0.5664398E-009  0.4614232E+02  0.7816164E-02  0.1320468E+00
        -11   -1    0    0    0    0  0.00000000000E+00  0.00000000000E+00  0.45593999997E+02  0.45594000000E+02  0.51100000000E-03 0. -1.
         11   -1    0    0    0    0 -0.00000000000E+00 -0.00000000000E+00 -0.45593999997E+02  0.45594000000E+02  0.51100000000E-03 0.  1.
    9900012    2    1    2    0    0 -0.30552783703E+02 -0.92004424105E+01  0.31796112384E+02  0.46142317685E+02  0.99999993030E+01 0.  0.
        -12    1    1    2    0    0  0.30552783703E+02  0.92004424105E+01 -0.31796112384E+02  0.45045682315E+02  0.00000000000E+00 0.  1.
         11    1    3    3    0    0 -0.41016905779E+01 -0.46145497110E+01  0.45976280371E+01  0.76977995856E+01  0.51100000000E-03 0. -1.
        -11    1    3    3    0    0  0.12814614301E+00  0.35656475568E-01 -0.35901248706E-02  0.13306377545E+00  0.51100000000E-03 0.  1.
         12    1    3    3    0    0 -0.26579239268E+02 -0.46215491751E+01  0.27202074471E+02  0.38311454324E+02  0.00000000000E+00 0. -1.
</event>
<event>
 7    1  0.5664398E-009  0.4614232E+02  0.7816164E-02  0.1320468E+00
        -11   -1    0    0    0    0  0.00000000000E+00  0.00000000000E+00  0.45593999997E+02  0.45594000000E+02  0.51100000000E-03 0. -1.
         11   -1    0    0    0    0 -0.00000000000E+00 -0.00000000000E+00 -0.45593999997E+02  0.45594000000E+02  0.51100000000E-03 0.  1.
    9900012    2    1    2    0    0 -0.20231548877E+02  0.32381242455E+02  0.23900897171E+02  0.46142319647E+02  0.10000017193E+02 0.  0.
        -12    1    1    2    0    0  0.20231548877E+02 -0.32381242455E+02 -0.23900897171E+02  0.45045680353E+02  0.00000000000E+00 0.  1.
         11    1    3    3    0    0 -0.49891343280E+01  0.85802098189E+01  0.46128033119E+01  0.10944835153E+02  0.51100000000E-03 0. -1.
        -11    1    3    3    0    0 -0.46712988922E+01  0.10729690484E+02  0.37049161650E+01  0.12274921396E+02  0.51100000000E-03 0.  1.
         12    1    3    3    0    0 -0.10571115657E+02  0.13071342152E+02  0.15583177694E+02  0.22922563097E+02  0.00000000000E+00 0. -1.
</event>
<event>
 7    1  0.5755469E-009  0.4614232E+02  0.7816164E-02  0.1320468E+00
        -11   -1    0    0    0    0  0.00000000000E+00  0.00000000000E+00  0.45593999997E+02  0.45594000000E+02  0.51100000000E-03 0. -1.
         11   -1    0    0    0    0 -0.00000000000E+00 -0.00000000000E+00 -0.45593999997E+02  0.45594000000E+02  0.51100000000E-03 0.  1.
    9900012    2    1    2    0    0  0.12544728712E+01  0.68206622867E+01 -0.44508631988E+02  0.46142318102E+02  0.10000003105E+02 0.  0.
         12    1    1    2    0    0 -0.12544728712E+01 -0.68206622867E+01  0.44508631988E+02  0.45045681898E+02  0.00000000000E+00 0. -1.
         11    1    3    3    0    0 -0.10275621213E+01  0.15172936370E+01 -0.17718281178E+01  0.25490074606E+01  0.51100000000E-03 0. -1.
        -11    1    3    3    0    0  0.45951574206E+00  0.23125333360E+01 -0.36205529805E+01  0.43205751114E+01  0.51100000000E-03 0.  1.
        -12    1    3    3    0    0  0.18225192505E+01  0.29908353137E+01 -0.39116250890E+02  0.39272735530E+02  0.00000000000E+00 0.  1.
</event>
<event>
 7    1  0.5664398E-009  0.4614232E+02  0.7816164E-02  0.1320468E+00
        -11   -1    0    0    0    0  0.00000000000E+00  0.00000000000E+00  0.45593999997E+02  0.45594000000E+02  0.51100000000E-03 0. -1.
         11   -1    0    0    0    0 -0.00000000000E+00 -0.00000000000E+00 -0.45593999997E+02  0.45594000000E+02  0.51100000000E-03 0.  1.
    9900012    2    1    2    0    0 -0.15304362119E+02 -0.10244926637E+02  0.41108775873E+02  0.46142317904E+02  0.10000001306E+02 0.  0.
        -12    1    1    2    0    0  0.15304362119E+02  0.10244926637E+02 -0.41108775873E+02  0.45045682096E+02  0.00000000000E+00 0.  1.
         11    1    3    3    0    0 -0.15072779453E+02 -0.69855468536E+01  0.28197065414E+02  0.32727068972E+02  0.51100000000E-03 0. -1.
        -11    1    3    3    0    0 -0.73755392704E-02 -0.92544740111E-01  0.31270443680E+01  0.31284222331E+01  0.51100000000E-03 0.  1.
         12    1    3    3    0    0 -0.22420712752E+00 -0.31668350434E+01  0.97846660913E+01  0.10286826700E+02  0.00000000000E+00 0. -1.
</event>
<event>
 7    1  0.5664398E-009  0.4614232E+02  0.7816164E-02  0.1320468E+00
        -11   -1    0    0    0    0  0.00000000000E+00  0.00000000000E+00  0.45593999997E+02  0.45594000000E+02  0.51100000000E-03 0. -1.
         11   -1    0    0    0    0 -0.00000000000E+00 -0.00000000000E+00 -0.45593999997E+02  0.45594000000E+02  0.51100000000E-03 0.  1.
    9900012    2    1    2    0    0 -0.16238240842E+02  0.34001438532E+02  0.24684715895E+02  0.46142317779E+02  0.10000000165E+02 0.  0.
        -12    1    1    2    0    0  0.16238240842E+02 -0.34001438532E+02 -0.24684715895E+02  0.45045682221E+02  0.00000000000E+00 0.  1.
         11    1    3    3    0    0 -0.42253154784E+01  0.89488130353E+01  0.68806624862E+01  0.12053134951E+02  0.51100000000E-03 0. -1.
        -11    1    3    3    0    0 -0.71458792707E+01  0.20850076077E+02  0.16488516010E+02  0.27525632117E+02  0.51100000000E-03 0.  1.
        -12    1    3    3    0    0 -0.48670460925E+01  0.42025494202E+01  0.13155373996E+01  0.65635507117E+01  0.00000000000E+00 0.  1.
</event>
<event>
 7    1  0.5664398E-009  0.4614232E+02  0.7816164E-02  0.1320468E+00
        -11   -1    0    0    0    0  0.00000000000E+00  0.00000000000E+00  0.45593999997E+02  0.45594000000E+02  0.51100000000E-03 0. -1.
         11   -1    0    0    0    0 -0.00000000000E+00 -0.00000000000E+00 -0.45593999997E+02  0.45594000000E+02  0.51100000000E-03 0.  1.
    9900012    2    1    2    0    0 -0.10112691999E+02 -0.18521026141E+02 -0.39797217643E+02  0.46142317844E+02  0.10000000759E+02 0.  0.
         12    1    1    2    0    0  0.10112691999E+02  0.18521026141E+02  0.39797217643E+02  0.45045682156E+02  0.00000000000E+00 0. -1.
         11    1    3    3    0    0 -0.75535573717E+00 -0.98221123599E-01 -0.12080769261E+01  0.14281665866E+01  0.51100000000E-03 0. -1.
        -11    1    3    3    0    0 -0.39504312834E+01 -0.37934559299E+01 -0.18426864204E+02  0.19223567303E+02  0.51100000000E-03 0.  1.
        -12    1    3    3    0    0 -0.54069049783E+01 -0.14629349087E+02 -0.20162276513E+02  0.25490583954E+02  0.00000000000E+00 0.  1.
</event>
<event>
 7    1  0.5664398E-009  0.4614232E+02  0.7816164E-02  0.1320468E+00
        -11   -1    0    0    0    0  0.00000000000E+00  0.00000000000E+00  0.45593999997E+02  0.45594000000E+02  0.51100000000E-03 0. -1.
         11   -1    0    0    0    0 -0.00000000000E+00 -0.00000000000E+00 -0.45593999997E+02  0.45594000000E+02  0.51100000000E-03 0.  1.
    9900012    2    1    2    0    0  0.11300434778E+02  0.10667625402E+01  0.43592152202E+02  0.46142317165E+02  0.99999945637E+01 0.  0.
        -12    1    1    2    0    0 -0.11300434778E+02 -0.10667625402E+01 -0.43592152202E+02  0.45045682835E+02  0.00000000000E+00 0.  1.
         11    1    3    3    0    0  0.10330213521E+02 -0.58041270011E+00  0.22011722574E+02  0.24322132333E+02  0.51100000000E-03 0. -1.
        -11    1    3    3    0    0  0.10931110345E+01 -0.36284527751E+00  0.99826720698E+01  0.10048894981E+02  0.51100000000E-03 0.  1.
        -12    1    3    3    0    0 -0.12288977678E+00  0.20100205178E+01  0.11597757558E+02  0.11771289851E+02  0.00000000000E+00 0.  1.
</event>
<event>
 7    1  0.5664398E-009  0.4614232E+02  0.7816164E-02  0.1320468E+00
        -11   -1    0    0    0    0  0.00000000000E+00  0.00000000000E+00  0.45593999997E+02  0.45594000000E+02  0.51100000000E-03 0. -1.
         11   -1    0    0    0    0 -0.00000000000E+00 -0.00000000000E+00 -0.45593999997E+02  0.45594000000E+02  0.51100000000E-03 0.  1.
    9900012    2    1    2    0    0  0.22129096456E+02 -0.26556307342E+02  0.28882156341E+02  0.46142319580E+02  0.10000016583E+02 0.  0.
        -12    1    1    2    0    0 -0.22129096456E+02  0.26556307342E+02 -0.28882156341E+02  0.45045680420E+02  0.00000000000E+00 0.  1.
         11    1    3    3    0    0  0.23372941307E+01 -0.30802152843E+01  0.49727387014E+01  0.62991110884E+01  0.51100000000E-03 0.  1.
        -11    1    3    3    0    0  0.12840431882E+02 -0.15035810822E+02  0.20276429526E+02  0.28321120963E+02  0.51100000000E-03 0. -1.
        -12    1    3    3    0    0  0.69513704431E+01 -0.84402812356E+01  0.36329881136E+01  0.11522087528E+02  0.00000000000E+00 0.  1.
</event>
<event>
 7    1  0.5664398E-009  0.4614232E+02  0.7816164E-02  0.1320468E+00
        -11   -1    0    0    0    0  0.00000000000E+00  0.00000000000E+00  0.45593999997E+02  0.45594000000E+02  0.51100000000E-03 0. -1.
         11   -1    0    0    0    0 -0.00000000000E+00 -0.00000000000E+00 -0.45593999997E+02  0.45594000000E+02  0.51100000000E-03 0.  1.
    9900012    2    1    2    0    0 -0.42822577945E+01 -0.10451816914E+01 -0.44829492268E+02  0.46142317482E+02  0.99999974508E+01 0.  0.
         12    1    1    2    0    0  0.42822577945E+01  0.10451816914E+01  0.44829492268E+02  0.45045682518E+02  0.00000000000E+00 0. -1.
         11    1    3    3    0    0  0.14836385414E+01  0.11355782085E+01 -0.64948896044E+01  0.67582773266E+01  0.51100000000E-03 0. -1.
        -11    1    3    3    0    0 -0.68371325768E+01 -0.92900325899E+00 -0.34889539256E+02  0.35565283335E+02  0.51100000000E-03 0.  1.
        -12    1    3    3    0    0  0.10712362409E+01 -0.12517566410E+01 -0.34450634072E+01  0.38187568202E+01  0.00000000000E+00 0.  1.
</event>
<event>
 7    1  0.5664398E-009  0.4614232E+02  0.7816164E-02  0.1320468E+00
        -11   -1    0    0    0    0  0.00000000000E+00  0.00000000000E+00  0.45593999997E+02  0.45594000000E+02  0.51100000000E-03 0. -1.
         11   -1    0    0    0    0 -0.00000000000E+00 -0.00000000000E+00 -0.45593999997E+02  0.45594000000E+02  0.51100000000E-03 0.  1.
    9900012    2    1    2    0    0 -0.28392303642E+02  0.15519349604E+02  0.31339119956E+02  0.46142316990E+02  0.99999929651E+01 0.  0.
        -12    1    1    2    0    0  0.28392303642E+02 -0.15519349604E+02 -0.31339119956E+02  0.45045683010E+02  0.00000000000E+00 0.  1.
         11    1    3    3    0    0 -0.16487721010E+02  0.65250357544E+01  0.12854608690E+02  0.21901187195E+02  0.51100000000E-03 0. -1.
        -11    1    3    3    0    0 -0.11151842295E+02  0.83322053095E+01  0.14373562403E+02  0.20009710850E+02  0.51100000000E-03 0.  1.
        -12    1    3    3    0    0 -0.75274033752E+00  0.66210853990E+00  0.41109488624E+01  0.42314189445E+01  0.00000000000E+00 0.  1.
</event>
<event>
 7    1  0.5664398E-009  0.4614232E+02  0.7816164E-02  0.1320468E+00
        -11   -1    0    0    0    0  0.00000000000E+00  0.00000000000E+00  0.45593999997E+02  0.45594000000E+02  0.51100000000E-03 0. -1.
         11   -1    0    0    0    0 -0.00000000000E+00 -0.00000000000E+00 -0.45593999997E+02  0.45594000000E+02  0.51100000000E-03 0.  1.
    9900012    2    1    2    0    0  0.23697494028E+02  0.43138951997E+01  0.38064846269E+02  0.46142318337E+02  0.10000005253E+02 0.  0.
        -12    1    1    2    0    0 -0.23697494028E+02 -0.43138951997E+01 -0.38064846269E+02  0.45045681663E+02  0.00000000000E+00 0.  1.
         11    1    3    3    0    0  0.14402684657E+02  0.36638868376E+01  0.21169063080E+02  0.25864853064E+02  0.51100000000E-03 0. -1.
        -11    1    3    3    0    0  0.97632650185E+01 -0.67100356534E+00  0.14311303093E+02  0.17337386945E+02  0.51100000000E-03 0.  1.
        -12    1    3    3    0    0 -0.46845564799E+00  0.13210119274E+01  0.25844800957E+01  0.29400783274E+01  0.00000000000E+00 0.  1.
</event>
<event>
 7    1  0.6284622E-009  0.4614232E+02  0.7816164E-02  0.1320468E+00
        -11   -1    0    0    0    0  0.00000000000E+00  0.00000000000E+00  0.45593999997E+02  0.45594000000E+02  0.51100000000E-03 0. -1.
         11   -1    0    0    0    0 -0.00000000000E+00 -0.00000000000E+00 -0.45593999997E+02  0.45594000000E+02  0.51100000000E-03 0.  1.
    9900012    2    1    2    0    0 -0.17316622465E+02 -0.65757926880E+01 -0.41061012912E+02  0.46142320468E+02  0.10000024686E+02 0.  0.
         12    1    1    2    0    0  0.17316622465E+02  0.65757926880E+01  0.41061012912E+02  0.45045679532E+02  0.00000000000E+00 0. -1.
         11    1    3    3    0    0 -0.36380397130E+01  0.19444273208E+01 -0.52155162471E+01  0.66496421366E+01  0.51100000000E-03 0. -1.
        -11    1    3    3    0    0  0.22845925572E+00 -0.43036346327E+00 -0.10266274703E+01  0.11363848670E+01  0.51100000000E-03 0.  1.
        -12    1    3    3    0    0 -0.13907042008E+02 -0.80898565455E+01 -0.34818869195E+02  0.38356293465E+02  0.00000000000E+00 0.  1.
</event>
<event>
 7    1  0.5664398E-009  0.4614232E+02  0.7816164E-02  0.1320468E+00
        -11   -1    0    0    0    0  0.00000000000E+00  0.00000000000E+00  0.45593999997E+02  0.45594000000E+02  0.51100000000E-03 0. -1.
         11   -1    0    0    0    0 -0.00000000000E+00 -0.00000000000E+00 -0.45593999997E+02  0.45594000000E+02  0.51100000000E-03 0.  1.
    9900012    2    1    2    0    0  0.44854765126E+02  0.27839761365E+01 -0.30680576281E+01  0.46142318129E+02  0.10000003352E+02 0.  0.
         12    1    1    2    0    0 -0.44854765126E+02 -0.27839761365E+01  0.30680576281E+01  0.45045681871E+02  0.00000000000E+00 0. -1.
         11    1    3    3    0    0  0.33545217415E+02  0.29601952867E+00 -0.61867876144E+01  0.34112249710E+02  0.51100000000E-03 0.  1.
        -11    1    3    3    0    0  0.25899503569E+01  0.90572268392E+00  0.98135240448E+00  0.29139713853E+01  0.51100000000E-03 0. -1.
        -12    1    3    3    0    0  0.87195973537E+01  0.15822339239E+01  0.21373775818E+01  0.91160970337E+01  0.00000000000E+00 0.  1.
</event>
<event>
 7    1  0.5664398E-009  0.4614232E+02  0.7816164E-02  0.1320468E+00
        -11   -1    0    0    0    0  0.00000000000E+00  0.00000000000E+00  0.45593999997E+02  0.45594000000E+02  0.51100000000E-03 0. -1.
         11   -1    0    0    0    0 -0.00000000000E+00 -0.00000000000E+00 -0.45593999997E+02  0.45594000000E+02  0.51100000000E-03 0.  1.
    9900012    2    1    2    0    0 -0.29400773829E+02  0.28543172516E+02 -0.18708160166E+02  0.46142318123E+02  0.10000003297E+02 0.  0.
         12    1    1    2    0    0  0.29400773829E+02 -0.28543172516E+02  0.18708160166E+02  0.45045681877E+02  0.00000000000E+00 0. -1.
         11    1    3    3    0    0 -0.34259620248E+01  0.23002571357E+01  0.40190988420E+00  0.41460741072E+01  0.51100000000E-03 0. -1.
        -11    1    3    3    0    0 -0.12166938388E+02  0.16341996722E+02 -0.95571611651E+01  0.22504101323E+02  0.51100000000E-03 0.  1.
        -12    1    3    3    0    0 -0.13807873416E+02  0.99009186586E+01 -0.95529088850E+01  0.19492142692E+02  0.00000000000E+00 0.  1.
</event>
<event>
 7    1  0.5664398E-009  0.4614232E+02  0.7816164E-02  0.1320468E+00
        -11   -1    0    0    0    0  0.00000000000E+00  0.00000000000E+00  0.45593999997E+02  0.45594000000E+02  0.51100000000E-03 0. -1.
         11   -1    0    0    0    0 -0.00000000000E+00 -0.00000000000E+00 -0.45593999997E+02  0.45594000000E+02  0.51100000000E-03 0.  1.
    9900012    2    1    2    0    0  0.64358994036E+01  0.29575579421E+02 -0.33361323949E+02  0.46142316135E+02  0.99999851698E+01 0.  0.
         12    1    1    2    0    0 -0.64358994036E+01 -0.29575579421E+02  0.33361323949E+02  0.45045683865E+02  0.00000000000E+00 0. -1.
         11    1    3    3    0    0 -0.70690600801E+00  0.56920434301E+01 -0.41339662610E+01  0.70702724008E+01  0.51100000000E-03 0. -1.
        -11    1    3    3    0    0  0.65628456146E+01  0.23687002838E+02 -0.25968803564E+02  0.35756451234E+02  0.51100000000E-03 0.  1.
         12    1    3    3    0    0  0.57995979699E+00  0.19653315283E+00 -0.32585541243E+01  0.33155925001E+01  0.00000000000E+00 0. -1.
</event>
<event>
 7    1  0.5664398E-009  0.4614232E+02  0.7816164E-02  0.1320468E+00
        -11   -1    0    0    0    0  0.00000000000E+00  0.00000000000E+00  0.45593999997E+02  0.45594000000E+02  0.51100000000E-03 0. -1.
         11   -1    0    0    0    0 -0.00000000000E+00 -0.00000000000E+00 -0.45593999997E+02  0.45594000000E+02  0.51100000000E-03 0.  1.
    9900012    2    1    2    0    0 -0.13262679292E+01 -0.15336088482E+02 -0.42333897864E+02  0.46142317578E+02  0.99999983296E+01 0.  0.
         12    1    1    2    0    0  0.13262679292E+01  0.15336088482E+02  0.42333897864E+02  0.45045682422E+02  0.00000000000E+00 0. -1.
         11    1    3    3    0    0 -0.17826132462E+01 -0.56442600647E+01 -0.12362917185E+02  0.13706826885E+02  0.51100000000E-03 0. -1.
        -11    1    3    3    0    0 -0.12123584822E+01 -0.10017158855E+02 -0.20920624381E+02  0.23226833822E+02  0.51100000000E-03 0.  1.
        -12    1    3    3    0    0  0.16687037992E+01  0.32533043854E+00 -0.90503562975E+01  0.92086568714E+01  0.00000000000E+00 0.  1.
</event>
<event>
 7    1  0.5664398E-009  0.4614232E+02  0.7816164E-02  0.1320468E+00
        -11   -1    0    0    0    0  0.00000000000E+00  0.00000000000E+00  0.45593999997E+02  0.45594000000E+02  0.51100000000E-03 0.  1.
         11   -1    0    0    0    0 -0.00000000000E+00 -0.00000000000E+00 -0.45593999997E+02  0.45594000000E+02  0.51100000000E-03 0. -1.
    9900012    2    1    2    0    0  0.37595145713E+02  0.17844934323E+02 -0.17241715041E+02  0.46142318745E+02  0.10000008974E+02 0.  0.
         12    1    1    2    0    0 -0.37595145713E+02 -0.17844934323E+02  0.17241715041E+02  0.45045681255E+02  0.00000000000E+00 0. -1.
         11    1    3    3    0    0  0.48016463912E+01  0.18113704923E+00 -0.26462882802E+01  0.54855683953E+01  0.51100000000E-03 0. -1.
        -11    1    3    3    0    0  0.20711003097E+02  0.14629072857E+02 -0.11364497723E+02  0.27786817570E+02  0.51100000000E-03 0.  1.
        -12    1    3    3    0    0  0.12082496224E+02  0.30347244165E+01 -0.32309290386E+01  0.12869932779E+02  0.00000000000E+00 0.  1.
</event>
<event>
 7    1  0.5664398E-009  0.4614232E+02  0.7816164E-02  0.1320468E+00
        -11   -1    0    0    0    0  0.00000000000E+00  0.00000000000E+00  0.45593999997E+02  0.45594000000E+02  0.51100000000E-03 0. -1.
         11   -1    0    0    0    0 -0.00000000000E+00 -0.00000000000E+00 -0.45593999997E+02  0.45594000000E+02  0.51100000000E-03 0.  1.
    9900012    2    1    2    0    0  0.24205560898E+02 -0.24574600105E+02 -0.28970562563E+02  0.46142316035E+02  0.99999842555E+01 0.  0.
         12    1    1    2    0    0 -0.24205560898E+02  0.24574600105E+02  0.28970562563E+02  0.45045683965E+02  0.00000000000E+00 0. -1.
         11    1    3    3    0    0 -0.16055423711E+00 -0.10151194075E+01 -0.94547685595E+00  0.13964855248E+01  0.51100000000E-03 0.  1.
        -11    1    3    3    0    0  0.53480445253E+00  0.41964430720E+00  0.19620397800E+00  0.70754039398E+00  0.51100000000E-03 0. -1.
         12    1    3    3    0    0  0.23831310682E+02 -0.23979125005E+02 -0.28221289685E+02  0.44038290116E+02  0.00000000000E+00 0. -1.
</event>
<event>
 7    1  0.5664398E-009  0.4614232E+02  0.7816164E-02  0.1320468E+00
        -11   -1    0    0    0    0  0.00000000000E+00  0.00000000000E+00  0.45593999997E+02  0.45594000000E+02  0.51100000000E-03 0. -1.
         11   -1    0    0    0    0 -0.00000000000E+00 -0.00000000000E+00 -0.45593999997E+02  0.45594000000E+02  0.51100000000E-03 0.  1.
    9900012    2    1    2    0    0 -0.31470883602E+02 -0.18527894562E+02 -0.26370706066E+02  0.46142317299E+02  0.99999957853E+01 0.  0.
         12    1    1    2    0    0  0.31470883602E+02  0.18527894562E+02  0.26370706066E+02  0.45045682701E+02  0.00000000000E+00 0. -1.
         11    1    3    3    0    0 -0.11882549750E+02 -0.62560477025E+01 -0.14335203886E+02  0.19642586188E+02  0.51100000000E-03 0. -1.
        -11    1    3    3    0    0 -0.69417207534E+01 -0.26009685486E+01 -0.57570102110E+01  0.93859304941E+01  0.51100000000E-03 0.  1.
         12    1    3    3    0    0 -0.12646613099E+02 -0.96708783104E+01 -0.62784919691E+01  0.17113800617E+02  0.00000000000E+00 0. -1.
</event>
<event>
 7    1  0.5664398E-009  0.4614232E+02  0.7816164E-02  0.1320468E+00
        -11   -1    0    0    0    0  0.00000000000E+00  0.00000000000E+00  0.45593999997E+02  0.45594000000E+02  0.51100000000E-03 0. -1.
         11   -1    0    0    0    0 -0.00000000000E+00 -0.00000000000E+00 -0.45593999997E+02  0.45594000000E+02  0.51100000000E-03 0.  1.
    9900012    2    1    2    0    0 -0.23945414868E+02 -0.21159148702E+02  0.31749346914E+02  0.46142317671E+02  0.99999991775E+01 0.  0.
        -12    1    1    2    0    0  0.23945414868E+02  0.21159148702E+02 -0.31749346914E+02  0.45045682329E+02  0.00000000000E+00 0.  1.
         11    1    3    3    0    0 -0.17867543800E+02 -0.16872299218E+02  0.23183309333E+02  0.33784455512E+02  0.51100000000E-03 0.  1.
        -11    1    3    3    0    0 -0.62000336610E+01 -0.32907976492E+01  0.49086866460E+01  0.85653354526E+01  0.51100000000E-03 0. -1.
        -12    1    3    3    0    0  0.12216259250E+00 -0.99605183529E+00  0.36573509351E+01  0.37925267066E+01  0.00000000000E+00 0.  1.
</event>
<event>
 7    1  0.5664398E-009  0.4614232E+02  0.7816164E-02  0.1320468E+00
        -11   -1    0    0    0    0  0.00000000000E+00  0.00000000000E+00  0.45593999997E+02  0.45594000000E+02  0.51100000000E-03 0. -1.
         11   -1    0    0    0    0 -0.00000000000E+00 -0.00000000000E+00 -0.45593999997E+02  0.45594000000E+02  0.51100000000E-03 0.  1.
    9900012    2    1    2    0    0 -0.34605714390E+01 -0.42118252350E+02  0.15594575071E+02  0.46142317551E+02  0.99999980800E+01 0.  0.
        -12    1    1    2    0    0  0.34605714390E+01  0.42118252350E+02 -0.15594575071E+02  0.45045682449E+02  0.00000000000E+00 0.  1.
         11    1    3    3    0    0 -0.10583745992E+01 -0.16668229984E+00  0.10968876419E+01  0.15333305389E+01  0.51100000000E-03 0.  1.
        -11    1    3    3    0    0 -0.13711233643E+00 -0.14005964119E+02  0.31125349595E+01  0.14348299719E+02  0.51100000000E-03 0. -1.
        -12    1    3    3    0    0 -0.22650845033E+01 -0.27945605931E+02  0.11385152470E+02  0.30260687292E+02  0.00000000000E+00 0.  1.
</event>
<event>
 7    1  0.5664398E-009  0.4614232E+02  0.7816164E-02  0.1320468E+00
        -11   -1    0    0    0    0  0.00000000000E+00  0.00000000000E+00  0.45593999997E+02  0.45594000000E+02  0.51100000000E-03 0.  1.
         11   -1    0    0    0    0 -0.00000000000E+00 -0.00000000000E+00 -0.45593999997E+02  0.45594000000E+02  0.51100000000E-03 0. -1.
    9900012    2    1    2    0    0 -0.91847000154E+01 -0.29163631922E+02 -0.33079258989E+02  0.46142317449E+02  0.99999971500E+01 0.  0.
         12    1    1    2    0    0  0.91847000154E+01  0.29163631922E+02  0.33079258989E+02  0.45045682551E+02  0.00000000000E+00 0. -1.
         11    1    3    3    0    0 -0.48519600899E+01 -0.16219353186E+02 -0.14269851119E+02  0.22141309485E+02  0.51100000000E-03 0. -1.
        -11    1    3    3    0    0 -0.48494922790E+01 -0.85446952591E+01 -0.93832242995E+01  0.13585812120E+02  0.51100000000E-03 0.  1.
         12    1    3    3    0    0  0.51675235351E+00 -0.43995834771E+01 -0.94261835705E+01  0.10415195844E+02  0.00000000000E+00 0. -1.
</event>
<event>
 7    1  0.5664398E-009  0.4614232E+02  0.7816164E-02  0.1320468E+00
        -11   -1    0    0    0    0  0.00000000000E+00  0.00000000000E+00  0.45593999997E+02  0.45594000000E+02  0.51100000000E-03 0. -1.
         11   -1    0    0    0    0 -0.00000000000E+00 -0.00000000000E+00 -0.45593999997E+02  0.45594000000E+02  0.51100000000E-03 0.  1.
    9900012    2    1    2    0    0  0.26889221556E+01  0.33730406904E+02  0.29734538295E+02  0.46142318521E+02  0.10000006932E+02 0.  0.
        -12    1    1    2    0    0 -0.26889221556E+01 -0.33730406904E+02 -0.29734538295E+02  0.45045681479E+02  0.00000000000E+00 0.  1.
         11    1    3    3    0    0 -0.13452408819E+00  0.10949705544E+01  0.11373385850E+01  0.15844862143E+01  0.51100000000E-03 0. -1.
        -11    1    3    3    0    0 -0.72336464931E+00  0.27011278366E+02  0.25747357547E+02  0.37323703411E+02  0.51100000000E-03 0.  1.
        -12    1    3    3    0    0  0.35468108931E+01  0.56241579833E+01  0.28498421632E+01  0.72341288963E+01  0.00000000000E+00 0.  1.
</event>
<event>
 7    1  0.5664398E-009  0.4614232E+02  0.7816164E-02  0.1320468E+00
        -11   -1    0    0    0    0  0.00000000000E+00  0.00000000000E+00  0.45593999997E+02  0.45594000000E+02  0.51100000000E-03 0. -1.
         11   -1    0    0    0    0 -0.00000000000E+00 -0.00000000000E+00 -0.45593999997E+02  0.45594000000E+02  0.51100000000E-03 0.  1.
    9900012    2    1    2    0    0 -0.14848775104E+02 -0.41528491491E+02  0.91657933201E+01  0.46142317690E+02  0.99999993518E+01 0.  0.
        -12    1    1    2    0    0  0.14848775104E+02  0.41528491491E+02 -0.91657933201E+01  0.45045682310E+02  0.00000000000E+00 0.  1.
         11    1    3    3    0    0 -0.23785422784E+00 -0.57994769036E+00  0.58996364632E+00  0.86079691121E+00  0.51100000000E-03 0.  1.
        -11    1    3    3    0    0 -0.25852732108E+01 -0.17054824921E+02  0.19752785065E+00  0.17250788625E+02  0.51100000000E-03 0. -1.
         12    1    3    3    0    0 -0.12025647665E+02 -0.23893718879E+02  0.83783018232E+01  0.28030732154E+02  0.00000000000E+00 0. -1.
</event>
<event>
 7    1  0.5664398E-009  0.4614232E+02  0.7816164E-02  0.1320468E+00
        -11   -1    0    0    0    0  0.00000000000E+00  0.00000000000E+00  0.45593999997E+02  0.45594000000E+02  0.51100000000E-03 0. -1.
         11   -1    0    0    0    0 -0.00000000000E+00 -0.00000000000E+00 -0.45593999997E+02  0.45594000000E+02  0.51100000000E-03 0.  1.
    9900012    2    1    2    0    0  0.98042646495E+01  0.13635298102E+02 -0.41797949872E+02  0.46142316820E+02  0.99999914221E+01 0.  0.
         12    1    1    2    0    0 -0.98042646495E+01 -0.13635298102E+02  0.41797949872E+02  0.45045683180E+02  0.00000000000E+00 0. -1.
         11    1    3    3    0    0 -0.76656228786E+00  0.96522343027E+00 -0.14332678571E+01  0.18903785396E+01  0.51100000000E-03 0. -1.
        -11    1    3    3    0    0  0.14214292184E+01  0.47967454578E+01 -0.59053594636E+01  0.77396704495E+01  0.51100000000E-03 0.  1.
         12    1    3    3    0    0  0.91493977190E+01  0.78733292139E+01 -0.34459322551E+02  0.36512267831E+02  0.00000000000E+00 0. -1.
</event>
<event>
 7    1  0.5664398E-009  0.4614232E+02  0.7816164E-02  0.1320468E+00
        -11   -1    0    0    0    0  0.00000000000E+00  0.00000000000E+00  0.45593999997E+02  0.45594000000E+02  0.51100000000E-03 0. -1.
         11   -1    0    0    0    0 -0.00000000000E+00 -0.00000000000E+00 -0.45593999997E+02  0.45594000000E+02  0.51100000000E-03 0.  1.
    9900012    2    1    2    0    0 -0.23529572321E+02 -0.34071029179E+02 -0.17738036259E+02  0.46142315043E+02  0.99999752154E+01 0.  0.
         12    1    1    2    0    0  0.23529572321E+02  0.34071029179E+02  0.17738036259E+02  0.45045684957E+02  0.00000000000E+00 0. -1.
         11    1    3    3    0    0 -0.78418873258E+01 -0.68726417846E+01 -0.47560770743E+01  0.11460744798E+02  0.51100000000E-03 0. -1.
        -11    1    3    3    0    0 -0.46863103223E+01 -0.61481812470E+01 -0.63966972705E+01  0.10033911167E+02  0.51100000000E-03 0.  1.
         12    1    3    3    0    0 -0.11001374673E+02 -0.21050206147E+02 -0.65852619145E+01  0.24647659078E+02  0.00000000000E+00 0. -1.
</event>
<event>
 7    1  0.5664398E-009  0.4614232E+02  0.7816164E-02  0.1320468E+00
        -11   -1    0    0    0    0  0.00000000000E+00  0.00000000000E+00  0.45593999997E+02  0.45594000000E+02  0.51100000000E-03 0. -1.
         11   -1    0    0    0    0 -0.00000000000E+00 -0.00000000000E+00 -0.45593999997E+02  0.45594000000E+02  0.51100000000E-03 0.  1.
    9900012    2    1    2    0    0 -0.23869081718E+02 -0.90707065383E+01 -0.37109334140E+02  0.46142318082E+02  0.10000002923E+02 0.  0.
         12    1    1    2    0    0  0.23869081718E+02  0.90707065383E+01  0.37109334140E+02  0.45045681918E+02  0.00000000000E+00 0. -1.
         11    1    3    3    0    0 -0.17751141625E+01 -0.10250101347E+00 -0.15885460880E+01  0.23843270922E+01  0.51100000000E-03 0. -1.
        -11    1    3    3    0    0 -0.22219641023E+02 -0.97767832824E+01 -0.32128072906E+02  0.40267989861E+02  0.51100000000E-03 0.  1.
         12    1    3    3    0    0  0.12567346808E+00  0.80857775751E+00 -0.33927151461E+01  0.34900011280E+01  0.00000000000E+00 0. -1.
</event>
<event>
 7    1  0.5664398E-009  0.4614232E+02  0.7816164E-02  0.1320468E+00
        -11   -1    0    0    0    0  0.00000000000E+00  0.00000000000E+00  0.45593999997E+02  0.45594000000E+02  0.51100000000E-03 0. -1.
         11   -1    0    0    0    0 -0.00000000000E+00 -0.00000000000E+00 -0.45593999997E+02  0.45594000000E+02  0.51100000000E-03 0.  1.
    9900012    2    1    2    0    0  0.19739442577E+02  0.27164239806E+02 -0.30026188529E+02  0.46142317464E+02  0.99999972922E+01 0.  0.
         12    1    1    2    0    0 -0.19739442577E+02 -0.27164239806E+02  0.30026188529E+02  0.45045682536E+02  0.00000000000E+00 0. -1.
         11    1    3    3    0    0 -0.33088237711E+00  0.99617098206E+00 -0.31392751423E+00  0.10956233469E+01  0.51100000000E-03 0. -1.
        -11    1    3    3    0    0  0.11591249275E+02  0.14418965677E+02 -0.11537154818E+02  0.21802971644E+02  0.51100000000E-03 0.  1.
        -12    1    3    3    0    0  0.84790756792E+01  0.11749103148E+02 -0.18175106197E+02  0.23243722473E+02  0.00000000000E+00 0.  1.
</event>
<event>
 7    1  0.5664398E-009  0.4614231E+02  0.7816164E-02  0.1320468E+00
        -11   -1    0    0    0    0  0.00000000000E+00  0.00000000000E+00  0.45593999997E+02  0.45594000000E+02  0.51100000000E-03 0. -1.
         11   -1    0    0    0    0 -0.00000000000E+00 -0.00000000000E+00 -0.45593999997E+02  0.45594000000E+02  0.51100000000E-03 0.  1.
    9900012    2    1    2    0    0 -0.90438639656E+01  0.32009023638E+02  0.30376717595E+02  0.46142311621E+02  0.99999440118E+01 0.  0.
        -12    1    1    2    0    0  0.90438639656E+01 -0.32009023638E+02 -0.30376717595E+02  0.45045688379E+02  0.00000000000E+00 0.  1.
         11    1    3    3    0    0 -0.77754572775E+01  0.17695484300E+02  0.18610680940E+02  0.26831797289E+02  0.51100000000E-03 0. -1.
        -11    1    3    3    0    0  0.10385052795E+00  0.97768877338E+01  0.10617619622E+02  0.14433716271E+02  0.51100000000E-03 0.  1.
        -12    1    3    3    0    0 -0.13722572161E+01  0.45366516044E+01  0.11484170333E+01  0.48767980612E+01  0.00000000000E+00 0.  1.
</event>
<event>
 7    1  0.5664398E-009  0.4614232E+02  0.7816164E-02  0.1320468E+00
        -11   -1    0    0    0    0  0.00000000000E+00  0.00000000000E+00  0.45593999997E+02  0.45594000000E+02  0.51100000000E-03 0. -1.
         11   -1    0    0    0    0 -0.00000000000E+00 -0.00000000000E+00 -0.45593999997E+02  0.45594000000E+02  0.51100000000E-03 0.  1.
    9900012    2    1    2    0    0  0.82425277097E+01  0.12441487466E+02  0.42501571423E+02  0.46142318222E+02  0.10000004199E+02 0.  0.
        -12    1    1    2    0    0 -0.82425277097E+01 -0.12441487466E+02 -0.42501571423E+02  0.45045681778E+02  0.00000000000E+00 0.  1.
         11    1    3    3    0    0  0.40522602938E+01  0.67012423210E+01  0.27081441481E+02  0.28190990317E+02  0.51100000000E-03 0. -1.
        -11    1    3    3    0    0 -0.76718943216E+00  0.17152134231E+01  0.77323326897E+01  0.79573554524E+01  0.51100000000E-03 0.  1.
         12    1    3    3    0    0  0.49574568481E+01  0.40250317221E+01  0.76877972530E+01  0.99939724518E+01  0.00000000000E+00 0. -1.
</event>
<event>
 7    1  0.5664398E-009  0.4614232E+02  0.7816164E-02  0.1320468E+00
        -11   -1    0    0    0    0  0.00000000000E+00  0.00000000000E+00  0.45593999997E+02  0.45594000000E+02  0.51100000000E-03 0. -1.
         11   -1    0    0    0    0 -0.00000000000E+00 -0.00000000000E+00 -0.45593999997E+02  0.45594000000E+02  0.51100000000E-03 0.  1.
    9900012    2    1    2    0    0 -0.31134289750E+02  0.24250607350E+02 -0.21718139315E+02  0.46142317295E+02  0.99999957487E+01 0.  0.
         12    1    1    2    0    0  0.31134289750E+02 -0.24250607350E+02  0.21718139315E+02  0.45045682705E+02  0.00000000000E+00 0. -1.
         11    1    3    3    0    0 -0.84004987550E+01  0.51073017260E+01 -0.22946504351E+01  0.10095460917E+02  0.51100000000E-03 0. -1.
        -11    1    3    3    0    0 -0.16265568145E+02  0.10564613703E+02 -0.10349995908E+02  0.21984134856E+02  0.51100000000E-03 0.  1.
        -12    1    3    3    0    0 -0.64682228498E+01  0.85786919204E+01 -0.90734929715E+01  0.14062721522E+02  0.00000000000E+00 0.  1.
</event>
<event>
 7    1  0.5664398E-009  0.4614232E+02  0.7816164E-02  0.1320468E+00
        -11   -1    0    0    0    0  0.00000000000E+00  0.00000000000E+00  0.45593999997E+02  0.45594000000E+02  0.51100000000E-03 0. -1.
         11   -1    0    0    0    0 -0.00000000000E+00 -0.00000000000E+00 -0.45593999997E+02  0.45594000000E+02  0.51100000000E-03 0.  1.
    9900012    2    1    2    0    0 -0.92375104636E+01  0.32080013131E+02 -0.30243258780E+02  0.46142317147E+02  0.99999944012E+01 0.  0.
         12    1    1    2    0    0  0.92375104636E+01 -0.32080013131E+02  0.30243258780E+02  0.45045682853E+02  0.00000000000E+00 0. -1.
         11    1    3    3    0    0 -0.84935940433E+00  0.55961939741E+01 -0.19174906576E+01  0.59762504195E+01  0.51100000000E-03 0. -1.
        -11    1    3    3    0    0 -0.41040461279E+01  0.14290352315E+02 -0.10737398420E+02  0.18339822491E+02  0.51100000000E-03 0.  1.
        -12    1    3    3    0    0 -0.42841049314E+01  0.12193466841E+02 -0.17588369702E+02  0.21826244236E+02  0.00000000000E+00 0.  1.
</event>
<event>
 7    1  0.5664398E-009  0.4614232E+02  0.7816164E-02  0.1320468E+00
        -11   -1    0    0    0    0  0.00000000000E+00  0.00000000000E+00  0.45593999997E+02  0.45594000000E+02  0.51100000000E-03 0. -1.
         11   -1    0    0    0    0 -0.00000000000E+00 -0.00000000000E+00 -0.45593999997E+02  0.45594000000E+02  0.51100000000E-03 0.  1.
    9900012    2    1    2    0    0 -0.48340174911E+01 -0.34198472739E+02  0.28917299851E+02  0.46142317704E+02  0.99999994826E+01 0.  0.
        -12    1    1    2    0    0  0.48340174911E+01  0.34198472739E+02 -0.28917299851E+02  0.45045682296E+02  0.00000000000E+00 0.  1.
         11    1    3    3    0    0 -0.10685152604E+01 -0.48760836082E+01  0.34316913328E+01  0.60575920861E+01  0.51100000000E-03 0. -1.
        -11    1    3    3    0    0  0.27345751512E+01 -0.90260070494E+01  0.57969462935E+01  0.11070288664E+02  0.51100000000E-03 0.  1.
        -12    1    3    3    0    0 -0.65000773819E+01 -0.20296382081E+02  0.19688662225E+02  0.29014436954E+02  0.00000000000E+00 0.  1.
</event>
<event>
 7    1  0.5664398E-009  0.4614232E+02  0.7816164E-02  0.1320468E+00
        -11   -1    0    0    0    0  0.00000000000E+00  0.00000000000E+00  0.45593999997E+02  0.45594000000E+02  0.51100000000E-03 0. -1.
         11   -1    0    0    0    0 -0.00000000000E+00 -0.00000000000E+00 -0.45593999997E+02  0.45594000000E+02  0.51100000000E-03 0.  1.
    9900012    2    1    2    0    0  0.94230712583E+01 -0.72387271227E+01  0.43450201478E+02  0.46142318178E+02  0.10000003805E+02 0.  0.
        -12    1    1    2    0    0 -0.94230712583E+01  0.72387271227E+01 -0.43450201478E+02  0.45045681822E+02  0.00000000000E+00 0.  1.
         11    1    3    3    0    0 -0.15507733273E+01  0.47699578052E+00  0.51544660828E+01  0.54037897579E+01  0.51100000000E-03 0. -1.
        -11    1    3    3    0    0  0.62642241290E+00 -0.13631669567E+01  0.72363387600E+01  0.73902116412E+01  0.51100000000E-03 0.  1.
         12    1    3    3    0    0  0.10347422173E+02 -0.63525559465E+01  0.31059396635E+02  0.33348316779E+02  0.00000000000E+00 0. -1.
</event>
<event>
 7    1  0.5664398E-009  0.4614232E+02  0.7816164E-02  0.1320468E+00
        -11   -1    0    0    0    0  0.00000000000E+00  0.00000000000E+00  0.45593999997E+02  0.45594000000E+02  0.51100000000E-03 0.  1.
         11   -1    0    0    0    0 -0.00000000000E+00 -0.00000000000E+00 -0.45593999997E+02  0.45594000000E+02  0.51100000000E-03 0. -1.
    9900012    2    1    2    0    0  0.42467320544E+02  0.82685785306E+01  0.12540766860E+02  0.46142317204E+02  0.99999949179E+01 0.  0.
         12    1    1    2    0    0 -0.42467320544E+02 -0.82685785306E+01 -0.12540766860E+02  0.45045682796E+02  0.00000000000E+00 0. -1.
         11    1    3    3    0    0  0.70194558254E+01  0.28757484205E+01  0.54616102451E+01  0.93472924311E+01  0.51100000000E-03 0. -1.
        -11    1    3    3    0    0  0.16326148499E+02  0.42147482164E+01  0.45976893969E+01  0.17477012770E+02  0.51100000000E-03 0.  1.
         12    1    3    3    0    0  0.19121716221E+02  0.11780818937E+01  0.24814672178E+01  0.19318012002E+02  0.00000000000E+00 0. -1.
</event>
<event>
 7    1  0.5664398E-009  0.4614232E+02  0.7816164E-02  0.1320468E+00
        -11   -1    0    0    0    0  0.00000000000E+00  0.00000000000E+00  0.45593999997E+02  0.45594000000E+02  0.51100000000E-03 0. -1.
         11   -1    0    0    0    0 -0.00000000000E+00 -0.00000000000E+00 -0.45593999997E+02  0.45594000000E+02  0.51100000000E-03 0.  1.
    9900012    2    1    2    0    0  0.35467022158E+01 -0.25088836916E+02 -0.37243585182E+02  0.46142317947E+02  0.10000001691E+02 0.  0.
         12    1    1    2    0    0 -0.35467022158E+01  0.25088836916E+02  0.37243585182E+02  0.45045682053E+02  0.00000000000E+00 0. -1.
         11    1    3    3    0    0  0.28155725992E+01 -0.45233591325E+01 -0.10039232651E+02  0.11365492483E+02  0.51100000000E-03 0. -1.
        -11    1    3    3    0    0  0.12531721146E+01 -0.20160036941E+02 -0.23385185508E+02  0.30900880753E+02  0.51100000000E-03 0.  1.
         12    1    3    3    0    0 -0.52204249799E+00 -0.40544084335E+00 -0.38191670239E+01  0.38759447111E+01  0.00000000000E+00 0. -1.
</event>
<event>
 7    1  0.5664398E-009  0.4614232E+02  0.7816164E-02  0.1320468E+00
        -11   -1    0    0    0    0  0.00000000000E+00  0.00000000000E+00  0.45593999997E+02  0.45594000000E+02  0.51100000000E-03 0. -1.
         11   -1    0    0    0    0 -0.00000000000E+00 -0.00000000000E+00 -0.45593999997E+02  0.45594000000E+02  0.51100000000E-03 0.  1.
    9900012    2    1    2    0    0 -0.10529833942E+02  0.19370223792E+02 -0.39281425255E+02  0.46142319378E+02  0.10000014744E+02 0.  0.
         12    1    1    2    0    0  0.10529833942E+02 -0.19370223792E+02  0.39281425255E+02  0.45045680622E+02  0.00000000000E+00 0. -1.
         11    1    3    3    0    0 -0.27184337559E+01  0.58824819804E+01 -0.13699519714E+02  0.15154877664E+02  0.51100000000E-03 0. -1.
        -11    1    3    3    0    0 -0.68026219778E+01  0.13356513871E+02 -0.25897405736E+02  0.29922362084E+02  0.51100000000E-03 0.  1.
         12    1    3    3    0    0 -0.10087782079E+01  0.13122794156E+00  0.31550019549E+00  0.10650796302E+01  0.00000000000E+00 0. -1.
</event>
<event>
 7    1  0.5664398E-009  0.4614232E+02  0.7816164E-02  0.1320468E+00
        -11   -1    0    0    0    0  0.00000000000E+00  0.00000000000E+00  0.45593999997E+02  0.45594000000E+02  0.51100000000E-03 0. -1.
         11   -1    0    0    0    0 -0.00000000000E+00 -0.00000000000E+00 -0.45593999997E+02  0.45594000000E+02  0.51100000000E-03 0.  1.
    9900012    2    1    2    0    0 -0.21920934690E+02  0.32194363463E+02  0.22629826803E+02  0.46142317880E+02  0.10000001085E+02 0.  0.
        -12    1    1    2    0    0  0.21920934690E+02 -0.32194363463E+02 -0.22629826803E+02  0.45045682120E+02  0.00000000000E+00 0.  1.
         11    1    3    3    0    0 -0.64969433925E+01  0.11679526741E+02  0.98954096728E+01  0.16629514460E+02  0.51100000000E-03 0. -1.
        -11    1    3    3    0    0 -0.13222515505E+00  0.17496360937E+00 -0.70260741654E+00  0.73603885707E+00  0.51100000000E-03 0.  1.
         12    1    3    3    0    0 -0.15291766143E+02  0.20339873113E+02  0.13437024547E+02  0.28776764563E+02  0.00000000000E+00 0. -1.
</event>
<event>
 7    1  0.5664398E-009  0.4614232E+02  0.7816164E-02  0.1320468E+00
        -11   -1    0    0    0    0  0.00000000000E+00  0.00000000000E+00  0.45593999997E+02  0.45594000000E+02  0.51100000000E-03 0. -1.
         11   -1    0    0    0    0 -0.00000000000E+00 -0.00000000000E+00 -0.45593999997E+02  0.45594000000E+02  0.51100000000E-03 0.  1.
    9900012    2    1    2    0    0  0.28187998071E+02 -0.22489938202E+02  0.26995426453E+02  0.46142316467E+02  0.99999881969E+01 0.  0.
        -12    1    1    2    0    0 -0.28187998071E+02  0.22489938202E+02 -0.26995426453E+02  0.45045683533E+02  0.00000000000E+00 0.  1.
         11    1    3    3    0    0  0.10215125826E+02 -0.78785960931E+01  0.11189688738E+02  0.17077183795E+02  0.51100000000E-03 0. -1.
        -11    1    3    3    0    0  0.66935531042E+01 -0.74873708294E+01  0.27819987685E+01  0.10421319135E+02  0.51100000000E-03 0.  1.
        -12    1    3    3    0    0  0.11279319141E+02 -0.71239712798E+01  0.13023738946E+02  0.18643813537E+02  0.00000000000E+00 0.  1.
</event>
<event>
 7    1  0.5664398E-009  0.4614232E+02  0.7816164E-02  0.1320468E+00
        -11   -1    0    0    0    0  0.00000000000E+00  0.00000000000E+00  0.45593999997E+02  0.45594000000E+02  0.51100000000E-03 0. -1.
         11   -1    0    0    0    0 -0.00000000000E+00 -0.00000000000E+00 -0.45593999997E+02  0.45594000000E+02  0.51100000000E-03 0.  1.
    9900012    2    1    2    0    0 -0.29620967888E+02  0.13088049019E+02  0.31311575552E+02  0.46142317307E+02  0.99999958619E+01 0.  0.
        -12    1    1    2    0    0  0.29620967888E+02 -0.13088049019E+02 -0.31311575552E+02  0.45045682693E+02  0.00000000000E+00 0.  1.
         11    1    3    3    0    0 -0.77108807554E+01  0.69911798113E+01  0.78205010869E+01  0.13019005902E+02  0.51100000000E-03 0.  1.
        -11    1    3    3    0    0 -0.26382327574E+01  0.24504904557E+01  0.24318981027E+01  0.43450321286E+01  0.51100000000E-03 0. -1.
         12    1    3    3    0    0 -0.19271854375E+02  0.36463787516E+01  0.21059176362E+02  0.28778279276E+02  0.00000000000E+00 0. -1.
</event>
<event>
 7    1  0.5664398E-009  0.4614232E+02  0.7816164E-02  0.1320468E+00
        -11   -1    0    0    0    0  0.00000000000E+00  0.00000000000E+00  0.45593999997E+02  0.45594000000E+02  0.51100000000E-03 0.  1.
         11   -1    0    0    0    0 -0.00000000000E+00 -0.00000000000E+00 -0.45593999997E+02  0.45594000000E+02  0.51100000000E-03 0. -1.
    9900012    2    1    2    0    0  0.42521520149E+02 -0.12808068889E+02 -0.75489855491E+01  0.46142317774E+02  0.10000000114E+02 0.  0.
         12    1    1    2    0    0 -0.42521520149E+02  0.12808068889E+02  0.75489855491E+01  0.45045682226E+02  0.00000000000E+00 0. -1.
         11    1    3    3    0    0  0.60499391608E+00  0.19121495813E+00 -0.10084388551E+01  0.11914402983E+01  0.51100000000E-03 0. -1.
        -11    1    3    3    0    0  0.27657839134E+02 -0.11594510529E+02 -0.26634493616E+01  0.30107851181E+02  0.51100000000E-03 0.  1.
        -12    1    3    3    0    0  0.14258687098E+02 -0.14047733179E+01 -0.38770973323E+01  0.14843026294E+02  0.00000000000E+00 0.  1.
</event>
<event>
 7    1  0.5664398E-009  0.4614232E+02  0.7816164E-02  0.1320468E+00
        -11   -1    0    0    0    0  0.00000000000E+00  0.00000000000E+00  0.45593999997E+02  0.45594000000E+02  0.51100000000E-03 0.  1.
         11   -1    0    0    0    0 -0.00000000000E+00 -0.00000000000E+00 -0.45593999997E+02  0.45594000000E+02  0.51100000000E-03 0. -1.
    9900012    2    1    2    0    0 -0.43717944066E+02 -0.43903099382E+01  0.99287478214E+01  0.46142317765E+02  0.10000000034E+02 0.  0.
        -12    1    1    2    0    0  0.43717944066E+02  0.43903099382E+01 -0.99287478214E+01  0.45045682235E+02  0.00000000000E+00 0.  1.
         11    1    3    3    0    0 -0.76717245036E+01  0.23845839280E-01 -0.70441070318E+00  0.77040327221E+01  0.51100000000E-03 0. -1.
        -11    1    3    3    0    0 -0.45146989436E+01 -0.18230740073E+01  0.35272876895E+01  0.60123093810E+01  0.51100000000E-03 0.  1.
         12    1    3    3    0    0 -0.31531520619E+02 -0.25910817702E+01  0.71058708351E+01  0.32425975662E+02  0.00000000000E+00 0. -1.
</event>
<event>
 7    1  0.5664398E-009  0.4614232E+02  0.7816164E-02  0.1320468E+00
        -11   -1    0    0    0    0  0.00000000000E+00  0.00000000000E+00  0.45593999997E+02  0.45594000000E+02  0.51100000000E-03 0. -1.
         11   -1    0    0    0    0 -0.00000000000E+00 -0.00000000000E+00 -0.45593999997E+02  0.45594000000E+02  0.51100000000E-03 0.  1.
    9900012    2    1    2    0    0 -0.10027520270E+02  0.38664350381E+02 -0.20823793022E+02  0.46142317533E+02  0.99999979165E+01 0.  0.
         12    1    1    2    0    0  0.10027520270E+02 -0.38664350381E+02  0.20823793022E+02  0.45045682467E+02  0.00000000000E+00 0. -1.
         11    1    3    3    0    0 -0.35288274050E+01  0.43274407829E+01 -0.18353126248E+01  0.58777324944E+01  0.51100000000E-03 0. -1.
        -11    1    3    3    0    0 -0.43832071899E+01  0.30813146359E+02 -0.15046137575E+02  0.34569477144E+02  0.51100000000E-03 0.  1.
        -12    1    3    3    0    0 -0.21154856756E+01  0.35237632394E+01 -0.39423428213E+01  0.56951078946E+01  0.00000000000E+00 0.  1.
</event>
<event>
 7    1  0.6241617E-009  0.4614232E+02  0.7816164E-02  0.1320468E+00
        -11   -1    0    0    0    0  0.00000000000E+00  0.00000000000E+00  0.45593999997E+02  0.45594000000E+02  0.51100000000E-03 0. -1.
         11   -1    0    0    0    0 -0.00000000000E+00 -0.00000000000E+00 -0.45593999997E+02  0.45594000000E+02  0.51100000000E-03 0.  1.
    9900012    2    1    2    0    0 -0.56290756477E+01  0.24050163805E+02  0.37669835646E+02  0.46142318861E+02  0.10000010029E+02 0.  0.
        -12    1    1    2    0    0  0.56290756477E+01 -0.24050163805E+02 -0.37669835646E+02  0.45045681139E+02  0.00000000000E+00 0.  1.
         11    1    3    3    0    0 -0.86263847732E+00  0.30547458590E+01  0.26360966737E+01  0.41260905637E+01  0.51100000000E-03 0. -1.
        -11    1    3    3    0    0 -0.36904619241E+01  0.26684856516E+01  0.98440493372E+01  0.10846457140E+02  0.51100000000E-03 0.  1.
         12    1    3    3    0    0 -0.10759752463E+01  0.18326932294E+02  0.25189689635E+02  0.31169771157E+02  0.00000000000E+00 0. -1.
</event>
<event>
 7    1  0.5664398E-009  0.4614232E+02  0.7816164E-02  0.1320468E+00
        -11   -1    0    0    0    0  0.00000000000E+00  0.00000000000E+00  0.45593999997E+02  0.45594000000E+02  0.51100000000E-03 0. -1.
         11   -1    0    0    0    0 -0.00000000000E+00 -0.00000000000E+00 -0.45593999997E+02  0.45594000000E+02  0.51100000000E-03 0.  1.
    9900012    2    1    2    0    0 -0.40223131426E+00  0.38568638663E+01 -0.44878461550E+02  0.46142317632E+02  0.99999988236E+01 0.  0.
         12    1    1    2    0    0  0.40223131426E+00 -0.38568638663E+01  0.44878461550E+02  0.45045682368E+02  0.00000000000E+00 0. -1.
         11    1    3    3    0    0  0.59006133637E+00  0.11531707792E+01 -0.53102926656E+01  0.54660025322E+01  0.51100000000E-03 0.  1.
        -11    1    3    3    0    0  0.24336758253E+00  0.22224950712E+01 -0.17613211060E+01  0.28462193207E+01  0.51100000000E-03 0. -1.
        -12    1    3    3    0    0 -0.12356602332E+01  0.48119801590E+00 -0.37806847778E+02  0.37830095779E+02  0.00000000000E+00 0.  1.
</event>
<event>
 7    1  0.5664398E-009  0.4614233E+02  0.7816164E-02  0.1320468E+00
        -11   -1    0    0    0    0  0.00000000000E+00  0.00000000000E+00  0.45593999997E+02  0.45594000000E+02  0.51100000000E-03 0. -1.
         11   -1    0    0    0    0 -0.00000000000E+00 -0.00000000000E+00 -0.45593999997E+02  0.45594000000E+02  0.51100000000E-03 0.  1.
    9900012    2    1    2    0    0  0.27327778952E+02 -0.50697324762E+01 -0.35448589556E+02  0.46142332157E+02  0.10000131277E+02 0.  0.
         12    1    1    2    0    0 -0.27327778952E+02  0.50697324762E+01  0.35448589556E+02  0.45045667843E+02  0.00000000000E+00 0. -1.
         11    1    3    3    0    0  0.89659833476E+00 -0.18627352207E+01 -0.35571429003E+01  0.41142358890E+01  0.51100000000E-03 0. -1.
        -11    1    3    3    0    0  0.14186273106E+02 -0.31192059331E+01 -0.12873667688E+02  0.19409047124E+02  0.51100000000E-03 0.  1.
        -12    1    3    3    0    0  0.12244907512E+02 -0.87791322399E-01 -0.19017778968E+02  0.22619049144E+02  0.00000000000E+00 0.  1.
</event>
<event>
 7    1  0.5664398E-009  0.4614232E+02  0.7816164E-02  0.1320468E+00
        -11   -1    0    0    0    0  0.00000000000E+00  0.00000000000E+00  0.45593999997E+02  0.45594000000E+02  0.51100000000E-03 0. -1.
         11   -1    0    0    0    0 -0.00000000000E+00 -0.00000000000E+00 -0.45593999997E+02  0.45594000000E+02  0.51100000000E-03 0.  1.
    9900012    2    1    2    0    0  0.15291423622E+02 -0.92364431429E+01 -0.41351831055E+02  0.46142318188E+02  0.10000003889E+02 0.  0.
         12    1    1    2    0    0 -0.15291423622E+02  0.92364431429E+01  0.41351831055E+02  0.45045681812E+02  0.00000000000E+00 0. -1.
         11    1    3    3    0    0  0.57388942856E+01 -0.63937799380E+01 -0.23411672280E+02  0.24938358581E+02  0.51100000000E-03 0.  1.
        -11    1    3    3    0    0  0.21910672176E+01 -0.25478006231E+01 -0.90744052097E+01  0.96766158205E+01  0.51100000000E-03 0. -1.
         12    1    3    3    0    0  0.73614621190E+01 -0.29486258177E+00 -0.88657535656E+01  0.11527343786E+02  0.00000000000E+00 0. -1.
</event>
<event>
 7    1  0.5664398E-009  0.4614232E+02  0.7816164E-02  0.1320468E+00
        -11   -1    0    0    0    0  0.00000000000E+00  0.00000000000E+00  0.45593999997E+02  0.45594000000E+02  0.51100000000E-03 0. -1.
         11   -1    0    0    0    0 -0.00000000000E+00 -0.00000000000E+00 -0.45593999997E+02  0.45594000000E+02  0.51100000000E-03 0.  1.
    9900012    2    1    2    0    0  0.19052435605E+02  0.18126976210E+01 -0.40777841494E+02  0.46142317276E+02  0.99999955788E+01 0.  0.
         12    1    1    2    0    0 -0.19052435605E+02 -0.18126976210E+01  0.40777841494E+02  0.45045682724E+02  0.00000000000E+00 0. -1.
         11    1    3    3    0    0 -0.38667543622E+00 -0.44761940422E+00 -0.19479211336E+01  0.20357499915E+01  0.51100000000E-03 0. -1.
        -11    1    3    3    0    0  0.22563276043E+01 -0.13537799125E+01 -0.19997382420E+01  0.33049489568E+01  0.51100000000E-03 0.  1.
        -12    1    3    3    0    0  0.17182783437E+02  0.36140969377E+01 -0.36830182118E+02  0.40801618328E+02  0.00000000000E+00 0.  1.
</event>
<event>
 7    1  0.5664398E-009  0.4614232E+02  0.7816164E-02  0.1320468E+00
        -11   -1    0    0    0    0  0.00000000000E+00  0.00000000000E+00  0.45593999997E+02  0.45594000000E+02  0.51100000000E-03 0. -1.
         11   -1    0    0    0    0 -0.00000000000E+00 -0.00000000000E+00 -0.45593999997E+02  0.45594000000E+02  0.51100000000E-03 0.  1.
    9900012    2    1    2    0    0 -0.24098235398E+02  0.21443865570E+02 -0.31441200507E+02  0.46142318640E+02  0.10000008011E+02 0.  0.
         12    1    1    2    0    0  0.24098235398E+02 -0.21443865570E+02  0.31441200507E+02  0.45045681360E+02  0.00000000000E+00 0. -1.
         11    1    3    3    0    0  0.24623451427E+00  0.82649855611E+00 -0.93985371994E+00  0.12755612785E+01  0.51100000000E-03 0.  1.
        -11    1    3    3    0    0 -0.78328079169E+01  0.11609609653E+02 -0.14675604571E+02  0.20285691655E+02  0.51100000000E-03 0. -1.
        -12    1    3    3    0    0 -0.16511661995E+02  0.90077573612E+01 -0.15825742216E+02  0.24581065706E+02  0.00000000000E+00 0.  1.
</event>
<event>
 7    1  0.5664398E-009  0.4614232E+02  0.7816164E-02  0.1320468E+00
        -11   -1    0    0    0    0  0.00000000000E+00  0.00000000000E+00  0.45593999997E+02  0.45594000000E+02  0.51100000000E-03 0.  1.
         11   -1    0    0    0    0 -0.00000000000E+00 -0.00000000000E+00 -0.45593999997E+02  0.45594000000E+02  0.51100000000E-03 0. -1.
    9900012    2    1    2    0    0  0.11867784078E+02 -0.39809809174E+02 -0.17419770524E+02  0.46142316406E+02  0.99999876425E+01 0.  0.
        -12    1    1    2    0    0 -0.11867784078E+02  0.39809809174E+02  0.17419770524E+02  0.45045683594E+02  0.00000000000E+00 0.  1.
         11    1    3    3    0    0  0.22037735693E+01 -0.31654806125E+01 -0.25117543879E+01  0.46028030394E+01  0.51100000000E-03 0. -1.
        -11    1    3    3    0    0  0.55688328925E+01 -0.85982672256E+01 -0.22007413789E+01  0.10477851018E+02  0.51100000000E-03 0.  1.
         12    1    3    3    0    0  0.40951776162E+01 -0.28046061335E+02 -0.12707274757E+02  0.31061662349E+02  0.00000000000E+00 0. -1.
</event>
<event>
 7    1  0.5664398E-009  0.4614232E+02  0.7816164E-02  0.1320468E+00
        -11   -1    0    0    0    0  0.00000000000E+00  0.00000000000E+00  0.45593999997E+02  0.45594000000E+02  0.51100000000E-03 0. -1.
         11   -1    0    0    0    0 -0.00000000000E+00 -0.00000000000E+00 -0.45593999997E+02  0.45594000000E+02  0.51100000000E-03 0.  1.
    9900012    2    1    2    0    0  0.29786736379E+01 -0.64417889863E+01 -0.44483079113E+02  0.46142317972E+02  0.10000001925E+02 0.  0.
         12    1    1    2    0    0 -0.29786736379E+01  0.64417889863E+01  0.44483079113E+02  0.45045682028E+02  0.00000000000E+00 0. -1.
         11    1    3    3    0    0  0.69904854197E+00 -0.14542848595E+00 -0.13154942583E+01  0.14967777769E+01  0.51100000000E-03 0. -1.
        -11    1    3    3    0    0  0.22763546047E+01 -0.45248331668E+01 -0.82348800261E+01  0.96679447029E+01  0.51100000000E-03 0.  1.
         12    1    3    3    0    0  0.32704911483E-02 -0.17715273336E+01 -0.34932704829E+02  0.34977595492E+02  0.00000000000E+00 0. -1.
</event>
<event>
 7    1  0.5664398E-009  0.4614232E+02  0.7816164E-02  0.1320468E+00
        -11   -1    0    0    0    0  0.00000000000E+00  0.00000000000E+00  0.45593999997E+02  0.45594000000E+02  0.51100000000E-03 0. -1.
         11   -1    0    0    0    0 -0.00000000000E+00 -0.00000000000E+00 -0.45593999997E+02  0.45594000000E+02  0.51100000000E-03 0.  1.
    9900012    2    1    2    0    0  0.46460699568E+01  0.60610523249E+01 -0.44393594896E+02  0.46142316642E+02  0.99999897981E+01 0.  0.
         12    1    1    2    0    0 -0.46460699568E+01 -0.60610523249E+01  0.44393594896E+02  0.45045683358E+02  0.00000000000E+00 0. -1.
         11    1    3    3    0    0  0.12356952558E+01  0.26633110469E+01 -0.42132692435E+01  0.51353487201E+01  0.51100000000E-03 0. -1.
        -11    1    3    3    0    0  0.29768475609E+01  0.50698469642E+01 -0.22980999663E+02  0.23721115392E+02  0.51100000000E-03 0.  1.
         12    1    3    3    0    0  0.43352714008E+00 -0.16721056863E+01 -0.17199325990E+02  0.17285852531E+02  0.00000000000E+00 0. -1.
</event>
<event>
 7    1  0.5664398E-009  0.4614232E+02  0.7816164E-02  0.1320468E+00
        -11   -1    0    0    0    0  0.00000000000E+00  0.00000000000E+00  0.45593999997E+02  0.45594000000E+02  0.51100000000E-03 0. -1.
         11   -1    0    0    0    0 -0.00000000000E+00 -0.00000000000E+00 -0.45593999997E+02  0.45594000000E+02  0.51100000000E-03 0.  1.
    9900012    2    1    2    0    0 -0.31815497624E+02  0.86762333264E+01  0.30685671757E+02  0.46142319131E+02  0.10000012489E+02 0.  0.
        -12    1    1    2    0    0  0.31815497624E+02 -0.86762333264E+01 -0.30685671757E+02  0.45045680869E+02  0.00000000000E+00 0.  1.
         11    1    3    3    0    0 -0.13530701473E+02  0.60756955560E+01  0.90700031003E+01  0.17385595053E+02  0.51100000000E-03 0. -1.
        -11    1    3    3    0    0 -0.80275410662E+01 -0.93217898828E+00  0.83576616028E+01  0.11625871192E+02  0.51100000000E-03 0.  1.
        -12    1    3    3    0    0 -0.10257255085E+02  0.35327167587E+01  0.13258007054E+02  0.17130852887E+02  0.00000000000E+00 0.  1.
</event>
<event>
 7    1  0.5910260E-009  0.4614232E+02  0.7816164E-02  0.1320468E+00
        -11   -1    0    0    0    0  0.00000000000E+00  0.00000000000E+00  0.45593999997E+02  0.45594000000E+02  0.51100000000E-03 0. -1.
         11   -1    0    0    0    0 -0.00000000000E+00 -0.00000000000E+00 -0.45593999997E+02  0.45594000000E+02  0.51100000000E-03 0.  1.
    9900012    2    1    2    0    0 -0.99868855768E+01  0.95971230884E+01 -0.42863397701E+02  0.46142317437E+02  0.99999970411E+01 0.  0.
         12    1    1    2    0    0  0.99868855768E+01 -0.95971230884E+01  0.42863397701E+02  0.45045682563E+02  0.00000000000E+00 0. -1.
         11    1    3    3    0    0  0.25719888104E+00 -0.13167193800E+01 -0.57493951435E+01  0.59038500970E+01  0.51100000000E-03 0. -1.
        -11    1    3    3    0    0  0.24956111885E-02  0.12373381203E+01 -0.53000310719E+01  0.54425491708E+01  0.51100000000E-03 0.  1.
        -12    1    3    3    0    0 -0.10246580069E+02  0.96765043480E+01 -0.31813971486E+02  0.34795918169E+02  0.00000000000E+00 0.  1.
</event>
<event>
 7    1  0.5664398E-009  0.4614232E+02  0.7816164E-02  0.1320468E+00
        -11   -1    0    0    0    0  0.00000000000E+00  0.00000000000E+00  0.45593999997E+02  0.45594000000E+02  0.51100000000E-03 0. -1.
         11   -1    0    0    0    0 -0.00000000000E+00 -0.00000000000E+00 -0.45593999997E+02  0.45594000000E+02  0.51100000000E-03 0.  1.
    9900012    2    1    2    0    0  0.28112726242E+02  0.34953835585E+02  0.41252180730E+01  0.46142318486E+02  0.10000006613E+02 0.  0.
         12    1    1    2    0    0 -0.28112726242E+02 -0.34953835585E+02 -0.41252180730E+01  0.45045681514E+02  0.00000000000E+00 0. -1.
         11    1    3    3    0    0  0.81295930345E+01  0.83825750265E+01 -0.14924953850E+01  0.11772229598E+02  0.51100000000E-03 0. -1.
        -11    1    3    3    0    0  0.72048305497E+01  0.63612437966E+01  0.39816976641E+01  0.10403313051E+02  0.51100000000E-03 0.  1.
        -12    1    3    3    0    0  0.12778302658E+02  0.20210016762E+02  0.16360157940E+01  0.23966775837E+02  0.00000000000E+00 0.  1.
</event>
<event>
 7    1  0.5664398E-009  0.4614232E+02  0.7816164E-02  0.1320468E+00
        -11   -1    0    0    0    0  0.00000000000E+00  0.00000000000E+00  0.45593999997E+02  0.45594000000E+02  0.51100000000E-03 0. -1.
         11   -1    0    0    0    0 -0.00000000000E+00 -0.00000000000E+00 -0.45593999997E+02  0.45594000000E+02  0.51100000000E-03 0.  1.
    9900012    2    1    2    0    0  0.90697670182E+01 -0.18397591066E+02  0.40104631041E+02  0.46142318057E+02  0.10000002699E+02 0.  0.
        -12    1    1    2    0    0 -0.90697670182E+01  0.18397591066E+02 -0.40104631041E+02  0.45045681943E+02  0.00000000000E+00 0.  1.
         11    1    3    3    0    0  0.90230868669E+00 -0.41532024123E+00  0.12468092275E+01  0.15941095884E+01  0.51100000000E-03 0. -1.
        -11    1    3    3    0    0  0.45983289916E+01 -0.19762978318E+01  0.59081063733E+01  0.77431326873E+01  0.51100000000E-03 0.  1.
         12    1    3    3    0    0  0.35691293399E+01 -0.16005972993E+02  0.32949715440E+02  0.36805075781E+02  0.00000000000E+00 0. -1.
</event>
<event>
 7    1  0.5664398E-009  0.4614232E+02  0.7816164E-02  0.1320468E+00
        -11   -1    0    0    0    0  0.00000000000E+00  0.00000000000E+00  0.45593999997E+02  0.45594000000E+02  0.51100000000E-03 0. -1.
         11   -1    0    0    0    0 -0.00000000000E+00 -0.00000000000E+00 -0.45593999997E+02  0.45594000000E+02  0.51100000000E-03 0.  1.
    9900012    2    1    2    0    0 -0.18918819030E+02 -0.27788327286E+02 -0.29983339880E+02  0.46142317441E+02  0.99999970779E+01 0.  0.
         12    1    1    2    0    0  0.18918819030E+02  0.27788327286E+02  0.29983339880E+02  0.45045682559E+02  0.00000000000E+00 0. -1.
         11    1    3    3    0    0 -0.13338801769E+02 -0.22471232732E+02 -0.19301024045E+02  0.32487066081E+02  0.51100000000E-03 0. -1.
        -11    1    3    3    0    0 -0.47799610612E+01 -0.54369477746E+01 -0.77151974738E+01  0.10579825196E+02  0.51100000000E-03 0.  1.
        -12    1    3    3    0    0 -0.80005619921E+00  0.11985321986E+00 -0.29671183619E+01  0.30754261639E+01  0.00000000000E+00 0.  1.
</event>
<event>
 7    1  0.5664398E-009  0.4614232E+02  0.7816164E-02  0.1320468E+00
        -11   -1    0    0    0    0  0.00000000000E+00  0.00000000000E+00  0.45593999997E+02  0.45594000000E+02  0.51100000000E-03 0.  1.
         11   -1    0    0    0    0 -0.00000000000E+00 -0.00000000000E+00 -0.45593999997E+02  0.45594000000E+02  0.51100000000E-03 0. -1.
    9900012    2    1    2    0    0  0.44540531854E+02 -0.56698506785E+01 -0.36204005233E+01  0.46142317804E+02  0.10000000391E+02 0.  0.
        -12    1    1    2    0    0 -0.44540531854E+02  0.56698506785E+01  0.36204005233E+01  0.45045682196E+02  0.00000000000E+00 0.  1.
         11    1    3    3    0    0  0.77405289912E+01 -0.40064855539E+01 -0.14305042438E+00  0.87171198937E+01  0.51100000000E-03 0. -1.
        -11    1    3    3    0    0  0.14894547955E+02 -0.46215009614E+00  0.13475736290E+01  0.14962523064E+02  0.51100000000E-03 0.  1.
         12    1    3    3    0    0  0.21905454907E+02 -0.12012150285E+01 -0.48249237280E+01  0.22462674846E+02  0.00000000000E+00 0. -1.
</event>
<event>
 7    1  0.5664398E-009  0.4614232E+02  0.7816164E-02  0.1320468E+00
        -11   -1    0    0    0    0  0.00000000000E+00  0.00000000000E+00  0.45593999997E+02  0.45594000000E+02  0.51100000000E-03 0. -1.
         11   -1    0    0    0    0 -0.00000000000E+00 -0.00000000000E+00 -0.45593999997E+02  0.45594000000E+02  0.51100000000E-03 0.  1.
    9900012    2    1    2    0    0  0.67523243053E+01 -0.18899441922E+02 -0.40327790083E+02  0.46142318281E+02  0.10000004743E+02 0.  0.
         12    1    1    2    0    0 -0.67523243053E+01  0.18899441922E+02  0.40327790083E+02  0.45045681719E+02  0.00000000000E+00 0. -1.
         11    1    3    3    0    0  0.11462622913E+01 -0.37354512968E+01 -0.43299552370E+01  0.58323259723E+01  0.51100000000E-03 0. -1.
        -11    1    3    3    0    0  0.25612965783E+01 -0.13386643105E+02 -0.22039947172E+02  0.25913736229E+02  0.51100000000E-03 0.  1.
         12    1    3    3    0    0  0.30447654358E+01 -0.17773475207E+01 -0.13957887675E+02  0.14396256080E+02  0.00000000000E+00 0. -1.
</event>
<event>
 7    1  0.5664398E-009  0.4614232E+02  0.7816164E-02  0.1320468E+00
        -11   -1    0    0    0    0  0.00000000000E+00  0.00000000000E+00  0.45593999997E+02  0.45594000000E+02  0.51100000000E-03 0. -1.
         11   -1    0    0    0    0 -0.00000000000E+00 -0.00000000000E+00 -0.45593999997E+02  0.45594000000E+02  0.51100000000E-03 0.  1.
    9900012    2    1    2    0    0 -0.89443670235E+01  0.16868589024E+02 -0.40799052066E+02  0.46142316005E+02  0.99999839889E+01 0.  0.
         12    1    1    2    0    0  0.89443670235E+01 -0.16868589024E+02  0.40799052066E+02  0.45045683995E+02  0.00000000000E+00 0. -1.
         11    1    3    3    0    0 -0.12037577609E+01  0.12662038208E+01 -0.66076515493E+01  0.68347175597E+01  0.51100000000E-03 0. -1.
        -11    1    3    3    0    0 -0.65787078120E+01  0.71552738671E+01 -0.11444597916E+02  0.15015197711E+02  0.51100000000E-03 0.  1.
        -12    1    3    3    0    0 -0.11619014506E+01  0.84471113358E+01 -0.22746802600E+02  0.24292400734E+02  0.00000000000E+00 0.  1.
</event>
<event>
 7    1  0.5664398E-009  0.4614232E+02  0.7816164E-02  0.1320468E+00
        -11   -1    0    0    0    0  0.00000000000E+00  0.00000000000E+00  0.45593999997E+02  0.45594000000E+02  0.51100000000E-03 0. -1.
         11   -1    0    0    0    0 -0.00000000000E+00 -0.00000000000E+00 -0.45593999997E+02  0.45594000000E+02  0.51100000000E-03 0.  1.
    9900012    2    1    2    0    0  0.13897426504E+02 -0.30452509666E+02  0.30143309379E+02  0.46142324195E+02  0.10000058669E+02 0.  0.
        -12    1    1    2    0    0 -0.13897426504E+02  0.30452509666E+02 -0.30143309379E+02  0.45045675805E+02  0.00000000000E+00 0.  1.
         11    1    3    3    0    0  0.10211276332E+01 -0.83367105262E+01  0.10514540029E+02  0.13457302714E+02  0.51100000000E-03 0.  1.
        -11    1    3    3    0    0  0.10660008060E+02 -0.21046725785E+02  0.16965708154E+02  0.29059175685E+02  0.51100000000E-03 0. -1.
         12    1    3    3    0    0  0.22162908113E+01 -0.10690733546E+01  0.26630611965E+01  0.36258457957E+01  0.00000000000E+00 0. -1.
</event>
<event>
 7    1  0.5664398E-009  0.4614232E+02  0.7816164E-02  0.1320468E+00
        -11   -1    0    0    0    0  0.00000000000E+00  0.00000000000E+00  0.45593999997E+02  0.45594000000E+02  0.51100000000E-03 0. -1.
         11   -1    0    0    0    0 -0.00000000000E+00 -0.00000000000E+00 -0.45593999997E+02  0.45594000000E+02  0.51100000000E-03 0.  1.
    9900012    2    1    2    0    0  0.20063645171E+02 -0.16963435958E+02 -0.36589690927E+02  0.46142317641E+02  0.99999989019E+01 0.  0.
         12    1    1    2    0    0 -0.20063645171E+02  0.16963435958E+02  0.36589690927E+02  0.45045682359E+02  0.00000000000E+00 0. -1.
         11    1    3    3    0    0  0.51650678602E+01 -0.36137402413E+01 -0.79659764765E+01  0.10158436199E+02  0.51100000000E-03 0.  1.
        -11    1    3    3    0    0  0.78019192101E+01 -0.84738020265E+01 -0.92149268785E+01  0.14750936980E+02  0.51100000000E-03 0. -1.
         12    1    3    3    0    0  0.70966581010E+01 -0.48758936906E+01 -0.19408787572E+02  0.21232944461E+02  0.00000000000E+00 0. -1.
</event>
<event>
 7    1  0.5664398E-009  0.4614232E+02  0.7816164E-02  0.1320468E+00
        -11   -1    0    0    0    0  0.00000000000E+00  0.00000000000E+00  0.45593999997E+02  0.45594000000E+02  0.51100000000E-03 0. -1.
         11   -1    0    0    0    0 -0.00000000000E+00 -0.00000000000E+00 -0.45593999997E+02  0.45594000000E+02  0.51100000000E-03 0.  1.
    9900012    2    1    2    0    0 -0.62174298253E+01  0.16716746155E+02  0.41364325773E+02  0.46142317829E+02  0.10000000615E+02 0.  0.
        -12    1    1    2    0    0  0.62174298253E+01 -0.16716746155E+02 -0.41364325773E+02  0.45045682171E+02  0.00000000000E+00 0.  1.
         11    1    3    3    0    0 -0.32122218185E+01  0.43033138212E+01  0.15737514646E+02  0.16628476971E+02  0.51100000000E-03 0. -1.
        -11    1    3    3    0    0 -0.43817281893E+01  0.37668208459E+01  0.84881648648E+01  0.10268272700E+02  0.51100000000E-03 0.  1.
        -12    1    3    3    0    0  0.13765201825E+01  0.86466114876E+01  0.17138646262E+02  0.19245568158E+02  0.00000000000E+00 0.  1.
</event>
<event>
 7    1  0.5664398E-009  0.4614232E+02  0.7816164E-02  0.1320468E+00
        -11   -1    0    0    0    0  0.00000000000E+00  0.00000000000E+00  0.45593999997E+02  0.45594000000E+02  0.51100000000E-03 0.  1.
         11   -1    0    0    0    0 -0.00000000000E+00 -0.00000000000E+00 -0.45593999997E+02  0.45594000000E+02  0.51100000000E-03 0. -1.
    9900012    2    1    2    0    0  0.31562965126E+02 -0.22193591962E+02 -0.23245154082E+02  0.46142317853E+02  0.10000000840E+02 0.  0.
         12    1    1    2    0    0 -0.31562965126E+02  0.22193591962E+02  0.23245154082E+02  0.45045682147E+02  0.00000000000E+00 0. -1.
         11    1    3    3    0    0  0.23098157934E+01 -0.40098561018E+01 -0.50334234507E+01  0.68373640280E+01  0.51100000000E-03 0. -1.
        -11    1    3    3    0    0  0.24869389551E+01 -0.10003830010E+01 -0.56803773958E-01  0.26812046630E+01  0.51100000000E-03 0.  1.
        -12    1    3    3    0    0  0.26766210378E+02 -0.17183352859E+02 -0.18154926858E+02  0.36623749162E+02  0.00000000000E+00 0.  1.
</event>
<event>
 7    1  0.5664398E-009  0.4614231E+02  0.7816164E-02  0.1320468E+00
        -11   -1    0    0    0    0  0.00000000000E+00  0.00000000000E+00  0.45593999997E+02  0.45594000000E+02  0.51100000000E-03 0. -1.
         11   -1    0    0    0    0 -0.00000000000E+00 -0.00000000000E+00 -0.45593999997E+02  0.45594000000E+02  0.51100000000E-03 0.  1.
    9900012    2    1    2    0    0 -0.29808036386E+02 -0.99965085292E+01 -0.32259338616E+02  0.46142310485E+02  0.99999336478E+01 0.  0.
         12    1    1    2    0    0  0.29808036386E+02  0.99965085292E+01  0.32259338616E+02  0.45045689515E+02  0.00000000000E+00 0. -1.
         11    1    3    3    0    0 -0.94574723735E+01 -0.60660545946E+01 -0.11631994316E+02  0.16172324943E+02  0.51100000000E-03 0. -1.
        -11    1    3    3    0    0 -0.51578407922E+01  0.11267577258E+01 -0.79659228658E+01  0.95566119506E+01  0.51100000000E-03 0.  1.
         12    1    3    3    0    0 -0.15192723220E+02 -0.50572116604E+01 -0.12661421434E+02  0.20413373591E+02  0.00000000000E+00 0. -1.
</event>
<event>
 7    1  0.5664398E-009  0.4614232E+02  0.7816164E-02  0.1320468E+00
        -11   -1    0    0    0    0  0.00000000000E+00  0.00000000000E+00  0.45593999997E+02  0.45594000000E+02  0.51100000000E-03 0. -1.
         11   -1    0    0    0    0 -0.00000000000E+00 -0.00000000000E+00 -0.45593999997E+02  0.45594000000E+02  0.51100000000E-03 0.  1.
    9900012    2    1    2    0    0 -0.42979107900E+01 -0.33369430533E+02 -0.29952004061E+02  0.46142317871E+02  0.10000000999E+02 0.  0.
         12    1    1    2    0    0  0.42979107900E+01  0.33369430533E+02  0.29952004061E+02  0.45045682129E+02  0.00000000000E+00 0. -1.
         11    1    3    3    0    0 -0.71883063816E-01 -0.16236022868E+02 -0.15108102173E+02  0.22178105359E+02  0.51100000000E-03 0. -1.
        -11    1    3    3    0    0 -0.43238204666E+01 -0.49300976809E+01 -0.60507955227E+01  0.89226348849E+01  0.51100000000E-03 0.  1.
         12    1    3    3    0    0  0.97792740338E-01 -0.12203309984E+02 -0.87931063646E+01  0.15041577627E+02  0.00000000000E+00 0. -1.
</event>
<event>
 7    1  0.5664398E-009  0.4614233E+02  0.7816164E-02  0.1320468E+00
        -11   -1    0    0    0    0  0.00000000000E+00  0.00000000000E+00  0.45593999997E+02  0.45594000000E+02  0.51100000000E-03 0. -1.
         11   -1    0    0    0    0 -0.00000000000E+00 -0.00000000000E+00 -0.45593999997E+02  0.45594000000E+02  0.51100000000E-03 0.  1.
    9900012    2    1    2    0    0  0.39810388757E+02 -0.66313271091E+00  0.21066691129E+02  0.46142331251E+02  0.10000123007E+02 0.  0.
        -12    1    1    2    0    0 -0.39810388757E+02  0.66313271091E+00 -0.21066691129E+02  0.45045668749E+02  0.00000000000E+00 0.  1.
         11    1    3    3    0    0  0.18592779170E+02  0.17524453202E+01  0.13738482024E+02  0.23184227191E+02  0.51100000000E-03 0. -1.
        -11    1    3    3    0    0  0.34414026142E+01 -0.17275078624E+01  0.41668846896E+00  0.38731337324E+01  0.51100000000E-03 0.  1.
         12    1    3    3    0    0  0.17776206973E+02 -0.68807016864E+00  0.69115206368E+01  0.19084970328E+02  0.00000000000E+00 0. -1.
</event>
<event>
 7    1  0.5664398E-009  0.4614232E+02  0.7816164E-02  0.1320468E+00
        -11   -1    0    0    0    0  0.00000000000E+00  0.00000000000E+00  0.45593999997E+02  0.45594000000E+02  0.51100000000E-03 0. -1.
         11   -1    0    0    0    0 -0.00000000000E+00 -0.00000000000E+00 -0.45593999997E+02  0.45594000000E+02  0.51100000000E-03 0.  1.
    9900012    2    1    2    0    0  0.18828785237E+02  0.57268288077E+01  0.40519049468E+02  0.46142322167E+02  0.10000040172E+02 0.  0.
        -12    1    1    2    0    0 -0.18828785237E+02 -0.57268288077E+01 -0.40519049468E+02  0.45045677833E+02  0.00000000000E+00 0.  1.
         11    1    3    3    0    0  0.54298181065E+01  0.32399634654E+01  0.10446903507E+02  0.12211391447E+02  0.51100000000E-03 0. -1.
        -11    1    3    3    0    0  0.80221929017E+01  0.51002192010E+01  0.15537893663E+02  0.18215212176E+02  0.51100000000E-03 0.  1.
        -12    1    3    3    0    0  0.53767742284E+01 -0.26133538587E+01  0.14534252298E+02  0.15715718544E+02  0.00000000000E+00 0.  1.
</event>
<event>
 7    1  0.5664398E-009  0.4614232E+02  0.7816164E-02  0.1320468E+00
        -11   -1    0    0    0    0  0.00000000000E+00  0.00000000000E+00  0.45593999997E+02  0.45594000000E+02  0.51100000000E-03 0. -1.
         11   -1    0    0    0    0 -0.00000000000E+00 -0.00000000000E+00 -0.45593999997E+02  0.45594000000E+02  0.51100000000E-03 0.  1.
    9900012    2    1    2    0    0 -0.58088223855E+01  0.40641092070E+02  0.18538411408E+02  0.46142317857E+02  0.10000000877E+02 0.  0.
        -12    1    1    2    0    0  0.58088223855E+01 -0.40641092070E+02 -0.18538411408E+02  0.45045682143E+02  0.00000000000E+00 0.  1.
         11    1    3    3    0    0  0.10145755426E+01  0.20153518767E+02  0.87213889582E+01  0.21983091408E+02  0.51100000000E-03 0. -1.
        -11    1    3    3    0    0 -0.24191349027E+00  0.15896686522E+01  0.22492049453E+01  0.27648673942E+01  0.51100000000E-03 0.  1.
        -12    1    3    3    0    0 -0.65814844378E+01  0.18897904651E+02  0.75678175042E+01  0.21394359055E+02  0.00000000000E+00 0.  1.
</event>
<event>
 7    1  0.5664398E-009  0.4614232E+02  0.7816164E-02  0.1320468E+00
        -11   -1    0    0    0    0  0.00000000000E+00  0.00000000000E+00  0.45593999997E+02  0.45594000000E+02  0.51100000000E-03 0. -1.
         11   -1    0    0    0    0 -0.00000000000E+00 -0.00000000000E+00 -0.45593999997E+02  0.45594000000E+02  0.51100000000E-03 0.  1.
    9900012    2    1    2    0    0 -0.19059053067E+01  0.39685062459E+02 -0.21226792840E+02  0.46142318834E+02  0.10000009788E+02 0.  0.
         12    1    1    2    0    0  0.19059053067E+01 -0.39685062459E+02  0.21226792840E+02  0.45045681166E+02  0.00000000000E+00 0. -1.
         11    1    3    3    0    0 -0.28271401257E-01  0.59893324392E+00  0.21486129228E+00  0.63693479952E+00  0.51100000000E-03 0. -1.
        -11    1    3    3    0    0  0.32543927550E-02  0.30599641097E+00 -0.21120053983E+01  0.21340598534E+01  0.51100000000E-03 0.  1.
        -12    1    3    3    0    0 -0.18808882982E+01  0.38780132804E+02 -0.19329648734E+02  0.43371324182E+02  0.00000000000E+00 0.  1.
</event>
<event>
 7    1  0.5664398E-009  0.4614231E+02  0.7816164E-02  0.1320468E+00
        -11   -1    0    0    0    0  0.00000000000E+00  0.00000000000E+00  0.45593999997E+02  0.45594000000E+02  0.51100000000E-03 0. -1.
         11   -1    0    0    0    0 -0.00000000000E+00 -0.00000000000E+00 -0.45593999997E+02  0.45594000000E+02  0.51100000000E-03 0.  1.
    9900012    2    1    2    0    0  0.94076961260E+01  0.28011804441E+01 -0.43963195470E+02  0.46142313035E+02  0.99999569004E+01 0.  0.
         12    1    1    2    0    0 -0.94076961260E+01 -0.28011804441E+01  0.43963195470E+02  0.45045686965E+02  0.00000000000E+00 0. -1.
         11    1    3    3    0    0  0.53278530969E+01  0.45414017331E+01 -0.32943677288E+02  0.33679314451E+02  0.51100000000E-03 0. -1.
        -11    1    3    3    0    0  0.49740832276E-02 -0.17335550511E+01 -0.29089466565E+01  0.33863267368E+01  0.51100000000E-03 0.  1.
        -12    1    3    3    0    0  0.40748689459E+01 -0.66662378810E-02 -0.81105715246E+01  0.90766718472E+01  0.00000000000E+00 0.  1.
</event>
<event>
 7    1  0.5664398E-009  0.4614232E+02  0.7816164E-02  0.1320468E+00
        -11   -1    0    0    0    0  0.00000000000E+00  0.00000000000E+00  0.45593999997E+02  0.45594000000E+02  0.51100000000E-03 0. -1.
         11   -1    0    0    0    0 -0.00000000000E+00 -0.00000000000E+00 -0.45593999997E+02  0.45594000000E+02  0.51100000000E-03 0.  1.
    9900012    2    1    2    0    0 -0.30390725380E+02 -0.16579075846E+02 -0.28821021717E+02  0.46142320542E+02  0.10000025357E+02 0.  0.
         12    1    1    2    0    0  0.30390725380E+02  0.16579075846E+02  0.28821021717E+02  0.45045679458E+02  0.00000000000E+00 0. -1.
         11    1    3    3    0    0 -0.11237388648E+01 -0.16552221981E+01 -0.11306564618E+01  0.22980282541E+01  0.51100000000E-03 0. -1.
        -11    1    3    3    0    0 -0.26865312100E+02 -0.13925199002E+02 -0.27997505208E+02  0.41225192051E+02  0.51100000000E-03 0.  1.
         12    1    3    3    0    0 -0.24016744153E+01 -0.99865464537E+00  0.30713995327E+00  0.26191002365E+01  0.00000000000E+00 0. -1.
</event>
<event>
 7    1  0.5664398E-009  0.4614232E+02  0.7816164E-02  0.1320468E+00
        -11   -1    0    0    0    0  0.00000000000E+00  0.00000000000E+00  0.45593999997E+02  0.45594000000E+02  0.51100000000E-03 0. -1.
         11   -1    0    0    0    0 -0.00000000000E+00 -0.00000000000E+00 -0.45593999997E+02  0.45594000000E+02  0.51100000000E-03 0.  1.
    9900012    2    1    2    0    0  0.14082387555E+02 -0.65645597232E+01 -0.42281277229E+02  0.46142317769E+02  0.10000000068E+02 0.  0.
         12    1    1    2    0    0 -0.14082387555E+02  0.65645597232E+01  0.42281277229E+02  0.45045682231E+02  0.00000000000E+00 0. -1.
         11    1    3    3    0    0  0.49464031992E+01 -0.34450208665E+00 -0.19739478447E+02  0.20352704880E+02  0.51100000000E-03 0. -1.
        -11    1    3    3    0    0 -0.47932870782E+00  0.23607556032E+00 -0.11164934553E+00  0.54585118650E+00  0.51100000000E-03 0.  1.
        -12    1    3    3    0    0  0.96153130632E+01 -0.64561331968E+01 -0.22430149436E+02  0.25243761702E+02  0.00000000000E+00 0.  1.
</event>
<event>
 7    1  0.5664398E-009  0.4614232E+02  0.7816164E-02  0.1320468E+00
        -11   -1    0    0    0    0  0.00000000000E+00  0.00000000000E+00  0.45593999997E+02  0.45594000000E+02  0.51100000000E-03 0. -1.
         11   -1    0    0    0    0 -0.00000000000E+00 -0.00000000000E+00 -0.45593999997E+02  0.45594000000E+02  0.51100000000E-03 0.  1.
    9900012    2    1    2    0    0  0.17331583587E+02  0.49940946650E+01  0.41276975316E+02  0.46142318049E+02  0.10000002624E+02 0.  0.
        -12    1    1    2    0    0 -0.17331583587E+02 -0.49940946650E+01 -0.41276975316E+02  0.45045681951E+02  0.00000000000E+00 0.  1.
         11    1    3    3    0    0  0.11117042518E+02  0.39076940666E+01  0.27232431412E+02  0.29672614110E+02  0.51100000000E-03 0. -1.
        -11    1    3    3    0    0  0.38607016006E+00  0.14589396643E+01  0.30402565280E+00  0.15394762003E+01  0.51100000000E-03 0.  1.
        -12    1    3    3    0    0  0.58284709097E+01 -0.37253906590E+00  0.13740518252E+02  0.14930227739E+02  0.00000000000E+00 0.  1.
</event>
<event>
 7    1  0.5664398E-009  0.4614232E+02  0.7816164E-02  0.1320468E+00
        -11   -1    0    0    0    0  0.00000000000E+00  0.00000000000E+00  0.45593999997E+02  0.45594000000E+02  0.51100000000E-03 0. -1.
         11   -1    0    0    0    0 -0.00000000000E+00 -0.00000000000E+00 -0.45593999997E+02  0.45594000000E+02  0.51100000000E-03 0.  1.
    9900012    2    1    2    0    0 -0.29135058213E+02  0.29438073631E+02  0.17710494665E+02  0.46142318548E+02  0.10000007178E+02 0.  0.
        -12    1    1    2    0    0  0.29135058213E+02 -0.29438073631E+02 -0.17710494665E+02  0.45045681452E+02  0.00000000000E+00 0.  1.
         11    1    3    3    0    0 -0.14814009018E+02  0.11974846894E+02  0.86291012583E+01  0.20912035054E+02  0.51100000000E-03 0. -1.
        -11    1    3    3    0    0 -0.10392703841E+02  0.10156700329E+02  0.27379361392E+01  0.14787263075E+02  0.51100000000E-03 0.  1.
         12    1    3    3    0    0 -0.39283453551E+01  0.73065264072E+01  0.63434572672E+01  0.10443020419E+02  0.00000000000E+00 0. -1.
</event>
<event>
 7    1  0.5664398E-009  0.4614232E+02  0.7816164E-02  0.1320468E+00
        -11   -1    0    0    0    0  0.00000000000E+00  0.00000000000E+00  0.45593999997E+02  0.45594000000E+02  0.51100000000E-03 0. -1.
         11   -1    0    0    0    0 -0.00000000000E+00 -0.00000000000E+00 -0.45593999997E+02  0.45594000000E+02  0.51100000000E-03 0.  1.
    9900012    2    1    2    0    0 -0.21020072985E+02 -0.16517190231E+02 -0.36255378774E+02  0.46142317282E+02  0.99999956351E+01 0.  0.
         12    1    1    2    0    0  0.21020072985E+02  0.16517190231E+02  0.36255378774E+02  0.45045682718E+02  0.00000000000E+00 0. -1.
         11    1    3    3    0    0 -0.47061489796E+01 -0.58293115866E+01 -0.11057396907E+02  0.13356449319E+02  0.51100000000E-03 0. -1.
        -11    1    3    3    0    0 -0.89668319633E+01 -0.96423431678E+01 -0.19001761013E+02  0.23118083378E+02  0.51100000000E-03 0.  1.
         12    1    3    3    0    0 -0.73470920425E+01 -0.10455354768E+01 -0.61962208538E+01  0.96677845851E+01  0.00000000000E+00 0. -1.
</event>
<event>
 7    1  0.5664398E-009  0.4614232E+02  0.7816164E-02  0.1320468E+00
        -11   -1    0    0    0    0  0.00000000000E+00  0.00000000000E+00  0.45593999997E+02  0.45594000000E+02  0.51100000000E-03 0. -1.
         11   -1    0    0    0    0 -0.00000000000E+00 -0.00000000000E+00 -0.45593999997E+02  0.45594000000E+02  0.51100000000E-03 0.  1.
    9900012    2    1    2    0    0  0.26569393493E+01 -0.99004658461E+01 -0.43863821941E+02  0.46142318454E+02  0.10000006318E+02 0.  0.
         12    1    1    2    0    0 -0.26569393493E+01  0.99004658461E+01  0.43863821941E+02  0.45045681546E+02  0.00000000000E+00 0. -1.
         11    1    3    3    0    0 -0.32100064016E+01 -0.36179365559E+01 -0.14434237433E+02  0.15223035721E+02  0.51100000000E-03 0. -1.
        -11    1    3    3    0    0  0.24273342866E+01 -0.37396721003E+01 -0.89646789279E+01  0.10012121039E+02  0.51100000000E-03 0.  1.
        -12    1    3    3    0    0  0.34396114643E+01 -0.25428571899E+01 -0.20464905580E+02  0.20907161694E+02  0.00000000000E+00 0.  1.
</event>
<event>
 7    1  0.5664398E-009  0.4614232E+02  0.7816164E-02  0.1320468E+00
        -11   -1    0    0    0    0  0.00000000000E+00  0.00000000000E+00  0.45593999997E+02  0.45594000000E+02  0.51100000000E-03 0.  1.
         11   -1    0    0    0    0 -0.00000000000E+00 -0.00000000000E+00 -0.45593999997E+02  0.45594000000E+02  0.51100000000E-03 0. -1.
    9900012    2    1    2    0    0  0.30372138495E+02 -0.65547056121E+01  0.32614147333E+02  0.46142316870E+02  0.99999918724E+01 0.  0.
        -12    1    1    2    0    0 -0.30372138495E+02  0.65547056121E+01 -0.32614147333E+02  0.45045683130E+02  0.00000000000E+00 0.  1.
         11    1    3    3    0    0  0.29526586111E+01 -0.99314652681E+00  0.50457191888E+00  0.31558082926E+01  0.51100000000E-03 0. -1.
        -11    1    3    3    0    0  0.34919390483E+01 -0.23099274841E+00  0.15983287039E+01  0.38472913684E+01  0.51100000000E-03 0.  1.
         12    1    3    3    0    0  0.23927540835E+02 -0.53305663368E+01  0.30511246710E+02  0.39139217209E+02  0.00000000000E+00 0. -1.
</event>
<event>
 7    1  0.5664398E-009  0.4614232E+02  0.7816164E-02  0.1320468E+00
        -11   -1    0    0    0    0  0.00000000000E+00  0.00000000000E+00  0.45593999997E+02  0.45594000000E+02  0.51100000000E-03 0. -1.
         11   -1    0    0    0    0 -0.00000000000E+00 -0.00000000000E+00 -0.45593999997E+02  0.45594000000E+02  0.51100000000E-03 0.  1.
    9900012    2    1    2    0    0 -0.24570864306E+02 -0.95194701251E+01 -0.36534446072E+02  0.46142318365E+02  0.10000005506E+02 0.  0.
         12    1    1    2    0    0  0.24570864306E+02  0.95194701251E+01  0.36534446072E+02  0.45045681635E+02  0.00000000000E+00 0. -1.
         11    1    3    3    0    0 -0.48274827809E+00 -0.95137945940E+00  0.41642686345E+00  0.11452424938E+01  0.51100000000E-03 0. -1.
        -11    1    3    3    0    0 -0.20777097838E+02 -0.67687523375E+01 -0.30384254831E+02  0.37426016949E+02  0.51100000000E-03 0.  1.
        -12    1    3    3    0    0 -0.33110181892E+01 -0.17993383282E+01 -0.65666181047E+01  0.75710589220E+01  0.00000000000E+00 0.  1.
</event>
<event>
 7    1  0.5664398E-009  0.4614232E+02  0.7816164E-02  0.1320468E+00
        -11   -1    0    0    0    0  0.00000000000E+00  0.00000000000E+00  0.45593999997E+02  0.45594000000E+02  0.51100000000E-03 0. -1.
         11   -1    0    0    0    0 -0.00000000000E+00 -0.00000000000E+00 -0.45593999997E+02  0.45594000000E+02  0.51100000000E-03 0.  1.
    9900012    2    1    2    0    0 -0.22283317229E+02 -0.28304188637E+02  0.27045150902E+02  0.46142317539E+02  0.99999979708E+01 0.  0.
        -12    1    1    2    0    0  0.22283317229E+02  0.28304188637E+02 -0.27045150902E+02  0.45045682461E+02  0.00000000000E+00 0.  1.
         11    1    3    3    0    0 -0.17408716198E+01 -0.14717237289E+01  0.63571542763E+00  0.23665880708E+01  0.51100000000E-03 0. -1.
        -11    1    3    3    0    0 -0.13709680095E+02 -0.11428015649E+02  0.15987845153E+02  0.23961762516E+02  0.51100000000E-03 0.  1.
         12    1    3    3    0    0 -0.68327655140E+01 -0.15404449259E+02  0.10421590321E+02  0.19813966952E+02  0.00000000000E+00 0. -1.
</event>
<event>
 7    1  0.5664398E-009  0.4614232E+02  0.7816164E-02  0.1320468E+00
        -11   -1    0    0    0    0  0.00000000000E+00  0.00000000000E+00  0.45593999997E+02  0.45594000000E+02  0.51100000000E-03 0. -1.
         11   -1    0    0    0    0 -0.00000000000E+00 -0.00000000000E+00 -0.45593999997E+02  0.45594000000E+02  0.51100000000E-03 0.  1.
    9900012    2    1    2    0    0  0.11346131617E+02 -0.42175941270E+02  0.11025823228E+02  0.46142317604E+02  0.99999985693E+01 0.  0.
        -12    1    1    2    0    0 -0.11346131617E+02  0.42175941270E+02 -0.11025823228E+02  0.45045682396E+02  0.00000000000E+00 0.  1.
         11    1    3    3    0    0  0.68008604205E+01 -0.16066924261E+02  0.84977836780E+01  0.19406444429E+02  0.51100000000E-03 0. -1.
        -11    1    3    3    0    0  0.86496013028E+00 -0.16081721073E+01 -0.47527872217E-01  0.18266452073E+01  0.51100000000E-03 0.  1.
         12    1    3    3    0    0  0.36803110666E+01 -0.24500844901E+02  0.25755674220E+01  0.24909227968E+02  0.00000000000E+00 0. -1.
</event>
<event>
 7    1  0.5664398E-009  0.4614232E+02  0.7816164E-02  0.1320468E+00
        -11   -1    0    0    0    0  0.00000000000E+00  0.00000000000E+00  0.45593999997E+02  0.45594000000E+02  0.51100000000E-03 0. -1.
         11   -1    0    0    0    0 -0.00000000000E+00 -0.00000000000E+00 -0.45593999997E+02  0.45594000000E+02  0.51100000000E-03 0.  1.
    9900012    2    1    2    0    0 -0.21219419699E+02  0.12361088997E+02 -0.37763118462E+02  0.46142318636E+02  0.10000007980E+02 0.  0.
         12    1    1    2    0    0  0.21219419699E+02 -0.12361088997E+02  0.37763118462E+02  0.45045681364E+02  0.00000000000E+00 0. -1.
         11    1    3    3    0    0 -0.86371515226E+01  0.57559916632E+01 -0.13049260896E+02  0.16673782913E+02  0.51100000000E-03 0. -1.
        -11    1    3    3    0    0 -0.91170777015E+01  0.80428701221E+01 -0.20433109319E+02  0.23776476238E+02  0.51100000000E-03 0.  1.
         12    1    3    3    0    0 -0.34651904753E+01 -0.14377727885E+01 -0.42807482472E+01  0.56920594847E+01  0.00000000000E+00 0. -1.
</event>
<event>
 7    1  0.5664398E-009  0.4614232E+02  0.7816164E-02  0.1320468E+00
        -11   -1    0    0    0    0  0.00000000000E+00  0.00000000000E+00  0.45593999997E+02  0.45594000000E+02  0.51100000000E-03 0. -1.
         11   -1    0    0    0    0 -0.00000000000E+00 -0.00000000000E+00 -0.45593999997E+02  0.45594000000E+02  0.51100000000E-03 0.  1.
    9900012    2    1    2    0    0 -0.20881475147E+02  0.14277333669E+02  0.37272444678E+02  0.46142318817E+02  0.10000009625E+02 0.  0.
        -12    1    1    2    0    0  0.20881475147E+02 -0.14277333669E+02 -0.37272444678E+02  0.45045681183E+02  0.00000000000E+00 0.  1.
         11    1    3    3    0    0 -0.11468254920E+02  0.13149898099E+02  0.21097950424E+02  0.27378170196E+02  0.51100000000E-03 0. -1.
        -11    1    3    3    0    0 -0.22041516663E+01  0.36028589365E-01  0.42349585168E+01  0.47743540430E+01  0.51100000000E-03 0.  1.
         12    1    3    3    0    0 -0.72090685605E+01  0.10914069806E+01  0.11939535737E+02  0.13989794578E+02  0.00000000000E+00 0. -1.
</event>
<event>
 7    1  0.5664398E-009  0.4614232E+02  0.7816164E-02  0.1320468E+00
        -11   -1    0    0    0    0  0.00000000000E+00  0.00000000000E+00  0.45593999997E+02  0.45594000000E+02  0.51100000000E-03 0. -1.
         11   -1    0    0    0    0 -0.00000000000E+00 -0.00000000000E+00 -0.45593999997E+02  0.45594000000E+02  0.51100000000E-03 0.  1.
    9900012    2    1    2    0    0 -0.10155316219E+02  0.22666372668E+02  0.37579492507E+02  0.46142321467E+02  0.10000033795E+02 0.  0.
        -12    1    1    2    0    0  0.10155316219E+02 -0.22666372668E+02 -0.37579492507E+02  0.45045678533E+02  0.00000000000E+00 0.  1.
         11    1    3    3    0    0 -0.44512278463E+01  0.15818655284E+02  0.21485870747E+02  0.27049693646E+02  0.51100000000E-03 0. -1.
        -11    1    3    3    0    0 -0.13583464682E+00 -0.67015413050E+00  0.32381593811E+00  0.75658088318E+00  0.51100000000E-03 0.  1.
        -12    1    3    3    0    0 -0.55682537255E+01  0.75178715146E+01  0.15769805822E+02  0.18336046938E+02  0.00000000000E+00 0.  1.
</event>
<event>
 7    1  0.5664398E-009  0.4614232E+02  0.7816164E-02  0.1320468E+00
        -11   -1    0    0    0    0  0.00000000000E+00  0.00000000000E+00  0.45593999997E+02  0.45594000000E+02  0.51100000000E-03 0. -1.
         11   -1    0    0    0    0 -0.00000000000E+00 -0.00000000000E+00 -0.45593999997E+02  0.45594000000E+02  0.51100000000E-03 0.  1.
    9900012    2    1    2    0    0 -0.10186397821E+01 -0.15345872503E+02  0.42338871826E+02  0.46142317661E+02  0.99999990896E+01 0.  0.
        -12    1    1    2    0    0  0.10186397821E+01  0.15345872503E+02 -0.42338871826E+02  0.45045682339E+02  0.00000000000E+00 0.  1.
         11    1    3    3    0    0 -0.14293448662E+01 -0.27340477122E+01  0.11018085215E+02  0.11441863734E+02  0.51100000000E-03 0. -1.
        -11    1    3    3    0    0  0.20217344345E+01 -0.12594694686E+02  0.30060461378E+02  0.32654939640E+02  0.51100000000E-03 0.  1.
        -12    1    3    3    0    0 -0.16110293504E+01 -0.17130104704E-01  0.12603252327E+01  0.20455142875E+01  0.00000000000E+00 0.  1.
</event>
<event>
 7    1  0.5664398E-009  0.4614232E+02  0.7816164E-02  0.1320468E+00
        -11   -1    0    0    0    0  0.00000000000E+00  0.00000000000E+00  0.45593999997E+02  0.45594000000E+02  0.51100000000E-03 0. -1.
         11   -1    0    0    0    0 -0.00000000000E+00 -0.00000000000E+00 -0.45593999997E+02  0.45594000000E+02  0.51100000000E-03 0.  1.
    9900012    2    1    2    0    0 -0.11495899315E+01  0.34425303741E+02 -0.29029130155E+02  0.46142317718E+02  0.99999996113E+01 0.  0.
         12    1    1    2    0    0  0.11495899315E+01 -0.34425303741E+02  0.29029130155E+02  0.45045682282E+02  0.00000000000E+00 0. -1.
         11    1    3    3    0    0 -0.11733703839E+01  0.20709964050E+00 -0.11921022092E+01  0.16854661840E+01  0.51100000000E-03 0. -1.
        -11    1    3    3    0    0 -0.71351334384E+00  0.18438975435E+02 -0.18385965351E+02  0.26048966170E+02  0.51100000000E-03 0.  1.
        -12    1    3    3    0    0  0.73729379621E+00  0.15779228666E+02 -0.94510625943E+01  0.18407885365E+02  0.00000000000E+00 0.  1.
</event>
<event>
 7    1  0.5664398E-009  0.4614232E+02  0.7816164E-02  0.1320468E+00
        -11   -1    0    0    0    0  0.00000000000E+00  0.00000000000E+00  0.45593999997E+02  0.45594000000E+02  0.51100000000E-03 0. -1.
         11   -1    0    0    0    0 -0.00000000000E+00 -0.00000000000E+00 -0.45593999997E+02  0.45594000000E+02  0.51100000000E-03 0.  1.
    9900012    2    1    2    0    0  0.19825991932E+02 -0.71604076417E+01 -0.39809196450E+02  0.46142317458E+02  0.99999972379E+01 0.  0.
         12    1    1    2    0    0 -0.19825991932E+02  0.71604076417E+01  0.39809196450E+02  0.45045682542E+02  0.00000000000E+00 0. -1.
         11    1    3    3    0    0  0.91929682378E+01 -0.39713973752E+00 -0.20537942854E+02  0.22505010152E+02  0.51100000000E-03 0. -1.
        -11    1    3    3    0    0  0.11749514005E+01 -0.34612092150E+01 -0.56365236748E+01  0.67179520258E+01  0.51100000000E-03 0.  1.
         12    1    3    3    0    0  0.94580722934E+01 -0.33020586891E+01 -0.13634729921E+02  0.16919355281E+02  0.00000000000E+00 0. -1.
</event>
<event>
 7    1  0.5664398E-009  0.4614232E+02  0.7816164E-02  0.1320468E+00
        -11   -1    0    0    0    0  0.00000000000E+00  0.00000000000E+00  0.45593999997E+02  0.45594000000E+02  0.51100000000E-03 0.  1.
         11   -1    0    0    0    0 -0.00000000000E+00 -0.00000000000E+00 -0.45593999997E+02  0.45594000000E+02  0.51100000000E-03 0. -1.
    9900012    2    1    2    0    0 -0.43165571473E+02 -0.96278552154E+01  0.85528566069E+01  0.46142317490E+02  0.99999975292E+01 0.  0.
        -12    1    1    2    0    0  0.43165571473E+02  0.96278552154E+01 -0.85528566069E+01  0.45045682510E+02  0.00000000000E+00 0.  1.
         11    1    3    3    0    0 -0.22302174622E+02 -0.86027460623E+01  0.65714700112E+01  0.24790692832E+02  0.51100000000E-03 0. -1.
        -11    1    3    3    0    0 -0.41047439746E+01 -0.13215185931E+01 -0.72656417788E+00  0.43730115773E+01  0.51100000000E-03 0.  1.
         12    1    3    3    0    0 -0.16758652876E+02  0.29640943997E+00  0.27079507736E+01  0.16978613081E+02  0.00000000000E+00 0. -1.
</event>
<event>
 7    1  0.5664398E-009  0.4614232E+02  0.7816164E-02  0.1320468E+00
        -11   -1    0    0    0    0  0.00000000000E+00  0.00000000000E+00  0.45593999997E+02  0.45594000000E+02  0.51100000000E-03 0. -1.
         11   -1    0    0    0    0 -0.00000000000E+00 -0.00000000000E+00 -0.45593999997E+02  0.45594000000E+02  0.51100000000E-03 0.  1.
    9900012    2    1    2    0    0  0.20871753935E+01 -0.34285721891E+02 -0.29141830980E+02  0.46142319413E+02  0.10000015063E+02 0.  0.
         12    1    1    2    0    0 -0.20871753935E+01  0.34285721891E+02  0.29141830980E+02  0.45045680587E+02  0.00000000000E+00 0. -1.
         11    1    3    3    0    0  0.26474870445E+01 -0.12816026920E+02 -0.94638002191E+01  0.16150023174E+02  0.51100000000E-03 0. -1.
        -11    1    3    3    0    0  0.29150452678E+01 -0.11473406263E+02 -0.83289696593E+01  0.14474400714E+02  0.51100000000E-03 0.  1.
         12    1    3    3    0    0 -0.34753569187E+01 -0.99962887070E+01 -0.11349061101E+02  0.15517895525E+02  0.00000000000E+00 0. -1.
</event>
<event>
 7    1  0.5664398E-009  0.4614232E+02  0.7816164E-02  0.1320468E+00
        -11   -1    0    0    0    0  0.00000000000E+00  0.00000000000E+00  0.45593999997E+02  0.45594000000E+02  0.51100000000E-03 0. -1.
         11   -1    0    0    0    0 -0.00000000000E+00 -0.00000000000E+00 -0.45593999997E+02  0.45594000000E+02  0.51100000000E-03 0.  1.
    9900012    2    1    2    0    0  0.65021272435E+01 -0.67062108695E+01  0.44066566872E+02  0.46142320531E+02  0.10000025261E+02 0.  0.
        -12    1    1    2    0    0 -0.65021272435E+01  0.67062108695E+01 -0.44066566872E+02  0.45045679469E+02  0.00000000000E+00 0.  1.
         11    1    3    3    0    0  0.97537345154E+00  0.64709030720E+00  0.68170279453E+01  0.69167875133E+01  0.51100000000E-03 0. -1.
        -11    1    3    3    0    0  0.22374117401E+01 -0.73673828493E+01  0.16392777492E+02  0.18110977210E+02  0.51100000000E-03 0.  1.
         12    1    3    3    0    0  0.32893420519E+01  0.14081672602E-01  0.20856761435E+02  0.21114555808E+02  0.00000000000E+00 0. -1.
</event>
<event>
 7    1  0.5664398E-009  0.4614232E+02  0.7816164E-02  0.1320468E+00
        -11   -1    0    0    0    0  0.00000000000E+00  0.00000000000E+00  0.45593999997E+02  0.45594000000E+02  0.51100000000E-03 0.  1.
         11   -1    0    0    0    0 -0.00000000000E+00 -0.00000000000E+00 -0.45593999997E+02  0.45594000000E+02  0.51100000000E-03 0. -1.
    9900012    2    1    2    0    0  0.25043226302E+02  0.37442079458E+02  0.20246049537E+00  0.46142317765E+02  0.10000000033E+02 0.  0.
        -12    1    1    2    0    0 -0.25043226302E+02 -0.37442079458E+02 -0.20246049537E+00  0.45045682235E+02  0.00000000000E+00 0.  1.
         11    1    3    3    0    0  0.51064949392E+01  0.72709949172E+01  0.25496682758E+01  0.92436175942E+01  0.51100000000E-03 0. -1.
        -11    1    3    3    0    0  0.23036492716E+01  0.95493658221E+00  0.82504045982E+00  0.26266701095E+01  0.51100000000E-03 0.  1.
         12    1    3    3    0    0  0.17633082091E+02  0.29216147959E+02 -0.31722482402E+01  0.34272030061E+02  0.00000000000E+00 0. -1.
</event>
<event>
 7    1  0.5664398E-009  0.4614232E+02  0.7816164E-02  0.1320468E+00
        -11   -1    0    0    0    0  0.00000000000E+00  0.00000000000E+00  0.45593999997E+02  0.45594000000E+02  0.51100000000E-03 0. -1.
         11   -1    0    0    0    0 -0.00000000000E+00 -0.00000000000E+00 -0.45593999997E+02  0.45594000000E+02  0.51100000000E-03 0.  1.
    9900012    2    1    2    0    0  0.24845375439E+02  0.11434782962E+02 -0.35791990785E+02  0.46142317117E+02  0.99999941239E+01 0.  0.
         12    1    1    2    0    0 -0.24845375439E+02 -0.11434782962E+02  0.35791990785E+02  0.45045682883E+02  0.00000000000E+00 0. -1.
         11    1    3    3    0    0  0.16515060488E+02  0.76439930805E+01 -0.26383006222E+02  0.32050598602E+02  0.51100000000E-03 0. -1.
        -11    1    3    3    0    0  0.86714748847E+01  0.37868150523E+01 -0.97658323599E+01  0.13598011872E+02  0.51100000000E-03 0.  1.
         12    1    3    3    0    0 -0.34115993324E+00  0.39748288927E-02  0.35684779761E+00  0.49370664363E+00  0.00000000000E+00 0. -1.
</event>
<event>
 7    1  0.5664398E-009  0.4614232E+02  0.7816164E-02  0.1320468E+00
        -11   -1    0    0    0    0  0.00000000000E+00  0.00000000000E+00  0.45593999997E+02  0.45594000000E+02  0.51100000000E-03 0. -1.
         11   -1    0    0    0    0 -0.00000000000E+00 -0.00000000000E+00 -0.45593999997E+02  0.45594000000E+02  0.51100000000E-03 0.  1.
    9900012    2    1    2    0    0  0.85214644053E+00  0.35899427923E+02  0.27195925429E+02  0.46142318312E+02  0.10000005027E+02 0.  0.
        -12    1    1    2    0    0 -0.85214644053E+00 -0.35899427923E+02 -0.27195925429E+02  0.45045681688E+02  0.00000000000E+00 0.  1.
         11    1    3    3    0    0 -0.33588913907E+01  0.24567660676E+02  0.15775035152E+02  0.29388838642E+02  0.51100000000E-03 0. -1.
        -11    1    3    3    0    0  0.23565699920E+01  0.86813538128E+01  0.88792919878E+01  0.12639665843E+02  0.51100000000E-03 0.  1.
         12    1    3    3    0    0  0.18544678392E+01  0.26504134347E+01  0.25415982893E+01  0.41138138273E+01  0.00000000000E+00 0. -1.
</event>
<event>
 7    1  0.5664398E-009  0.4614232E+02  0.7816164E-02  0.1320468E+00
        -11   -1    0    0    0    0  0.00000000000E+00  0.00000000000E+00  0.45593999997E+02  0.45594000000E+02  0.51100000000E-03 0. -1.
         11   -1    0    0    0    0 -0.00000000000E+00 -0.00000000000E+00 -0.45593999997E+02  0.45594000000E+02  0.51100000000E-03 0.  1.
    9900012    2    1    2    0    0  0.40646895836E+01 -0.38531110065E+02  0.22977063360E+02  0.46142316689E+02  0.99999902259E+01 0.  0.
        -12    1    1    2    0    0 -0.40646895836E+01  0.38531110065E+02 -0.22977063360E+02  0.45045683311E+02  0.00000000000E+00 0.  1.
         11    1    3    3    0    0  0.18217990258E+01 -0.17530323725E+02  0.10502167271E+02  0.20516498709E+02  0.51100000000E-03 0. -1.
        -11    1    3    3    0    0  0.88488664417E+00 -0.37357001665E+01  0.60273491347E+01  0.71461470710E+01  0.51100000000E-03 0.  1.
        -12    1    3    3    0    0  0.13580039136E+01 -0.17265086173E+02  0.64475469546E+01  0.18479670910E+02  0.00000000000E+00 0.  1.
</event>
<event>
 7    1  0.5664398E-009  0.4614232E+02  0.7816164E-02  0.1320468E+00
        -11   -1    0    0    0    0  0.00000000000E+00  0.00000000000E+00  0.45593999997E+02  0.45594000000E+02  0.51100000000E-03 0.  1.
         11   -1    0    0    0    0 -0.00000000000E+00 -0.00000000000E+00 -0.45593999997E+02  0.45594000000E+02  0.51100000000E-03 0. -1.
    9900012    2    1    2    0    0  0.34418573986E+02 -0.28896418319E+02  0.30777119894E+01  0.46142317210E+02  0.99999949782E+01 0.  0.
        -12    1    1    2    0    0 -0.34418573986E+02  0.28896418319E+02 -0.30777119894E+01  0.45045682790E+02  0.00000000000E+00 0.  1.
         11    1    3    3    0    0  0.15470146525E+02 -0.17003202944E+02 -0.42812647420E+00  0.22991686245E+02  0.51100000000E-03 0. -1.
        -11    1    3    3    0    0  0.90099919922E+01 -0.84248645885E+01  0.23988152006E+01  0.12566328567E+02  0.51100000000E-03 0.  1.
         12    1    3    3    0    0  0.99384354689E+01 -0.34683507866E+01  0.11070232629E+01  0.10584302398E+02  0.00000000000E+00 0. -1.
</event>
<event>
 7    1  0.5664398E-009  0.4614232E+02  0.7816164E-02  0.1320468E+00
        -11   -1    0    0    0    0  0.00000000000E+00  0.00000000000E+00  0.45593999997E+02  0.45594000000E+02  0.51100000000E-03 0. -1.
         11   -1    0    0    0    0 -0.00000000000E+00 -0.00000000000E+00 -0.45593999997E+02  0.45594000000E+02  0.51100000000E-03 0.  1.
    9900012    2    1    2    0    0 -0.23451863557E+02 -0.52064519886E+01  0.38105334055E+02  0.46142317298E+02  0.99999957785E+01 0.  0.
        -12    1    1    2    0    0  0.23451863557E+02  0.52064519886E+01 -0.38105334055E+02  0.45045682702E+02  0.00000000000E+00 0.  1.
         11    1    3    3    0    0 -0.14314994387E+02 -0.56027918087E+01  0.18699957052E+02  0.24207410733E+02  0.51100000000E-03 0. -1.
        -11    1    3    3    0    0 -0.17387987172E+01 -0.17777851631E+01  0.54611522402E+01  0.60006770549E+01  0.51100000000E-03 0.  1.
        -12    1    3    3    0    0 -0.73980704528E+01  0.21741249832E+01  0.13944224763E+02  0.15934229511E+02  0.00000000000E+00 0.  1.
</event>
<event>
 7    1  0.5664398E-009  0.4614233E+02  0.7816164E-02  0.1320468E+00
        -11   -1    0    0    0    0  0.00000000000E+00  0.00000000000E+00  0.45593999997E+02  0.45594000000E+02  0.51100000000E-03 0. -1.
         11   -1    0    0    0    0 -0.00000000000E+00 -0.00000000000E+00 -0.45593999997E+02  0.45594000000E+02  0.51100000000E-03 0.  1.
    9900012    2    1    2    0    0 -0.17183088695E+01  0.13101063622E+02 -0.43064161123E+02  0.46142329546E+02  0.10000107466E+02 0.  0.
         12    1    1    2    0    0  0.17183088695E+01 -0.13101063622E+02  0.43064161123E+02  0.45045670454E+02  0.00000000000E+00 0. -1.
         11    1    3    3    0    0 -0.10728308844E+00 -0.92563268207E+00 -0.55989419130E+01  0.56759542219E+01  0.51100000000E-03 0.  1.
        -11    1    3    3    0    0 -0.94395819516E+00  0.92447555742E+01 -0.31212365612E+02  0.32566368082E+02  0.51100000000E-03 0. -1.
         12    1    3    3    0    0 -0.66706758589E+00  0.47819407297E+01 -0.62528535978E+01  0.79000072419E+01  0.00000000000E+00 0. -1.
</event>
<event>
 7    1  0.5664398E-009  0.4614232E+02  0.7816164E-02  0.1320468E+00
        -11   -1    0    0    0    0  0.00000000000E+00  0.00000000000E+00  0.45593999997E+02  0.45594000000E+02  0.51100000000E-03 0. -1.
         11   -1    0    0    0    0 -0.00000000000E+00 -0.00000000000E+00 -0.45593999997E+02  0.45594000000E+02  0.51100000000E-03 0.  1.
    9900012    2    1    2    0    0 -0.15095560121E+02  0.20666660020E+02 -0.37069208812E+02  0.46142323030E+02  0.10000048047E+02 0.  0.
         12    1    1    2    0    0  0.15095560121E+02 -0.20666660020E+02  0.37069208812E+02  0.45045676970E+02  0.00000000000E+00 0. -1.
         11    1    3    3    0    0 -0.62080136606E+01  0.31215607161E+01 -0.57895584535E+01  0.90444768927E+01  0.51100000000E-03 0. -1.
        -11    1    3    3    0    0 -0.67522205965E+01  0.98353755195E+01 -0.17997453922E+02  0.21592485789E+02  0.51100000000E-03 0.  1.
         12    1    3    3    0    0 -0.21353258637E+01  0.77097237842E+01 -0.13282196436E+02  0.15505360348E+02  0.00000000000E+00 0. -1.
</event>
<event>
 7    1  0.5664398E-009  0.4614232E+02  0.7816164E-02  0.1320468E+00
        -11   -1    0    0    0    0  0.00000000000E+00  0.00000000000E+00  0.45593999997E+02  0.45594000000E+02  0.51100000000E-03 0. -1.
         11   -1    0    0    0    0 -0.00000000000E+00 -0.00000000000E+00 -0.45593999997E+02  0.45594000000E+02  0.51100000000E-03 0.  1.
    9900012    2    1    2    0    0  0.16363852466E+02  0.31712814421E+02 -0.27488819369E+02  0.46142318116E+02  0.10000003239E+02 0.  0.
         12    1    1    2    0    0 -0.16363852466E+02 -0.31712814421E+02  0.27488819369E+02  0.45045681884E+02  0.00000000000E+00 0. -1.
         11    1    3    3    0    0  0.30326941013E+01  0.33255189077E+01 -0.97122106336E+00  0.46043001784E+01  0.51100000000E-03 0. -1.
        -11    1    3    3    0    0  0.46046220158E+01  0.71572032589E+01 -0.10654772284E+02  0.13636431904E+02  0.51100000000E-03 0.  1.
        -12    1    3    3    0    0  0.87265363488E+01  0.21230092255E+02 -0.15862826022E+02  0.27901586034E+02  0.00000000000E+00 0.  1.
</event>
<event>
 7    1  0.5664398E-009  0.4614232E+02  0.7816164E-02  0.1320468E+00
        -11   -1    0    0    0    0  0.00000000000E+00  0.00000000000E+00  0.45593999997E+02  0.45594000000E+02  0.51100000000E-03 0. -1.
         11   -1    0    0    0    0 -0.00000000000E+00 -0.00000000000E+00 -0.45593999997E+02  0.45594000000E+02  0.51100000000E-03 0.  1.
    9900012    2    1    2    0    0 -0.27056472442E+02  0.34020459879E+02 -0.11818166536E+02  0.46142318169E+02  0.10000003715E+02 0.  0.
         12    1    1    2    0    0  0.27056472442E+02 -0.34020459879E+02  0.11818166536E+02  0.45045681831E+02  0.00000000000E+00 0. -1.
         11    1    3    3    0    0 -0.30792807807E+01  0.86838888139E+01 -0.29015753081E+00  0.92182474859E+01  0.51100000000E-03 0. -1.
        -11    1    3    3    0    0 -0.83204956223E+01  0.79576975887E+01 -0.55484546931E+01  0.12780490916E+02  0.51100000000E-03 0.  1.
         12    1    3    3    0    0 -0.15656696039E+02  0.17378873477E+02 -0.59795543122E+01  0.24143579767E+02  0.00000000000E+00 0. -1.
</event>
<event>
 7    1  0.5664398E-009  0.4614232E+02  0.7816164E-02  0.1320468E+00
        -11   -1    0    0    0    0  0.00000000000E+00  0.00000000000E+00  0.45593999997E+02  0.45594000000E+02  0.51100000000E-03 0. -1.
         11   -1    0    0    0    0 -0.00000000000E+00 -0.00000000000E+00 -0.45593999997E+02  0.45594000000E+02  0.51100000000E-03 0.  1.
    9900012    2    1    2    0    0  0.41083716609E+02  0.87225045408E+01 -0.16283720487E+02  0.46142318645E+02  0.10000008060E+02 0.  0.
         12    1    1    2    0    0 -0.41083716609E+02 -0.87225045408E+01  0.16283720487E+02  0.45045681355E+02  0.00000000000E+00 0. -1.
         11    1    3    3    0    0  0.52156648164E+01  0.18777925766E+01 -0.41102274224E+01  0.69009589306E+01  0.51100000000E-03 0.  1.
        -11    1    3    3    0    0  0.33062705725E+02  0.73886516179E+01 -0.12967977240E+02  0.36275378930E+02  0.51100000000E-03 0. -1.
         12    1    3    3    0    0  0.28053460677E+01 -0.54393965368E+00  0.79448417580E+00  0.29659807842E+01  0.00000000000E+00 0. -1.
</event>
<event>
 7    1  0.5664398E-009  0.4614232E+02  0.7816164E-02  0.1320468E+00
        -11   -1    0    0    0    0  0.00000000000E+00  0.00000000000E+00  0.45593999997E+02  0.45594000000E+02  0.51100000000E-03 0. -1.
         11   -1    0    0    0    0 -0.00000000000E+00 -0.00000000000E+00 -0.45593999997E+02  0.45594000000E+02  0.51100000000E-03 0.  1.
    9900012    2    1    2    0    0 -0.10539924755E+02 -0.26933890995E+01 -0.43712345487E+02  0.46142317558E+02  0.99999981470E+01 0.  0.
         12    1    1    2    0    0  0.10539924755E+02  0.26933890995E+01  0.43712345487E+02  0.45045682442E+02  0.00000000000E+00 0. -1.
         11    1    3    3    0    0  0.54751744063E+00  0.48241889165E+00 -0.71513896054E+00  0.10217276197E+01  0.51100000000E-03 0. -1.
        -11    1    3    3    0    0  0.32258281337E+00  0.12361185538E+01 -0.66010209808E+01  0.67235055589E+01  0.51100000000E-03 0.  1.
         12    1    3    3    0    0 -0.11410025009E+02 -0.44119265450E+01 -0.36396185546E+02  0.38397084379E+02  0.00000000000E+00 0. -1.
</event>
<event>
 7    1  0.5664398E-009  0.4614232E+02  0.7816164E-02  0.1320468E+00
        -11   -1    0    0    0    0  0.00000000000E+00  0.00000000000E+00  0.45593999997E+02  0.45594000000E+02  0.51100000000E-03 0.  1.
         11   -1    0    0    0    0 -0.00000000000E+00 -0.00000000000E+00 -0.45593999997E+02  0.45594000000E+02  0.51100000000E-03 0. -1.
    9900012    2    1    2    0    0  0.34555605265E+02  0.24984902087E+02 -0.14518205486E+02  0.46142317875E+02  0.10000001039E+02 0.  0.
         12    1    1    2    0    0 -0.34555605265E+02 -0.24984902087E+02  0.14518205486E+02  0.45045682125E+02  0.00000000000E+00 0. -1.
         11    1    3    3    0    0  0.11126096254E+02  0.65411392848E+01 -0.85357821509E+01  0.15473722829E+02  0.51100000000E-03 0. -1.
        -11    1    3    3    0    0  0.91128738887E+01  0.48201966548E+01 -0.23765740935E+01  0.10579549659E+02  0.51100000000E-03 0.  1.
        -12    1    3    3    0    0  0.14316635122E+02  0.13623566148E+02 -0.36058492419E+01  0.20089045387E+02  0.00000000000E+00 0.  1.
</event>
<event>
 7    1  0.5664398E-009  0.4614232E+02  0.7816164E-02  0.1320468E+00
        -11   -1    0    0    0    0  0.00000000000E+00  0.00000000000E+00  0.45593999997E+02  0.45594000000E+02  0.51100000000E-03 0. -1.
         11   -1    0    0    0    0 -0.00000000000E+00 -0.00000000000E+00 -0.45593999997E+02  0.45594000000E+02  0.51100000000E-03 0.  1.
    9900012    2    1    2    0    0  0.26651693851E+02 -0.77799527474E+01 -0.35472145088E+02  0.46142317332E+02  0.99999960913E+01 0.  0.
         12    1    1    2    0    0 -0.26651693851E+02  0.77799527474E+01  0.35472145088E+02  0.45045682668E+02  0.00000000000E+00 0. -1.
         11    1    3    3    0    0  0.80186185999E+01 -0.37918657680E+01 -0.11338966589E+02  0.14396133294E+02  0.51100000000E-03 0. -1.
        -11    1    3    3    0    0  0.11306199254E+02 -0.62965908708E+01 -0.15368467071E+02  0.20091465316E+02  0.51100000000E-03 0.  1.
         12    1    3    3    0    0  0.73268759971E+01  0.23085038915E+01 -0.87647114276E+01  0.11654718723E+02  0.00000000000E+00 0. -1.
</event>
<event>
 7    1  0.5664398E-009  0.4614232E+02  0.7816164E-02  0.1320468E+00
        -11   -1    0    0    0    0  0.00000000000E+00  0.00000000000E+00  0.45593999997E+02  0.45594000000E+02  0.51100000000E-03 0. -1.
         11   -1    0    0    0    0 -0.00000000000E+00 -0.00000000000E+00 -0.45593999997E+02  0.45594000000E+02  0.51100000000E-03 0.  1.
    9900012    2    1    2    0    0 -0.26740456940E+02 -0.27154266821E+02  0.24014727630E+02  0.46142318885E+02  0.10000010249E+02 0.  0.
        -12    1    1    2    0    0  0.26740456940E+02  0.27154266821E+02 -0.24014727630E+02  0.45045681115E+02  0.00000000000E+00 0.  1.
         11    1    3    3    0    0 -0.27610591108E+01 -0.37057906716E+01  0.58036717758E+01  0.74188232394E+01  0.51100000000E-03 0. -1.
        -11    1    3    3    0    0 -0.24414238586E+01 -0.48275668382E+01  0.11470198801E+01  0.55300639147E+01  0.51100000000E-03 0.  1.
         12    1    3    3    0    0 -0.21537973971E+02 -0.18620909312E+02  0.17064035974E+02  0.33193431731E+02  0.00000000000E+00 0. -1.
</event>
<event>
 7    1  0.5664398E-009  0.4614232E+02  0.7816164E-02  0.1320468E+00
        -11   -1    0    0    0    0  0.00000000000E+00  0.00000000000E+00  0.45593999997E+02  0.45594000000E+02  0.51100000000E-03 0. -1.
         11   -1    0    0    0    0 -0.00000000000E+00 -0.00000000000E+00 -0.45593999997E+02  0.45594000000E+02  0.51100000000E-03 0.  1.
    9900012    2    1    2    0    0 -0.38388601232E+02 -0.14953353219E+02  0.18216096262E+02  0.46142316077E+02  0.99999846436E+01 0.  0.
        -12    1    1    2    0    0  0.38388601232E+02  0.14953353219E+02 -0.18216096262E+02  0.45045683923E+02  0.00000000000E+00 0.  1.
         11    1    3    3    0    0 -0.41406116710E+01 -0.40727023854E+01  0.35628994107E+00  0.58188067946E+01  0.51100000000E-03 0. -1.
        -11    1    3    3    0    0 -0.57441883286E+01 -0.61320080887E+00  0.38664868859E+01  0.69513621605E+01  0.51100000000E-03 0.  1.
         12    1    3    3    0    0 -0.28503801233E+02 -0.10267450025E+02  0.13993319435E+02  0.33372147122E+02  0.00000000000E+00 0. -1.
</event>
<event>
 7    1  0.5664398E-009  0.4614232E+02  0.7816164E-02  0.1320468E+00
        -11   -1    0    0    0    0  0.00000000000E+00  0.00000000000E+00  0.45593999997E+02  0.45594000000E+02  0.51100000000E-03 0. -1.
         11   -1    0    0    0    0 -0.00000000000E+00 -0.00000000000E+00 -0.45593999997E+02  0.45594000000E+02  0.51100000000E-03 0.  1.
    9900012    2    1    2    0    0 -0.19443747260E+02 -0.19232654387E+02  0.35793284322E+02  0.46142317578E+02  0.99999983302E+01 0.  0.
        -12    1    1    2    0    0  0.19443747260E+02  0.19232654387E+02 -0.35793284322E+02  0.45045682422E+02  0.00000000000E+00 0.  1.
         11    1    3    3    0    0 -0.24290719920E+01 -0.38126584700E+01  0.25334154897E+01  0.51821761506E+01  0.51100000000E-03 0. -1.
        -11    1    3    3    0    0 -0.96429415470E+01 -0.12704683553E+02  0.24003231902E+02  0.28819272161E+02  0.51100000000E-03 0.  1.
         12    1    3    3    0    0 -0.73717337211E+01 -0.27153123641E+01  0.92566369303E+01  0.12140869267E+02  0.00000000000E+00 0. -1.
</event>
<event>
 7    1  0.5664398E-009  0.4614232E+02  0.7816164E-02  0.1320468E+00
        -11   -1    0    0    0    0  0.00000000000E+00  0.00000000000E+00  0.45593999997E+02  0.45594000000E+02  0.51100000000E-03 0. -1.
         11   -1    0    0    0    0 -0.00000000000E+00 -0.00000000000E+00 -0.45593999997E+02  0.45594000000E+02  0.51100000000E-03 0.  1.
    9900012    2    1    2    0    0  0.61397248304E+01 -0.71909234987E+01 -0.44042115783E+02  0.46142316917E+02  0.99999923014E+01 0.  0.
         12    1    1    2    0    0 -0.61397248304E+01  0.71909234987E+01  0.44042115783E+02  0.45045683083E+02  0.00000000000E+00 0. -1.
         11    1    3    3    0    0  0.67926488922E+00 -0.15805815232E+01 -0.85598543071E+00  0.19215488701E+01  0.51100000000E-03 0. -1.
        -11    1    3    3    0    0 -0.21208924570E+00 -0.56475997810E+00 -0.15525482532E+02  0.15537198712E+02  0.51100000000E-03 0.  1.
        -12    1    3    3    0    0  0.56725491869E+01 -0.50455819973E+01 -0.27660647820E+02  0.28683569335E+02  0.00000000000E+00 0.  1.
</event>
<event>
 7    1  0.5664398E-009  0.4614232E+02  0.7816164E-02  0.1320468E+00
        -11   -1    0    0    0    0  0.00000000000E+00  0.00000000000E+00  0.45593999997E+02  0.45594000000E+02  0.51100000000E-03 0. -1.
         11   -1    0    0    0    0 -0.00000000000E+00 -0.00000000000E+00 -0.45593999997E+02  0.45594000000E+02  0.51100000000E-03 0.  1.
    9900012    2    1    2    0    0  0.38224623403E+02 -0.19153001487E+02 -0.14182883137E+02  0.46142317916E+02  0.10000001416E+02 0.  0.
         12    1    1    2    0    0 -0.38224623403E+02  0.19153001487E+02  0.14182883137E+02  0.45045682084E+02  0.00000000000E+00 0. -1.
         11    1    3    3    0    0  0.12356128064E+02 -0.63808656458E+01 -0.41626322859E+01  0.14516089519E+02  0.51100000000E-03 0. -1.
        -11    1    3    3    0    0  0.23479917951E+02 -0.99054767545E+01 -0.11018162415E+02  0.27763733898E+02  0.51100000000E-03 0.  1.
         12    1    3    3    0    0  0.23885773887E+01 -0.28666590870E+01  0.99791156431E+00  0.38624944988E+01  0.00000000000E+00 0. -1.
</event>
<event>
 7    1  0.5664398E-009  0.4614232E+02  0.7816164E-02  0.1320468E+00
        -11   -1    0    0    0    0  0.00000000000E+00  0.00000000000E+00  0.45593999997E+02  0.45594000000E+02  0.51100000000E-03 0.  1.
         11   -1    0    0    0    0 -0.00000000000E+00 -0.00000000000E+00 -0.45593999997E+02  0.45594000000E+02  0.51100000000E-03 0. -1.
    9900012    2    1    2    0    0  0.35018957202E+02 -0.28238724396E+02  0.23152978143E+01  0.46142317377E+02  0.99999964931E+01 0.  0.
         12    1    1    2    0    0 -0.35018957202E+02  0.28238724396E+02 -0.23152978143E+01  0.45045682623E+02  0.00000000000E+00 0. -1.
         11    1    3    3    0    0  0.26553242284E+01 -0.47576261026E+01  0.72498705694E-01  0.54489456974E+01  0.51100000000E-03 0. -1.
        -11    1    3    3    0    0  0.24099738728E+02 -0.18326680255E+02  0.47237259459E+01  0.30642751231E+02  0.51100000000E-03 0.  1.
         12    1    3    3    0    0  0.82638942461E+01 -0.51544180385E+01 -0.24809268374E+01  0.10050620448E+02  0.00000000000E+00 0. -1.
</event>
<event>
 7    1  0.5664398E-009  0.4614232E+02  0.7816164E-02  0.1320468E+00
        -11   -1    0    0    0    0  0.00000000000E+00  0.00000000000E+00  0.45593999997E+02  0.45594000000E+02  0.51100000000E-03 0. -1.
         11   -1    0    0    0    0 -0.00000000000E+00 -0.00000000000E+00 -0.45593999997E+02  0.45594000000E+02  0.51100000000E-03 0.  1.
    9900012    2    1    2    0    0 -0.29686592556E+02  0.24610180689E+01  0.33789983282E+02  0.46142319212E+02  0.10000013227E+02 0.  0.
        -12    1    1    2    0    0  0.29686592556E+02 -0.24610180689E+01 -0.33789983282E+02  0.45045680788E+02  0.00000000000E+00 0.  1.
         11    1    3    3    0    0 -0.10614672089E+02  0.21315092629E+01  0.15587874033E+02  0.18978841177E+02  0.51100000000E-03 0. -1.
        -11    1    3    3    0    0 -0.89121076383E+01  0.14088860017E+01  0.12641843781E+02  0.15531478899E+02  0.51100000000E-03 0.  1.
        -12    1    3    3    0    0 -0.10159812828E+02 -0.10793771957E+01  0.55602654676E+01  0.11631999136E+02  0.00000000000E+00 0.  1.
</event>
<event>
 7    1  0.5664398E-009  0.4614232E+02  0.7816164E-02  0.1320468E+00
        -11   -1    0    0    0    0  0.00000000000E+00  0.00000000000E+00  0.45593999997E+02  0.45594000000E+02  0.51100000000E-03 0.  1.
         11   -1    0    0    0    0 -0.00000000000E+00 -0.00000000000E+00 -0.45593999997E+02  0.45594000000E+02  0.51100000000E-03 0. -1.
    9900012    2    1    2    0    0  0.73540002054E+00 -0.43509619633E+02 -0.11639831707E+02  0.46142317677E+02  0.99999992350E+01 0.  0.
         12    1    1    2    0    0 -0.73540002054E+00  0.43509619633E+02  0.11639831707E+02  0.45045682323E+02  0.00000000000E+00 0. -1.
         11    1    3    3    0    0  0.29274350100E+01 -0.48230569893E+01 -0.22871287497E+01  0.60879152949E+01  0.51100000000E-03 0. -1.
        -11    1    3    3    0    0 -0.18028524740E-01 -0.18169812383E+02 -0.61093371876E+01  0.19169413350E+02  0.51100000000E-03 0.  1.
         12    1    3    3    0    0 -0.21740064647E+01 -0.20516750260E+02 -0.32433657695E+01  0.20884989032E+02  0.00000000000E+00 0. -1.
</event>
<event>
 7    1  0.5664398E-009  0.4614232E+02  0.7816164E-02  0.1320468E+00
        -11   -1    0    0    0    0  0.00000000000E+00  0.00000000000E+00  0.45593999997E+02  0.45594000000E+02  0.51100000000E-03 0. -1.
         11   -1    0    0    0    0 -0.00000000000E+00 -0.00000000000E+00 -0.45593999997E+02  0.45594000000E+02  0.51100000000E-03 0.  1.
    9900012    2    1    2    0    0  0.15687367013E+02 -0.32395310833E+02  0.27084381837E+02  0.46142318883E+02  0.10000010233E+02 0.  0.
        -12    1    1    2    0    0 -0.15687367013E+02  0.32395310833E+02 -0.27084381837E+02  0.45045681117E+02  0.00000000000E+00 0.  1.
         11    1    3    3    0    0  0.82945410238E+01 -0.25431296866E+02  0.18643854726E+02  0.32605882757E+02  0.51100000000E-03 0. -1.
        -11    1    3    3    0    0  0.22703739076E+01 -0.19490610270E+01  0.88290114478E+00  0.31197678215E+01  0.51100000000E-03 0.  1.
         12    1    3    3    0    0  0.51224520812E+01 -0.50149529405E+01  0.75576259665E+01  0.10416668305E+02  0.00000000000E+00 0. -1.
</event>
<event>
 7    1  0.5664398E-009  0.4614232E+02  0.7816164E-02  0.1320468E+00
        -11   -1    0    0    0    0  0.00000000000E+00  0.00000000000E+00  0.45593999997E+02  0.45594000000E+02  0.51100000000E-03 0. -1.
         11   -1    0    0    0    0 -0.00000000000E+00 -0.00000000000E+00 -0.45593999997E+02  0.45594000000E+02  0.51100000000E-03 0.  1.
    9900012    2    1    2    0    0  0.22961683167E+01  0.44233932061E+02 -0.81975812061E+01  0.46142317941E+02  0.10000001638E+02 0.  0.
         12    1    1    2    0    0 -0.22961683167E+01 -0.44233932061E+02  0.81975812061E+01  0.45045682059E+02  0.00000000000E+00 0. -1.
         11    1    3    3    0    0  0.45219771126E+00  0.67041783408E+00  0.14587449137E+00  0.82171921645E+00  0.51100000000E-03 0. -1.
        -11    1    3    3    0    0  0.19225123524E+01  0.80521906379E+01  0.16251963279E+01  0.84365331256E+01  0.51100000000E-03 0.  1.
        -12    1    3    3    0    0 -0.78541746942E-01  0.35511323590E+02 -0.99686520254E+01  0.36884065599E+02  0.00000000000E+00 0.  1.
</event>
<event>
 7    1  0.5664398E-009  0.4614232E+02  0.7816164E-02  0.1320468E+00
        -11   -1    0    0    0    0  0.00000000000E+00  0.00000000000E+00  0.45593999997E+02  0.45594000000E+02  0.51100000000E-03 0. -1.
         11   -1    0    0    0    0 -0.00000000000E+00 -0.00000000000E+00 -0.45593999997E+02  0.45594000000E+02  0.51100000000E-03 0.  1.
    9900012    2    1    2    0    0 -0.19575858552E+02 -0.17555331620E+02  0.36574711052E+02  0.46142318799E+02  0.10000009464E+02 0.  0.
        -12    1    1    2    0    0  0.19575858552E+02  0.17555331620E+02 -0.36574711052E+02  0.45045681201E+02  0.00000000000E+00 0.  1.
         11    1    3    3    0    0 -0.16604056460E+01 -0.17010397487E+01  0.44755545839E+01  0.50676495766E+01  0.51100000000E-03 0. -1.
        -11    1    3    3    0    0 -0.66083739039E+01 -0.63272619185E+01  0.19913632735E+02  0.21914780811E+02  0.51100000000E-03 0.  1.
         12    1    3    3    0    0 -0.11307079002E+02 -0.95270299532E+01  0.12185523733E+02  0.19159888411E+02  0.00000000000E+00 0. -1.
</event>
<event>
 7    1  0.5664398E-009  0.4614232E+02  0.7816164E-02  0.1320468E+00
        -11   -1    0    0    0    0  0.00000000000E+00  0.00000000000E+00  0.45593999997E+02  0.45594000000E+02  0.51100000000E-03 0. -1.
         11   -1    0    0    0    0 -0.00000000000E+00 -0.00000000000E+00 -0.45593999997E+02  0.45594000000E+02  0.51100000000E-03 0.  1.
    9900012    2    1    2    0    0 -0.33018417353E+02 -0.10597728328E+01  0.30623104171E+02  0.46142317499E+02  0.99999976081E+01 0.  0.
        -12    1    1    2    0    0  0.33018417353E+02  0.10597728328E+01 -0.30623104171E+02  0.45045682501E+02  0.00000000000E+00 0.  1.
         11    1    3    3    0    0 -0.20689573599E+02 -0.21571970391E+01  0.15431873147E+02  0.25900862222E+02  0.51100000000E-03 0. -1.
        -11    1    3    3    0    0 -0.12763543212E+02  0.13670844328E+01  0.14320521201E+02  0.19231595953E+02  0.51100000000E-03 0.  1.
        -12    1    3    3    0    0  0.43469945848E+00 -0.26966022656E+00  0.87070982352E+00  0.10098593238E+01  0.00000000000E+00 0.  1.
</event>
<event>
 7    1  0.5664398E-009  0.4614232E+02  0.7816164E-02  0.1320468E+00
        -11   -1    0    0    0    0  0.00000000000E+00  0.00000000000E+00  0.45593999997E+02  0.45594000000E+02  0.51100000000E-03 0. -1.
         11   -1    0    0    0    0 -0.00000000000E+00 -0.00000000000E+00 -0.45593999997E+02  0.45594000000E+02  0.51100000000E-03 0.  1.
    9900012    2    1    2    0    0  0.32855271054E+02 -0.14608264629E+02 -0.27133802151E+02  0.46142318179E+02  0.10000003813E+02 0.  0.
         12    1    1    2    0    0 -0.32855271054E+02  0.14608264629E+02  0.27133802151E+02  0.45045681821E+02  0.00000000000E+00 0. -1.
         11    1    3    3    0    0  0.86582901315E+01 -0.11059797945E-01 -0.58470717386E+01  0.10447696325E+02  0.51100000000E-03 0. -1.
        -11    1    3    3    0    0  0.91345078693E+01 -0.66545855197E+01 -0.59216638907E+01  0.12758873224E+02  0.51100000000E-03 0.  1.
        -12    1    3    3    0    0  0.15062473054E+02 -0.79426193109E+01 -0.15365066522E+02  0.22935748630E+02  0.00000000000E+00 0.  1.
</event>
<event>
 7    1  0.5717269E-009  0.4614232E+02  0.7816164E-02  0.1320468E+00
        -11   -1    0    0    0    0  0.00000000000E+00  0.00000000000E+00  0.45593999997E+02  0.45594000000E+02  0.51100000000E-03 0. -1.
         11   -1    0    0    0    0 -0.00000000000E+00 -0.00000000000E+00 -0.45593999997E+02  0.45594000000E+02  0.51100000000E-03 0.  1.
    9900012    2    1    2    0    0  0.66968933082E+00 -0.19488217856E+02 -0.40606333392E+02  0.46142318403E+02  0.10000005853E+02 0.  0.
         12    1    1    2    0    0 -0.66968933082E+00  0.19488217856E+02  0.40606333392E+02  0.45045681597E+02  0.00000000000E+00 0. -1.
         11    1    3    3    0    0  0.69488960654E+00 -0.31639404577E+01 -0.24302873434E+01  0.40496527774E+01  0.51100000000E-03 0. -1.
        -11    1    3    3    0    0 -0.83902922955E+00 -0.55778197870E+00 -0.77436359897E+01  0.78089044934E+01  0.51100000000E-03 0.  1.
        -12    1    3    3    0    0  0.81382895383E+00 -0.15766495420E+02 -0.30432410059E+02  0.34283761132E+02  0.00000000000E+00 0.  1.
</event>
<event>
 7    1  0.5664398E-009  0.4614232E+02  0.7816164E-02  0.1320468E+00
        -11   -1    0    0    0    0  0.00000000000E+00  0.00000000000E+00  0.45593999997E+02  0.45594000000E+02  0.51100000000E-03 0. -1.
         11   -1    0    0    0    0 -0.00000000000E+00 -0.00000000000E+00 -0.45593999997E+02  0.45594000000E+02  0.51100000000E-03 0.  1.
    9900012    2    1    2    0    0 -0.14020461483E+02 -0.10861370981E+02  0.41407375576E+02  0.46142317944E+02  0.10000001672E+02 0.  0.
        -12    1    1    2    0    0  0.14020461483E+02  0.10861370981E+02 -0.41407375576E+02  0.45045682056E+02  0.00000000000E+00 0.  1.
         11    1    3    3    0    0 -0.74100544142E+01 -0.33321394479E+01  0.17790873024E+02  0.19558303171E+02  0.51100000000E-03 0. -1.
        -11    1    3    3    0    0 -0.61506209621E+01 -0.88564033240E+01  0.21331175376E+02  0.23901570267E+02  0.51100000000E-03 0.  1.
         12    1    3    3    0    0 -0.45978610709E+00  0.13271717914E+01  0.22853271759E+01  0.26824445062E+01  0.00000000000E+00 0. -1.
</event>
<event>
 7    1  0.6024339E-009  0.4614231E+02  0.7816164E-02  0.1320468E+00
        -11   -1    0    0    0    0  0.00000000000E+00  0.00000000000E+00  0.45593999997E+02  0.45594000000E+02  0.51100000000E-03 0. -1.
         11   -1    0    0    0    0 -0.00000000000E+00 -0.00000000000E+00 -0.45593999997E+02  0.45594000000E+02  0.51100000000E-03 0.  1.
    9900012    2    1    2    0    0  0.62297514085E+01 -0.56004621117E+01  0.44259901934E+02  0.46142313218E+02  0.99999585743E+01 0.  0.
        -12    1    1    2    0    0 -0.62297514085E+01  0.56004621117E+01 -0.44259901934E+02  0.45045686782E+02  0.00000000000E+00 0.  1.
         11    1    3    3    0    0  0.50603419350E+01 -0.34203656098E+01  0.24120221949E+02  0.24881540719E+02  0.51100000000E-03 0. -1.
        -11    1    3    3    0    0  0.31776314384E+01 -0.14599853143E+01  0.17599414068E+02  0.17943474426E+02  0.51100000000E-03 0.  1.
        -12    1    3    3    0    0 -0.20082219649E+01 -0.72011118756E+00  0.25402659164E+01  0.33172980735E+01  0.00000000000E+00 0.  1.
</event>
<event>
 7    1  0.5664398E-009  0.4614232E+02  0.7816164E-02  0.1320468E+00
        -11   -1    0    0    0    0  0.00000000000E+00  0.00000000000E+00  0.45593999997E+02  0.45594000000E+02  0.51100000000E-03 0. -1.
         11   -1    0    0    0    0 -0.00000000000E+00 -0.00000000000E+00 -0.45593999997E+02  0.45594000000E+02  0.51100000000E-03 0.  1.
    9900012    2    1    2    0    0  0.31462650124E+02 -0.16862473187E+02  0.27474935134E+02  0.46142318571E+02  0.10000007385E+02 0.  0.
        -12    1    1    2    0    0 -0.31462650124E+02  0.16862473187E+02 -0.27474935134E+02  0.45045681429E+02  0.00000000000E+00 0.  1.
         11    1    3    3    0    0  0.14853823628E+02 -0.82398010794E+01  0.99527707165E+01  0.19687255863E+02  0.51100000000E-03 0. -1.
        -11    1    3    3    0    0  0.16056720663E+02 -0.61770513381E+01  0.16152077312E+02  0.23597962697E+02  0.51100000000E-03 0.  1.
        -12    1    3    3    0    0  0.55210583252E+00 -0.24456207697E+01  0.13700871055E+01  0.28571000116E+01  0.00000000000E+00 0.  1.
</event>
<event>
 7    1  0.5664398E-009  0.4614232E+02  0.7816164E-02  0.1320468E+00
        -11   -1    0    0    0    0  0.00000000000E+00  0.00000000000E+00  0.45593999997E+02  0.45594000000E+02  0.51100000000E-03 0. -1.
         11   -1    0    0    0    0 -0.00000000000E+00 -0.00000000000E+00 -0.45593999997E+02  0.45594000000E+02  0.51100000000E-03 0.  1.
    9900012    2    1    2    0    0 -0.84568277146E+01 -0.34916344773E+02  0.27174331089E+02  0.46142319436E+02  0.10000015277E+02 0.  0.
        -12    1    1    2    0    0  0.84568277146E+01  0.34916344773E+02 -0.27174331089E+02  0.45045680564E+02  0.00000000000E+00 0.  1.
         11    1    3    3    0    0 -0.66655688478E+01 -0.23524798041E+02  0.12530029102E+02  0.27474489267E+02  0.51100000000E-03 0. -1.
        -11    1    3    3    0    0 -0.94875709663E+00 -0.35143955092E+01  0.50580379544E+01  0.62317625141E+01  0.51100000000E-03 0.  1.
        -12    1    3    3    0    0 -0.84250177011E+00 -0.78771512232E+01  0.95862640327E+01  0.12436067655E+02  0.00000000000E+00 0.  1.
</event>
<event>
 7    1  0.5664398E-009  0.4614232E+02  0.7816164E-02  0.1320468E+00
        -11   -1    0    0    0    0  0.00000000000E+00  0.00000000000E+00  0.45593999997E+02  0.45594000000E+02  0.51100000000E-03 0. -1.
         11   -1    0    0    0    0 -0.00000000000E+00 -0.00000000000E+00 -0.45593999997E+02  0.45594000000E+02  0.51100000000E-03 0.  1.
    9900012    2    1    2    0    0  0.23077834408E+02 -0.25339092394E+02  0.29231104131E+02  0.46142317710E+02  0.99999995299E+01 0.  0.
        -12    1    1    2    0    0 -0.23077834408E+02  0.25339092394E+02 -0.29231104131E+02  0.45045682290E+02  0.00000000000E+00 0.  1.
         11    1    3    3    0    0  0.12970642081E+02 -0.14956113765E+02  0.18841954764E+02  0.27330242489E+02  0.51100000000E-03 0. -1.
        -11    1    3    3    0    0  0.26191968923E+01  0.26589350943E+00  0.13087684339E+01  0.29400283661E+01  0.51100000000E-03 0.  1.
        -12    1    3    3    0    0  0.74879954340E+01 -0.10648872139E+02  0.90803809333E+01  0.15872046854E+02  0.00000000000E+00 0.  1.
</event>
<event>
 7    1  0.5664398E-009  0.4614231E+02  0.7816164E-02  0.1320468E+00
        -11   -1    0    0    0    0  0.00000000000E+00  0.00000000000E+00  0.45593999997E+02  0.45594000000E+02  0.51100000000E-03 0. -1.
         11   -1    0    0    0    0 -0.00000000000E+00 -0.00000000000E+00 -0.45593999997E+02  0.45594000000E+02  0.51100000000E-03 0.  1.
    9900012    2    1    2    0    0  0.37637231484E+01 -0.11556779099E+02  0.43374982741E+02  0.46142313382E+02  0.99999600715E+01 0.  0.
        -12    1    1    2    0    0 -0.37637231484E+01  0.11556779099E+02 -0.43374982741E+02  0.45045686618E+02  0.00000000000E+00 0.  1.
         11    1    3    3    0    0  0.23640798433E+01 -0.36906539510E+01  0.16172228089E+02  0.16755618811E+02  0.51100000000E-03 0. -1.
        -11    1    3    3    0    0  0.29216971001E+01 -0.67797986721E+01  0.26288038141E+02  0.27304998326E+02  0.51100000000E-03 0.  1.
        -12    1    3    3    0    0 -0.15220537949E+01 -0.10863264762E+01  0.91471650998E+00  0.20816962461E+01  0.00000000000E+00 0.  1.
</event>
<event>
 7    1  0.5664398E-009  0.4614232E+02  0.7816164E-02  0.1320468E+00
        -11   -1    0    0    0    0  0.00000000000E+00  0.00000000000E+00  0.45593999997E+02  0.45594000000E+02  0.51100000000E-03 0. -1.
         11   -1    0    0    0    0 -0.00000000000E+00 -0.00000000000E+00 -0.45593999997E+02  0.45594000000E+02  0.51100000000E-03 0.  1.
    9900012    2    1    2    0    0  0.41202837914E+02  0.11668420498E+02 -0.13974538454E+02  0.46142316366E+02  0.99999872752E+01 0.  0.
         12    1    1    2    0    0 -0.41202837914E+02 -0.11668420498E+02  0.13974538454E+02  0.45045683634E+02  0.00000000000E+00 0. -1.
         11    1    3    3    0    0  0.10791524345E+02  0.19364521274E+01 -0.21293381909E+01  0.11168747733E+02  0.51100000000E-03 0.  1.
        -11    1    3    3    0    0  0.18778327403E+02  0.72226462276E+01 -0.34580334430E+01  0.20414460417E+02  0.51100000000E-03 0. -1.
         12    1    3    3    0    0  0.11632986166E+02  0.25093221427E+01 -0.83871668198E+01  0.14559108215E+02  0.00000000000E+00 0. -1.
</event>
<event>
 7    1  0.5664398E-009  0.4614232E+02  0.7816164E-02  0.1320468E+00
        -11   -1    0    0    0    0  0.00000000000E+00  0.00000000000E+00  0.45593999997E+02  0.45594000000E+02  0.51100000000E-03 0. -1.
         11   -1    0    0    0    0 -0.00000000000E+00 -0.00000000000E+00 -0.45593999997E+02  0.45594000000E+02  0.51100000000E-03 0.  1.
    9900012    2    1    2    0    0 -0.13942667606E+02 -0.39070407369E+02 -0.17556165815E+02  0.46142315745E+02  0.99999816110E+01 0.  0.
         12    1    1    2    0    0  0.13942667606E+02  0.39070407369E+02  0.17556165815E+02  0.45045684255E+02  0.00000000000E+00 0. -1.
         11    1    3    3    0    0 -0.15254117806E+01 -0.13115683878E+02 -0.56308912790E+01  0.14354615339E+02  0.51100000000E-03 0. -1.
        -11    1    3    3    0    0 -0.10470149989E+02 -0.22091395195E+02 -0.74353810738E+01  0.25552664723E+02  0.51100000000E-03 0.  1.
        -12    1    3    3    0    0 -0.19471058366E+01 -0.38633282955E+01 -0.44898934624E+01  0.62350356824E+01  0.00000000000E+00 0.  1.
</event>
<event>
 7    1  0.5664398E-009  0.4614232E+02  0.7816164E-02  0.1320468E+00
        -11   -1    0    0    0    0  0.00000000000E+00  0.00000000000E+00  0.45593999997E+02  0.45594000000E+02  0.51100000000E-03 0.  1.
         11   -1    0    0    0    0 -0.00000000000E+00 -0.00000000000E+00 -0.45593999997E+02  0.45594000000E+02  0.51100000000E-03 0. -1.
    9900012    2    1    2    0    0 -0.41417008732E+02  0.17708864490E+02 -0.37559196387E+00  0.46142316931E+02  0.99999924288E+01 0.  0.
        -12    1    1    2    0    0  0.41417008732E+02 -0.17708864490E+02  0.37559196387E+00  0.45045683069E+02  0.00000000000E+00 0.  1.
         11    1    3    3    0    0 -0.28443244519E+02  0.12945142943E+02  0.34056272064E+01  0.31435540102E+02  0.51100000000E-03 0. -1.
        -11    1    3    3    0    0 -0.10623819347E+02  0.28544608156E+01 -0.19611806918E+01  0.11174064347E+02  0.51100000000E-03 0.  1.
         12    1    3    3    0    0 -0.23499448661E+01  0.19092607318E+01 -0.18200384784E+01  0.35327124817E+01  0.00000000000E+00 0. -1.
</event>
<event>
 7    1  0.5664398E-009  0.4614232E+02  0.7816164E-02  0.1320468E+00
        -11   -1    0    0    0    0  0.00000000000E+00  0.00000000000E+00  0.45593999997E+02  0.45594000000E+02  0.51100000000E-03 0. -1.
         11   -1    0    0    0    0 -0.00000000000E+00 -0.00000000000E+00 -0.45593999997E+02  0.45594000000E+02  0.51100000000E-03 0.  1.
    9900012    2    1    2    0    0  0.68168034712E+01  0.15099439008E+02  0.41888561881E+02  0.46142317805E+02  0.10000000401E+02 0.  0.
        -12    1    1    2    0    0 -0.68168034712E+01 -0.15099439008E+02 -0.41888561881E+02  0.45045682195E+02  0.00000000000E+00 0.  1.
         11    1    3    3    0    0  0.15073177171E+01  0.59294900231E+01  0.10105969193E+02  0.11813613851E+02  0.51100000000E-03 0. -1.
        -11    1    3    3    0    0  0.49787832800E+01  0.29356346424E+01  0.21812357640E+02  0.22565131947E+02  0.51100000000E-03 0.  1.
        -12    1    3    3    0    0  0.33070247411E+00  0.62343143422E+01  0.99702350481E+01  0.11763572007E+02  0.00000000000E+00 0.  1.
</event>
<event>
 7    1  0.5664398E-009  0.4614232E+02  0.7816164E-02  0.1320468E+00
        -11   -1    0    0    0    0  0.00000000000E+00  0.00000000000E+00  0.45593999997E+02  0.45594000000E+02  0.51100000000E-03 0. -1.
         11   -1    0    0    0    0 -0.00000000000E+00 -0.00000000000E+00 -0.45593999997E+02  0.45594000000E+02  0.51100000000E-03 0.  1.
    9900012    2    1    2    0    0 -0.25049633938E+02 -0.28625501587E+02  0.24129027430E+02  0.46142318006E+02  0.10000002236E+02 0.  0.
        -12    1    1    2    0    0  0.25049633938E+02  0.28625501587E+02 -0.24129027430E+02  0.45045681994E+02  0.00000000000E+00 0.  1.
         11    1    3    3    0    0 -0.20310668520E+02 -0.18095096429E+02  0.19896792745E+02  0.33702197736E+02  0.51100000000E-03 0. -1.
        -11    1    3    3    0    0 -0.26483203355E+01 -0.36761023150E+01  0.15488137153E+01  0.47881262531E+01  0.51100000000E-03 0.  1.
         12    1    3    3    0    0 -0.20906450832E+01 -0.68543028432E+01  0.26834209702E+01  0.76519940168E+01  0.00000000000E+00 0. -1.
</event>
<event>
 7    1  0.5664398E-009  0.4614232E+02  0.7816164E-02  0.1320468E+00
        -11   -1    0    0    0    0  0.00000000000E+00  0.00000000000E+00  0.45593999997E+02  0.45594000000E+02  0.51100000000E-03 0. -1.
         11   -1    0    0    0    0 -0.00000000000E+00 -0.00000000000E+00 -0.45593999997E+02  0.45594000000E+02  0.51100000000E-03 0.  1.
    9900012    2    1    2    0    0  0.43530687476E+01  0.33917879634E+01  0.44706376623E+02  0.46142317145E+02  0.99999943836E+01 0.  0.
        -12    1    1    2    0    0 -0.43530687476E+01 -0.33917879634E+01 -0.44706376623E+02  0.45045682855E+02  0.00000000000E+00 0.  1.
         11    1    3    3    0    0  0.21850905938E+01  0.75116449544E+00  0.96978570792E+01  0.99693179903E+01  0.51100000000E-03 0. -1.
        -11    1    3    3    0    0 -0.79132876191E+00  0.63265421767E+00  0.30008897626E+02  0.30025995230E+02  0.51100000000E-03 0.  1.
        -12    1    3    3    0    0  0.29593069158E+01  0.20079692503E+01  0.49996219176E+01  0.61470039247E+01  0.00000000000E+00 0.  1.
</event>
<event>
 7    1  0.5664398E-009  0.4614232E+02  0.7816164E-02  0.1320468E+00
        -11   -1    0    0    0    0  0.00000000000E+00  0.00000000000E+00  0.45593999997E+02  0.45594000000E+02  0.51100000000E-03 0. -1.
         11   -1    0    0    0    0 -0.00000000000E+00 -0.00000000000E+00 -0.45593999997E+02  0.45594000000E+02  0.51100000000E-03 0.  1.
    9900012    2    1    2    0    0  0.21255593158E+02  0.13909771712E+02  0.37199885559E+02  0.46142317908E+02  0.10000001335E+02 0.  0.
        -12    1    1    2    0    0 -0.21255593158E+02 -0.13909771712E+02 -0.37199885559E+02  0.45045682092E+02  0.00000000000E+00 0.  1.
         11    1    3    3    0    0  0.50343883839E+01  0.31630687354E+01  0.61192947006E+01  0.85320477095E+01  0.51100000000E-03 0. -1.
        -11    1    3    3    0    0  0.98257208651E+01  0.24979128663E+01  0.19780330782E+02  0.22227142086E+02  0.51100000000E-03 0.  1.
        -12    1    3    3    0    0  0.63954839090E+01  0.82487901102E+01  0.11300260076E+02  0.15383128112E+02  0.00000000000E+00 0.  1.
</event>
<event>
 7    1  0.5664398E-009  0.4614232E+02  0.7816164E-02  0.1320468E+00
        -11   -1    0    0    0    0  0.00000000000E+00  0.00000000000E+00  0.45593999997E+02  0.45594000000E+02  0.51100000000E-03 0. -1.
         11   -1    0    0    0    0 -0.00000000000E+00 -0.00000000000E+00 -0.45593999997E+02  0.45594000000E+02  0.51100000000E-03 0.  1.
    9900012    2    1    2    0    0 -0.11148165216E+02 -0.33310911598E+02 -0.28199557174E+02  0.46142318254E+02  0.10000004496E+02 0.  0.
         12    1    1    2    0    0  0.11148165216E+02  0.33310911598E+02  0.28199557174E+02  0.45045681746E+02  0.00000000000E+00 0. -1.
         11    1    3    3    0    0 -0.15840007654E+01 -0.26549473357E+01 -0.48635525666E+01  0.57629807921E+01  0.51100000000E-03 0.  1.
        -11    1    3    3    0    0 -0.42260845423E+01 -0.23479573924E+02 -0.15194191839E+02  0.28284512513E+02  0.51100000000E-03 0. -1.
         12    1    3    3    0    0 -0.53380799087E+01 -0.71763903381E+01 -0.81418127677E+01  0.12094824949E+02  0.00000000000E+00 0. -1.
</event>
<event>
 7    1  0.5664398E-009  0.4614232E+02  0.7816164E-02  0.1320468E+00
        -11   -1    0    0    0    0  0.00000000000E+00  0.00000000000E+00  0.45593999997E+02  0.45594000000E+02  0.51100000000E-03 0. -1.
         11   -1    0    0    0    0 -0.00000000000E+00 -0.00000000000E+00 -0.45593999997E+02  0.45594000000E+02  0.51100000000E-03 0.  1.
    9900012    2    1    2    0    0  0.28966732905E+02  0.19706885904E+02  0.28313963508E+02  0.46142317668E+02  0.99999991477E+01 0.  0.
        -12    1    1    2    0    0 -0.28966732905E+02 -0.19706885904E+02 -0.28313963508E+02  0.45045682332E+02  0.00000000000E+00 0.  1.
         11    1    3    3    0    0  0.24695233160E+01  0.19506771842E-01  0.78461835581E+00  0.25912452890E+01  0.51100000000E-03 0. -1.
        -11    1    3    3    0    0  0.34956243042E+01  0.10209180668E+01  0.97816224765E+00  0.37707379409E+01  0.51100000000E-03 0.  1.
        -12    1    3    3    0    0  0.23001585285E+02  0.18666461066E+02  0.26551182905E+02  0.39780334438E+02  0.00000000000E+00 0.  1.
</event>
<event>
 7    1  0.5664398E-009  0.4614232E+02  0.7816164E-02  0.1320468E+00
        -11   -1    0    0    0    0  0.00000000000E+00  0.00000000000E+00  0.45593999997E+02  0.45594000000E+02  0.51100000000E-03 0. -1.
         11   -1    0    0    0    0 -0.00000000000E+00 -0.00000000000E+00 -0.45593999997E+02  0.45594000000E+02  0.51100000000E-03 0.  1.
    9900012    2    1    2    0    0 -0.16413674189E+02  0.12237058013E+02  0.40124297107E+02  0.46142317548E+02  0.99999980602E+01 0.  0.
        -12    1    1    2    0    0  0.16413674189E+02 -0.12237058013E+02 -0.40124297107E+02  0.45045682452E+02  0.00000000000E+00 0.  1.
         11    1    3    3    0    0 -0.12942444915E+02  0.52055053263E+01  0.28352986440E+02  0.31598987427E+02  0.51100000000E-03 0. -1.
        -11    1    3    3    0    0 -0.25024445152E+00  0.23759584591E+01  0.60036433827E+01  0.64615427734E+01  0.51100000000E-03 0.  1.
         12    1    3    3    0    0 -0.32209848219E+01  0.46555942274E+01  0.57676672850E+01  0.80817873483E+01  0.00000000000E+00 0. -1.
</event>
<event>
 7    1  0.5664398E-009  0.4614232E+02  0.7816164E-02  0.1320468E+00
        -11   -1    0    0    0    0  0.00000000000E+00  0.00000000000E+00  0.45593999997E+02  0.45594000000E+02  0.51100000000E-03 0. -1.
         11   -1    0    0    0    0 -0.00000000000E+00 -0.00000000000E+00 -0.45593999997E+02  0.45594000000E+02  0.51100000000E-03 0.  1.
    9900012    2    1    2    0    0 -0.35752783921E+01 -0.18268915987E+02  0.41019232644E+02  0.46142319257E+02  0.10000013640E+02 0.  0.
        -12    1    1    2    0    0  0.35752783921E+01  0.18268915987E+02 -0.41019232644E+02  0.45045680743E+02  0.00000000000E+00 0.  1.
         11    1    3    3    0    0 -0.37613430490E+01 -0.94938986063E+01  0.18288448841E+02  0.20946340338E+02  0.51100000000E-03 0. -1.
        -11    1    3    3    0    0 -0.20287006669E+01 -0.64373064405E+01  0.19497310749E+02  0.20632490574E+02  0.51100000000E-03 0.  1.
        -12    1    3    3    0    0  0.22147653238E+01 -0.23377109407E+01  0.32334730533E+01  0.45634883443E+01  0.00000000000E+00 0.  1.
</event>
<event>
 7    1  0.5664398E-009  0.4614232E+02  0.7816164E-02  0.1320468E+00
        -11   -1    0    0    0    0  0.00000000000E+00  0.00000000000E+00  0.45593999997E+02  0.45594000000E+02  0.51100000000E-03 0. -1.
         11   -1    0    0    0    0 -0.00000000000E+00 -0.00000000000E+00 -0.45593999997E+02  0.45594000000E+02  0.51100000000E-03 0.  1.
    9900012    2    1    2    0    0 -0.13218898987E+01  0.14004008222E+02  0.42793152510E+02  0.46142317178E+02  0.99999946811E+01 0.  0.
        -12    1    1    2    0    0  0.13218898987E+01 -0.14004008222E+02 -0.42793152510E+02  0.45045682822E+02  0.00000000000E+00 0.  1.
         11    1    3    3    0    0  0.21347648706E+01  0.33556321055E+01  0.60295460848E+01  0.72230820382E+01  0.51100000000E-03 0. -1.
        -11    1    3    3    0    0  0.22978741636E+00  0.45077169199E+01  0.22615870988E+02  0.23061871886E+02  0.51100000000E-03 0.  1.
         12    1    3    3    0    0 -0.36864421857E+01  0.61406591965E+01  0.14147735437E+02  0.15857363254E+02  0.00000000000E+00 0. -1.
</event>
<event>
 7    1  0.5664398E-009  0.4614232E+02  0.7816164E-02  0.1320468E+00
        -11   -1    0    0    0    0  0.00000000000E+00  0.00000000000E+00  0.45593999997E+02  0.45594000000E+02  0.51100000000E-03 0. -1.
         11   -1    0    0    0    0 -0.00000000000E+00 -0.00000000000E+00 -0.45593999997E+02  0.45594000000E+02  0.51100000000E-03 0.  1.
    9900012    2    1    2    0    0 -0.46885292193E+01 -0.84820447369E+01  0.43990749862E+02  0.46142318047E+02  0.10000002610E+02 0.  0.
        -12    1    1    2    0    0  0.46885292193E+01  0.84820447369E+01 -0.43990749862E+02  0.45045681953E+02  0.00000000000E+00 0.  1.
         11    1    3    3    0    0 -0.42817370641E+00 -0.23787338025E+01  0.45084862286E+01  0.51154819481E+01  0.51100000000E-03 0. -1.
        -11    1    3    3    0    0  0.15071414769E+01 -0.47104173079E+01  0.22523734405E+02  0.23060314795E+02  0.51100000000E-03 0.  1.
         12    1    3    3    0    0 -0.57674969898E+01 -0.13928936266E+01  0.16958529228E+02  0.17966521304E+02  0.00000000000E+00 0. -1.
</event>
<event>
 7    1  0.5664398E-009  0.4614232E+02  0.7816164E-02  0.1320468E+00
        -11   -1    0    0    0    0  0.00000000000E+00  0.00000000000E+00  0.45593999997E+02  0.45594000000E+02  0.51100000000E-03 0. -1.
         11   -1    0    0    0    0 -0.00000000000E+00 -0.00000000000E+00 -0.45593999997E+02  0.45594000000E+02  0.51100000000E-03 0.  1.
    9900012    2    1    2    0    0 -0.23769958784E+02  0.32455617606E+02  0.20266609902E+02  0.46142317280E+02  0.99999956112E+01 0.  0.
        -12    1    1    2    0    0  0.23769958784E+02 -0.32455617606E+02 -0.20266609902E+02  0.45045682720E+02  0.00000000000E+00 0.  1.
         11    1    3    3    0    0 -0.12287713181E+02  0.14447972661E+02  0.56805042259E+01  0.19798988302E+02  0.51100000000E-03 0. -1.
        -11    1    3    3    0    0 -0.81603483489E+01  0.81525364481E+01  0.75026729190E+01  0.13760277501E+02  0.51100000000E-03 0.  1.
        -12    1    3    3    0    0 -0.33218972537E+01  0.98551084969E+01  0.70834327573E+01  0.12583051477E+02  0.00000000000E+00 0.  1.
</event>
<event>
 7    1  0.5664398E-009  0.4614232E+02  0.7816164E-02  0.1320468E+00
        -11   -1    0    0    0    0  0.00000000000E+00  0.00000000000E+00  0.45593999997E+02  0.45594000000E+02  0.51100000000E-03 0. -1.
         11   -1    0    0    0    0 -0.00000000000E+00 -0.00000000000E+00 -0.45593999997E+02  0.45594000000E+02  0.51100000000E-03 0.  1.
    9900012    2    1    2    0    0 -0.85996152169E+01 -0.21742028324E+02  0.38502524032E+02  0.46142317251E+02  0.99999953444E+01 0.  0.
        -12    1    1    2    0    0  0.85996152169E+01  0.21742028324E+02 -0.38502524032E+02  0.45045682749E+02  0.00000000000E+00 0.  1.
         11    1    3    3    0    0 -0.38944602944E+01 -0.57434065613E+01  0.11544059049E+02  0.13469181100E+02  0.51100000000E-03 0. -1.
        -11    1    3    3    0    0 -0.46112972518E+01 -0.54941999732E+01  0.65211207305E+01  0.96940864207E+01  0.51100000000E-03 0.  1.
        -12    1    3    3    0    0 -0.93857670719E-01 -0.10504421790E+02  0.20437344252E+02  0.22979049730E+02  0.00000000000E+00 0.  1.
</event>
<event>
 7    1  0.5664398E-009  0.4614232E+02  0.7816164E-02  0.1320468E+00
        -11   -1    0    0    0    0  0.00000000000E+00  0.00000000000E+00  0.45593999997E+02  0.45594000000E+02  0.51100000000E-03 0.  1.
         11   -1    0    0    0    0 -0.00000000000E+00 -0.00000000000E+00 -0.45593999997E+02  0.45594000000E+02  0.51100000000E-03 0. -1.
    9900012    2    1    2    0    0 -0.50211798959E+01 -0.44548789988E+02  0.43939165056E+01  0.46142318306E+02  0.10000004972E+02 0.  0.
         12    1    1    2    0    0  0.50211798959E+01  0.44548789988E+02 -0.43939165056E+01  0.45045681694E+02  0.00000000000E+00 0. -1.
         11    1    3    3    0    0 -0.13287447870E+01 -0.62872724056E+01  0.20260366100E+01  0.67379656884E+01  0.51100000000E-03 0. -1.
        -11    1    3    3    0    0 -0.53307443870E+01 -0.16701074862E+02 -0.80780369093E+00  0.17549794425E+02  0.51100000000E-03 0.  1.
        -12    1    3    3    0    0  0.16383092781E+01 -0.21560442720E+02  0.31756835865E+01  0.21854558193E+02  0.00000000000E+00 0.  1.
</event>
<event>
 7    1  0.5664398E-009  0.4614232E+02  0.7816164E-02  0.1320468E+00
        -11   -1    0    0    0    0  0.00000000000E+00  0.00000000000E+00  0.45593999997E+02  0.45594000000E+02  0.51100000000E-03 0.  1.
         11   -1    0    0    0    0 -0.00000000000E+00 -0.00000000000E+00 -0.45593999997E+02  0.45594000000E+02  0.51100000000E-03 0. -1.
    9900012    2    1    2    0    0  0.90678834489E+01  0.17696683679E+02  0.40419231949E+02  0.46142318356E+02  0.10000005422E+02 0.  0.
        -12    1    1    2    0    0 -0.90678834489E+01 -0.17696683679E+02 -0.40419231949E+02  0.45045681644E+02  0.00000000000E+00 0.  1.
         11    1    3    3    0    0  0.44001536203E+00  0.50755166012E+01  0.67493683347E+01  0.84562672301E+01  0.51100000000E-03 0. -1.
        -11    1    3    3    0    0  0.53350454459E+00  0.71002443263E+01  0.13519986478E+02  0.15280318426E+02  0.51100000000E-03 0.  1.
        -12    1    3    3    0    0  0.80943635423E+01  0.55209227518E+01  0.20149877136E+02  0.22405732699E+02  0.00000000000E+00 0.  1.
</event>
<event>
 7    1  0.5664398E-009  0.4614232E+02  0.7816164E-02  0.1320468E+00
        -11   -1    0    0    0    0  0.00000000000E+00  0.00000000000E+00  0.45593999997E+02  0.45594000000E+02  0.51100000000E-03 0. -1.
         11   -1    0    0    0    0 -0.00000000000E+00 -0.00000000000E+00 -0.45593999997E+02  0.45594000000E+02  0.51100000000E-03 0.  1.
    9900012    2    1    2    0    0 -0.26953750634E+02 -0.76923126490E-01  0.36091590904E+02  0.46142317361E+02  0.99999963516E+01 0.  0.
        -12    1    1    2    0    0  0.26953750634E+02  0.76923126490E-01 -0.36091590904E+02  0.45045682639E+02  0.00000000000E+00 0.  1.
         11    1    3    3    0    0 -0.50753145787E+00  0.28358611846E-01  0.72991402614E-01  0.51353714332E+00  0.51100000000E-03 0.  1.
        -11    1    3    3    0    0 -0.22353555741E+02 -0.10742858808E+01  0.23629168571E+02  0.32544940498E+02  0.51100000000E-03 0. -1.
         12    1    3    3    0    0 -0.40926634356E+01  0.96900414247E+00  0.12389430930E+02  0.13083839719E+02  0.00000000000E+00 0. -1.
</event>
<event>
 7    1  0.6528680E-009  0.4614232E+02  0.7816164E-02  0.1320468E+00
        -11   -1    0    0    0    0  0.00000000000E+00  0.00000000000E+00  0.45593999997E+02  0.45594000000E+02  0.51100000000E-03 0. -1.
         11   -1    0    0    0    0 -0.00000000000E+00 -0.00000000000E+00 -0.45593999997E+02  0.45594000000E+02  0.51100000000E-03 0.  1.
    9900012    2    1    2    0    0  0.18585085395E+02 -0.22602346833E+02  0.34246781612E+02  0.46142317273E+02  0.99999955524E+01 0.  0.
        -12    1    1    2    0    0 -0.18585085395E+02  0.22602346833E+02 -0.34246781612E+02  0.45045682727E+02  0.00000000000E+00 0.  1.
         11    1    3    3    0    0  0.33902108903E+01 -0.47001315747E+01  0.45746071918E+01  0.73832105428E+01  0.51100000000E-03 0. -1.
        -11    1    3    3    0    0  0.97151089876E+01 -0.10790574059E+02  0.11617176905E+02  0.18595123841E+02  0.51100000000E-03 0.  1.
         12    1    3    3    0    0  0.54797655168E+01 -0.71116411994E+01  0.18054997516E+02  0.20163982889E+02  0.00000000000E+00 0. -1.
</event>
<event>
 7    1  0.5664398E-009  0.4614232E+02  0.7816164E-02  0.1320468E+00
        -11   -1    0    0    0    0  0.00000000000E+00  0.00000000000E+00  0.45593999997E+02  0.45594000000E+02  0.51100000000E-03 0. -1.
         11   -1    0    0    0    0 -0.00000000000E+00 -0.00000000000E+00 -0.45593999997E+02  0.45594000000E+02  0.51100000000E-03 0.  1.
    9900012    2    1    2    0    0  0.27345483921E+01  0.38352011817E+02 -0.23468255343E+02  0.46142316809E+02  0.99999913174E+01 0.  0.
         12    1    1    2    0    0 -0.27345483921E+01 -0.38352011817E+02  0.23468255343E+02  0.45045683191E+02  0.00000000000E+00 0. -1.
         11    1    3    3    0    0  0.20461219338E+01  0.16946568905E+02 -0.97379541196E+01  0.19651986244E+02  0.51100000000E-03 0. -1.
        -11    1    3    3    0    0  0.31548847988E+01  0.18058748502E+02 -0.98860873792E+01  0.20828020056E+02  0.51100000000E-03 0.  1.
         12    1    3    3    0    0 -0.24664583406E+01  0.33466944102E+01 -0.38442138442E+01  0.56623105090E+01  0.00000000000E+00 0. -1.
</event>
<event>
 7    1  0.5664398E-009  0.4614232E+02  0.7816164E-02  0.1320468E+00
        -11   -1    0    0    0    0  0.00000000000E+00  0.00000000000E+00  0.45593999997E+02  0.45594000000E+02  0.51100000000E-03 0. -1.
         11   -1    0    0    0    0 -0.00000000000E+00 -0.00000000000E+00 -0.45593999997E+02  0.45594000000E+02  0.51100000000E-03 0.  1.
    9900012    2    1    2    0    0 -0.10548565976E+01 -0.11618554394E+02  0.43508734077E+02  0.46142317969E+02  0.10000001898E+02 0.  0.
        -12    1    1    2    0    0  0.10548565976E+01  0.11618554394E+02 -0.43508734077E+02  0.45045682031E+02  0.00000000000E+00 0.  1.
         11    1    3    3    0    0  0.66142189314E+00  0.76037545083E+00  0.34056536831E+00  0.10637832383E+01  0.51100000000E-03 0. -1.
        -11    1    3    3    0    0 -0.26107318797E+00 -0.29075292092E+01  0.56955925553E+01  0.64001296963E+01  0.51100000000E-03 0.  1.
         12    1    3    3    0    0 -0.14552053027E+01 -0.94714006358E+01  0.37472576153E+02  0.38678405035E+02  0.00000000000E+00 0. -1.
</event>
<event>
 7    1  0.5664398E-009  0.4614232E+02  0.7816164E-02  0.1320468E+00
        -11   -1    0    0    0    0  0.00000000000E+00  0.00000000000E+00  0.45593999997E+02  0.45594000000E+02  0.51100000000E-03 0.  1.
         11   -1    0    0    0    0 -0.00000000000E+00 -0.00000000000E+00 -0.45593999997E+02  0.45594000000E+02  0.51100000000E-03 0. -1.
    9900012    2    1    2    0    0 -0.27540460839E+02 -0.30822478969E+02 -0.17905616472E+02  0.46142319915E+02  0.10000019644E+02 0.  0.
         12    1    1    2    0    0  0.27540460839E+02  0.30822478969E+02  0.17905616472E+02  0.45045680085E+02  0.00000000000E+00 0. -1.
         11    1    3    3    0    0 -0.21097265820E+02 -0.22916634109E+02 -0.11122025106E+02  0.33075159662E+02  0.51100000000E-03 0. -1.
        -11    1    3    3    0    0 -0.64633337667E+01 -0.77769972164E+01 -0.50035903379E+01  0.11282388294E+02  0.51100000000E-03 0.  1.
         12    1    3    3    0    0  0.20138747397E-01 -0.12884764363E+00 -0.17800010288E+01  0.17847719594E+01  0.00000000000E+00 0. -1.
</event>
<event>
 7    1  0.5664398E-009  0.4614232E+02  0.7816164E-02  0.1320468E+00
        -11   -1    0    0    0    0  0.00000000000E+00  0.00000000000E+00  0.45593999997E+02  0.45594000000E+02  0.51100000000E-03 0.  1.
         11   -1    0    0    0    0 -0.00000000000E+00 -0.00000000000E+00 -0.45593999997E+02  0.45594000000E+02  0.51100000000E-03 0. -1.
    9900012    2    1    2    0    0  0.37399808620E+02  0.23237250566E+02 -0.95077929478E+01  0.46142316240E+02  0.99999861321E+01 0.  0.
        -12    1    1    2    0    0 -0.37399808620E+02 -0.23237250566E+02  0.95077929478E+01  0.45045683760E+02  0.00000000000E+00 0.  1.
         11    1    3    3    0    0  0.26123949152E+02  0.11881487201E+02 -0.71167645180E+01  0.29568205811E+02  0.51100000000E-03 0. -1.
        -11    1    3    3    0    0  0.75026908142E+01  0.72295497785E+01  0.17867583944E+00  0.10420589464E+02  0.51100000000E-03 0.  1.
        -12    1    3    3    0    0  0.37731686535E+01  0.41262135861E+01 -0.25697042692E+01  0.61535209659E+01  0.00000000000E+00 0.  1.
</event>
<event>
 7    1  0.5664398E-009  0.4614232E+02  0.7816164E-02  0.1320468E+00
        -11   -1    0    0    0    0  0.00000000000E+00  0.00000000000E+00  0.45593999997E+02  0.45594000000E+02  0.51100000000E-03 0. -1.
         11   -1    0    0    0    0 -0.00000000000E+00 -0.00000000000E+00 -0.45593999997E+02  0.45594000000E+02  0.51100000000E-03 0.  1.
    9900012    2    1    2    0    0  0.27125641354E+02  0.12088278142E+02 -0.33870143604E+02  0.46142317465E+02  0.99999973009E+01 0.  0.
         12    1    1    2    0    0 -0.27125641354E+02 -0.12088278142E+02  0.33870143604E+02  0.45045682535E+02  0.00000000000E+00 0. -1.
         11    1    3    3    0    0  0.80272289878E+01  0.63130654473E+01 -0.70371623747E+01  0.12402131071E+02  0.51100000000E-03 0. -1.
        -11    1    3    3    0    0  0.15479445066E+02  0.27733123337E+01 -0.21364313743E+02  0.26528067831E+02  0.51100000000E-03 0.  1.
        -12    1    3    3    0    0  0.36189673002E+01  0.30019003605E+01 -0.54686674860E+01  0.72121185630E+01  0.00000000000E+00 0.  1.
</event>
<event>
 7    1  0.5664398E-009  0.4614232E+02  0.7816164E-02  0.1320468E+00
        -11   -1    0    0    0    0  0.00000000000E+00  0.00000000000E+00  0.45593999997E+02  0.45594000000E+02  0.51100000000E-03 0. -1.
         11   -1    0    0    0    0 -0.00000000000E+00 -0.00000000000E+00 -0.45593999997E+02  0.45594000000E+02  0.51100000000E-03 0.  1.
    9900012    2    1    2    0    0  0.10270964394E+02 -0.41786354595E+02  0.13323714188E+02  0.46142317636E+02  0.99999988576E+01 0.  0.
        -12    1    1    2    0    0 -0.10270964394E+02  0.41786354595E+02 -0.13323714188E+02  0.45045682364E+02  0.00000000000E+00 0.  1.
         11    1    3    3    0    0  0.13997486026E+01 -0.76861161991E+01  0.35372391086E+01  0.85759978515E+01  0.51100000000E-03 0. -1.
        -11    1    3    3    0    0  0.93019224269E+01 -0.30956382569E+02  0.64484000209E+01  0.32960662095E+02  0.51100000000E-03 0.  1.
        -12    1    3    3    0    0 -0.43070663538E+00 -0.31438558262E+01  0.33380750581E+01  0.46056576898E+01  0.00000000000E+00 0.  1.
</event>
<event>
 7    1  0.5664398E-009  0.4614232E+02  0.7816164E-02  0.1320468E+00
        -11   -1    0    0    0    0  0.00000000000E+00  0.00000000000E+00  0.45593999997E+02  0.45594000000E+02  0.51100000000E-03 0. -1.
         11   -1    0    0    0    0 -0.00000000000E+00 -0.00000000000E+00 -0.45593999997E+02  0.45594000000E+02  0.51100000000E-03 0.  1.
    9900012    2    1    2    0    0  0.35524639464E+02  0.19242986068E+02 -0.19920365449E+02  0.46142317837E+02  0.10000000696E+02 0.  0.
         12    1    1    2    0    0 -0.35524639464E+02 -0.19242986068E+02  0.19920365449E+02  0.45045682163E+02  0.00000000000E+00 0. -1.
         11    1    3    3    0    0  0.92785289367E+01  0.57642448098E+01 -0.68782883890E+01  0.12908465009E+02  0.51100000000E-03 0.  1.
        -11    1    3    3    0    0  0.24485341985E+02  0.14355359570E+02 -0.13112374951E+02  0.31265679228E+02  0.51100000000E-03 0. -1.
         12    1    3    3    0    0  0.17607685428E+01 -0.87661831253E+00  0.70297890978E-01  0.19681736003E+01  0.00000000000E+00 0. -1.
</event>
<event>
 7    1  0.5664398E-009  0.4614232E+02  0.7816164E-02  0.1320468E+00
        -11   -1    0    0    0    0  0.00000000000E+00  0.00000000000E+00  0.45593999997E+02  0.45594000000E+02  0.51100000000E-03 0.  1.
         11   -1    0    0    0    0 -0.00000000000E+00 -0.00000000000E+00 -0.45593999997E+02  0.45594000000E+02  0.51100000000E-03 0. -1.
    9900012    2    1    2    0    0 -0.25515275337E+02 -0.35593525373E+02 -0.10544445338E+02  0.46142315950E+02  0.99999834893E+01 0.  0.
         12    1    1    2    0    0  0.25515275337E+02  0.35593525373E+02  0.10544445338E+02  0.45045684050E+02  0.00000000000E+00 0. -1.
         11    1    3    3    0    0  0.79413764985E-01  0.53056088901E+00 -0.29262430479E+00  0.61108972164E+00  0.51100000000E-03 0. -1.
        -11    1    3    3    0    0 -0.99213973450E+01 -0.12502087339E+02 -0.47630671959E+01  0.16656023610E+02  0.51100000000E-03 0.  1.
         12    1    3    3    0    0 -0.15673291757E+02 -0.23621998922E+02 -0.54887538372E+01  0.28875202619E+02  0.00000000000E+00 0. -1.
</event>
<event>
 7    1  0.5664398E-009  0.4614232E+02  0.7816164E-02  0.1320468E+00
        -11   -1    0    0    0    0  0.00000000000E+00  0.00000000000E+00  0.45593999997E+02  0.45594000000E+02  0.51100000000E-03 0.  1.
         11   -1    0    0    0    0 -0.00000000000E+00 -0.00000000000E+00 -0.45593999997E+02  0.45594000000E+02  0.51100000000E-03 0. -1.
    9900012    2    1    2    0    0  0.29058615148E+02  0.34095116700E+02 -0.47152279273E+01  0.46142317949E+02  0.10000001710E+02 0.  0.
        -12    1    1    2    0    0 -0.29058615148E+02 -0.34095116700E+02  0.47152279273E+01  0.45045682051E+02  0.00000000000E+00 0.  1.
         11    1    3    3    0    0  0.42065368688E+01  0.42102760394E+01 -0.36658674929E+01  0.69899900925E+01  0.51100000000E-03 0. -1.
        -11    1    3    3    0    0  0.18714057446E+01  0.45740939675E+01 -0.41529245431E+00  0.49595325554E+01  0.51100000000E-03 0.  1.
         12    1    3    3    0    0  0.22980672534E+02  0.25310746693E+02 -0.63406798005E+00  0.34192795301E+02  0.00000000000E+00 0. -1.
</event>
<event>
 7    1  0.5664398E-009  0.4614232E+02  0.7816164E-02  0.1320468E+00
        -11   -1    0    0    0    0  0.00000000000E+00  0.00000000000E+00  0.45593999997E+02  0.45594000000E+02  0.51100000000E-03 0. -1.
         11   -1    0    0    0    0 -0.00000000000E+00 -0.00000000000E+00 -0.45593999997E+02  0.45594000000E+02  0.51100000000E-03 0.  1.
    9900012    2    1    2    0    0 -0.36420970959E+02 -0.18290127650E+02  0.19185868997E+02  0.46142318029E+02  0.10000002441E+02 0.  0.
        -12    1    1    2    0    0  0.36420970959E+02  0.18290127650E+02 -0.19185868997E+02  0.45045681971E+02  0.00000000000E+00 0.  1.
         11    1    3    3    0    0 -0.20659787330E+02 -0.12775558257E+02  0.10952708925E+02  0.26645891510E+02  0.51100000000E-03 0. -1.
        -11    1    3    3    0    0 -0.15139949622E+01 -0.25672601994E+01  0.50670788340E+00  0.30232034032E+01  0.51100000000E-03 0.  1.
         12    1    3    3    0    0 -0.14247188667E+02 -0.29473091940E+01  0.77264521892E+01  0.16473223116E+02  0.00000000000E+00 0. -1.
</event>
<event>
 7    1  0.5664398E-009  0.4614232E+02  0.7816164E-02  0.1320468E+00
        -11   -1    0    0    0    0  0.00000000000E+00  0.00000000000E+00  0.45593999997E+02  0.45594000000E+02  0.51100000000E-03 0. -1.
         11   -1    0    0    0    0 -0.00000000000E+00 -0.00000000000E+00 -0.45593999997E+02  0.45594000000E+02  0.51100000000E-03 0.  1.
    9900012    2    1    2    0    0  0.61169907435E+01 -0.78888586622E+00  0.44621447167E+02  0.46142318032E+02  0.10000002474E+02 0.  0.
        -12    1    1    2    0    0 -0.61169907435E+01  0.78888586622E+00 -0.44621447167E+02  0.45045681968E+02  0.00000000000E+00 0.  1.
         11    1    3    3    0    0  0.11174663354E+01  0.11314056019E+00  0.45558772468E+01  0.46922861748E+01  0.51100000000E-03 0. -1.
        -11    1    3    3    0    0  0.17494215947E+01 -0.34259345497E+01  0.59370398311E+01  0.70743159155E+01  0.51100000000E-03 0.  1.
         12    1    3    3    0    0  0.32501028134E+01  0.25239081233E+01  0.34128530089E+02  0.34375715942E+02  0.00000000000E+00 0. -1.
</event>
<event>
 7    1  0.5664398E-009  0.4614232E+02  0.7816164E-02  0.1320468E+00
        -11   -1    0    0    0    0  0.00000000000E+00  0.00000000000E+00  0.45593999997E+02  0.45594000000E+02  0.51100000000E-03 0. -1.
         11   -1    0    0    0    0 -0.00000000000E+00 -0.00000000000E+00 -0.45593999997E+02  0.45594000000E+02  0.51100000000E-03 0.  1.
    9900012    2    1    2    0    0  0.36271364087E+02  0.24104881217E+02  0.11508965489E+02  0.46142318321E+02  0.10000005110E+02 0.  0.
         12    1    1    2    0    0 -0.36271364087E+02 -0.24104881217E+02 -0.11508965489E+02  0.45045681679E+02  0.00000000000E+00 0. -1.
         11    1    3    3    0    0  0.56866620304E+01  0.75134135956E+01  0.51255964801E+01  0.10726660638E+02  0.51100000000E-03 0. -1.
        -11    1    3    3    0    0  0.16022874610E+02  0.94215334422E+01  0.28592829028E+01  0.18806203821E+02  0.51100000000E-03 0.  1.
         12    1    3    3    0    0  0.14561827447E+02  0.71699341797E+01  0.35240861062E+01  0.16609453862E+02  0.00000000000E+00 0. -1.
</event>
<event>
 7    1  0.5664398E-009  0.4614232E+02  0.7816164E-02  0.1320468E+00
        -11   -1    0    0    0    0  0.00000000000E+00  0.00000000000E+00  0.45593999997E+02  0.45594000000E+02  0.51100000000E-03 0. -1.
         11   -1    0    0    0    0 -0.00000000000E+00 -0.00000000000E+00 -0.45593999997E+02  0.45594000000E+02  0.51100000000E-03 0.  1.
    9900012    2    1    2    0    0  0.11966368581E+02  0.15869775011E+02  0.40423629510E+02  0.46142316981E+02  0.99999928844E+01 0.  0.
        -12    1    1    2    0    0 -0.11966368581E+02 -0.15869775011E+02 -0.40423629510E+02  0.45045683019E+02  0.00000000000E+00 0.  1.
         11    1    3    3    0    0  0.67359660113E+01  0.39973619426E+01  0.92806880962E+01  0.12144270765E+02  0.51100000000E-03 0. -1.
        -11    1    3    3    0    0  0.99380732525E-01  0.18443410218E+01  0.18513684766E+01  0.26151550302E+01  0.51100000000E-03 0.  1.
         12    1    3    3    0    0  0.51310218377E+01  0.10028072047E+02  0.29291572937E+02  0.31382891186E+02  0.00000000000E+00 0. -1.
</event>
<event>
 7    1  0.5664398E-009  0.4614232E+02  0.7816164E-02  0.1320468E+00
        -11   -1    0    0    0    0  0.00000000000E+00  0.00000000000E+00  0.45593999997E+02  0.45594000000E+02  0.51100000000E-03 0. -1.
         11   -1    0    0    0    0 -0.00000000000E+00 -0.00000000000E+00 -0.45593999997E+02  0.45594000000E+02  0.51100000000E-03 0.  1.
    9900012    2    1    2    0    0 -0.29459542032E+02  0.10058292910E+02  0.32558863192E+02  0.46142318239E+02  0.10000004355E+02 0.  0.
        -12    1    1    2    0    0  0.29459542032E+02 -0.10058292910E+02 -0.32558863192E+02  0.45045681761E+02  0.00000000000E+00 0.  1.
         11    1    3    3    0    0 -0.20564861789E+02  0.58401854507E+01  0.21442222599E+02  0.30278543835E+02  0.51100000000E-03 0. -1.
        -11    1    3    3    0    0 -0.41043058663E+01  0.18424325703E+01  0.12960404213E+01  0.46818378288E+01  0.51100000000E-03 0.  1.
        -12    1    3    3    0    0 -0.47903743767E+01  0.23756748892E+01  0.98206001714E+01  0.11181936575E+02  0.00000000000E+00 0.  1.
</event>
<event>
 7    1  0.5664398E-009  0.4614232E+02  0.7816164E-02  0.1320468E+00
        -11   -1    0    0    0    0  0.00000000000E+00  0.00000000000E+00  0.45593999997E+02  0.45594000000E+02  0.51100000000E-03 0. -1.
         11   -1    0    0    0    0 -0.00000000000E+00 -0.00000000000E+00 -0.45593999997E+02  0.45594000000E+02  0.51100000000E-03 0.  1.
    9900012    2    1    2    0    0  0.31150836386E+02 -0.31751973254E+02  0.71099306712E+01  0.46142317330E+02  0.99999960691E+01 0.  0.
        -12    1    1    2    0    0 -0.31150836386E+02  0.31751973254E+02 -0.71099306712E+01  0.45045682670E+02  0.00000000000E+00 0.  1.
         11    1    3    3    0    0  0.23832154186E+02 -0.20999502681E+02  0.76811759550E+01  0.32679521880E+02  0.51100000000E-03 0. -1.
        -11    1    3    3    0    0  0.16433061170E+01 -0.30641984793E+01  0.13239358726E+01  0.37205609484E+01  0.51100000000E-03 0.  1.
         12    1    3    3    0    0  0.56753760823E+01 -0.76882720940E+01 -0.18951811564E+01  0.97422345015E+01  0.00000000000E+00 0. -1.
</event>
<event>
 7    1  0.5664398E-009  0.4614232E+02  0.7816164E-02  0.1320468E+00
        -11   -1    0    0    0    0  0.00000000000E+00  0.00000000000E+00  0.45593999997E+02  0.45594000000E+02  0.51100000000E-03 0. -1.
         11   -1    0    0    0    0 -0.00000000000E+00 -0.00000000000E+00 -0.45593999997E+02  0.45594000000E+02  0.51100000000E-03 0.  1.
    9900012    2    1    2    0    0  0.18525537181E+02  0.98361548874E+01 -0.39864370650E+02  0.46142317431E+02  0.99999969874E+01 0.  0.
         12    1    1    2    0    0 -0.18525537181E+02 -0.98361548874E+01  0.39864370650E+02  0.45045682569E+02  0.00000000000E+00 0. -1.
         11    1    3    3    0    0  0.11373807879E+01  0.46702127096E+01 -0.10232351721E+02  0.11305111402E+02  0.51100000000E-03 0. -1.
        -11    1    3    3    0    0  0.59814108752E+01  0.30207036916E+01 -0.11434275411E+02  0.13253097045E+02  0.51100000000E-03 0.  1.
        -12    1    3    3    0    0  0.11406745518E+02  0.21452384862E+01 -0.18197743518E+02  0.21584108984E+02  0.00000000000E+00 0.  1.
</event>
<event>
 7    1  0.5664398E-009  0.4614232E+02  0.7816164E-02  0.1320468E+00
        -11   -1    0    0    0    0  0.00000000000E+00  0.00000000000E+00  0.45593999997E+02  0.45594000000E+02  0.51100000000E-03 0.  1.
         11   -1    0    0    0    0 -0.00000000000E+00 -0.00000000000E+00 -0.45593999997E+02  0.45594000000E+02  0.51100000000E-03 0. -1.
    9900012    2    1    2    0    0  0.27025420058E+00  0.43957293064E+02  0.98385393266E+01  0.46142317555E+02  0.99999981239E+01 0.  0.
         12    1    1    2    0    0 -0.27025420058E+00 -0.43957293064E+02 -0.98385393266E+01  0.45045682445E+02  0.00000000000E+00 0. -1.
         11    1    3    3    0    0  0.18131444616E+01  0.10844161053E+02  0.78323612677E+00  0.11022557819E+02  0.51100000000E-03 0. -1.
        -11    1    3    3    0    0 -0.20286488736E+01  0.27106685815E+02  0.10110726482E+02  0.29001976180E+02  0.51100000000E-03 0.  1.
        -12    1    3    3    0    0  0.48575861252E+00  0.60064461959E+01 -0.10554232820E+01  0.61177835560E+01  0.00000000000E+00 0.  1.
</event>
<event>
 7    1  0.5664398E-009  0.4614232E+02  0.7816164E-02  0.1320468E+00
        -11   -1    0    0    0    0  0.00000000000E+00  0.00000000000E+00  0.45593999997E+02  0.45594000000E+02  0.51100000000E-03 0. -1.
         11   -1    0    0    0    0 -0.00000000000E+00 -0.00000000000E+00 -0.45593999997E+02  0.45594000000E+02  0.51100000000E-03 0.  1.
    9900012    2    1    2    0    0  0.55241753748E+01  0.36958948948E+02  0.25152197809E+02  0.46142317903E+02  0.10000001298E+02 0.  0.
        -12    1    1    2    0    0 -0.55241753748E+01 -0.36958948948E+02 -0.25152197809E+02  0.45045682097E+02  0.00000000000E+00 0.  1.
         11    1    3    3    0    0  0.98242223121E+00  0.41790751166E+01  0.38829457982E+01  0.57885309539E+01  0.51100000000E-03 0.  1.
        -11    1    3    3    0    0 -0.25558548956E+01  0.97567372670E+01  0.47970690809E+01  0.11168625178E+02  0.51100000000E-03 0. -1.
         12    1    3    3    0    0  0.70976080391E+01  0.23023136565E+02  0.16472182930E+02  0.29185161771E+02  0.00000000000E+00 0. -1.
</event>
<event>
 7    1  0.5664398E-009  0.4614232E+02  0.7816164E-02  0.1320468E+00
        -11   -1    0    0    0    0  0.00000000000E+00  0.00000000000E+00  0.45593999997E+02  0.45594000000E+02  0.51100000000E-03 0. -1.
         11   -1    0    0    0    0 -0.00000000000E+00 -0.00000000000E+00 -0.45593999997E+02  0.45594000000E+02  0.51100000000E-03 0.  1.
    9900012    2    1    2    0    0  0.65614526685E+01  0.27875987486E+02  0.34770535722E+02  0.46142317701E+02  0.99999994500E+01 0.  0.
        -12    1    1    2    0    0 -0.65614526685E+01 -0.27875987486E+02 -0.34770535722E+02  0.45045682299E+02  0.00000000000E+00 0.  1.
         11    1    3    3    0    0  0.31892075384E+01  0.12209728663E+02  0.18999809837E+02  0.22808798584E+02  0.51100000000E-03 0. -1.
        -11    1    3    3    0    0  0.29302950575E+01  0.83421410092E+01  0.12473182099E+02  0.15289153596E+02  0.51100000000E-03 0.  1.
        -12    1    3    3    0    0  0.44195007252E+00  0.73241178137E+01  0.32975437857E+01  0.80443655209E+01  0.00000000000E+00 0.  1.
</event>
<event>
 7    1  0.5664398E-009  0.4614232E+02  0.7816164E-02  0.1320468E+00
        -11   -1    0    0    0    0  0.00000000000E+00  0.00000000000E+00  0.45593999997E+02  0.45594000000E+02  0.51100000000E-03 0. -1.
         11   -1    0    0    0    0 -0.00000000000E+00 -0.00000000000E+00 -0.45593999997E+02  0.45594000000E+02  0.51100000000E-03 0.  1.
    9900012    2    1    2    0    0 -0.36409255226E+02 -0.22659908405E+02  0.13784350737E+02  0.46142316076E+02  0.99999846296E+01 0.  0.
        -12    1    1    2    0    0  0.36409255226E+02  0.22659908405E+02 -0.13784350737E+02  0.45045683924E+02  0.00000000000E+00 0.  1.
         11    1    3    3    0    0 -0.14358357121E+02 -0.57482148850E+01  0.86161145427E+01  0.17704288285E+02  0.51100000000E-03 0. -1.
        -11    1    3    3    0    0 -0.91787221492E+01 -0.66894384230E+01  0.36541377070E+01  0.11931062373E+02  0.51100000000E-03 0.  1.
         12    1    3    3    0    0 -0.12872175955E+02 -0.10222255097E+02  0.15140984869E+01  0.16506965418E+02  0.00000000000E+00 0. -1.
</event>
<event>
 7    1  0.5664398E-009  0.4614232E+02  0.7816164E-02  0.1320468E+00
        -11   -1    0    0    0    0  0.00000000000E+00  0.00000000000E+00  0.45593999997E+02  0.45594000000E+02  0.51100000000E-03 0.  1.
         11   -1    0    0    0    0 -0.00000000000E+00 -0.00000000000E+00 -0.45593999997E+02  0.45594000000E+02  0.51100000000E-03 0. -1.
    9900012    2    1    2    0    0  0.36135315002E+02 -0.10993552787E+02  0.24545760185E+02  0.46142317230E+02  0.99999951561E+01 0.  0.
        -12    1    1    2    0    0 -0.36135315002E+02  0.10993552787E+02 -0.24545760185E+02  0.45045682770E+02  0.00000000000E+00 0.  1.
         11    1    3    3    0    0  0.38624980473E+01 -0.24457164748E+01  0.55876154638E+01  0.72195475670E+01  0.51100000000E-03 0. -1.
        -11    1    3    3    0    0  0.31894193451E+01  0.77668604859E+00  0.75632952982E+00  0.33686305223E+01  0.51100000000E-03 0.  1.
         12    1    3    3    0    0  0.29083397609E+02 -0.93245223610E+01  0.18201815192E+02  0.35554139141E+02  0.00000000000E+00 0. -1.
</event>
<event>
 7    1  0.5664398E-009  0.4614232E+02  0.7816164E-02  0.1320468E+00
        -11   -1    0    0    0    0  0.00000000000E+00  0.00000000000E+00  0.45593999997E+02  0.45594000000E+02  0.51100000000E-03 0. -1.
         11   -1    0    0    0    0 -0.00000000000E+00 -0.00000000000E+00 -0.45593999997E+02  0.45594000000E+02  0.51100000000E-03 0.  1.
    9900012    2    1    2    0    0  0.17612607834E+02  0.16119844679E+02 -0.38197644838E+02  0.46142318538E+02  0.10000007082E+02 0.  0.
         12    1    1    2    0    0 -0.17612607834E+02 -0.16119844679E+02  0.38197644838E+02  0.45045681462E+02  0.00000000000E+00 0. -1.
         11    1    3    3    0    0  0.79264763631E+01  0.32171980896E+01 -0.16502725506E+02  0.18588150539E+02  0.51100000000E-03 0. -1.
        -11    1    3    3    0    0  0.91888671074E+01  0.87595212713E+01 -0.14841816322E+02  0.19530591481E+02  0.51100000000E-03 0.  1.
        -12    1    3    3    0    0  0.49726436351E+00  0.41431253186E+01 -0.68531030103E+01  0.80235765169E+01  0.00000000000E+00 0.  1.
</event>
<event>
 7    1  0.5664398E-009  0.4614232E+02  0.7816164E-02  0.1320468E+00
        -11   -1    0    0    0    0  0.00000000000E+00  0.00000000000E+00  0.45593999997E+02  0.45594000000E+02  0.51100000000E-03 0. -1.
         11   -1    0    0    0    0 -0.00000000000E+00 -0.00000000000E+00 -0.45593999997E+02  0.45594000000E+02  0.51100000000E-03 0.  1.
    9900012    2    1    2    0    0 -0.71447454844E+01 -0.32612053983E+02  0.30241033719E+02  0.46142316817E+02  0.99999913924E+01 0.  0.
        -12    1    1    2    0    0  0.71447454844E+01  0.32612053983E+02 -0.30241033719E+02  0.45045683183E+02  0.00000000000E+00 0.  1.
         11    1    3    3    0    0 -0.61734679510E+01 -0.14709993576E+02  0.13095231580E+02  0.20639300084E+02  0.51100000000E-03 0. -1.
        -11    1    3    3    0    0 -0.30458874532E+01 -0.91922525329E+01  0.10933911170E+02  0.14605661599E+02  0.51100000000E-03 0.  1.
        -12    1    3    3    0    0  0.20746099198E+01 -0.87098078738E+01  0.62118909691E+01  0.10897355135E+02  0.00000000000E+00 0.  1.
</event>
<event>
 7    1  0.5664398E-009  0.4614232E+02  0.7816164E-02  0.1320468E+00
        -11   -1    0    0    0    0  0.00000000000E+00  0.00000000000E+00  0.45593999997E+02  0.45594000000E+02  0.51100000000E-03 0.  1.
         11   -1    0    0    0    0 -0.00000000000E+00 -0.00000000000E+00 -0.45593999997E+02  0.45594000000E+02  0.51100000000E-03 0. -1.
    9900012    2    1    2    0    0  0.34641769998E+02 -0.23891760562E+02 -0.16070001608E+02  0.46142318709E+02  0.10000008640E+02 0.  0.
         12    1    1    2    0    0 -0.34641769998E+02  0.23891760562E+02  0.16070001608E+02  0.45045681291E+02  0.00000000000E+00 0. -1.
         11    1    3    3    0    0 -0.25016303090E-02 -0.56431424134E+00  0.54605282650E+00  0.78525841071E+00  0.51100000000E-03 0. -1.
        -11    1    3    3    0    0  0.60244655245E+01 -0.38566175533E+01 -0.48994777797E+00  0.71699186114E+01  0.51100000000E-03 0.  1.
         12    1    3    3    0    0  0.28619806103E+02 -0.19470828768E+02 -0.16126106656E+02  0.38187141686E+02  0.00000000000E+00 0. -1.
</event>
<event>
 7    1  0.5664398E-009  0.4614232E+02  0.7816164E-02  0.1320468E+00
        -11   -1    0    0    0    0  0.00000000000E+00  0.00000000000E+00  0.45593999997E+02  0.45594000000E+02  0.51100000000E-03 0. -1.
         11   -1    0    0    0    0 -0.00000000000E+00 -0.00000000000E+00 -0.45593999997E+02  0.45594000000E+02  0.51100000000E-03 0.  1.
    9900012    2    1    2    0    0  0.51486956588E+01  0.38278413302E+02 -0.23181186763E+02  0.46142318613E+02  0.10000007766E+02 0.  0.
         12    1    1    2    0    0 -0.51486956588E+01 -0.38278413302E+02  0.23181186763E+02  0.45045681387E+02  0.00000000000E+00 0. -1.
         11    1    3    3    0    0 -0.75109594609E-01  0.92516105118E+00 -0.22487406408E+01  0.24327760178E+01  0.51100000000E-03 0. -1.
        -11    1    3    3    0    0  0.13143824520E+01  0.29701974232E+02 -0.17137601706E+02  0.34316647083E+02  0.51100000000E-03 0.  1.
        -12    1    3    3    0    0  0.39094228014E+01  0.76512780191E+01 -0.37948444160E+01  0.93928955124E+01  0.00000000000E+00 0.  1.
</event>
<event>
 7    1  0.5664398E-009  0.4614232E+02  0.7816164E-02  0.1320468E+00
        -11   -1    0    0    0    0  0.00000000000E+00  0.00000000000E+00  0.45593999997E+02  0.45594000000E+02  0.51100000000E-03 0. -1.
         11   -1    0    0    0    0 -0.00000000000E+00 -0.00000000000E+00 -0.45593999997E+02  0.45594000000E+02  0.51100000000E-03 0.  1.
    9900012    2    1    2    0    0 -0.11875507077E+02  0.40076498126E+02  0.16791665817E+02  0.46142318616E+02  0.10000007797E+02 0.  0.
        -12    1    1    2    0    0  0.11875507077E+02 -0.40076498126E+02 -0.16791665817E+02  0.45045681384E+02  0.00000000000E+00 0.  1.
         11    1    3    3    0    0 -0.63828328663E+01  0.14195939716E+02  0.91284248476E+01  0.18044206835E+02  0.51100000000E-03 0. -1.
        -11    1    3    3    0    0  0.33946412034E+00  0.89045444388E+01  0.10673608379E+01  0.89747092973E+01  0.51100000000E-03 0.  1.
         12    1    3    3    0    0 -0.58321383306E+01  0.16976013971E+02  0.65958801319E+01  0.19123402484E+02  0.00000000000E+00 0. -1.
</event>
<event>
 7    1  0.5664398E-009  0.4614232E+02  0.7816164E-02  0.1320468E+00
        -11   -1    0    0    0    0  0.00000000000E+00  0.00000000000E+00  0.45593999997E+02  0.45594000000E+02  0.51100000000E-03 0. -1.
         11   -1    0    0    0    0 -0.00000000000E+00 -0.00000000000E+00 -0.45593999997E+02  0.45594000000E+02  0.51100000000E-03 0.  1.
    9900012    2    1    2    0    0  0.42962703799E+01  0.22856554593E+02  0.38577629605E+02  0.46142317266E+02  0.99999954858E+01 0.  0.
        -12    1    1    2    0    0 -0.42962703799E+01 -0.22856554593E+02 -0.38577629605E+02  0.45045682734E+02  0.00000000000E+00 0.  1.
         11    1    3    3    0    0 -0.48908505939E+00  0.98262359712E+00  0.11525242548E+01  0.15915607899E+01  0.51100000000E-03 0.  1.
        -11    1    3    3    0    0  0.44063541304E+01  0.15337116416E+02  0.32976897985E+02  0.36634940940E+02  0.51100000000E-03 0. -1.
         12    1    3    3    0    0  0.37900130892E+00  0.65368145798E+01  0.44482073647E+01  0.79158155361E+01  0.00000000000E+00 0. -1.
</event>
<event>
 7    1  0.5664398E-009  0.4614232E+02  0.7816164E-02  0.1320468E+00
        -11   -1    0    0    0    0  0.00000000000E+00  0.00000000000E+00  0.45593999997E+02  0.45594000000E+02  0.51100000000E-03 0. -1.
         11   -1    0    0    0    0 -0.00000000000E+00 -0.00000000000E+00 -0.45593999997E+02  0.45594000000E+02  0.51100000000E-03 0.  1.
    9900012    2    1    2    0    0  0.27817154941E+01 -0.10493468642E+02 -0.43717989085E+02  0.46142318799E+02  0.10000009466E+02 0.  0.
         12    1    1    2    0    0 -0.27817154941E+01  0.10493468642E+02  0.43717989085E+02  0.45045681201E+02  0.00000000000E+00 0. -1.
         11    1    3    3    0    0 -0.10981648512E+01  0.32206038893E+00 -0.20958785178E+01  0.23879690026E+01  0.51100000000E-03 0. -1.
        -11    1    3    3    0    0 -0.31877941429E+00 -0.86909849718E+01 -0.29335082586E+02  0.30597089905E+02  0.51100000000E-03 0.  1.
         12    1    3    3    0    0  0.41986597597E+01 -0.21245440590E+01 -0.12287027981E+02  0.13157259891E+02  0.00000000000E+00 0. -1.
</event>
<event>
 7    1  0.5664398E-009  0.4614232E+02  0.7816164E-02  0.1320468E+00
        -11   -1    0    0    0    0  0.00000000000E+00  0.00000000000E+00  0.45593999997E+02  0.45594000000E+02  0.51100000000E-03 0. -1.
         11   -1    0    0    0    0 -0.00000000000E+00 -0.00000000000E+00 -0.45593999997E+02  0.45594000000E+02  0.51100000000E-03 0.  1.
    9900012    2    1    2    0    0 -0.96931250852E+01 -0.42832198787E+02 -0.10027937496E+02  0.46142318106E+02  0.10000003145E+02 0.  0.
         12    1    1    2    0    0  0.96931250852E+01  0.42832198787E+02  0.10027937496E+02  0.45045681894E+02  0.00000000000E+00 0. -1.
         11    1    3    3    0    0  0.12688645008E+01 -0.55756489139E+01 -0.12357485051E+01  0.58502096169E+01  0.51100000000E-03 0. -1.
        -11    1    3    3    0    0 -0.41385369687E+01 -0.22452052272E+02 -0.70707452204E+01  0.23900158529E+02  0.51100000000E-03 0.  1.
         12    1    3    3    0    0 -0.68234526173E+01 -0.14804497601E+02 -0.17214437710E+01  0.16391949960E+02  0.00000000000E+00 0. -1.
</event>
<event>
 7    1  0.5664398E-009  0.4614232E+02  0.7816164E-02  0.1320468E+00
        -11   -1    0    0    0    0  0.00000000000E+00  0.00000000000E+00  0.45593999997E+02  0.45594000000E+02  0.51100000000E-03 0. -1.
         11   -1    0    0    0    0 -0.00000000000E+00 -0.00000000000E+00 -0.45593999997E+02  0.45594000000E+02  0.51100000000E-03 0.  1.
    9900012    2    1    2    0    0  0.28570848535E+02 -0.96281570673E+01 -0.33468173599E+02  0.46142318314E+02  0.10000005038E+02 0.  0.
         12    1    1    2    0    0 -0.28570848535E+02  0.96281570673E+01  0.33468173599E+02  0.45045681686E+02  0.00000000000E+00 0. -1.
         11    1    3    3    0    0  0.23443817898E+01  0.19650769816E-01 -0.51334779056E+01  0.56435013775E+01  0.51100000000E-03 0. -1.
        -11    1    3    3    0    0  0.67361029522E+01  0.62540687796E+00 -0.50446439779E+01  0.84388772873E+01  0.51100000000E-03 0.  1.
        -12    1    3    3    0    0  0.19490363793E+02 -0.10273214715E+02 -0.23290051716E+02  0.32059939649E+02  0.00000000000E+00 0.  1.
</event>
<event>
 7    1  0.5664398E-009  0.4614232E+02  0.7816164E-02  0.1320468E+00
        -11   -1    0    0    0    0  0.00000000000E+00  0.00000000000E+00  0.45593999997E+02  0.45594000000E+02  0.51100000000E-03 0. -1.
         11   -1    0    0    0    0 -0.00000000000E+00 -0.00000000000E+00 -0.45593999997E+02  0.45594000000E+02  0.51100000000E-03 0.  1.
    9900012    2    1    2    0    0 -0.30544203757E+02  0.11555344866E+02 -0.31026422051E+02  0.46142320480E+02  0.10000024793E+02 0.  0.
         12    1    1    2    0    0  0.30544203757E+02 -0.11555344866E+02  0.31026422051E+02  0.45045679520E+02  0.00000000000E+00 0. -1.
         11    1    3    3    0    0 -0.31298535452E+01  0.17480976358E+01 -0.75536653311E+01  0.83612013942E+01  0.51100000000E-03 0.  1.
        -11    1    3    3    0    0 -0.13872330926E+02  0.71108296019E+01 -0.14670193516E+02  0.21406074862E+02  0.51100000000E-03 0. -1.
         12    1    3    3    0    0 -0.13542019286E+02  0.26964176282E+01 -0.88025632037E+01  0.16375044223E+02  0.00000000000E+00 0. -1.
</event>
<event>
 7    1  0.5664398E-009  0.4614232E+02  0.7816164E-02  0.1320468E+00
        -11   -1    0    0    0    0  0.00000000000E+00  0.00000000000E+00  0.45593999997E+02  0.45594000000E+02  0.51100000000E-03 0. -1.
         11   -1    0    0    0    0 -0.00000000000E+00 -0.00000000000E+00 -0.45593999997E+02  0.45594000000E+02  0.51100000000E-03 0.  1.
    9900012    2    1    2    0    0 -0.16159991469E+02  0.33551661614E+01  0.41913136459E+02  0.46142317942E+02  0.10000001653E+02 0.  0.
        -12    1    1    2    0    0  0.16159991469E+02 -0.33551661614E+01 -0.41913136459E+02  0.45045682058E+02  0.00000000000E+00 0.  1.
         11    1    3    3    0    0 -0.24654398336E+01 -0.12218348089E+01  0.64547931213E+01  0.70168104131E+01  0.51100000000E-03 0. -1.
        -11    1    3    3    0    0 -0.24265889305E+01  0.29688540855E+01  0.17102997270E+02  0.17527548154E+02  0.51100000000E-03 0.  1.
        -12    1    3    3    0    0 -0.11267962705E+02  0.16081468848E+01  0.18355346068E+02  0.21597959375E+02  0.00000000000E+00 0.  1.
</event>
<event>
 7    1  0.8765223E-009  0.4614232E+02  0.7816164E-02  0.1320468E+00
        -11   -1    0    0    0    0  0.00000000000E+00  0.00000000000E+00  0.45593999997E+02  0.45594000000E+02  0.51100000000E-03 0. -1.
         11   -1    0    0    0    0 -0.00000000000E+00 -0.00000000000E+00 -0.45593999997E+02  0.45594000000E+02  0.51100000000E-03 0.  1.
    9900012    2    1    2    0    0 -0.27275849211E+02  0.24663589131E+02 -0.26016319251E+02  0.46142318227E+02  0.10000004249E+02 0.  0.
         12    1    1    2    0    0  0.27275849211E+02 -0.24663589131E+02  0.26016319251E+02  0.45045681773E+02  0.00000000000E+00 0. -1.
         11    1    3    3    0    0 -0.33430752571E+01  0.44834175660E+01 -0.11883624515E+01  0.57174636705E+01  0.51100000000E-03 0. -1.
        -11    1    3    3    0    0 -0.81676420556E+01  0.64972356280E+01 -0.47696272792E+01  0.11474920139E+02  0.51100000000E-03 0.  1.
        -12    1    3    3    0    0 -0.15765131899E+02  0.13682935937E+02 -0.20058329521E+02  0.28949934418E+02  0.00000000000E+00 0.  1.
</event>
<event>
 7    1  0.5664398E-009  0.4614232E+02  0.7816164E-02  0.1320468E+00
        -11   -1    0    0    0    0  0.00000000000E+00  0.00000000000E+00  0.45593999997E+02  0.45594000000E+02  0.51100000000E-03 0. -1.
         11   -1    0    0    0    0 -0.00000000000E+00 -0.00000000000E+00 -0.45593999997E+02  0.45594000000E+02  0.51100000000E-03 0.  1.
    9900012    2    1    2    0    0 -0.26046877571E+02 -0.52293912206E+01  0.36377561285E+02  0.46142319532E+02  0.10000016148E+02 0.  0.
        -12    1    1    2    0    0  0.26046877571E+02  0.52293912206E+01 -0.36377561285E+02  0.45045680468E+02  0.00000000000E+00 0.  1.
         11    1    3    3    0    0 -0.49902856914E+01 -0.11775601332E+00  0.53635686350E+01  0.73269834533E+01  0.51100000000E-03 0. -1.
        -11    1    3    3    0    0 -0.16411111632E+02 -0.52574447618E+01  0.17655877834E+02  0.24671751716E+02  0.51100000000E-03 0.  1.
        -12    1    3    3    0    0 -0.46454802482E+01  0.14580955454E+00  0.13358114817E+02  0.14143584362E+02  0.00000000000E+00 0.  1.
</event>
<event>
 7    1  0.5664398E-009  0.4614232E+02  0.7816164E-02  0.1320468E+00
        -11   -1    0    0    0    0  0.00000000000E+00  0.00000000000E+00  0.45593999997E+02  0.45594000000E+02  0.51100000000E-03 0. -1.
         11   -1    0    0    0    0 -0.00000000000E+00 -0.00000000000E+00 -0.45593999997E+02  0.45594000000E+02  0.51100000000E-03 0.  1.
    9900012    2    1    2    0    0 -0.15535152461E+02  0.13717517062E+02 -0.39995027377E+02  0.46142318174E+02  0.10000003762E+02 0.  0.
         12    1    1    2    0    0  0.15535152461E+02 -0.13717517062E+02  0.39995027377E+02  0.45045681826E+02  0.00000000000E+00 0. -1.
         11    1    3    3    0    0 -0.59071316347E+01  0.39140544269E+00 -0.11860162767E+02  0.13255597440E+02  0.51100000000E-03 0. -1.
        -11    1    3    3    0    0 -0.88906291343E+01  0.10931747782E+02 -0.20696742573E+02  0.25038002104E+02  0.51100000000E-03 0.  1.
        -12    1    3    3    0    0 -0.73739169207E+00  0.23943638379E+01 -0.74381220364E+01  0.78487186295E+01  0.00000000000E+00 0.  1.
</event>
<event>
 7    1  0.5664398E-009  0.4614232E+02  0.7816164E-02  0.1320468E+00
        -11   -1    0    0    0    0  0.00000000000E+00  0.00000000000E+00  0.45593999997E+02  0.45594000000E+02  0.51100000000E-03 0. -1.
         11   -1    0    0    0    0 -0.00000000000E+00 -0.00000000000E+00 -0.45593999997E+02  0.45594000000E+02  0.51100000000E-03 0.  1.
    9900012    2    1    2    0    0  0.93678914204E+01  0.28069130758E+02 -0.33962921112E+02  0.46142317614E+02  0.99999986563E+01 0.  0.
         12    1    1    2    0    0 -0.93678914204E+01 -0.28069130758E+02  0.33962921112E+02  0.45045682386E+02  0.00000000000E+00 0. -1.
         11    1    3    3    0    0 -0.27444791833E+00  0.15731808785E+01 -0.20911638507E+01  0.26311948328E+01  0.51100000000E-03 0. -1.
        -11    1    3    3    0    0 -0.54934878756E+00  0.10162020038E+02 -0.13435719030E+02  0.16854880048E+02  0.51100000000E-03 0.  1.
        -12    1    3    3    0    0  0.10191688126E+02  0.16333929842E+02 -0.18436038232E+02  0.26656242733E+02  0.00000000000E+00 0.  1.
</event>
<event>
 7    1  0.5664398E-009  0.4614232E+02  0.7816164E-02  0.1320468E+00
        -11   -1    0    0    0    0  0.00000000000E+00  0.00000000000E+00  0.45593999997E+02  0.45594000000E+02  0.51100000000E-03 0. -1.
         11   -1    0    0    0    0 -0.00000000000E+00 -0.00000000000E+00 -0.45593999997E+02  0.45594000000E+02  0.51100000000E-03 0.  1.
    9900012    2    1    2    0    0 -0.16732987200E+02  0.15878402789E+02  0.38691044860E+02  0.46142317764E+02  0.10000000025E+02 0.  0.
        -12    1    1    2    0    0  0.16732987200E+02 -0.15878402789E+02 -0.38691044860E+02  0.45045682236E+02  0.00000000000E+00 0.  1.
         11    1    3    3    0    0 -0.59695088904E+01  0.44150310762E+01  0.13786708332E+02  0.15658890851E+02  0.51100000000E-03 0. -1.
        -11    1    3    3    0    0 -0.76240289029E+00 -0.11920213982E+01  0.25643914464E+01  0.29288695657E+01  0.51100000000E-03 0.  1.
        -12    1    3    3    0    0 -0.10001075419E+02  0.12655393111E+02  0.22339945081E+02  0.27554557347E+02  0.00000000000E+00 0.  1.
</event>
<event>
 7    1  0.5664398E-009  0.4614232E+02  0.7816164E-02  0.1320468E+00
        -11   -1    0    0    0    0  0.00000000000E+00  0.00000000000E+00  0.45593999997E+02  0.45594000000E+02  0.51100000000E-03 0. -1.
         11   -1    0    0    0    0 -0.00000000000E+00 -0.00000000000E+00 -0.45593999997E+02  0.45594000000E+02  0.51100000000E-03 0.  1.
    9900012    2    1    2    0    0  0.29942180311E+02 -0.31962524556E+02 -0.10534530688E+02  0.46142317914E+02  0.10000001393E+02 0.  0.
         12    1    1    2    0    0 -0.29942180311E+02  0.31962524556E+02  0.10534530688E+02  0.45045682086E+02  0.00000000000E+00 0. -1.
         11    1    3    3    0    0  0.37106041645E+00 -0.28789503314E+01 -0.22010233988E+01  0.36428759389E+01  0.51100000000E-03 0. -1.
        -11    1    3    3    0    0  0.21569496647E+02 -0.21431010177E+02 -0.79159484293E+01  0.31419637531E+02  0.51100000000E-03 0.  1.
        -12    1    3    3    0    0  0.80016232477E+01 -0.76525640478E+01 -0.41755886014E+00  0.11079804444E+02  0.00000000000E+00 0.  1.
</event>
<event>
 7    1  0.5664398E-009  0.4614232E+02  0.7816164E-02  0.1320468E+00
        -11   -1    0    0    0    0  0.00000000000E+00  0.00000000000E+00  0.45593999997E+02  0.45594000000E+02  0.51100000000E-03 0. -1.
         11   -1    0    0    0    0 -0.00000000000E+00 -0.00000000000E+00 -0.45593999997E+02  0.45594000000E+02  0.51100000000E-03 0.  1.
    9900012    2    1    2    0    0  0.12625435432E+02 -0.15061140253E+02  0.40532379517E+02  0.46142319243E+02  0.10000013513E+02 0.  0.
        -12    1    1    2    0    0 -0.12625435432E+02  0.15061140253E+02 -0.40532379517E+02  0.45045680757E+02  0.00000000000E+00 0.  1.
         11    1    3    3    0    0  0.88003735533E+01 -0.11393829642E+02  0.27905081902E+02  0.31399992433E+02  0.51100000000E-03 0. -1.
        -11    1    3    3    0    0  0.16928490768E+01  0.61379873627E+00  0.75719003436E+01  0.77830689294E+01  0.51100000000E-03 0.  1.
        -12    1    3    3    0    0  0.21322128022E+01 -0.42811093476E+01  0.50553972715E+01  0.69592578809E+01  0.00000000000E+00 0.  1.
</event>
<event>
 7    1  0.5916760E-009  0.4614232E+02  0.7816164E-02  0.1320468E+00
        -11   -1    0    0    0    0  0.00000000000E+00  0.00000000000E+00  0.45593999997E+02  0.45594000000E+02  0.51100000000E-03 0. -1.
         11   -1    0    0    0    0 -0.00000000000E+00 -0.00000000000E+00 -0.45593999997E+02  0.45594000000E+02  0.51100000000E-03 0.  1.
    9900012    2    1    2    0    0 -0.34869569524E+02  0.24387607077E+02  0.14780771077E+02  0.46142318171E+02  0.10000003740E+02 0.  0.
        -12    1    1    2    0    0  0.34869569524E+02 -0.24387607077E+02 -0.14780771077E+02  0.45045681829E+02  0.00000000000E+00 0.  1.
         11    1    3    3    0    0 -0.21839828056E+01  0.41201459803E+00 -0.44608519713E+00  0.22668324129E+01  0.51100000000E-03 0. -1.
        -11    1    3    3    0    0 -0.56563764602E+00  0.99732219056E+00 -0.64148259202E+00  0.13138103651E+01  0.51100000000E-03 0.  1.
         12    1    3    3    0    0 -0.32119949073E+02  0.22978270289E+02  0.15868338867E+02  0.42561675393E+02  0.00000000000E+00 0. -1.
</event>
<event>
 7    1  0.5664398E-009  0.4614232E+02  0.7816164E-02  0.1320468E+00
        -11   -1    0    0    0    0  0.00000000000E+00  0.00000000000E+00  0.45593999997E+02  0.45594000000E+02  0.51100000000E-03 0. -1.
         11   -1    0    0    0    0 -0.00000000000E+00 -0.00000000000E+00 -0.45593999997E+02  0.45594000000E+02  0.51100000000E-03 0.  1.
    9900012    2    1    2    0    0  0.43221622527E+01 -0.28511002222E+02 -0.34605709141E+02  0.46142318305E+02  0.10000004960E+02 0.  0.
         12    1    1    2    0    0 -0.43221622527E+01  0.28511002222E+02  0.34605709141E+02  0.45045681695E+02  0.00000000000E+00 0. -1.
         11    1    3    3    0    0 -0.17671912092E+01 -0.29878621159E+01 -0.31598799919E+01  0.46941587763E+01  0.51100000000E-03 0. -1.
        -11    1    3    3    0    0  0.50529369744E+01 -0.25406482140E+02 -0.29653857747E+02  0.39374773477E+02  0.51100000000E-03 0.  1.
        -12    1    3    3    0    0  0.10364164875E+01 -0.11665796618E+00 -0.17919714015E+01  0.20733860519E+01  0.00000000000E+00 0.  1.
</event>
<event>
 7    1  0.5664398E-009  0.4614232E+02  0.7816164E-02  0.1320468E+00
        -11   -1    0    0    0    0  0.00000000000E+00  0.00000000000E+00  0.45593999997E+02  0.45594000000E+02  0.51100000000E-03 0. -1.
         11   -1    0    0    0    0 -0.00000000000E+00 -0.00000000000E+00 -0.45593999997E+02  0.45594000000E+02  0.51100000000E-03 0.  1.
    9900012    2    1    2    0    0 -0.27031354633E+02 -0.22499698587E+02  0.28145742679E+02  0.46142318734E+02  0.10000008870E+02 0.  0.
        -12    1    1    2    0    0  0.27031354633E+02  0.22499698587E+02 -0.28145742679E+02  0.45045681266E+02  0.00000000000E+00 0.  1.
         11    1    3    3    0    0 -0.68183369027E+01 -0.29011639951E+01  0.38365556499E+01  0.83441973946E+01  0.51100000000E-03 0. -1.
        -11    1    3    3    0    0 -0.21695109365E+01 -0.39846311574E+01  0.69122668796E+01  0.82682221088E+01  0.51100000000E-03 0.  1.
        -12    1    3    3    0    0 -0.18043506794E+02 -0.15613903434E+02  0.17396920149E+02  0.29529899230E+02  0.00000000000E+00 0.  1.
</event>
<event>
 7    1  0.5664398E-009  0.4614232E+02  0.7816164E-02  0.1320468E+00
        -11   -1    0    0    0    0  0.00000000000E+00  0.00000000000E+00  0.45593999997E+02  0.45594000000E+02  0.51100000000E-03 0. -1.
         11   -1    0    0    0    0 -0.00000000000E+00 -0.00000000000E+00 -0.45593999997E+02  0.45594000000E+02  0.51100000000E-03 0.  1.
    9900012    2    1    2    0    0 -0.18809427276E+02 -0.14910183377E+02  0.38118307828E+02  0.46142317471E+02  0.99999973578E+01 0.  0.
        -12    1    1    2    0    0  0.18809427276E+02  0.14910183377E+02 -0.38118307828E+02  0.45045682529E+02  0.00000000000E+00 0.  1.
         11    1    3    3    0    0 -0.11358119015E+01 -0.10206270123E+01  0.95592573815E+01  0.96804519585E+01  0.51100000000E-03 0. -1.
        -11    1    3    3    0    0 -0.14409713277E+02 -0.98521155797E+01  0.22653523332E+02  0.28598708673E+02  0.51100000000E-03 0.  1.
         12    1    3    3    0    0 -0.32639020976E+01 -0.40374407846E+01  0.59055271147E+01  0.78631568403E+01  0.00000000000E+00 0. -1.
</event>
<event>
 7    1  0.5664398E-009  0.4614232E+02  0.7816164E-02  0.1320468E+00
        -11   -1    0    0    0    0  0.00000000000E+00  0.00000000000E+00  0.45593999997E+02  0.45594000000E+02  0.51100000000E-03 0.  1.
         11   -1    0    0    0    0 -0.00000000000E+00 -0.00000000000E+00 -0.45593999997E+02  0.45594000000E+02  0.51100000000E-03 0. -1.
    9900012    2    1    2    0    0 -0.21127358264E+02 -0.28268847607E+02  0.27993220431E+02  0.46142318717E+02  0.10000008712E+02 0.  0.
        -12    1    1    2    0    0  0.21127358264E+02  0.28268847607E+02 -0.27993220431E+02  0.45045681283E+02  0.00000000000E+00 0.  1.
         11    1    3    3    0    0  0.52789011193E-01 -0.94088103363E+00  0.23190922880E+01  0.25032445147E+01  0.51100000000E-03 0. -1.
        -11    1    3    3    0    0 -0.17583725305E+02 -0.18355937582E+02  0.20623395979E+02  0.32733046025E+02  0.51100000000E-03 0.  1.
         12    1    3    3    0    0 -0.35964219694E+01 -0.89720289908E+01  0.50507321640E+01  0.10906028176E+02  0.00000000000E+00 0. -1.
</event>
<event>
 7    1  0.6189311E-009  0.4614232E+02  0.7816164E-02  0.1320468E+00
        -11   -1    0    0    0    0  0.00000000000E+00  0.00000000000E+00  0.45593999997E+02  0.45594000000E+02  0.51100000000E-03 0. -1.
         11   -1    0    0    0    0 -0.00000000000E+00 -0.00000000000E+00 -0.45593999997E+02  0.45594000000E+02  0.51100000000E-03 0.  1.
    9900012    2    1    2    0    0 -0.18775229938E+02 -0.29553378842E+01  0.40839567230E+02  0.46142317268E+02  0.99999955058E+01 0.  0.
        -12    1    1    2    0    0  0.18775229938E+02  0.29553378842E+01 -0.40839567230E+02  0.45045682732E+02  0.00000000000E+00 0.  1.
         11    1    3    3    0    0 -0.93154662952E+00  0.73729667162E+00  0.43397895673E+01  0.44994621072E+01  0.51100000000E-03 0. -1.
        -11    1    3    3    0    0 -0.61675712110E+01  0.26889061766E+01  0.12968869799E+02  0.14610295520E+02  0.51100000000E-03 0.  1.
         12    1    3    3    0    0 -0.11676112098E+02 -0.63815407324E+01  0.23530907864E+02  0.27032559641E+02  0.00000000000E+00 0. -1.
</event>
<event>
 7    1  0.5664398E-009  0.4614232E+02  0.7816164E-02  0.1320468E+00
        -11   -1    0    0    0    0  0.00000000000E+00  0.00000000000E+00  0.45593999997E+02  0.45594000000E+02  0.51100000000E-03 0. -1.
         11   -1    0    0    0    0 -0.00000000000E+00 -0.00000000000E+00 -0.45593999997E+02  0.45594000000E+02  0.51100000000E-03 0.  1.
    9900012    2    1    2    0    0 -0.31786097388E+02 -0.26468112873E+02  0.17838064063E+02  0.46142317457E+02  0.99999972271E+01 0.  0.
        -12    1    1    2    0    0  0.31786097388E+02  0.26468112873E+02 -0.17838064063E+02  0.45045682543E+02  0.00000000000E+00 0.  1.
         11    1    3    3    0    0 -0.16458309952E+01 -0.11888225923E+01 -0.55779624907E+00  0.21055155515E+01  0.51100000000E-03 0. -1.
        -11    1    3    3    0    0 -0.14333612707E+02 -0.92027250767E+01  0.47513431909E+01  0.17683830593E+02  0.51100000000E-03 0.  1.
         12    1    3    3    0    0 -0.15806653686E+02 -0.16076565204E+02  0.13644517122E+02  0.26352971312E+02  0.00000000000E+00 0. -1.
</event>
<event>
 7    1  0.5664398E-009  0.4614232E+02  0.7816164E-02  0.1320468E+00
        -11   -1    0    0    0    0  0.00000000000E+00  0.00000000000E+00  0.45593999997E+02  0.45594000000E+02  0.51100000000E-03 0. -1.
         11   -1    0    0    0    0 -0.00000000000E+00 -0.00000000000E+00 -0.45593999997E+02  0.45594000000E+02  0.51100000000E-03 0.  1.
    9900012    2    1    2    0    0 -0.75514798570E+01 -0.27224568978E+02  0.35084351540E+02  0.46142315112E+02  0.99999758438E+01 0.  0.
        -12    1    1    2    0    0  0.75514798570E+01  0.27224568978E+02 -0.35084351540E+02  0.45045684888E+02  0.00000000000E+00 0.  1.
         11    1    3    3    0    0 -0.61335273140E+01 -0.17253156200E+02  0.25327412596E+02  0.31253309988E+02  0.51100000000E-03 0. -1.
        -11    1    3    3    0    0  0.14898789955E+01 -0.24175413813E+01  0.42035093058E+01  0.50728430388E+01  0.51100000000E-03 0.  1.
        -12    1    3    3    0    0 -0.29078315385E+01 -0.75538713964E+01  0.55534296385E+01  0.98161620850E+01  0.00000000000E+00 0.  1.
</event>
<event>
 7    1  0.5664398E-009  0.4614232E+02  0.7816164E-02  0.1320468E+00
        -11   -1    0    0    0    0  0.00000000000E+00  0.00000000000E+00  0.45593999997E+02  0.45594000000E+02  0.51100000000E-03 0. -1.
         11   -1    0    0    0    0 -0.00000000000E+00 -0.00000000000E+00 -0.45593999997E+02  0.45594000000E+02  0.51100000000E-03 0.  1.
    9900012    2    1    2    0    0 -0.12050005602E+02 -0.17004204621E+02 -0.39934544906E+02  0.46142317780E+02  0.10000000176E+02 0.  0.
         12    1    1    2    0    0  0.12050005602E+02  0.17004204621E+02  0.39934544906E+02  0.45045682220E+02  0.00000000000E+00 0. -1.
         11    1    3    3    0    0  0.66679099699E+00 -0.87381725035E-01 -0.43679149147E+00  0.80189330193E+00  0.51100000000E-03 0. -1.
        -11    1    3    3    0    0 -0.10869022473E+02 -0.95773562247E+01 -0.28772275104E+02  0.32213432240E+02  0.51100000000E-03 0.  1.
        -12    1    3    3    0    0 -0.18477741258E+01 -0.73394666714E+01 -0.10725478310E+02  0.13126992238E+02  0.00000000000E+00 0.  1.
</event>
<event>
 7    1  0.5664398E-009  0.4614232E+02  0.7816164E-02  0.1320468E+00
        -11   -1    0    0    0    0  0.00000000000E+00  0.00000000000E+00  0.45593999997E+02  0.45594000000E+02  0.51100000000E-03 0. -1.
         11   -1    0    0    0    0 -0.00000000000E+00 -0.00000000000E+00 -0.45593999997E+02  0.45594000000E+02  0.51100000000E-03 0.  1.
    9900012    2    1    2    0    0  0.17366360862E+02 -0.23954424658E+02 -0.33966284086E+02  0.46142318688E+02  0.10000008453E+02 0.  0.
         12    1    1    2    0    0 -0.17366360862E+02  0.23954424658E+02  0.33966284086E+02  0.45045681312E+02  0.00000000000E+00 0. -1.
         11    1    3    3    0    0  0.83103394507E+01 -0.12373357488E+02 -0.12717036834E+02  0.19592976890E+02  0.51100000000E-03 0. -1.
        -11    1    3    3    0    0  0.25147859401E+01 -0.66407881349E+01 -0.13576787807E+02  0.15321663839E+02  0.51100000000E-03 0.  1.
        -12    1    3    3    0    0  0.65412354710E+01 -0.49402790349E+01 -0.76724594449E+01  0.11227677960E+02  0.00000000000E+00 0.  1.
</event>
<event>
 7    1  0.5664398E-009  0.4614232E+02  0.7816164E-02  0.1320468E+00
        -11   -1    0    0    0    0  0.00000000000E+00  0.00000000000E+00  0.45593999997E+02  0.45594000000E+02  0.51100000000E-03 0. -1.
         11   -1    0    0    0    0 -0.00000000000E+00 -0.00000000000E+00 -0.45593999997E+02  0.45594000000E+02  0.51100000000E-03 0.  1.
    9900012    2    1    2    0    0  0.33780766975E+02  0.66486471740E+01 -0.29047699167E+02  0.46142317037E+02  0.99999933984E+01 0.  0.
         12    1    1    2    0    0 -0.33780766975E+02 -0.66486471740E+01  0.29047699167E+02  0.45045682963E+02  0.00000000000E+00 0. -1.
         11    1    3    3    0    0  0.38477692341E+01  0.19978610525E+01 -0.82945580715E+00  0.44141560984E+01  0.51100000000E-03 0. -1.
        -11    1    3    3    0    0  0.22211533690E+02  0.42009831306E+01 -0.17907569691E+02  0.28838889380E+02  0.51100000000E-03 0.  1.
        -12    1    3    3    0    0  0.77214640505E+01  0.44980299092E+00 -0.10310673669E+02  0.12889271559E+02  0.00000000000E+00 0.  1.
</event>
<event>
 7    1  0.5664398E-009  0.4614232E+02  0.7816164E-02  0.1320468E+00
        -11   -1    0    0    0    0  0.00000000000E+00  0.00000000000E+00  0.45593999997E+02  0.45594000000E+02  0.51100000000E-03 0. -1.
         11   -1    0    0    0    0 -0.00000000000E+00 -0.00000000000E+00 -0.45593999997E+02  0.45594000000E+02  0.51100000000E-03 0.  1.
    9900012    2    1    2    0    0  0.78148512023E+00  0.32873636970E+02 -0.30786798606E+02  0.46142315467E+02  0.99999790811E+01 0.  0.
         12    1    1    2    0    0 -0.78148512023E+00 -0.32873636970E+02  0.30786798606E+02  0.45045684533E+02  0.00000000000E+00 0. -1.
         11    1    3    3    0    0  0.80215250844E+00  0.33477669869E+01 -0.26549083756E+01  0.43473591052E+01  0.51100000000E-03 0. -1.
        -11    1    3    3    0    0  0.33390394354E+01  0.23460334179E+02 -0.23979672922E+02  0.33712923009E+02  0.51100000000E-03 0.  1.
         12    1    3    3    0    0 -0.33597068236E+01  0.60655358048E+01 -0.41522173085E+01  0.80820333528E+01  0.00000000000E+00 0. -1.
</event>
<event>
 7    1  0.5664398E-009  0.4614232E+02  0.7816164E-02  0.1320468E+00
        -11   -1    0    0    0    0  0.00000000000E+00  0.00000000000E+00  0.45593999997E+02  0.45594000000E+02  0.51100000000E-03 0. -1.
         11   -1    0    0    0    0 -0.00000000000E+00 -0.00000000000E+00 -0.45593999997E+02  0.45594000000E+02  0.51100000000E-03 0.  1.
    9900012    2    1    2    0    0  0.89866506909E+01  0.40091951878E+02  0.18465886544E+02  0.46142318055E+02  0.10000002680E+02 0.  0.
        -12    1    1    2    0    0 -0.89866506909E+01 -0.40091951878E+02 -0.18465886544E+02  0.45045681945E+02  0.00000000000E+00 0.  1.
         11    1    3    3    0    0  0.70496713319E+01  0.28491181132E+02  0.10031667203E+02  0.31017408262E+02  0.51100000000E-03 0. -1.
        -11    1    3    3    0    0 -0.54038347389E+00  0.45764823355E+01  0.12462242522E+01  0.47738118955E+01  0.51100000000E-03 0.  1.
         12    1    3    3    0    0  0.24773628329E+01  0.70242884110E+01  0.71879950884E+01  0.10351097897E+02  0.00000000000E+00 0. -1.
</event>
<event>
 7    1  0.5664398E-009  0.4614232E+02  0.7816164E-02  0.1320468E+00
        -11   -1    0    0    0    0  0.00000000000E+00  0.00000000000E+00  0.45593999997E+02  0.45594000000E+02  0.51100000000E-03 0.  1.
         11   -1    0    0    0    0 -0.00000000000E+00 -0.00000000000E+00 -0.45593999997E+02  0.45594000000E+02  0.51100000000E-03 0. -1.
    9900012    2    1    2    0    0 -0.29219750123E+02 -0.25906560684E+02  0.22453725602E+02  0.46142317886E+02  0.10000001138E+02 0.  0.
        -12    1    1    2    0    0  0.29219750123E+02  0.25906560684E+02 -0.22453725602E+02  0.45045682114E+02  0.00000000000E+00 0.  1.
         11    1    3    3    0    0 -0.74703810363E+01 -0.87415541764E+01  0.67289779886E+01  0.13322931632E+02  0.51100000000E-03 0. -1.
        -11    1    3    3    0    0 -0.22420998400E+02 -0.16351496491E+02  0.15076972851E+02  0.31581445776E+02  0.51100000000E-03 0.  1.
         12    1    3    3    0    0  0.67162931318E+00 -0.81351001718E+00  0.64777476250E+00  0.12379404773E+01  0.00000000000E+00 0. -1.
</event>
<event>
 7    1  0.5664398E-009  0.4614232E+02  0.7816164E-02  0.1320468E+00
        -11   -1    0    0    0    0  0.00000000000E+00  0.00000000000E+00  0.45593999997E+02  0.45594000000E+02  0.51100000000E-03 0. -1.
         11   -1    0    0    0    0 -0.00000000000E+00 -0.00000000000E+00 -0.45593999997E+02  0.45594000000E+02  0.51100000000E-03 0.  1.
    9900012    2    1    2    0    0  0.87799191450E+00 -0.12710910874E+02 -0.43206195436E+02  0.46142318197E+02  0.10000003976E+02 0.  0.
         12    1    1    2    0    0 -0.87799191450E+00  0.12710910874E+02  0.43206195436E+02  0.45045681803E+02  0.00000000000E+00 0. -1.
         11    1    3    3    0    0  0.12027998032E+01 -0.35944116294E+01 -0.83062795314E+01  0.91302137019E+01  0.51100000000E-03 0.  1.
        -11    1    3    3    0    0 -0.12655163369E+01 -0.91826760971E+01 -0.34856608107E+02  0.36068077310E+02  0.51100000000E-03 0. -1.
         12    1    3    3    0    0  0.94070844818E+00  0.66176852862E-01 -0.43307797780E-01  0.94402718482E+00  0.00000000000E+00 0. -1.
</event>
<event>
 7    1  0.5664398E-009  0.4614232E+02  0.7816164E-02  0.1320468E+00
        -11   -1    0    0    0    0  0.00000000000E+00  0.00000000000E+00  0.45593999997E+02  0.45594000000E+02  0.51100000000E-03 0. -1.
         11   -1    0    0    0    0 -0.00000000000E+00 -0.00000000000E+00 -0.45593999997E+02  0.45594000000E+02  0.51100000000E-03 0.  1.
    9900012    2    1    2    0    0 -0.24880092212E+02 -0.60239659740E+01  0.37064894229E+02  0.46142317202E+02  0.99999949026E+01 0.  0.
        -12    1    1    2    0    0  0.24880092212E+02  0.60239659740E+01 -0.37064894229E+02  0.45045682798E+02  0.00000000000E+00 0.  1.
         11    1    3    3    0    0 -0.42934682063E+01 -0.13877524135E+01  0.11695823074E+02  0.12536028224E+02  0.51100000000E-03 0. -1.
        -11    1    3    3    0    0 -0.89259529013E+01 -0.29606368688E+00  0.66729311560E+01  0.11148466234E+02  0.51100000000E-03 0.  1.
         12    1    3    3    0    0 -0.11660671105E+02 -0.43401498736E+01  0.18696139999E+02  0.22457822744E+02  0.00000000000E+00 0. -1.
</event>
<event>
 7    1  0.5664398E-009  0.4614232E+02  0.7816164E-02  0.1320468E+00
        -11   -1    0    0    0    0  0.00000000000E+00  0.00000000000E+00  0.45593999997E+02  0.45594000000E+02  0.51100000000E-03 0. -1.
         11   -1    0    0    0    0 -0.00000000000E+00 -0.00000000000E+00 -0.45593999997E+02  0.45594000000E+02  0.51100000000E-03 0.  1.
    9900012    2    1    2    0    0 -0.84433647648E+01 -0.31136592034E+02  0.31437808424E+02  0.46142316849E+02  0.99999916793E+01 0.  0.
        -12    1    1    2    0    0  0.84433647648E+01  0.31136592034E+02 -0.31437808424E+02  0.45045683151E+02  0.00000000000E+00 0.  1.
         11    1    3    3    0    0 -0.63688864396E+01 -0.20586453385E+02  0.24569073823E+02  0.32680333019E+02  0.51100000000E-03 0. -1.
        -11    1    3    3    0    0 -0.65766208391E-02 -0.79264126477E+01  0.33359277877E+01  0.85997950661E+01  0.51100000000E-03 0.  1.
        -12    1    3    3    0    0 -0.20679017044E+01 -0.26237260014E+01  0.35328068137E+01  0.48621887635E+01  0.00000000000E+00 0.  1.
</event>
<event>
 7    1  0.5664398E-009  0.4614232E+02  0.7816164E-02  0.1320468E+00
        -11   -1    0    0    0    0  0.00000000000E+00  0.00000000000E+00  0.45593999997E+02  0.45594000000E+02  0.51100000000E-03 0. -1.
         11   -1    0    0    0    0 -0.00000000000E+00 -0.00000000000E+00 -0.45593999997E+02  0.45594000000E+02  0.51100000000E-03 0.  1.
    9900012    2    1    2    0    0  0.31073106229E+02 -0.25678195164E+02 -0.20104870683E+02  0.46142318046E+02  0.10000002594E+02 0.  0.
         12    1    1    2    0    0 -0.31073106229E+02  0.25678195164E+02  0.20104870683E+02  0.45045681954E+02  0.00000000000E+00 0. -1.
         11    1    3    3    0    0  0.13602742299E+02 -0.16601384771E+02 -0.99199442886E+01  0.23644150848E+02  0.51100000000E-03 0. -1.
        -11    1    3    3    0    0  0.64419530294E+01 -0.38165445444E+01 -0.18668017747E+01  0.77168465204E+01  0.51100000000E-03 0.  1.
         12    1    3    3    0    0  0.11028410900E+02 -0.52602658484E+01 -0.83181246198E+01  0.14781320678E+02  0.00000000000E+00 0. -1.
</event>
<event>
 7    1  0.5664398E-009  0.4614232E+02  0.7816164E-02  0.1320468E+00
        -11   -1    0    0    0    0  0.00000000000E+00  0.00000000000E+00  0.45593999997E+02  0.45594000000E+02  0.51100000000E-03 0.  1.
         11   -1    0    0    0    0 -0.00000000000E+00 -0.00000000000E+00 -0.45593999997E+02  0.45594000000E+02  0.51100000000E-03 0. -1.
    9900012    2    1    2    0    0  0.29162595832E+02  0.21491907351E+02 -0.26772269636E+02  0.46142317646E+02  0.99999989530E+01 0.  0.
         12    1    1    2    0    0 -0.29162595832E+02 -0.21491907351E+02  0.26772269636E+02  0.45045682354E+02  0.00000000000E+00 0. -1.
         11    1    3    3    0    0  0.60685210602E+01  0.97680461478E-01 -0.46613827013E+01  0.76527758545E+01  0.51100000000E-03 0. -1.
        -11    1    3    3    0    0  0.41438948364E+01  0.41153258290E+01 -0.46372698903E+01  0.74573482814E+01  0.51100000000E-03 0.  1.
         12    1    3    3    0    0  0.18950179935E+02  0.17278901061E+02 -0.17473617044E+02  0.31032193510E+02  0.00000000000E+00 0. -1.
</event>
<event>
 7    1  0.5664398E-009  0.4614232E+02  0.7816164E-02  0.1320468E+00
        -11   -1    0    0    0    0  0.00000000000E+00  0.00000000000E+00  0.45593999997E+02  0.45594000000E+02  0.51100000000E-03 0. -1.
         11   -1    0    0    0    0 -0.00000000000E+00 -0.00000000000E+00 -0.45593999997E+02  0.45594000000E+02  0.51100000000E-03 0.  1.
    9900012    2    1    2    0    0  0.30997640586E+02 -0.29939745320E+02  0.13109977037E+02  0.46142316859E+02  0.99999917755E+01 0.  0.
        -12    1    1    2    0    0 -0.30997640586E+02  0.29939745320E+02 -0.13109977037E+02  0.45045683141E+02  0.00000000000E+00 0.  1.
         11    1    3    3    0    0  0.11411171657E+02 -0.62502657940E+01  0.67866111575E+01  0.14674425111E+02  0.51100000000E-03 0.  1.
        -11    1    3    3    0    0  0.50867042365E+01 -0.71047866370E+01  0.26759916883E+01  0.91385712737E+01  0.51100000000E-03 0. -1.
        -12    1    3    3    0    0  0.14499764693E+02 -0.16584692889E+02  0.36473741914E+01  0.22329320474E+02  0.00000000000E+00 0.  1.
</event>
<event>
 7    1  0.5664398E-009  0.4614232E+02  0.7816164E-02  0.1320468E+00
        -11   -1    0    0    0    0  0.00000000000E+00  0.00000000000E+00  0.45593999997E+02  0.45594000000E+02  0.51100000000E-03 0. -1.
         11   -1    0    0    0    0 -0.00000000000E+00 -0.00000000000E+00 -0.45593999997E+02  0.45594000000E+02  0.51100000000E-03 0.  1.
    9900012    2    1    2    0    0 -0.16455383910E+02  0.31004803291E+02  0.28231825017E+02  0.46142318403E+02  0.10000005854E+02 0.  0.
        -12    1    1    2    0    0  0.16455383910E+02 -0.31004803291E+02 -0.28231825017E+02  0.45045681597E+02  0.00000000000E+00 0.  1.
         11    1    3    3    0    0 -0.49212068946E+01  0.13704199743E+02  0.11850806850E+02  0.18774051006E+02  0.51100000000E-03 0. -1.
        -11    1    3    3    0    0  0.21076055799E+00  0.19054858655E+01 -0.12919315297E+00  0.19214545345E+01  0.51100000000E-03 0.  1.
         12    1    3    3    0    0 -0.11744937574E+02  0.15395117682E+02  0.16510211320E+02  0.25446812863E+02  0.00000000000E+00 0. -1.
</event>
<event>
 7    1  0.5664398E-009  0.4614232E+02  0.7816164E-02  0.1320468E+00
        -11   -1    0    0    0    0  0.00000000000E+00  0.00000000000E+00  0.45593999997E+02  0.45594000000E+02  0.51100000000E-03 0. -1.
         11   -1    0    0    0    0 -0.00000000000E+00 -0.00000000000E+00 -0.45593999997E+02  0.45594000000E+02  0.51100000000E-03 0.  1.
    9900012    2    1    2    0    0 -0.49931814964E+01  0.33385205506E+02  0.29826323793E+02  0.46142318751E+02  0.10000009028E+02 0.  0.
        -12    1    1    2    0    0  0.49931814964E+01 -0.33385205506E+02 -0.29826323793E+02  0.45045681249E+02  0.00000000000E+00 0.  1.
         11    1    3    3    0    0 -0.13846179336E+01  0.17702670473E+02  0.19556016132E+02  0.26414758676E+02  0.51100000000E-03 0. -1.
        -11    1    3    3    0    0  0.54741264923E+00  0.85824229244E+01  0.56843661923E+01  0.10308717822E+02  0.51100000000E-03 0.  1.
        -12    1    3    3    0    0 -0.41559762120E+01  0.71001121089E+01  0.45859414684E+01  0.94188422529E+01  0.00000000000E+00 0.  1.
</event>
<event>
 7    1  0.5664398E-009  0.4614231E+02  0.7816164E-02  0.1320468E+00
        -11   -1    0    0    0    0  0.00000000000E+00  0.00000000000E+00  0.45593999997E+02  0.45594000000E+02  0.51100000000E-03 0. -1.
         11   -1    0    0    0    0 -0.00000000000E+00 -0.00000000000E+00 -0.45593999997E+02  0.45594000000E+02  0.51100000000E-03 0.  1.
    9900012    2    1    2    0    0  0.27562738435E+02 -0.51413979812E+01 -0.35255854036E+02  0.46142314668E+02  0.99999717959E+01 0.  0.
         12    1    1    2    0    0 -0.27562738435E+02  0.51413979812E+01  0.35255854036E+02  0.45045685332E+02  0.00000000000E+00 0. -1.
         11    1    3    3    0    0  0.12457686346E+02 -0.39775526943E+01 -0.20337203756E+02  0.24178848843E+02  0.51100000000E-03 0. -1.
        -11    1    3    3    0    0  0.86619814513E+01 -0.33637322290E+01 -0.80847622598E+01  0.12316980077E+02  0.51100000000E-03 0.  1.
         12    1    3    3    0    0  0.64430706373E+01  0.21998869422E+01 -0.68338880204E+01  0.96464857472E+01  0.00000000000E+00 0. -1.
</event>
<event>
 7    1  0.5664398E-009  0.4614232E+02  0.7816164E-02  0.1320468E+00
        -11   -1    0    0    0    0  0.00000000000E+00  0.00000000000E+00  0.45593999997E+02  0.45594000000E+02  0.51100000000E-03 0. -1.
         11   -1    0    0    0    0 -0.00000000000E+00 -0.00000000000E+00 -0.45593999997E+02  0.45594000000E+02  0.51100000000E-03 0.  1.
    9900012    2    1    2    0    0 -0.88360310624E+01 -0.15640322601E+02 -0.41308816904E+02  0.46142317743E+02  0.99999998313E+01 0.  0.
         12    1    1    2    0    0  0.88360310624E+01  0.15640322601E+02  0.41308816904E+02  0.45045682257E+02  0.00000000000E+00 0. -1.
         11    1    3    3    0    0  0.46992386069E+00 -0.38080933986E+01 -0.11186139812E+02  0.11825909179E+02  0.51100000000E-03 0. -1.
        -11    1    3    3    0    0  0.80817540005E-01  0.39738070555E+00 -0.37219997096E+01  0.37440252402E+01  0.51100000000E-03 0.  1.
        -12    1    3    3    0    0 -0.93867724631E+01 -0.12229609908E+02 -0.26400677383E+02  0.30572383323E+02  0.00000000000E+00 0.  1.
</event>
<event>
 7    1  0.5664398E-009  0.4614232E+02  0.7816164E-02  0.1320468E+00
        -11   -1    0    0    0    0  0.00000000000E+00  0.00000000000E+00  0.45593999997E+02  0.45594000000E+02  0.51100000000E-03 0. -1.
         11   -1    0    0    0    0 -0.00000000000E+00 -0.00000000000E+00 -0.45593999997E+02  0.45594000000E+02  0.51100000000E-03 0.  1.
    9900012    2    1    2    0    0 -0.33937875798E+02  0.12051689631E+02  0.27057176692E+02  0.46142318218E+02  0.10000004164E+02 0.  0.
        -12    1    1    2    0    0  0.33937875798E+02 -0.12051689631E+02 -0.27057176692E+02  0.45045681782E+02  0.00000000000E+00 0.  1.
         11    1    3    3    0    0 -0.22474618872E+02  0.38979278265E+01  0.15895423768E+02  0.27802281054E+02  0.51100000000E-03 0. -1.
        -11    1    3    3    0    0 -0.20968774006E+01  0.10639786964E+00  0.24560074368E+01  0.32311279966E+01  0.51100000000E-03 0.  1.
        -12    1    3    3    0    0 -0.93663795260E+01  0.80473639353E+01  0.87057454875E+01  0.15108909167E+02  0.00000000000E+00 0.  1.
</event>
<event>
 7    1  0.5664398E-009  0.4614232E+02  0.7816164E-02  0.1320468E+00
        -11   -1    0    0    0    0  0.00000000000E+00  0.00000000000E+00  0.45593999997E+02  0.45594000000E+02  0.51100000000E-03 0. -1.
         11   -1    0    0    0    0 -0.00000000000E+00 -0.00000000000E+00 -0.45593999997E+02  0.45594000000E+02  0.51100000000E-03 0.  1.
    9900012    2    1    2    0    0 -0.32629172990E+02 -0.30298378070E+01 -0.30907453052E+02  0.46142317618E+02  0.99999986921E+01 0.  0.
         12    1    1    2    0    0  0.32629172990E+02  0.30298378070E+01  0.30907453052E+02  0.45045682382E+02  0.00000000000E+00 0. -1.
         11    1    3    3    0    0 -0.73699755649E+01  0.28724400762E+01 -0.61340077392E+01  0.10009670475E+02  0.51100000000E-03 0. -1.
        -11    1    3    3    0    0 -0.17016962784E+02 -0.23896486468E+01 -0.18123217654E+02  0.24974756484E+02  0.51100000000E-03 0.  1.
         12    1    3    3    0    0 -0.82422346410E+01 -0.35126292365E+01 -0.66502276589E+01  0.11157890658E+02  0.00000000000E+00 0. -1.
</event>
<event>
 7    1  0.5664398E-009  0.4614231E+02  0.7816164E-02  0.1320468E+00
        -11   -1    0    0    0    0  0.00000000000E+00  0.00000000000E+00  0.45593999997E+02  0.45594000000E+02  0.51100000000E-03 0. -1.
         11   -1    0    0    0    0 -0.00000000000E+00 -0.00000000000E+00 -0.45593999997E+02  0.45594000000E+02  0.51100000000E-03 0.  1.
    9900012    2    1    2    0    0 -0.24371945489E+02 -0.21628028802E+01  0.37821215962E+02  0.46142314079E+02  0.99999664254E+01 0.  0.
        -12    1    1    2    0    0  0.24371945489E+02  0.21628028802E+01 -0.37821215962E+02  0.45045685921E+02  0.00000000000E+00 0.  1.
         11    1    3    3    0    0 -0.37638109538E+01 -0.12625088999E+01  0.20044042528E+01  0.44472281579E+01  0.51100000000E-03 0. -1.
        -11    1    3    3    0    0 -0.14474976767E+02  0.17095873185E+01  0.26427674951E+02  0.30180617038E+02  0.51100000000E-03 0.  1.
        -12    1    3    3    0    0 -0.61331577674E+01 -0.26098812987E+01  0.93891367584E+01  0.11514468883E+02  0.00000000000E+00 0.  1.
</event>
<event>
 7    1  0.5664398E-009  0.4614232E+02  0.7816164E-02  0.1320468E+00
        -11   -1    0    0    0    0  0.00000000000E+00  0.00000000000E+00  0.45593999997E+02  0.45594000000E+02  0.51100000000E-03 0. -1.
         11   -1    0    0    0    0 -0.00000000000E+00 -0.00000000000E+00 -0.45593999997E+02  0.45594000000E+02  0.51100000000E-03 0.  1.
    9900012    2    1    2    0    0 -0.52642075072E+01 -0.21084873676E+02  0.39456680907E+02  0.46142318223E+02  0.10000004209E+02 0.  0.
        -12    1    1    2    0    0  0.52642075072E+01  0.21084873676E+02 -0.39456680907E+02  0.45045681777E+02  0.00000000000E+00 0.  1.
         11    1    3    3    0    0 -0.27972229955E+01 -0.56274437479E+01  0.10428369101E+02  0.12175527175E+02  0.51100000000E-03 0. -1.
        -11    1    3    3    0    0 -0.52403912659E+01 -0.12591914022E+02  0.22960275364E+02  0.26705659408E+02  0.51100000000E-03 0.  1.
        -12    1    3    3    0    0  0.27734067542E+01 -0.28655159061E+01  0.60680364417E+01  0.72611316397E+01  0.00000000000E+00 0.  1.
</event>
<event>
 7    1  0.5664398E-009  0.4614232E+02  0.7816164E-02  0.1320468E+00
        -11   -1    0    0    0    0  0.00000000000E+00  0.00000000000E+00  0.45593999997E+02  0.45594000000E+02  0.51100000000E-03 0. -1.
         11   -1    0    0    0    0 -0.00000000000E+00 -0.00000000000E+00 -0.45593999997E+02  0.45594000000E+02  0.51100000000E-03 0.  1.
    9900012    2    1    2    0    0  0.23396056450E+02  0.24475346938E+02 -0.29710190696E+02  0.46142317672E+02  0.99999991911E+01 0.  0.
         12    1    1    2    0    0 -0.23396056450E+02 -0.24475346938E+02  0.29710190696E+02  0.45045682328E+02  0.00000000000E+00 0. -1.
         11    1    3    3    0    0  0.73929503136E+00  0.26103355393E+01 -0.37503597054E+01  0.46287802877E+01  0.51100000000E-03 0.  1.
        -11    1    3    3    0    0  0.15290657228E+02  0.10610521899E+02 -0.17957592690E+02  0.25862376320E+02  0.51100000000E-03 0. -1.
         12    1    3    3    0    0  0.73661041914E+01  0.11254489500E+02 -0.80022383005E+01  0.15651161065E+02  0.00000000000E+00 0. -1.
</event>
<event>
 7    1  0.5664398E-009  0.4614232E+02  0.7816164E-02  0.1320468E+00
        -11   -1    0    0    0    0  0.00000000000E+00  0.00000000000E+00  0.45593999997E+02  0.45594000000E+02  0.51100000000E-03 0.  1.
         11   -1    0    0    0    0 -0.00000000000E+00 -0.00000000000E+00 -0.45593999997E+02  0.45594000000E+02  0.51100000000E-03 0. -1.
    9900012    2    1    2    0    0 -0.27622074156E+02 -0.33670323423E+02  0.11508421081E+02  0.46142318566E+02  0.10000007344E+02 0.  0.
         12    1    1    2    0    0  0.27622074156E+02  0.33670323423E+02 -0.11508421081E+02  0.45045681434E+02  0.00000000000E+00 0. -1.
         11    1    3    3    0    0  0.10578743680E+00 -0.34530457780E+01  0.13407447899E+01  0.37057135587E+01  0.51100000000E-03 0. -1.
        -11    1    3    3    0    0 -0.94729912302E+01 -0.10252959617E+02  0.54015992597E+01  0.14967899605E+02  0.51100000000E-03 0.  1.
         12    1    3    3    0    0 -0.18254870362E+02 -0.19964318027E+02  0.47660770310E+01  0.27468705403E+02  0.00000000000E+00 0. -1.
</event>
<event>
 7    1  0.5664398E-009  0.4614232E+02  0.7816164E-02  0.1320468E+00
        -11   -1    0    0    0    0  0.00000000000E+00  0.00000000000E+00  0.45593999997E+02  0.45594000000E+02  0.51100000000E-03 0. -1.
         11   -1    0    0    0    0 -0.00000000000E+00 -0.00000000000E+00 -0.45593999997E+02  0.45594000000E+02  0.51100000000E-03 0.  1.
    9900012    2    1    2    0    0  0.20661266010E+02  0.18928314683E+02 -0.35269598313E+02  0.46142316799E+02  0.99999912294E+01 0.  0.
         12    1    1    2    0    0 -0.20661266010E+02 -0.18928314683E+02  0.35269598313E+02  0.45045683201E+02  0.00000000000E+00 0. -1.
         11    1    3    3    0    0  0.84551375107E+01  0.59699681300E+01 -0.67468206707E+01  0.12355138980E+02  0.51100000000E-03 0. -1.
        -11    1    3    3    0    0  0.81246624844E+01  0.66212272638E+01 -0.18251811149E+02  0.21047075841E+02  0.51100000000E-03 0.  1.
         12    1    3    3    0    0  0.40814660151E+01  0.63371192892E+01 -0.10270966492E+02  0.12740101978E+02  0.00000000000E+00 0. -1.
</event>
<event>
 7    1  0.5664398E-009  0.4614232E+02  0.7816164E-02  0.1320468E+00
        -11   -1    0    0    0    0  0.00000000000E+00  0.00000000000E+00  0.45593999997E+02  0.45594000000E+02  0.51100000000E-03 0.  1.
         11   -1    0    0    0    0 -0.00000000000E+00 -0.00000000000E+00 -0.45593999997E+02  0.45594000000E+02  0.51100000000E-03 0. -1.
    9900012    2    1    2    0    0  0.17722327657E+02  0.38933368581E+02  0.14114711017E+02  0.46142321475E+02  0.10000033868E+02 0.  0.
        -12    1    1    2    0    0 -0.17722327657E+02 -0.38933368581E+02 -0.14114711017E+02  0.45045678525E+02  0.00000000000E+00 0.  1.
         11    1    3    3    0    0  0.57628639471E+00  0.57663647541E+01  0.42994251531E+01  0.72158246510E+01  0.51100000000E-03 0. -1.
        -11    1    3    3    0    0  0.72824937346E+01  0.17951287231E+02  0.32582924462E+01  0.19644335015E+02  0.51100000000E-03 0.  1.
         12    1    3    3    0    0  0.98635475278E+01  0.15215716596E+02  0.65569934176E+01  0.19282161810E+02  0.00000000000E+00 0. -1.
</event>
<event>
 7    1  0.5664398E-009  0.4614232E+02  0.7816164E-02  0.1320468E+00
        -11   -1    0    0    0    0  0.00000000000E+00  0.00000000000E+00  0.45593999997E+02  0.45594000000E+02  0.51100000000E-03 0. -1.
         11   -1    0    0    0    0 -0.00000000000E+00 -0.00000000000E+00 -0.45593999997E+02  0.45594000000E+02  0.51100000000E-03 0.  1.
    9900012    2    1    2    0    0  0.23320313610E+02  0.21060477870E+02 -0.32275883689E+02  0.46142318488E+02  0.10000006631E+02 0.  0.
         12    1    1    2    0    0 -0.23320313610E+02 -0.21060477870E+02  0.32275883689E+02  0.45045681512E+02  0.00000000000E+00 0. -1.
         11    1    3    3    0    0  0.37708073644E+01  0.76135764994E+01 -0.52028458027E+01  0.99626873884E+01  0.51100000000E-03 0. -1.
        -11    1    3    3    0    0  0.98108563505E+01  0.45972998306E+01 -0.11795524327E+02  0.16016318631E+02  0.51100000000E-03 0.  1.
         12    1    3    3    0    0  0.97386498948E+01  0.88496015403E+01 -0.15277513558E+02  0.20163312469E+02  0.00000000000E+00 0. -1.
</event>
<event>
 7    1  0.6021758E-009  0.4614232E+02  0.7816164E-02  0.1320468E+00
        -11   -1    0    0    0    0  0.00000000000E+00  0.00000000000E+00  0.45593999997E+02  0.45594000000E+02  0.51100000000E-03 0. -1.
         11   -1    0    0    0    0 -0.00000000000E+00 -0.00000000000E+00 -0.45593999997E+02  0.45594000000E+02  0.51100000000E-03 0.  1.
    9900012    2    1    2    0    0 -0.10967240692E+02  0.15851885143E+02  0.40713030853E+02  0.46142317497E+02  0.99999975890E+01 0.  0.
        -12    1    1    2    0    0  0.10967240692E+02 -0.15851885143E+02 -0.40713030853E+02  0.45045682503E+02  0.00000000000E+00 0.  1.
         11    1    3    3    0    0 -0.52564523147E+01  0.60814659274E+01  0.15818252781E+02  0.17743495711E+02  0.51100000000E-03 0. -1.
        -11    1    3    3    0    0 -0.33840966578E+01  0.31486241960E+01  0.32660023804E+01  0.56597452528E+01  0.51100000000E-03 0.  1.
         12    1    3    3    0    0 -0.23266917194E+01  0.66217950193E+01  0.21628775692E+02  0.22739076532E+02  0.00000000000E+00 0. -1.
</event>
<event>
 7    1  0.5664398E-009  0.4614232E+02  0.7816164E-02  0.1320468E+00
        -11   -1    0    0    0    0  0.00000000000E+00  0.00000000000E+00  0.45593999997E+02  0.45594000000E+02  0.51100000000E-03 0. -1.
         11   -1    0    0    0    0 -0.00000000000E+00 -0.00000000000E+00 -0.45593999997E+02  0.45594000000E+02  0.51100000000E-03 0.  1.
    9900012    2    1    2    0    0 -0.24959491858E+02  0.85233841836E+01  0.36516969717E+02  0.46142318863E+02  0.10000010052E+02 0.  0.
        -12    1    1    2    0    0  0.24959491858E+02 -0.85233841836E+01 -0.36516969717E+02  0.45045681137E+02  0.00000000000E+00 0.  1.
         11    1    3    3    0    0 -0.52168231699E+01  0.41123891080E+01  0.13277077495E+02  0.14846136711E+02  0.51100000000E-03 0. -1.
        -11    1    3    3    0    0 -0.17438724046E+02  0.56281758501E+01  0.19760776017E+02  0.26949466206E+02  0.51100000000E-03 0.  1.
         12    1    3    3    0    0 -0.23039446420E+01 -0.12171807745E+01  0.34791162052E+01  0.43467159466E+01  0.00000000000E+00 0. -1.
</event>
<event>
 7    1  0.5664398E-009  0.4614233E+02  0.7816164E-02  0.1320468E+00
        -11   -1    0    0    0    0  0.00000000000E+00  0.00000000000E+00  0.45593999997E+02  0.45594000000E+02  0.51100000000E-03 0. -1.
         11   -1    0    0    0    0 -0.00000000000E+00 -0.00000000000E+00 -0.45593999997E+02  0.45594000000E+02  0.51100000000E-03 0.  1.
    9900012    2    1    2    0    0 -0.19331202637E+02  0.91023032901E+01  0.39655582239E+02  0.46142328473E+02  0.10000097682E+02 0.  0.
        -12    1    1    2    0    0  0.19331202637E+02 -0.91023032901E+01 -0.39655582239E+02  0.45045671527E+02  0.00000000000E+00 0.  1.
         11    1    3    3    0    0 -0.75170241294E+01 -0.12869405602E+01  0.11089717348E+02  0.13458963515E+02  0.51100000000E-03 0.  1.
        -11    1    3    3    0    0 -0.59244298190E+01  0.55546159735E+01  0.12568862181E+02  0.14964254879E+02  0.51100000000E-03 0. -1.
         12    1    3    3    0    0 -0.58897486884E+01  0.48346278769E+01  0.15997002709E+02  0.17719110079E+02  0.00000000000E+00 0. -1.
</event>
<event>
 7    1  0.5664398E-009  0.4614232E+02  0.7816164E-02  0.1320468E+00
        -11   -1    0    0    0    0  0.00000000000E+00  0.00000000000E+00  0.45593999997E+02  0.45594000000E+02  0.51100000000E-03 0. -1.
         11   -1    0    0    0    0 -0.00000000000E+00 -0.00000000000E+00 -0.45593999997E+02  0.45594000000E+02  0.51100000000E-03 0.  1.
    9900012    2    1    2    0    0 -0.36159818184E+02  0.46558919701E+01  0.26455694358E+02  0.46142317131E+02  0.99999942550E+01 0.  0.
        -12    1    1    2    0    0  0.36159818184E+02 -0.46558919701E+01 -0.26455694358E+02  0.45045682869E+02  0.00000000000E+00 0.  1.
         11    1    3    3    0    0 -0.25523796374E+02  0.48500884483E+01  0.20863850615E+02  0.33320981409E+02  0.51100000000E-03 0. -1.
        -11    1    3    3    0    0 -0.78092896865E+01  0.18464965998E+01  0.34925907776E+01  0.87517281551E+01  0.51100000000E-03 0.  1.
        -12    1    3    3    0    0 -0.28267321232E+01 -0.20406930779E+01  0.20992529664E+01  0.40696075673E+01  0.00000000000E+00 0.  1.
</event>
<event>
 7    1  0.5664398E-009  0.4614233E+02  0.7816164E-02  0.1320468E+00
        -11   -1    0    0    0    0  0.00000000000E+00  0.00000000000E+00  0.45593999997E+02  0.45594000000E+02  0.51100000000E-03 0. -1.
         11   -1    0    0    0    0 -0.00000000000E+00 -0.00000000000E+00 -0.45593999997E+02  0.45594000000E+02  0.51100000000E-03 0.  1.
    9900012    2    1    2    0    0 -0.19748148676E+02  0.98372094396E+01 -0.39272792738E+02  0.46142330784E+02  0.10000118751E+02 0.  0.
         12    1    1    2    0    0  0.19748148676E+02 -0.98372094396E+01  0.39272792738E+02  0.45045669216E+02  0.00000000000E+00 0. -1.
         11    1    3    3    0    0 -0.11766250893E+01  0.11487475478E+01 -0.14730014522E+00  0.16509891348E+01  0.51100000000E-03 0. -1.
        -11    1    3    3    0    0 -0.68794733450E+01  0.22081829354E+01 -0.19032966276E+02  0.20358217773E+02  0.51100000000E-03 0.  1.
        -12    1    3    3    0    0 -0.11692050242E+02  0.64802789564E+01 -0.20092526317E+02  0.24133123876E+02  0.00000000000E+00 0.  1.
</event>
<event>
 7    1  0.5664398E-009  0.4614232E+02  0.7816164E-02  0.1320468E+00
        -11   -1    0    0    0    0  0.00000000000E+00  0.00000000000E+00  0.45593999997E+02  0.45594000000E+02  0.51100000000E-03 0. -1.
         11   -1    0    0    0    0 -0.00000000000E+00 -0.00000000000E+00 -0.45593999997E+02  0.45594000000E+02  0.51100000000E-03 0.  1.
    9900012    2    1    2    0    0  0.41074539193E+02  0.26172079123E+01  0.18306992205E+02  0.46142317512E+02  0.99999977313E+01 0.  0.
        -12    1    1    2    0    0 -0.41074539193E+02 -0.26172079123E+01 -0.18306992205E+02  0.45045682488E+02  0.00000000000E+00 0.  1.
         11    1    3    3    0    0  0.74013991494E+01  0.16083703660E+01  0.54671410773E+01  0.93411560539E+01  0.51100000000E-03 0. -1.
        -11    1    3    3    0    0  0.22311377520E+02  0.32217161141E+01  0.58890743228E+01  0.23299317977E+02  0.51100000000E-03 0.  1.
        -12    1    3    3    0    0  0.11361762524E+02 -0.22128785678E+01  0.69507768046E+01  0.13501843481E+02  0.00000000000E+00 0.  1.
</event>
<event>
 7    1  0.5664398E-009  0.4614232E+02  0.7816164E-02  0.1320468E+00
        -11   -1    0    0    0    0  0.00000000000E+00  0.00000000000E+00  0.45593999997E+02  0.45594000000E+02  0.51100000000E-03 0. -1.
         11   -1    0    0    0    0 -0.00000000000E+00 -0.00000000000E+00 -0.45593999997E+02  0.45594000000E+02  0.51100000000E-03 0.  1.
    9900012    2    1    2    0    0 -0.27689286357E+02 -0.19105716083E+02 -0.29956444623E+02  0.46142317184E+02  0.99999947332E+01 0.  0.
         12    1    1    2    0    0  0.27689286357E+02  0.19105716083E+02  0.29956444623E+02  0.45045682816E+02  0.00000000000E+00 0. -1.
         11    1    3    3    0    0 -0.69120700878E+01 -0.49893148041E+01 -0.62802724450E+01  0.10588285855E+02  0.51100000000E-03 0.  1.
        -11    1    3    3    0    0 -0.32466184978E+01 -0.24729954160E+01 -0.90439566282E+01  0.99221665855E+01  0.51100000000E-03 0. -1.
         12    1    3    3    0    0 -0.17530597771E+02 -0.11643405863E+02 -0.14632215549E+02  0.25631864743E+02  0.00000000000E+00 0. -1.
</event>
<event>
 7    1  0.5664398E-009  0.4614232E+02  0.7816164E-02  0.1320468E+00
        -11   -1    0    0    0    0  0.00000000000E+00  0.00000000000E+00  0.45593999997E+02  0.45594000000E+02  0.51100000000E-03 0. -1.
         11   -1    0    0    0    0 -0.00000000000E+00 -0.00000000000E+00 -0.45593999997E+02  0.45594000000E+02  0.51100000000E-03 0.  1.
    9900012    2    1    2    0    0 -0.25444814475E+02  0.27826434428E+02 -0.24644765513E+02  0.46142317590E+02  0.99999984354E+01 0.  0.
         12    1    1    2    0    0  0.25444814475E+02 -0.27826434428E+02  0.24644765513E+02  0.45045682410E+02  0.00000000000E+00 0. -1.
         11    1    3    3    0    0 -0.26138010390E+01  0.15464097284E+01 -0.95529197529E+00  0.31836962699E+01  0.51100000000E-03 0. -1.
        -11    1    3    3    0    0 -0.19962237896E+02  0.25920605905E+02 -0.20296375283E+02  0.38500800020E+02  0.51100000000E-03 0.  1.
        -12    1    3    3    0    0 -0.28687755397E+01  0.35941879394E+00 -0.33930982555E+01  0.44578212995E+01  0.00000000000E+00 0.  1.
</event>
<event>
 7    1  0.5664398E-009  0.4614232E+02  0.7816164E-02  0.1320468E+00
        -11   -1    0    0    0    0  0.00000000000E+00  0.00000000000E+00  0.45593999997E+02  0.45594000000E+02  0.51100000000E-03 0. -1.
         11   -1    0    0    0    0 -0.00000000000E+00 -0.00000000000E+00 -0.45593999997E+02  0.45594000000E+02  0.51100000000E-03 0.  1.
    9900012    2    1    2    0    0 -0.35763746152E+02  0.11610484219E+02  0.24804527736E+02  0.46142317867E+02  0.10000000961E+02 0.  0.
        -12    1    1    2    0    0  0.35763746152E+02 -0.11610484219E+02 -0.24804527736E+02  0.45045682133E+02  0.00000000000E+00 0.  1.
         11    1    3    3    0    0 -0.19282681163E+02  0.43204667496E+01  0.12576337705E+02  0.23423332301E+02  0.51100000000E-03 0. -1.
        -11    1    3    3    0    0 -0.16994086192E+02  0.72535486810E+01  0.11302714561E+02  0.21660200615E+02  0.51100000000E-03 0.  1.
        -12    1    3    3    0    0  0.51302120211E+00  0.36468788625E-01  0.92547546958E+00  0.10587849504E+01  0.00000000000E+00 0.  1.
</event>
<event>
 7    1  0.5664398E-009  0.4614232E+02  0.7816164E-02  0.1320468E+00
        -11   -1    0    0    0    0  0.00000000000E+00  0.00000000000E+00  0.45593999997E+02  0.45594000000E+02  0.51100000000E-03 0. -1.
         11   -1    0    0    0    0 -0.00000000000E+00 -0.00000000000E+00 -0.45593999997E+02  0.45594000000E+02  0.51100000000E-03 0.  1.
    9900012    2    1    2    0    0  0.13533229434E+02  0.17735465516E+02  0.39133342066E+02  0.46142317663E+02  0.99999991018E+01 0.  0.
        -12    1    1    2    0    0 -0.13533229434E+02 -0.17735465516E+02 -0.39133342066E+02  0.45045682337E+02  0.00000000000E+00 0.  1.
         11    1    3    3    0    0  0.93534619134E+01  0.10128656380E+02  0.25336507280E+02  0.28844679427E+02  0.51100000000E-03 0. -1.
        -11    1    3    3    0    0  0.29010054920E+00  0.39431129218E+01  0.99695813764E+01  0.10724963912E+02  0.51100000000E-03 0.  1.
        -12    1    3    3    0    0  0.38896669714E+01  0.36636962136E+01  0.38272534095E+01  0.65726743229E+01  0.00000000000E+00 0.  1.
</event>
<event>
 7    1  0.5664398E-009  0.4614232E+02  0.7816164E-02  0.1320468E+00
        -11   -1    0    0    0    0  0.00000000000E+00  0.00000000000E+00  0.45593999997E+02  0.45594000000E+02  0.51100000000E-03 0. -1.
         11   -1    0    0    0    0 -0.00000000000E+00 -0.00000000000E+00 -0.45593999997E+02  0.45594000000E+02  0.51100000000E-03 0.  1.
    9900012    2    1    2    0    0 -0.53148805751E+01  0.32660203351E+02 -0.30564302585E+02  0.46142318399E+02  0.10000005813E+02 0.  0.
         12    1    1    2    0    0  0.53148805751E+01 -0.32660203351E+02  0.30564302585E+02  0.45045681601E+02  0.00000000000E+00 0. -1.
         11    1    3    3    0    0 -0.38499673166E+01  0.51861321695E+01 -0.44689095894E+01  0.78542579788E+01  0.51100000000E-03 0. -1.
        -11    1    3    3    0    0  0.56891104344E+00  0.19352513868E+02 -0.20617215153E+02  0.28282733491E+02  0.51100000000E-03 0.  1.
         12    1    3    3    0    0 -0.20338243020E+01  0.81215573132E+01 -0.54781778424E+01  0.10005326929E+02  0.00000000000E+00 0. -1.
</event>
<event>
 7    1  0.6338701E-009  0.4614232E+02  0.7816164E-02  0.1320468E+00
        -11   -1    0    0    0    0  0.00000000000E+00  0.00000000000E+00  0.45593999997E+02  0.45594000000E+02  0.51100000000E-03 0. -1.
         11   -1    0    0    0    0 -0.00000000000E+00 -0.00000000000E+00 -0.45593999997E+02  0.45594000000E+02  0.51100000000E-03 0.  1.
    9900012    2    1    2    0    0 -0.19485994610E+01 -0.10515470007E+02  0.43757756009E+02  0.46142319183E+02  0.10000012966E+02 0.  0.
        -12    1    1    2    0    0  0.19485994610E+01  0.10515470007E+02 -0.43757756009E+02  0.45045680817E+02  0.00000000000E+00 0.  1.
         11    1    3    3    0    0  0.47141551923E+00 -0.34028457433E+00  0.60413090976E+01  0.60692208772E+01  0.51100000000E-03 0. -1.
        -11    1    3    3    0    0 -0.14417844205E+01  0.46411083136E+00  0.95512577839E+00  0.17906442116E+01  0.51100000000E-03 0.  1.
         12    1    3    3    0    0 -0.97823055971E+00 -0.10639296264E+02  0.36761321133E+02  0.38282454094E+02  0.00000000000E+00 0. -1.
</event>
<event>
 7    1  0.5664398E-009  0.4614232E+02  0.7816164E-02  0.1320468E+00
        -11   -1    0    0    0    0  0.00000000000E+00  0.00000000000E+00  0.45593999997E+02  0.45594000000E+02  0.51100000000E-03 0.  1.
         11   -1    0    0    0    0 -0.00000000000E+00 -0.00000000000E+00 -0.45593999997E+02  0.45594000000E+02  0.51100000000E-03 0. -1.
    9900012    2    1    2    0    0 -0.25494852638E+02  0.10160993599E+02 -0.35719465190E+02  0.46142317683E+02  0.99999992843E+01 0.  0.
         12    1    1    2    0    0  0.25494852638E+02 -0.10160993599E+02  0.35719465190E+02  0.45045682317E+02  0.00000000000E+00 0. -1.
         11    1    3    3    0    0 -0.11323149592E+02  0.41529134236E+01 -0.96905534344E+01  0.15471497430E+02  0.51100000000E-03 0. -1.
        -11    1    3    3    0    0 -0.10420920696E+02  0.49623481491E+01 -0.14690179989E+02  0.18682127172E+02  0.51100000000E-03 0.  1.
         12    1    3    3    0    0 -0.37507823504E+01  0.10457320262E+01 -0.11338731767E+02  0.11988693081E+02  0.00000000000E+00 0. -1.
</event>
<event>
 7    1  0.5664398E-009  0.4614232E+02  0.7816164E-02  0.1320468E+00
        -11   -1    0    0    0    0  0.00000000000E+00  0.00000000000E+00  0.45593999997E+02  0.45594000000E+02  0.51100000000E-03 0. -1.
         11   -1    0    0    0    0 -0.00000000000E+00 -0.00000000000E+00 -0.45593999997E+02  0.45594000000E+02  0.51100000000E-03 0.  1.
    9900012    2    1    2    0    0  0.15224547116E+02 -0.21144675339E+02 -0.36745467584E+02  0.46142317432E+02  0.99999969963E+01 0.  0.
         12    1    1    2    0    0 -0.15224547116E+02  0.21144675339E+02  0.36745467584E+02  0.45045682568E+02  0.00000000000E+00 0. -1.
         11    1    3    3    0    0  0.71594569040E+01 -0.11864867134E+02 -0.16852625046E+02  0.21818429514E+02  0.51100000000E-03 0.  1.
        -11    1    3    3    0    0  0.92484792576E+01 -0.83388415128E+01 -0.18221228882E+02  0.22069975727E+02  0.51100000000E-03 0. -1.
        -12    1    3    3    0    0 -0.11833890453E+01 -0.94096669295E+00 -0.16716136553E+01  0.22539121905E+01  0.00000000000E+00 0.  1.
</event>
<event>
 7    1  0.5664398E-009  0.4614232E+02  0.7816164E-02  0.1320468E+00
        -11   -1    0    0    0    0  0.00000000000E+00  0.00000000000E+00  0.45593999997E+02  0.45594000000E+02  0.51100000000E-03 0. -1.
         11   -1    0    0    0    0 -0.00000000000E+00 -0.00000000000E+00 -0.45593999997E+02  0.45594000000E+02  0.51100000000E-03 0.  1.
    9900012    2    1    2    0    0  0.11443051587E+02  0.68069593628E+01  0.43032955247E+02  0.46142319157E+02  0.10000012727E+02 0.  0.
        -12    1    1    2    0    0 -0.11443051587E+02 -0.68069593628E+01 -0.43032955247E+02  0.45045680843E+02  0.00000000000E+00 0.  1.
         11    1    3    3    0    0  0.34633505980E+01 -0.16927610136E+01  0.16712741086E+02  0.17151558299E+02  0.51100000000E-03 0.  1.
        -11    1    3    3    0    0  0.30315350982E+01  0.12853996496E+01  0.90671625623E+01  0.96465483207E+01  0.51100000000E-03 0. -1.
        -12    1    3    3    0    0  0.49481658904E+01  0.72143207268E+01  0.17253051598E+02  0.19344212537E+02  0.00000000000E+00 0.  1.
</event>
<event>
 7    1  0.5664398E-009  0.4614232E+02  0.7816164E-02  0.1320468E+00
        -11   -1    0    0    0    0  0.00000000000E+00  0.00000000000E+00  0.45593999997E+02  0.45594000000E+02  0.51100000000E-03 0. -1.
         11   -1    0    0    0    0 -0.00000000000E+00 -0.00000000000E+00 -0.45593999997E+02  0.45594000000E+02  0.51100000000E-03 0.  1.
    9900012    2    1    2    0    0 -0.43375024336E+01 -0.37671601138E+02  0.24313576496E+02  0.46142318057E+02  0.10000002700E+02 0.  0.
        -12    1    1    2    0    0  0.43375024336E+01  0.37671601138E+02 -0.24313576496E+02  0.45045681943E+02  0.00000000000E+00 0.  1.
         11    1    3    3    0    0  0.84760980431E+00 -0.25195902759E+02  0.15545667892E+02  0.29617895751E+02  0.51100000000E-03 0. -1.
        -11    1    3    3    0    0 -0.44595785296E-03 -0.41460553702E+01  0.19855866995E+01  0.45969914220E+01  0.51100000000E-03 0.  1.
        -12    1    3    3    0    0 -0.51846662800E+01 -0.83296430087E+01  0.67823219049E+01  0.11927430885E+02  0.00000000000E+00 0.  1.
</event>
<event>
 7    1  0.5664398E-009  0.4614232E+02  0.7816164E-02  0.1320468E+00
        -11   -1    0    0    0    0  0.00000000000E+00  0.00000000000E+00  0.45593999997E+02  0.45594000000E+02  0.51100000000E-03 0. -1.
         11   -1    0    0    0    0 -0.00000000000E+00 -0.00000000000E+00 -0.45593999997E+02  0.45594000000E+02  0.51100000000E-03 0.  1.
    9900012    2    1    2    0    0 -0.50351899903E+01  0.99936372032E+01 -0.43633560469E+02  0.46142317388E+02  0.99999965960E+01 0.  0.
         12    1    1    2    0    0  0.50351899903E+01 -0.99936372032E+01  0.43633560469E+02  0.45045682612E+02  0.00000000000E+00 0. -1.
         11    1    3    3    0    0 -0.20060567922E+01  0.23570811913E+01 -0.42680107279E+01  0.52721922794E+01  0.51100000000E-03 0. -1.
        -11    1    3    3    0    0 -0.23310071953E+01  0.80168664928E+01 -0.22716910953E+02  0.24202516118E+02  0.51100000000E-03 0.  1.
         12    1    3    3    0    0 -0.69812600284E+00 -0.38031048092E+00 -0.16648638788E+02  0.16667608991E+02  0.00000000000E+00 0. -1.
</event>
<event>
 7    1  0.5664398E-009  0.4614232E+02  0.7816164E-02  0.1320468E+00
        -11   -1    0    0    0    0  0.00000000000E+00  0.00000000000E+00  0.45593999997E+02  0.45594000000E+02  0.51100000000E-03 0. -1.
         11   -1    0    0    0    0 -0.00000000000E+00 -0.00000000000E+00 -0.45593999997E+02  0.45594000000E+02  0.51100000000E-03 0.  1.
    9900012    2    1    2    0    0  0.72048208659E+01  0.49287895134E+01  0.44191751934E+02  0.46142319310E+02  0.10000014127E+02 0.  0.
        -12    1    1    2    0    0 -0.72048208659E+01 -0.49287895134E+01 -0.44191751934E+02  0.45045680690E+02  0.00000000000E+00 0.  1.
         11    1    3    3    0    0  0.56663699881E+01 -0.48629039078E+00  0.31020895104E+02  0.31537916236E+02  0.51100000000E-03 0. -1.
        -11    1    3    3    0    0 -0.46142505172E+00  0.13354922996E+01  0.55944593525E+01  0.57701324481E+01  0.51100000000E-03 0.  1.
         12    1    3    3    0    0  0.19998759294E+01  0.40795876046E+01  0.75763974773E+01  0.88342706259E+01  0.00000000000E+00 0. -1.
</event>
<event>
 7    1  0.5664398E-009  0.4614232E+02  0.7816164E-02  0.1320468E+00
        -11   -1    0    0    0    0  0.00000000000E+00  0.00000000000E+00  0.45593999997E+02  0.45594000000E+02  0.51100000000E-03 0. -1.
         11   -1    0    0    0    0 -0.00000000000E+00 -0.00000000000E+00 -0.45593999997E+02  0.45594000000E+02  0.51100000000E-03 0.  1.
    9900012    2    1    2    0    0  0.29078865727E+02  0.34293954817E+02  0.27308544296E+01  0.46142319465E+02  0.10000015537E+02 0.  0.
        -12    1    1    2    0    0 -0.29078865727E+02 -0.34293954817E+02 -0.27308544296E+01  0.45045680535E+02  0.00000000000E+00 0.  1.
         11    1    3    3    0    0  0.15259339552E+02  0.13616278623E+02  0.37554111671E+01  0.20793114254E+02  0.51100000000E-03 0.  1.
        -11    1    3    3    0    0  0.11771558278E+02  0.18442836800E+02  0.64433074973E+00  0.21888877904E+02  0.51100000000E-03 0. -1.
        -12    1    3    3    0    0  0.20479678972E+01  0.22348393941E+01 -0.16688874872E+01  0.34603273069E+01  0.00000000000E+00 0.  1.
</event>
<event>
 7    1  0.5664398E-009  0.4614232E+02  0.7816164E-02  0.1320468E+00
        -11   -1    0    0    0    0  0.00000000000E+00  0.00000000000E+00  0.45593999997E+02  0.45594000000E+02  0.51100000000E-03 0. -1.
         11   -1    0    0    0    0 -0.00000000000E+00 -0.00000000000E+00 -0.45593999997E+02  0.45594000000E+02  0.51100000000E-03 0.  1.
    9900012    2    1    2    0    0  0.34989137538E+02  0.15519369881E+02  0.23749165095E+02  0.46142318410E+02  0.10000005920E+02 0.  0.
        -12    1    1    2    0    0 -0.34989137538E+02 -0.15519369881E+02 -0.23749165095E+02  0.45045681590E+02  0.00000000000E+00 0.  1.
         11    1    3    3    0    0  0.11797565307E+02  0.70095022845E+01  0.10053164156E+02  0.17011225096E+02  0.51100000000E-03 0. -1.
        -11    1    3    3    0    0  0.82786414077E+01  0.31096707212E+01  0.11694530818E+01  0.89204022512E+01  0.51100000000E-03 0.  1.
        -12    1    3    3    0    0  0.14912930823E+02  0.54001968753E+01  0.12526547858E+02  0.20210691063E+02  0.00000000000E+00 0.  1.
</event>
<event>
 7    1  0.5664398E-009  0.4614232E+02  0.7816164E-02  0.1320468E+00
        -11   -1    0    0    0    0  0.00000000000E+00  0.00000000000E+00  0.45593999997E+02  0.45594000000E+02  0.51100000000E-03 0.  1.
         11   -1    0    0    0    0 -0.00000000000E+00 -0.00000000000E+00 -0.45593999997E+02  0.45594000000E+02  0.51100000000E-03 0. -1.
    9900012    2    1    2    0    0 -0.25888398690E+02  0.35968670439E+02 -0.80721153083E+01  0.46142317794E+02  0.10000000301E+02 0.  0.
         12    1    1    2    0    0  0.25888398690E+02 -0.35968670439E+02  0.80721153083E+01  0.45045682206E+02  0.00000000000E+00 0. -1.
         11    1    3    3    0    0 -0.52007154170E+00  0.83339834054E+00 -0.93758850341E+00  0.13579763125E+01  0.51100000000E-03 0. -1.
        -11    1    3    3    0    0 -0.22960216781E+02  0.27105064023E+02 -0.78188918001E+01  0.36372944884E+02  0.51100000000E-03 0.  1.
         12    1    3    3    0    0 -0.24081103668E+01  0.80302080751E+01  0.68436499513E+00  0.84113965972E+01  0.00000000000E+00 0. -1.
</event>
<event>
 7    1  0.5664398E-009  0.4614232E+02  0.7816164E-02  0.1320468E+00
        -11   -1    0    0    0    0  0.00000000000E+00  0.00000000000E+00  0.45593999997E+02  0.45594000000E+02  0.51100000000E-03 0.  1.
         11   -1    0    0    0    0 -0.00000000000E+00 -0.00000000000E+00 -0.45593999997E+02  0.45594000000E+02  0.51100000000E-03 0. -1.
    9900012    2    1    2    0    0  0.11558868234E+02  0.34131283834E+02 -0.27028903123E+02  0.46142316799E+02  0.99999912292E+01 0.  0.
         12    1    1    2    0    0 -0.11558868234E+02 -0.34131283834E+02  0.27028903123E+02  0.45045683201E+02  0.00000000000E+00 0. -1.
         11    1    3    3    0    0  0.11944045563E+01 -0.25997789153E+00 -0.71645199949E+00  0.14168607825E+01  0.51100000000E-03 0. -1.
        -11    1    3    3    0    0  0.53613285947E+01  0.15191540954E+02 -0.93804817039E+01  0.18641893630E+02  0.51100000000E-03 0.  1.
        -12    1    3    3    0    0  0.50031350829E+01  0.19199720771E+02 -0.16931969420E+02  0.26083562387E+02  0.00000000000E+00 0.  1.
</event>
<event>
 7    1  0.5664398E-009  0.4614230E+02  0.7816164E-02  0.1320468E+00
        -11   -1    0    0    0    0  0.00000000000E+00  0.00000000000E+00  0.45593999997E+02  0.45594000000E+02  0.51100000000E-03 0. -1.
         11   -1    0    0    0    0 -0.00000000000E+00 -0.00000000000E+00 -0.45593999997E+02  0.45594000000E+02  0.51100000000E-03 0.  1.
    9900012    2    1    2    0    0  0.36193786113E+02  0.14510042182E+02  0.22551791491E+02  0.46142303460E+02  0.99998695904E+01 0.  0.
        -12    1    1    2    0    0 -0.36193786113E+02 -0.14510042182E+02 -0.22551791491E+02  0.45045696540E+02  0.00000000000E+00 0.  1.
         11    1    3    3    0    0  0.14813066485E+02  0.28279049064E+01  0.58061972592E+01  0.16159700237E+02  0.51100000000E-03 0. -1.
        -11    1    3    3    0    0  0.18060036832E+01  0.17359522726E+00  0.80182807827E-01  0.18160986070E+01  0.51100000000E-03 0.  1.
        -12    1    3    3    0    0  0.19574715945E+02  0.11508542048E+02  0.16665411424E+02  0.28166504616E+02  0.00000000000E+00 0.  1.
</event>
<event>
 7    1  0.5664398E-009  0.4614232E+02  0.7816164E-02  0.1320468E+00
        -11   -1    0    0    0    0  0.00000000000E+00  0.00000000000E+00  0.45593999997E+02  0.45594000000E+02  0.51100000000E-03 0. -1.
         11   -1    0    0    0    0 -0.00000000000E+00 -0.00000000000E+00 -0.45593999997E+02  0.45594000000E+02  0.51100000000E-03 0.  1.
    9900012    2    1    2    0    0 -0.42124245588E+02 -0.84432732176E+01  0.13541510944E+02  0.46142318213E+02  0.10000004123E+02 0.  0.
        -12    1    1    2    0    0  0.42124245588E+02  0.84432732176E+01 -0.13541510944E+02  0.45045681787E+02  0.00000000000E+00 0.  1.
         11    1    3    3    0    0 -0.21519308347E+01 -0.15449688525E+01 -0.76092183570E+00  0.27562179474E+01  0.51100000000E-03 0. -1.
        -11    1    3    3    0    0 -0.49023856726E+01 -0.12464493494E+01  0.38528693657E+01  0.63585866255E+01  0.51100000000E-03 0.  1.
         12    1    3    3    0    0 -0.35069929081E+02 -0.56518550157E+01  0.10449563414E+02  0.37027513640E+02  0.00000000000E+00 0. -1.
</event>
<event>
 7    1  0.5664398E-009  0.4614232E+02  0.7816164E-02  0.1320468E+00
        -11   -1    0    0    0    0  0.00000000000E+00  0.00000000000E+00  0.45593999997E+02  0.45594000000E+02  0.51100000000E-03 0. -1.
         11   -1    0    0    0    0 -0.00000000000E+00 -0.00000000000E+00 -0.45593999997E+02  0.45594000000E+02  0.51100000000E-03 0.  1.
    9900012    2    1    2    0    0  0.17946415127E+02 -0.12979811212E+02  0.39224537944E+02  0.46142315502E+02  0.99999793977E+01 0.  0.
        -12    1    1    2    0    0 -0.17946415127E+02  0.12979811212E+02 -0.39224537944E+02  0.45045684498E+02  0.00000000000E+00 0.  1.
         11    1    3    3    0    0  0.61422158676E+00 -0.54257992729E+00  0.42443966099E+01  0.43227958520E+01  0.51100000000E-03 0.  1.
        -11    1    3    3    0    0  0.16648694956E+02 -0.81532591523E+01  0.27307133666E+02  0.33005063670E+02  0.51100000000E-03 0. -1.
         12    1    3    3    0    0  0.68349858396E+00 -0.42839721328E+01  0.76730076675E+01  0.88144559795E+01  0.00000000000E+00 0. -1.
</event>
<event>
 7    1  0.5664398E-009  0.4614232E+02  0.7816164E-02  0.1320468E+00
        -11   -1    0    0    0    0  0.00000000000E+00  0.00000000000E+00  0.45593999997E+02  0.45594000000E+02  0.51100000000E-03 0. -1.
         11   -1    0    0    0    0 -0.00000000000E+00 -0.00000000000E+00 -0.45593999997E+02  0.45594000000E+02  0.51100000000E-03 0.  1.
    9900012    2    1    2    0    0  0.39023630365E+02  0.97126053524E+01 -0.20296182246E+02  0.46142318261E+02  0.10000004555E+02 0.  0.
         12    1    1    2    0    0 -0.39023630365E+02 -0.97126053524E+01  0.20296182246E+02  0.45045681739E+02  0.00000000000E+00 0. -1.
         11    1    3    3    0    0  0.33219430317E+01  0.32724981601E+01 -0.42117882494E+01  0.62836064670E+01  0.51100000000E-03 0. -1.
        -11    1    3    3    0    0  0.45785397409E+01  0.73815733495E+00 -0.34857308658E+01  0.58015706787E+01  0.51100000000E-03 0.  1.
         12    1    3    3    0    0  0.31123147592E+02  0.57019498574E+01 -0.12598663131E+02  0.34057141115E+02  0.00000000000E+00 0. -1.
</event>
<event>
 7    1  0.5664398E-009  0.4614232E+02  0.7816164E-02  0.1320468E+00
        -11   -1    0    0    0    0  0.00000000000E+00  0.00000000000E+00  0.45593999997E+02  0.45594000000E+02  0.51100000000E-03 0.  1.
         11   -1    0    0    0    0 -0.00000000000E+00 -0.00000000000E+00 -0.45593999997E+02  0.45594000000E+02  0.51100000000E-03 0. -1.
    9900012    2    1    2    0    0 -0.29610019920E+02 -0.32331513797E+02 -0.10345694578E+02  0.46142318072E+02  0.10000002837E+02 0.  0.
        -12    1    1    2    0    0  0.29610019920E+02  0.32331513797E+02  0.10345694578E+02  0.45045681928E+02  0.00000000000E+00 0.  1.
         11    1    3    3    0    0 -0.41845186187E+01 -0.52405824227E+01  0.11597482070E+01  0.68058002001E+01  0.51100000000E-03 0. -1.
        -11    1    3    3    0    0 -0.11643078332E+02 -0.82863690617E+01 -0.39103367202E+01  0.14816069613E+02  0.51100000000E-03 0.  1.
         12    1    3    3    0    0 -0.13782422969E+02 -0.18804562313E+02 -0.75951060647E+01  0.24520448259E+02  0.00000000000E+00 0. -1.
</event>
<event>
 7    1  0.5664398E-009  0.4614232E+02  0.7816164E-02  0.1320468E+00
        -11   -1    0    0    0    0  0.00000000000E+00  0.00000000000E+00  0.45593999997E+02  0.45594000000E+02  0.51100000000E-03 0.  1.
         11   -1    0    0    0    0 -0.00000000000E+00 -0.00000000000E+00 -0.45593999997E+02  0.45594000000E+02  0.51100000000E-03 0. -1.
    9900012    2    1    2    0    0  0.44804563496E+02 -0.35893828236E+01  0.29632550465E+01  0.46142318080E+02  0.10000002910E+02 0.  0.
         12    1    1    2    0    0 -0.44804563496E+02  0.35893828236E+01 -0.29632550465E+01  0.45045681920E+02  0.00000000000E+00 0. -1.
         11    1    3    3    0    0  0.21157797059E+02 -0.26366345553E+01 -0.54834939672E+00  0.21328499841E+02  0.51100000000E-03 0. -1.
        -11    1    3    3    0    0  0.21217680977E+02  0.95560807467E+00  0.18850111426E+01  0.21322674318E+02  0.51100000000E-03 0.  1.
        -12    1    3    3    0    0  0.24290854609E+01 -0.19083563429E+01  0.16265933006E+01  0.34911439205E+01  0.00000000000E+00 0.  1.
</event>
<event>
 7    1  0.5664398E-009  0.4614232E+02  0.7816164E-02  0.1320468E+00
        -11   -1    0    0    0    0  0.00000000000E+00  0.00000000000E+00  0.45593999997E+02  0.45594000000E+02  0.51100000000E-03 0. -1.
         11   -1    0    0    0    0 -0.00000000000E+00 -0.00000000000E+00 -0.45593999997E+02  0.45594000000E+02  0.51100000000E-03 0.  1.
    9900012    2    1    2    0    0 -0.49190121140E+01  0.27835393873E+02  0.35072890214E+02  0.46142318073E+02  0.10000002847E+02 0.  0.
        -12    1    1    2    0    0  0.49190121140E+01 -0.27835393873E+02 -0.35072890214E+02  0.45045681927E+02  0.00000000000E+00 0.  1.
         11    1    3    3    0    0 -0.18678345600E+00  0.13555163290E+02  0.14998559736E+02  0.20217174241E+02  0.51100000000E-03 0. -1.
        -11    1    3    3    0    0 -0.51030216590E+01  0.96935448035E+01  0.17517713282E+02  0.20660975771E+02  0.51100000000E-03 0.  1.
        -12    1    3    3    0    0  0.37079300093E+00  0.45866857793E+01  0.25566171959E+01  0.52641680610E+01  0.00000000000E+00 0.  1.
</event>
<event>
 7    1  0.5664398E-009  0.4614232E+02  0.7816164E-02  0.1320468E+00
        -11   -1    0    0    0    0  0.00000000000E+00  0.00000000000E+00  0.45593999997E+02  0.45594000000E+02  0.51100000000E-03 0. -1.
         11   -1    0    0    0    0 -0.00000000000E+00 -0.00000000000E+00 -0.45593999997E+02  0.45594000000E+02  0.51100000000E-03 0.  1.
    9900012    2    1    2    0    0 -0.12595351739E+02 -0.53336063106E+00 -0.43245649651E+02  0.46142316825E+02  0.99999914608E+01 0.  0.
         12    1    1    2    0    0  0.12595351739E+02  0.53336063106E+00  0.43245649651E+02  0.45045683175E+02  0.00000000000E+00 0. -1.
         11    1    3    3    0    0 -0.58812957739E+01 -0.20413327003E+01 -0.18496728318E+02  0.19516291602E+02  0.51100000000E-03 0. -1.
        -11    1    3    3    0    0 -0.59170312074E+01 -0.53698856067E+00 -0.23176947413E+02  0.23926355901E+02  0.51100000000E-03 0.  1.
         12    1    3    3    0    0 -0.79702475812E+00  0.20449606299E+01 -0.15719739196E+01  0.26996693217E+01  0.00000000000E+00 0. -1.
</event>
<event>
 7    1  0.5664398E-009  0.4614232E+02  0.7816164E-02  0.1320468E+00
        -11   -1    0    0    0    0  0.00000000000E+00  0.00000000000E+00  0.45593999997E+02  0.45594000000E+02  0.51100000000E-03 0. -1.
         11   -1    0    0    0    0 -0.00000000000E+00 -0.00000000000E+00 -0.45593999997E+02  0.45594000000E+02  0.51100000000E-03 0.  1.
    9900012    2    1    2    0    0  0.27919894454E+02 -0.49028317409E+01  0.35007930882E+02  0.46142317742E+02  0.99999998282E+01 0.  0.
        -12    1    1    2    0    0 -0.27919894454E+02  0.49028317409E+01 -0.35007930882E+02  0.45045682258E+02  0.00000000000E+00 0.  1.
         11    1    3    3    0    0  0.11382896637E+02 -0.54578368835E+01  0.19583520843E+02  0.23299626782E+02  0.51100000000E-03 0. -1.
        -11    1    3    3    0    0  0.59313783962E+01  0.15942375058E+01  0.48021496770E+01  0.77963763817E+01  0.51100000000E-03 0.  1.
         12    1    3    3    0    0  0.10605619421E+02 -0.10392323632E+01  0.10622260362E+02  0.15046314579E+02  0.00000000000E+00 0. -1.
</event>
<event>
 7    1  0.5664398E-009  0.4614232E+02  0.7816164E-02  0.1320468E+00
        -11   -1    0    0    0    0  0.00000000000E+00  0.00000000000E+00  0.45593999997E+02  0.45594000000E+02  0.51100000000E-03 0. -1.
         11   -1    0    0    0    0 -0.00000000000E+00 -0.00000000000E+00 -0.45593999997E+02  0.45594000000E+02  0.51100000000E-03 0.  1.
    9900012    2    1    2    0    0 -0.38066002795E+02  0.24081644338E+02  0.40907878254E+00  0.46142317540E+02  0.99999979849E+01 0.  0.
        -12    1    1    2    0    0  0.38066002795E+02 -0.24081644338E+02 -0.40907878254E+00  0.45045682460E+02  0.00000000000E+00 0.  1.
         11    1    3    3    0    0 -0.14669401583E+02  0.55969242176E+01  0.14107057592E+01  0.15764104621E+02  0.51100000000E-03 0. -1.
        -11    1    3    3    0    0 -0.22647492007E+02  0.16638194770E+02  0.97580240870E-01  0.28102454369E+02  0.51100000000E-03 0.  1.
        -12    1    3    3    0    0 -0.74910920544E+00  0.18465253504E+01 -0.10992072175E+01  0.22757585501E+01  0.00000000000E+00 0.  1.
</event>
<event>
 7    1  0.5664398E-009  0.4614232E+02  0.7816164E-02  0.1320468E+00
        -11   -1    0    0    0    0  0.00000000000E+00  0.00000000000E+00  0.45593999997E+02  0.45594000000E+02  0.51100000000E-03 0.  1.
         11   -1    0    0    0    0 -0.00000000000E+00 -0.00000000000E+00 -0.45593999997E+02  0.45594000000E+02  0.51100000000E-03 0. -1.
    9900012    2    1    2    0    0  0.37509208636E+02  0.93035028939E+01 -0.23143413496E+02  0.46142317778E+02  0.10000000154E+02 0.  0.
         12    1    1    2    0    0 -0.37509208636E+02 -0.93035028939E+01  0.23143413496E+02  0.45045682222E+02  0.00000000000E+00 0. -1.
         11    1    3    3    0    0  0.28178629062E+01  0.27321746532E+01 -0.43984513580E+01  0.58950406533E+01  0.51100000000E-03 0. -1.
        -11    1    3    3    0    0  0.24234725070E+02  0.27425931629E+01 -0.14183109583E+02  0.28213548415E+02  0.51100000000E-03 0.  1.
         12    1    3    3    0    0  0.10456620660E+02  0.38287350777E+01 -0.45618525554E+01  0.12033728710E+02  0.00000000000E+00 0. -1.
</event>
<event>
 7    1  0.5664398E-009  0.4614232E+02  0.7816164E-02  0.1320468E+00
        -11   -1    0    0    0    0  0.00000000000E+00  0.00000000000E+00  0.45593999997E+02  0.45594000000E+02  0.51100000000E-03 0. -1.
         11   -1    0    0    0    0 -0.00000000000E+00 -0.00000000000E+00 -0.45593999997E+02  0.45594000000E+02  0.51100000000E-03 0.  1.
    9900012    2    1    2    0    0  0.69834697243E+01 -0.16248261457E+02  0.41428717139E+02  0.46142318148E+02  0.10000003528E+02 0.  0.
        -12    1    1    2    0    0 -0.69834697243E+01  0.16248261457E+02 -0.41428717139E+02  0.45045681852E+02  0.00000000000E+00 0.  1.
         11    1    3    3    0    0  0.36622254475E+01 -0.14448079406E+02  0.29757609407E+02  0.33281739913E+02  0.51100000000E-03 0. -1.
        -11    1    3    3    0    0  0.18432030749E+01 -0.14858285902E+01  0.20808061046E+01  0.31519578805E+01  0.51100000000E-03 0.  1.
         12    1    3    3    0    0  0.14780412018E+01 -0.31435346086E+00  0.95903016266E+01  0.97086203542E+01  0.00000000000E+00 0. -1.
</event>
<event>
 7    1  0.5664398E-009  0.4614232E+02  0.7816164E-02  0.1320468E+00
        -11   -1    0    0    0    0  0.00000000000E+00  0.00000000000E+00  0.45593999997E+02  0.45594000000E+02  0.51100000000E-03 0. -1.
         11   -1    0    0    0    0 -0.00000000000E+00 -0.00000000000E+00 -0.45593999997E+02  0.45594000000E+02  0.51100000000E-03 0.  1.
    9900012    2    1    2    0    0 -0.12477010694E+02  0.51193975154E+01 -0.42979407376E+02  0.46142317797E+02  0.10000000323E+02 0.  0.
         12    1    1    2    0    0  0.12477010694E+02 -0.51193975154E+01  0.42979407376E+02  0.45045682203E+02  0.00000000000E+00 0. -1.
         11    1    3    3    0    0 -0.55814329200E+00 -0.90781932582E-01 -0.33367701512E+00  0.65658655578E+00  0.51100000000E-03 0. -1.
        -11    1    3    3    0    0 -0.11205692094E+02  0.28324734151E+01 -0.40763591087E+02  0.42370518047E+02  0.51100000000E-03 0.  1.
         12    1    3    3    0    0 -0.71317530818E+00  0.23777060329E+01 -0.18821392735E+01  0.31152131939E+01  0.00000000000E+00 0. -1.
</event>
<event>
 7    1  0.5664398E-009  0.4614232E+02  0.7816164E-02  0.1320468E+00
        -11   -1    0    0    0    0  0.00000000000E+00  0.00000000000E+00  0.45593999997E+02  0.45594000000E+02  0.51100000000E-03 0. -1.
         11   -1    0    0    0    0 -0.00000000000E+00 -0.00000000000E+00 -0.45593999997E+02  0.45594000000E+02  0.51100000000E-03 0.  1.
    9900012    2    1    2    0    0 -0.34241154256E+02  0.13432369856E+02 -0.26004380271E+02  0.46142323204E+02  0.10000049632E+02 0.  0.
         12    1    1    2    0    0  0.34241154256E+02 -0.13432369856E+02  0.26004380271E+02  0.45045676796E+02  0.00000000000E+00 0. -1.
         11    1    3    3    0    0 -0.63134586624E+01  0.26119156846E+01 -0.21541033950E+01  0.71639392462E+01  0.51100000000E-03 0. -1.
        -11    1    3    3    0    0 -0.24655700623E+01  0.24902884086E+01 -0.70455952215E+00  0.35744896798E+01  0.51100000000E-03 0.  1.
        -12    1    3    3    0    0 -0.25462125531E+02  0.83301657627E+01 -0.23145717354E+02  0.35403894278E+02  0.00000000000E+00 0.  1.
</event>
<event>
 7    1  0.5664398E-009  0.4614232E+02  0.7816164E-02  0.1320468E+00
        -11   -1    0    0    0    0  0.00000000000E+00  0.00000000000E+00  0.45593999997E+02  0.45594000000E+02  0.51100000000E-03 0. -1.
         11   -1    0    0    0    0 -0.00000000000E+00 -0.00000000000E+00 -0.45593999997E+02  0.45594000000E+02  0.51100000000E-03 0.  1.
    9900012    2    1    2    0    0 -0.16940386984E+02  0.16047365229E+02  0.38530753333E+02  0.46142316584E+02  0.99999892671E+01 0.  0.
        -12    1    1    2    0    0  0.16940386984E+02 -0.16047365229E+02 -0.38530753333E+02  0.45045683416E+02  0.00000000000E+00 0.  1.
         11    1    3    3    0    0 -0.76237655185E+01  0.65125106732E+01  0.13617258016E+02  0.16910479357E+02  0.51100000000E-03 0. -1.
        -11    1    3    3    0    0 -0.47560474666E+01  0.69371927187E+00  0.12029753011E+02  0.12954388897E+02  0.51100000000E-03 0.  1.
        -12    1    3    3    0    0 -0.45605739986E+01  0.88411352842E+01  0.12883742307E+02  0.16277448330E+02  0.00000000000E+00 0.  1.
</event>
<event>
 7    1  0.5664398E-009  0.4614232E+02  0.7816164E-02  0.1320468E+00
        -11   -1    0    0    0    0  0.00000000000E+00  0.00000000000E+00  0.45593999997E+02  0.45594000000E+02  0.51100000000E-03 0. -1.
         11   -1    0    0    0    0 -0.00000000000E+00 -0.00000000000E+00 -0.45593999997E+02  0.45594000000E+02  0.51100000000E-03 0.  1.
    9900012    2    1    2    0    0  0.33935736178E+02 -0.18751376078E+01  0.29562868301E+02  0.46142317486E+02  0.99999974925E+01 0.  0.
        -12    1    1    2    0    0 -0.33935736178E+02  0.18751376078E+01 -0.29562868301E+02  0.45045682514E+02  0.00000000000E+00 0.  1.
         11    1    3    3    0    0  0.13209294737E+02  0.88292742942E-01  0.91161869542E+01  0.16049863797E+02  0.51100000000E-03 0. -1.
        -11    1    3    3    0    0  0.12367753375E+02  0.23131930336E+01  0.10225661721E+02  0.16213461797E+02  0.51100000000E-03 0.  1.
         12    1    3    3    0    0  0.83586880663E+01 -0.42766233844E+01  0.10221019626E+02  0.13878991893E+02  0.00000000000E+00 0. -1.
</event>
<event>
 7    1  0.5664398E-009  0.4614232E+02  0.7816164E-02  0.1320468E+00
        -11   -1    0    0    0    0  0.00000000000E+00  0.00000000000E+00  0.45593999997E+02  0.45594000000E+02  0.51100000000E-03 0. -1.
         11   -1    0    0    0    0 -0.00000000000E+00 -0.00000000000E+00 -0.45593999997E+02  0.45594000000E+02  0.51100000000E-03 0.  1.
    9900012    2    1    2    0    0  0.21866369672E+02  0.20496369772E+01 -0.39329052117E+02  0.46142317912E+02  0.10000001376E+02 0.  0.
         12    1    1    2    0    0 -0.21866369672E+02 -0.20496369772E+01  0.39329052117E+02  0.45045682088E+02  0.00000000000E+00 0. -1.
         11    1    3    3    0    0  0.68521747279E+01  0.16967705442E+01 -0.69646926103E+01  0.99165655445E+01  0.51100000000E-03 0. -1.
        -11    1    3    3    0    0  0.14999703436E+02 -0.80090162800E+00 -0.30932789288E+02  0.34387061520E+02  0.51100000000E-03 0.  1.
        -12    1    3    3    0    0  0.14491508267E-01  0.11537680610E+01 -0.14315702179E+01  0.18386908471E+01  0.00000000000E+00 0.  1.
</event>
<event>
 7    1  0.5664398E-009  0.4614232E+02  0.7816164E-02  0.1320468E+00
        -11   -1    0    0    0    0  0.00000000000E+00  0.00000000000E+00  0.45593999997E+02  0.45594000000E+02  0.51100000000E-03 0. -1.
         11   -1    0    0    0    0 -0.00000000000E+00 -0.00000000000E+00 -0.45593999997E+02  0.45594000000E+02  0.51100000000E-03 0.  1.
    9900012    2    1    2    0    0 -0.24438392108E+01  0.32268762083E+02 -0.31334775798E+02  0.46142317291E+02  0.99999957139E+01 0.  0.
         12    1    1    2    0    0  0.24438392108E+01 -0.32268762083E+02  0.31334775798E+02  0.45045682709E+02  0.00000000000E+00 0. -1.
         11    1    3    3    0    0 -0.24961129251E+01  0.10463502893E+02 -0.14825572173E+02  0.18317015670E+02  0.51100000000E-03 0. -1.
        -11    1    3    3    0    0 -0.15933404513E+01  0.14144541720E+02 -0.12854993031E+02  0.19179615229E+02  0.51100000000E-03 0.  1.
        -12    1    3    3    0    0  0.16456141656E+01  0.76607174692E+01 -0.36542105941E+01  0.86456863921E+01  0.00000000000E+00 0.  1.
</event>
<event>
 7    1  0.7218752E-009  0.4614232E+02  0.7816164E-02  0.1320468E+00
        -11   -1    0    0    0    0  0.00000000000E+00  0.00000000000E+00  0.45593999997E+02  0.45594000000E+02  0.51100000000E-03 0. -1.
         11   -1    0    0    0    0 -0.00000000000E+00 -0.00000000000E+00 -0.45593999997E+02  0.45594000000E+02  0.51100000000E-03 0.  1.
    9900012    2    1    2    0    0 -0.22690202208E+02  0.29680698477E+02  0.25165934742E+02  0.46142318634E+02  0.10000007959E+02 0.  0.
        -12    1    1    2    0    0  0.22690202208E+02 -0.29680698477E+02 -0.25165934742E+02  0.45045681366E+02  0.00000000000E+00 0.  1.
         11    1    3    3    0    0 -0.25801525314E+00  0.17282391453E+01  0.56132717801E+00  0.18353394444E+01  0.51100000000E-03 0. -1.
        -11    1    3    3    0    0 -0.25280731843E+01  0.18811605933E+01 -0.23835495757E+00  0.31601791958E+01  0.51100000000E-03 0.  1.
         12    1    3    3    0    0 -0.19904113770E+02  0.26071298738E+02  0.24842962521E+02  0.41146799994E+02  0.00000000000E+00 0. -1.
</event>
<event>
 7    1  0.5664398E-009  0.4614232E+02  0.7816164E-02  0.1320468E+00
        -11   -1    0    0    0    0  0.00000000000E+00  0.00000000000E+00  0.45593999997E+02  0.45594000000E+02  0.51100000000E-03 0. -1.
         11   -1    0    0    0    0 -0.00000000000E+00 -0.00000000000E+00 -0.45593999997E+02  0.45594000000E+02  0.51100000000E-03 0.  1.
    9900012    2    1    2    0    0  0.24762819707E+02 -0.94742066708E+01  0.36416419037E+02  0.46142318660E+02  0.10000008198E+02 0.  0.
        -12    1    1    2    0    0 -0.24762819707E+02  0.94742066708E+01 -0.36416419037E+02  0.45045681340E+02  0.00000000000E+00 0.  1.
         11    1    3    3    0    0  0.28896352618E+01 -0.83332744718E+00  0.56668215250E+01  0.64153950025E+01  0.51100000000E-03 0. -1.
        -11    1    3    3    0    0  0.99826649470E+01 -0.33034877571E+01  0.20879899837E+02  0.23378127561E+02  0.51100000000E-03 0.  1.
         12    1    3    3    0    0  0.11890519498E+02 -0.53373914666E+01  0.98696976754E+01  0.16348796097E+02  0.00000000000E+00 0. -1.
</event>
<event>
 7    1  0.5664398E-009  0.4614232E+02  0.7816164E-02  0.1320468E+00
        -11   -1    0    0    0    0  0.00000000000E+00  0.00000000000E+00  0.45593999997E+02  0.45594000000E+02  0.51100000000E-03 0. -1.
         11   -1    0    0    0    0 -0.00000000000E+00 -0.00000000000E+00 -0.45593999997E+02  0.45594000000E+02  0.51100000000E-03 0.  1.
    9900012    2    1    2    0    0 -0.95856929598E+01 -0.26466066521E+02  0.35167814780E+02  0.46142318930E+02  0.10000010659E+02 0.  0.
        -12    1    1    2    0    0  0.95856929598E+01  0.26466066521E+02 -0.35167814780E+02  0.45045681070E+02  0.00000000000E+00 0.  1.
         11    1    3    3    0    0 -0.99955822246E+00 -0.28807576149E+01  0.87750184726E+01  0.92897163859E+01  0.51100000000E-03 0. -1.
        -11    1    3    3    0    0 -0.62654576877E+01 -0.95859145374E+01  0.13221268908E+02  0.17491359849E+02  0.51100000000E-03 0.  1.
         12    1    3    3    0    0 -0.23206770496E+01 -0.13999394369E+02  0.13171527400E+02  0.19361242695E+02  0.00000000000E+00 0. -1.
</event>
<event>
 7    1  0.5664398E-009  0.4614232E+02  0.7816164E-02  0.1320468E+00
        -11   -1    0    0    0    0  0.00000000000E+00  0.00000000000E+00  0.45593999997E+02  0.45594000000E+02  0.51100000000E-03 0.  1.
         11   -1    0    0    0    0 -0.00000000000E+00 -0.00000000000E+00 -0.45593999997E+02  0.45594000000E+02  0.51100000000E-03 0. -1.
    9900012    2    1    2    0    0 -0.12764567612E+02  0.40340960831E+02  0.15452711901E+02  0.46142316387E+02  0.99999874670E+01 0.  0.
        -12    1    1    2    0    0  0.12764567612E+02 -0.40340960831E+02 -0.15452711901E+02  0.45045683613E+02  0.00000000000E+00 0.  1.
         11    1    3    3    0    0 -0.30395052219E+01  0.13275734779E+02  0.56739075785E+01  0.14753879265E+02  0.51100000000E-03 0. -1.
        -11    1    3    3    0    0 -0.36284237934E+01  0.18629563756E+02  0.88421477077E+01  0.20938234914E+02  0.51100000000E-03 0.  1.
        -12    1    3    3    0    0 -0.60966385971E+01  0.84356622960E+01  0.93665661452E+00  0.10450202207E+02  0.00000000000E+00 0.  1.
</event>
<event>
 7    1  0.5664398E-009  0.4614232E+02  0.7816164E-02  0.1320468E+00
        -11   -1    0    0    0    0  0.00000000000E+00  0.00000000000E+00  0.45593999997E+02  0.45594000000E+02  0.51100000000E-03 0.  1.
         11   -1    0    0    0    0 -0.00000000000E+00 -0.00000000000E+00 -0.45593999997E+02  0.45594000000E+02  0.51100000000E-03 0. -1.
    9900012    2    1    2    0    0 -0.32422040211E+02 -0.31073935634E+02  0.35121858476E+01  0.46142316337E+02  0.99999870103E+01 0.  0.
        -12    1    1    2    0    0  0.32422040211E+02  0.31073935634E+02 -0.35121858476E+01  0.45045683663E+02  0.00000000000E+00 0.  1.
         11    1    3    3    0    0 -0.21966702716E+02 -0.18151300016E+02 -0.13901416666E+01  0.28529602426E+02  0.51100000000E-03 0. -1.
        -11    1    3    3    0    0 -0.30506030783E+01 -0.30930008087E+01 -0.56461897827E-01  0.43446543420E+01  0.51100000000E-03 0.  1.
        -12    1    3    3    0    0 -0.74047344169E+01 -0.98296348095E+01  0.49587894120E+01  0.13268059568E+02  0.00000000000E+00 0.  1.
</event>
<event>
 7    1  0.5664398E-009  0.4614232E+02  0.7816164E-02  0.1320468E+00
        -11   -1    0    0    0    0  0.00000000000E+00  0.00000000000E+00  0.45593999997E+02  0.45594000000E+02  0.51100000000E-03 0. -1.
         11   -1    0    0    0    0 -0.00000000000E+00 -0.00000000000E+00 -0.45593999997E+02  0.45594000000E+02  0.51100000000E-03 0.  1.
    9900012    2    1    2    0    0  0.24864213883E+02 -0.28456864217E+02 -0.24517161415E+02  0.46142318110E+02  0.10000003183E+02 0.  0.
         12    1    1    2    0    0 -0.24864213883E+02  0.28456864217E+02  0.24517161415E+02  0.45045681890E+02  0.00000000000E+00 0. -1.
         11    1    3    3    0    0  0.55882594663E+01 -0.96968175882E+01 -0.68659391323E+01  0.13130043246E+02  0.51100000000E-03 0. -1.
        -11    1    3    3    0    0  0.17515735654E+02 -0.16543768830E+02 -0.18115600337E+02  0.30144191123E+02  0.51100000000E-03 0.  1.
         12    1    3    3    0    0  0.17602187625E+01 -0.22162777987E+01  0.46437805454E+00  0.28680837419E+01  0.00000000000E+00 0. -1.
</event>
<event>
 7    1  0.5664398E-009  0.4614232E+02  0.7816164E-02  0.1320468E+00
        -11   -1    0    0    0    0  0.00000000000E+00  0.00000000000E+00  0.45593999997E+02  0.45594000000E+02  0.51100000000E-03 0. -1.
         11   -1    0    0    0    0 -0.00000000000E+00 -0.00000000000E+00 -0.45593999997E+02  0.45594000000E+02  0.51100000000E-03 0.  1.
    9900012    2    1    2    0    0 -0.19359955894E+02  0.21587984684E+02  0.34471213244E+02  0.46142317438E+02  0.99999970551E+01 0.  0.
        -12    1    1    2    0    0  0.19359955894E+02 -0.21587984684E+02 -0.34471213244E+02  0.45045682562E+02  0.00000000000E+00 0.  1.
         11    1    3    3    0    0 -0.78518769681E+01  0.13335275132E+02  0.12605461554E+02  0.19959438770E+02  0.51100000000E-03 0. -1.
        -11    1    3    3    0    0 -0.49095044510E+01  0.27477215539E+01  0.10744780858E+02  0.12128624144E+02  0.51100000000E-03 0.  1.
         12    1    3    3    0    0 -0.65985744753E+01  0.55049879980E+01  0.11120970832E+02  0.14054254524E+02  0.00000000000E+00 0. -1.
</event>
<event>
 7    1  0.5664398E-009  0.4614232E+02  0.7816164E-02  0.1320468E+00
        -11   -1    0    0    0    0  0.00000000000E+00  0.00000000000E+00  0.45593999997E+02  0.45594000000E+02  0.51100000000E-03 0. -1.
         11   -1    0    0    0    0 -0.00000000000E+00 -0.00000000000E+00 -0.45593999997E+02  0.45594000000E+02  0.51100000000E-03 0.  1.
    9900012    2    1    2    0    0 -0.12609537758E+02  0.18201969334E+02  0.39227558986E+02  0.46142317476E+02  0.99999973969E+01 0.  0.
        -12    1    1    2    0    0  0.12609537758E+02 -0.18201969334E+02 -0.39227558986E+02  0.45045682524E+02  0.00000000000E+00 0.  1.
         11    1    3    3    0    0 -0.68367248942E+01  0.70332401152E+01  0.14598893538E+02  0.17587921042E+02  0.51100000000E-03 0. -1.
        -11    1    3    3    0    0  0.37713333133E+00  0.54316170290E+00  0.72307544536E+01  0.72609272420E+01  0.51100000000E-03 0.  1.
        -12    1    3    3    0    0 -0.61499461949E+01  0.10625567516E+02  0.17397910994E+02  0.21293469191E+02  0.00000000000E+00 0.  1.
</event>
<event>
 7    1  0.5664398E-009  0.4614232E+02  0.7816164E-02  0.1320468E+00
        -11   -1    0    0    0    0  0.00000000000E+00  0.00000000000E+00  0.45593999997E+02  0.45594000000E+02  0.51100000000E-03 0. -1.
         11   -1    0    0    0    0 -0.00000000000E+00 -0.00000000000E+00 -0.45593999997E+02  0.45594000000E+02  0.51100000000E-03 0.  1.
    9900012    2    1    2    0    0  0.26948493325E+02 -0.12472668564E+02  0.33872182231E+02  0.46142317824E+02  0.10000000572E+02 0.  0.
        -12    1    1    2    0    0 -0.26948493325E+02  0.12472668564E+02 -0.33872182231E+02  0.45045682176E+02  0.00000000000E+00 0.  1.
         11    1    3    3    0    0  0.14971935894E+02 -0.73865959503E+01  0.20326201244E+02  0.26303519183E+02  0.51100000000E-03 0. -1.
        -11    1    3    3    0    0  0.72147722700E+01 -0.33584835583E+01  0.37215273400E+01  0.87853353221E+01  0.51100000000E-03 0.  1.
        -12    1    3    3    0    0  0.47617851615E+01 -0.17275890555E+01  0.98244536474E+01  0.11053463319E+02  0.00000000000E+00 0.  1.
</event>
<event>
 7    1  0.5664398E-009  0.4614232E+02  0.7816164E-02  0.1320468E+00
        -11   -1    0    0    0    0  0.00000000000E+00  0.00000000000E+00  0.45593999997E+02  0.45594000000E+02  0.51100000000E-03 0. -1.
         11   -1    0    0    0    0 -0.00000000000E+00 -0.00000000000E+00 -0.45593999997E+02  0.45594000000E+02  0.51100000000E-03 0.  1.
    9900012    2    1    2    0    0  0.16144229747E+02  0.10328081975E+02 -0.40765277879E+02  0.46142319719E+02  0.10000017851E+02 0.  0.
         12    1    1    2    0    0 -0.16144229747E+02 -0.10328081975E+02  0.40765277879E+02  0.45045680281E+02  0.00000000000E+00 0. -1.
         11    1    3    3    0    0  0.17877895434E+01 -0.63125057758E+00 -0.29778032230E+01  0.35301531184E+01  0.51100000000E-03 0. -1.
        -11    1    3    3    0    0  0.72827744136E+01  0.10232964399E+02 -0.23094629027E+02  0.26289051974E+02  0.51100000000E-03 0.  1.
        -12    1    3    3    0    0  0.70736657901E+01  0.72636815399E+00 -0.14692845629E+02  0.16323114626E+02  0.00000000000E+00 0.  1.
</event>
<event>
 7    1  0.5664398E-009  0.4614232E+02  0.7816164E-02  0.1320468E+00
        -11   -1    0    0    0    0  0.00000000000E+00  0.00000000000E+00  0.45593999997E+02  0.45594000000E+02  0.51100000000E-03 0. -1.
         11   -1    0    0    0    0 -0.00000000000E+00 -0.00000000000E+00 -0.45593999997E+02  0.45594000000E+02  0.51100000000E-03 0.  1.
    9900012    2    1    2    0    0  0.23305605349E+01  0.10880448929E+02  0.43649718328E+02  0.46142316617E+02  0.99999895697E+01 0.  0.
        -12    1    1    2    0    0 -0.23305605349E+01 -0.10880448929E+02 -0.43649718328E+02  0.45045683383E+02  0.00000000000E+00 0.  1.
         11    1    3    3    0    0 -0.11984689945E+01  0.65032814272E+01  0.25645237719E+02  0.26484093626E+02  0.51100000000E-03 0. -1.
        -11    1    3    3    0    0  0.46097970190E+00  0.14582219864E+01  0.13055329075E+02  0.13144600837E+02  0.51100000000E-03 0.  1.
         12    1    3    3    0    0  0.30680498275E+01  0.29189455151E+01  0.49491515339E+01  0.65136221544E+01  0.00000000000E+00 0. -1.
</event>
<event>
 7    1  0.5664398E-009  0.4614232E+02  0.7816164E-02  0.1320468E+00
        -11   -1    0    0    0    0  0.00000000000E+00  0.00000000000E+00  0.45593999997E+02  0.45594000000E+02  0.51100000000E-03 0.  1.
         11   -1    0    0    0    0 -0.00000000000E+00 -0.00000000000E+00 -0.45593999997E+02  0.45594000000E+02  0.51100000000E-03 0. -1.
    9900012    2    1    2    0    0  0.21366691115E+02  0.26198331427E+02  0.29769537532E+02  0.46142318479E+02  0.10000006550E+02 0.  0.
        -12    1    1    2    0    0 -0.21366691115E+02 -0.26198331427E+02 -0.29769537532E+02  0.45045681521E+02  0.00000000000E+00 0.  1.
         11    1    3    3    0    0  0.52399597087E+01  0.35236613610E+01  0.59548804988E+01  0.86795143385E+01  0.51100000000E-03 0. -1.
        -11    1    3    3    0    0  0.31694723492E+01  0.50241850640E+00  0.21317964704E+01  0.38526011706E+01  0.51100000000E-03 0.  1.
         12    1    3    3    0    0  0.12957259057E+02  0.22172251560E+02  0.21682860563E+02  0.33610202970E+02  0.00000000000E+00 0. -1.
</event>
<event>
 7    1  0.5664398E-009  0.4614232E+02  0.7816164E-02  0.1320468E+00
        -11   -1    0    0    0    0  0.00000000000E+00  0.00000000000E+00  0.45593999997E+02  0.45594000000E+02  0.51100000000E-03 0. -1.
         11   -1    0    0    0    0 -0.00000000000E+00 -0.00000000000E+00 -0.45593999997E+02  0.45594000000E+02  0.51100000000E-03 0.  1.
    9900012    2    1    2    0    0  0.15780383045E+01  0.17938058301E+02  0.41289821767E+02  0.46142317387E+02  0.99999965896E+01 0.  0.
        -12    1    1    2    0    0 -0.15780383045E+01 -0.17938058301E+02 -0.41289821767E+02  0.45045682613E+02  0.00000000000E+00 0.  1.
         11    1    3    3    0    0  0.45676439140E-01  0.11729501951E+02  0.26432719495E+02  0.28918367217E+02  0.51100000000E-03 0. -1.
        -11    1    3    3    0    0  0.18979682982E+01  0.15106143843E+01  0.10652642489E+01  0.26493447605E+01  0.51100000000E-03 0.  1.
        -12    1    3    3    0    0 -0.36560643284E+00  0.46979419654E+01  0.13791838023E+02  0.14574605409E+02  0.00000000000E+00 0.  1.
</event>
<event>
 7    1  0.5664398E-009  0.4614231E+02  0.7816164E-02  0.1320468E+00
        -11   -1    0    0    0    0  0.00000000000E+00  0.00000000000E+00  0.45593999997E+02  0.45594000000E+02  0.51100000000E-03 0. -1.
         11   -1    0    0    0    0 -0.00000000000E+00 -0.00000000000E+00 -0.45593999997E+02  0.45594000000E+02  0.51100000000E-03 0.  1.
    9900012    2    1    2    0    0  0.17756857823E+02  0.78845440845E+01 -0.40640403297E+02  0.46142307472E+02  0.99999061761E+01 0.  0.
         12    1    1    2    0    0 -0.17756857823E+02 -0.78845440845E+01  0.40640403297E+02  0.45045692528E+02  0.00000000000E+00 0. -1.
         11    1    3    3    0    0  0.53190545865E+01  0.18791428848E+01 -0.41068693358E+01  0.69778145345E+01  0.51100000000E-03 0. -1.
        -11    1    3    3    0    0  0.65724172957E+00  0.11138165075E+01 -0.24155982117E+01  0.27400125702E+01  0.51100000000E-03 0.  1.
        -12    1    3    3    0    0  0.11780561507E+02  0.48915846921E+01 -0.34117935749E+02  0.36424480367E+02  0.00000000000E+00 0.  1.
</event>
<event>
 7    1  0.5664398E-009  0.4614232E+02  0.7816164E-02  0.1320468E+00
        -11   -1    0    0    0    0  0.00000000000E+00  0.00000000000E+00  0.45593999997E+02  0.45594000000E+02  0.51100000000E-03 0. -1.
         11   -1    0    0    0    0 -0.00000000000E+00 -0.00000000000E+00 -0.45593999997E+02  0.45594000000E+02  0.51100000000E-03 0.  1.
    9900012    2    1    2    0    0 -0.20470745115E+02 -0.20569304872E+02  0.34452369691E+02  0.46142317790E+02  0.10000000261E+02 0.  0.
        -12    1    1    2    0    0  0.20470745115E+02  0.20569304872E+02 -0.34452369691E+02  0.45045682210E+02  0.00000000000E+00 0.  1.
         11    1    3    3    0    0 -0.16648720864E+02 -0.16535929690E+02  0.31228927312E+02  0.39062293564E+02  0.51100000000E-03 0. -1.
        -11    1    3    3    0    0 -0.20856906017E+01 -0.42061607967E+00  0.36964160793E+00  0.21595504977E+01  0.51100000000E-03 0.  1.
         12    1    3    3    0    0 -0.17363336490E+01 -0.36127591024E+01  0.28538007709E+01  0.49204737285E+01  0.00000000000E+00 0. -1.
</event>
<event>
 7    1  0.5664398E-009  0.4614232E+02  0.7816164E-02  0.1320468E+00
        -11   -1    0    0    0    0  0.00000000000E+00  0.00000000000E+00  0.45593999997E+02  0.45594000000E+02  0.51100000000E-03 0. -1.
         11   -1    0    0    0    0 -0.00000000000E+00 -0.00000000000E+00 -0.45593999997E+02  0.45594000000E+02  0.51100000000E-03 0.  1.
    9900012    2    1    2    0    0  0.27852586040E+02  0.29020401108E+02 -0.20277165047E+02  0.46142315945E+02  0.99999834410E+01 0.  0.
         12    1    1    2    0    0 -0.27852586040E+02 -0.29020401108E+02  0.20277165047E+02  0.45045684055E+02  0.00000000000E+00 0. -1.
         11    1    3    3    0    0  0.67094219682E+01  0.33110154757E+01 -0.18250493097E+01  0.77012967656E+01  0.51100000000E-03 0. -1.
        -11    1    3    3    0    0  0.12729798155E+02  0.11361848224E+02 -0.85654593733E+01  0.19092052029E+02  0.51100000000E-03 0.  1.
        -12    1    3    3    0    0  0.84133659173E+01  0.14347537408E+02 -0.98866563644E+01  0.19348967151E+02  0.00000000000E+00 0.  1.
</event>
<event>
 7    1  0.5664398E-009  0.4614232E+02  0.7816164E-02  0.1320468E+00
        -11   -1    0    0    0    0  0.00000000000E+00  0.00000000000E+00  0.45593999997E+02  0.45594000000E+02  0.51100000000E-03 0. -1.
         11   -1    0    0    0    0 -0.00000000000E+00 -0.00000000000E+00 -0.45593999997E+02  0.45594000000E+02  0.51100000000E-03 0.  1.
    9900012    2    1    2    0    0  0.36800829314E+02  0.59045372130E+01 -0.25297209317E+02  0.46142318774E+02  0.10000009237E+02 0.  0.
         12    1    1    2    0    0 -0.36800829314E+02 -0.59045372130E+01  0.25297209317E+02  0.45045681226E+02  0.00000000000E+00 0. -1.
         11    1    3    3    0    0  0.67094383776E+01  0.74460947598E+00 -0.67040564222E+01  0.95139570836E+01  0.51100000000E-03 0. -1.
        -11    1    3    3    0    0  0.23034890873E+02  0.36250976325E+01 -0.17855135585E+02  0.29369259394E+02  0.51100000000E-03 0.  1.
         12    1    3    3    0    0  0.70565000634E+01  0.15348301046E+01 -0.73801730995E+00  0.72591022961E+01  0.00000000000E+00 0. -1.
</event>
<event>
 7    1  0.5664398E-009  0.4614232E+02  0.7816164E-02  0.1320468E+00
        -11   -1    0    0    0    0  0.00000000000E+00  0.00000000000E+00  0.45593999997E+02  0.45594000000E+02  0.51100000000E-03 0. -1.
         11   -1    0    0    0    0 -0.00000000000E+00 -0.00000000000E+00 -0.45593999997E+02  0.45594000000E+02  0.51100000000E-03 0.  1.
    9900012    2    1    2    0    0  0.13175203963E+02 -0.11899534671E+02  0.41399620332E+02  0.46142317760E+02  0.99999999877E+01 0.  0.
        -12    1    1    2    0    0 -0.13175203963E+02  0.11899534671E+02 -0.41399620332E+02  0.45045682240E+02  0.00000000000E+00 0.  1.
         11    1    3    3    0    0  0.13433089229E+01  0.11152004783E+01  0.64176447318E+01  0.66508882966E+01  0.51100000000E-03 0. -1.
        -11    1    3    3    0    0  0.23263279767E+01 -0.58228561107E+01  0.14420933169E+02  0.15725163556E+02  0.51100000000E-03 0.  1.
        -12    1    3    3    0    0  0.95055670636E+01 -0.71918790389E+01  0.20561042431E+02  0.23766265907E+02  0.00000000000E+00 0.  1.
</event>
<event>
 7    1  0.5664398E-009  0.4614232E+02  0.7816164E-02  0.1320468E+00
        -11   -1    0    0    0    0  0.00000000000E+00  0.00000000000E+00  0.45593999997E+02  0.45594000000E+02  0.51100000000E-03 0. -1.
         11   -1    0    0    0    0 -0.00000000000E+00 -0.00000000000E+00 -0.45593999997E+02  0.45594000000E+02  0.51100000000E-03 0.  1.
    9900012    2    1    2    0    0  0.33759384066E+02  0.30409190545E+01  0.29667664615E+02  0.46142317355E+02  0.99999962983E+01 0.  0.
        -12    1    1    2    0    0 -0.33759384066E+02 -0.30409190545E+01 -0.29667664615E+02  0.45045682645E+02  0.00000000000E+00 0.  1.
         11    1    3    3    0    0  0.20383380306E+01  0.75455954337E+00  0.87451317295E+00  0.23428520188E+01  0.51100000000E-03 0. -1.
        -11    1    3    3    0    0  0.13249292070E+02  0.76748046574E+00  0.64086399314E+01  0.14737823200E+02  0.51100000000E-03 0.  1.
        -12    1    3    3    0    0  0.18471753965E+02  0.15188790454E+01  0.22384511511E+02  0.29061642137E+02  0.00000000000E+00 0.  1.
</event>
<event>
 7    1  0.5664398E-009  0.4614233E+02  0.7816164E-02  0.1320468E+00
        -11   -1    0    0    0    0  0.00000000000E+00  0.00000000000E+00  0.45593999997E+02  0.45594000000E+02  0.51100000000E-03 0. -1.
         11   -1    0    0    0    0 -0.00000000000E+00 -0.00000000000E+00 -0.45593999997E+02  0.45594000000E+02  0.51100000000E-03 0.  1.
    9900012    2    1    2    0    0  0.21860430396E+02  0.31790359593E+02  0.23250960945E+02  0.46142328010E+02  0.10000093458E+02 0.  0.
        -12    1    1    2    0    0 -0.21860430396E+02 -0.31790359593E+02 -0.23250960945E+02  0.45045671990E+02  0.00000000000E+00 0.  1.
         11    1    3    3    0    0  0.20089894526E+02  0.30621123277E+02  0.22477997129E+02  0.42971122955E+02  0.51100000000E-03 0. -1.
        -11    1    3    3    0    0  0.11804435184E+01  0.17294366569E+01  0.10085542411E+01  0.23241299380E+01  0.51100000000E-03 0.  1.
        -12    1    3    3    0    0  0.59009235104E+00 -0.56020034132E+00 -0.23559042479E+00  0.84707511675E+00  0.00000000000E+00 0.  1.
</event>
<event>
 7    1  0.5664398E-009  0.4614232E+02  0.7816164E-02  0.1320468E+00
        -11   -1    0    0    0    0  0.00000000000E+00  0.00000000000E+00  0.45593999997E+02  0.45594000000E+02  0.51100000000E-03 0. -1.
         11   -1    0    0    0    0 -0.00000000000E+00 -0.00000000000E+00 -0.45593999997E+02  0.45594000000E+02  0.51100000000E-03 0.  1.
    9900012    2    1    2    0    0 -0.92242889294E+01 -0.15653922564E+02  0.41218695457E+02  0.46142315933E+02  0.99999833272E+01 0.  0.
        -12    1    1    2    0    0  0.92242889294E+01  0.15653922564E+02 -0.41218695457E+02  0.45045684067E+02  0.00000000000E+00 0.  1.
         11    1    3    3    0    0 -0.50716476929E+01 -0.10722314119E+02  0.32497944782E+02  0.34594884675E+02  0.51100000000E-03 0. -1.
        -11    1    3    3    0    0  0.77521768550E+00 -0.41651330195E+00  0.87768364013E+00  0.12428896266E+01  0.51100000000E-03 0.  1.
         12    1    3    3    0    0 -0.49278589219E+01 -0.45150951426E+01  0.78430670356E+01  0.10304541631E+02  0.00000000000E+00 0. -1.
</event>
<event>
 7    1  0.5664398E-009  0.4614233E+02  0.7816164E-02  0.1320468E+00
        -11   -1    0    0    0    0  0.00000000000E+00  0.00000000000E+00  0.45593999997E+02  0.45594000000E+02  0.51100000000E-03 0. -1.
         11   -1    0    0    0    0 -0.00000000000E+00 -0.00000000000E+00 -0.45593999997E+02  0.45594000000E+02  0.51100000000E-03 0.  1.
    9900012    2    1    2    0    0  0.43300736986E+01  0.11568630606E+02  0.43318934424E+02  0.46142325047E+02  0.10000066437E+02 0.  0.
        -12    1    1    2    0    0 -0.43300736986E+01 -0.11568630606E+02 -0.43318934424E+02  0.45045674953E+02  0.00000000000E+00 0.  1.
         11    1    3    3    0    0  0.32403043689E+01  0.62501647227E+01  0.30901767339E+02  0.31693585414E+02  0.51100000000E-03 0. -1.
        -11    1    3    3    0    0 -0.83654911561E+00  0.77613787243E+00  0.59691956630E-01  0.11427019781E+01  0.51100000000E-03 0.  1.
        -12    1    3    3    0    0  0.19263184453E+01  0.45423280114E+01  0.12357475129E+02  0.13306037655E+02  0.00000000000E+00 0.  1.
</event>
<event>
 7    1  0.5664398E-009  0.4614232E+02  0.7816164E-02  0.1320468E+00
        -11   -1    0    0    0    0  0.00000000000E+00  0.00000000000E+00  0.45593999997E+02  0.45594000000E+02  0.51100000000E-03 0. -1.
         11   -1    0    0    0    0 -0.00000000000E+00 -0.00000000000E+00 -0.45593999997E+02  0.45594000000E+02  0.51100000000E-03 0.  1.
    9900012    2    1    2    0    0  0.28592159206E+01 -0.33507502612E+02 -0.29969745874E+02  0.46142317468E+02  0.99999973304E+01 0.  0.
         12    1    1    2    0    0 -0.28592159206E+01  0.33507502612E+02  0.29969745874E+02  0.45045682532E+02  0.00000000000E+00 0. -1.
         11    1    3    3    0    0  0.15462995649E+01 -0.51960391423E+01 -0.84256292580E+01  0.10019036569E+02  0.51100000000E-03 0. -1.
        -11    1    3    3    0    0 -0.20018406621E+01 -0.42354308427E+01 -0.31785072695E+01  0.56611967978E+01  0.51100000000E-03 0.  1.
        -12    1    3    3    0    0  0.33147570178E+01 -0.24076032627E+02 -0.18365609347E+02  0.30462084102E+02  0.00000000000E+00 0.  1.
</event>
<event>
 7    1  0.5664398E-009  0.4614232E+02  0.7816164E-02  0.1320468E+00
        -11   -1    0    0    0    0  0.00000000000E+00  0.00000000000E+00  0.45593999997E+02  0.45594000000E+02  0.51100000000E-03 0. -1.
         11   -1    0    0    0    0 -0.00000000000E+00 -0.00000000000E+00 -0.45593999997E+02  0.45594000000E+02  0.51100000000E-03 0.  1.
    9900012    2    1    2    0    0  0.25699975770E+02  0.83487565881E+01 -0.36040574063E+02  0.46142317966E+02  0.10000001866E+02 0.  0.
         12    1    1    2    0    0 -0.25699975770E+02 -0.83487565881E+01  0.36040574063E+02  0.45045682034E+02  0.00000000000E+00 0. -1.
         11    1    3    3    0    0  0.28536342455E+00 -0.77146396845E+00 -0.20001712798E-01  0.82279357576E+00  0.51100000000E-03 0. -1.
        -11    1    3    3    0    0  0.57642290658E+01 -0.97004737240E-01 -0.66860762283E+01  0.88283272613E+01  0.51100000000E-03 0.  1.
         12    1    3    3    0    0  0.19650383279E+02  0.92172252938E+01 -0.29334496122E+02  0.36491197129E+02  0.00000000000E+00 0. -1.
</event>
<event>
 7    1  0.5664398E-009  0.4614232E+02  0.7816164E-02  0.1320468E+00
        -11   -1    0    0    0    0  0.00000000000E+00  0.00000000000E+00  0.45593999997E+02  0.45594000000E+02  0.51100000000E-03 0. -1.
         11   -1    0    0    0    0 -0.00000000000E+00 -0.00000000000E+00 -0.45593999997E+02  0.45594000000E+02  0.51100000000E-03 0.  1.
    9900012    2    1    2    0    0 -0.10736373231E+02 -0.84325914753E+01 -0.42927090476E+02  0.46142318677E+02  0.10000008351E+02 0.  0.
         12    1    1    2    0    0  0.10736373231E+02  0.84325914753E+01  0.42927090476E+02  0.45045681323E+02  0.00000000000E+00 0. -1.
         11    1    3    3    0    0 -0.10231934295E+02 -0.59548698644E+01 -0.26710397497E+02  0.29216404454E+02  0.51100000000E-03 0.  1.
        -11    1    3    3    0    0  0.20308295681E-01  0.28031557224E+00  0.15109413647E+00  0.31909081170E+00  0.51100000000E-03 0. -1.
        -12    1    3    3    0    0 -0.52474723203E+00 -0.27580371831E+01 -0.16367787115E+02  0.16606823411E+02  0.00000000000E+00 0.  1.
</event>
<event>
 7    1  0.5664398E-009  0.4614232E+02  0.7816164E-02  0.1320468E+00
        -11   -1    0    0    0    0  0.00000000000E+00  0.00000000000E+00  0.45593999997E+02  0.45594000000E+02  0.51100000000E-03 0. -1.
         11   -1    0    0    0    0 -0.00000000000E+00 -0.00000000000E+00 -0.45593999997E+02  0.45594000000E+02  0.51100000000E-03 0.  1.
    9900012    2    1    2    0    0  0.16580097887E+02  0.41821476140E+02  0.22755341996E+01  0.46142316873E+02  0.99999918983E+01 0.  0.
        -12    1    1    2    0    0 -0.16580097887E+02 -0.41821476140E+02 -0.22755341996E+01  0.45045683127E+02  0.00000000000E+00 0.  1.
         11    1    3    3    0    0  0.10429635263E+02  0.24023798907E+02 -0.48098743872E+00  0.26194494743E+02  0.51100000000E-03 0. -1.
        -11    1    3    3    0    0  0.16995467807E-02  0.14355627365E+01  0.19873369690E+01  0.24516018739E+01  0.51100000000E-03 0.  1.
        -12    1    3    3    0    0  0.61487630772E+01  0.16362114497E+02  0.76918466933E+00  0.17496220256E+02  0.00000000000E+00 0.  1.
</event>
<event>
 7    1  0.5664398E-009  0.4614232E+02  0.7816164E-02  0.1320468E+00
        -11   -1    0    0    0    0  0.00000000000E+00  0.00000000000E+00  0.45593999997E+02  0.45594000000E+02  0.51100000000E-03 0. -1.
         11   -1    0    0    0    0 -0.00000000000E+00 -0.00000000000E+00 -0.45593999997E+02  0.45594000000E+02  0.51100000000E-03 0.  1.
    9900012    2    1    2    0    0 -0.36556242576E+02  0.10063104700E+02 -0.24320536669E+02  0.46142318172E+02  0.10000003743E+02 0.  0.
         12    1    1    2    0    0  0.36556242576E+02 -0.10063104700E+02  0.24320536669E+02  0.45045681828E+02  0.00000000000E+00 0. -1.
         11    1    3    3    0    0 -0.70182457279E+01  0.43267817751E+01 -0.18023644351E+01  0.84395101424E+01  0.51100000000E-03 0. -1.
        -11    1    3    3    0    0 -0.71790867654E+01  0.55339123346E+00 -0.41883935525E+01  0.83299561496E+01  0.51100000000E-03 0.  1.
         12    1    3    3    0    0 -0.22358910083E+02  0.51829316918E+01 -0.18329778682E+02  0.29372851880E+02  0.00000000000E+00 0. -1.
</event>
<event>
 7    1  0.5664398E-009  0.4614232E+02  0.7816164E-02  0.1320468E+00
        -11   -1    0    0    0    0  0.00000000000E+00  0.00000000000E+00  0.45593999997E+02  0.45594000000E+02  0.51100000000E-03 0. -1.
         11   -1    0    0    0    0 -0.00000000000E+00 -0.00000000000E+00 -0.45593999997E+02  0.45594000000E+02  0.51100000000E-03 0.  1.
    9900012    2    1    2    0    0 -0.17142857837E+02 -0.30361876029E+02  0.28520035497E+02  0.46142317459E+02  0.99999972479E+01 0.  0.
        -12    1    1    2    0    0  0.17142857837E+02  0.30361876029E+02 -0.28520035497E+02  0.45045682541E+02  0.00000000000E+00 0.  1.
         11    1    3    3    0    0 -0.10133709089E+02 -0.18746622582E+02  0.20058340752E+02  0.29265422466E+02  0.51100000000E-03 0. -1.
        -11    1    3    3    0    0 -0.54754951461E+01 -0.11749038263E+02  0.69016486991E+01  0.14685152441E+02  0.51100000000E-03 0.  1.
         12    1    3    3    0    0 -0.15336536018E+01  0.13378481639E+00  0.15600460456E+01  0.21917425515E+01  0.00000000000E+00 0. -1.
</event>
<event>
 7    1  0.5664398E-009  0.4614232E+02  0.7816164E-02  0.1320468E+00
        -11   -1    0    0    0    0  0.00000000000E+00  0.00000000000E+00  0.45593999997E+02  0.45594000000E+02  0.51100000000E-03 0. -1.
         11   -1    0    0    0    0 -0.00000000000E+00 -0.00000000000E+00 -0.45593999997E+02  0.45594000000E+02  0.51100000000E-03 0.  1.
    9900012    2    1    2    0    0  0.20611934611E+01 -0.34090925917E+02 -0.29371308332E+02  0.46142317615E+02  0.99999986678E+01 0.  0.
         12    1    1    2    0    0 -0.20611934611E+01  0.34090925917E+02  0.29371308332E+02  0.45045682385E+02  0.00000000000E+00 0. -1.
         11    1    3    3    0    0  0.12889026239E+01 -0.86144130941E+01 -0.64022837692E+01  0.10810116588E+02  0.51100000000E-03 0. -1.
        -11    1    3    3    0    0  0.10754638477E+00 -0.23385646559E+02 -0.16828324523E+02  0.28811326553E+02  0.51100000000E-03 0.  1.
         12    1    3    3    0    0  0.66474445239E+00 -0.20908662638E+01 -0.61407000405E+01  0.65208744742E+01  0.00000000000E+00 0. -1.
</event>
<event>
 7    1  0.5664398E-009  0.4614232E+02  0.7816164E-02  0.1320468E+00
        -11   -1    0    0    0    0  0.00000000000E+00  0.00000000000E+00  0.45593999997E+02  0.45594000000E+02  0.51100000000E-03 0. -1.
         11   -1    0    0    0    0 -0.00000000000E+00 -0.00000000000E+00 -0.45593999997E+02  0.45594000000E+02  0.51100000000E-03 0.  1.
    9900012    2    1    2    0    0  0.88497090887E+01  0.33972888562E+02 -0.28224791429E+02  0.46142319193E+02  0.10000013056E+02 0.  0.
         12    1    1    2    0    0 -0.88497090887E+01 -0.33972888562E+02  0.28224791429E+02  0.45045680807E+02  0.00000000000E+00 0. -1.
         11    1    3    3    0    0  0.29914356794E+00  0.26704222794E+01 -0.44966276076E+01  0.52383491795E+01  0.51100000000E-03 0. -1.
        -11    1    3    3    0    0  0.28134756732E+01  0.23170822643E+02 -0.15895323955E+02  0.28239404937E+02  0.51100000000E-03 0.  1.
        -12    1    3    3    0    0  0.57370898476E+01  0.81316436394E+01 -0.78328398660E+01  0.12664565076E+02  0.00000000000E+00 0.  1.
</event>
<event>
 7    1  0.5664398E-009  0.4614232E+02  0.7816164E-02  0.1320468E+00
        -11   -1    0    0    0    0  0.00000000000E+00  0.00000000000E+00  0.45593999997E+02  0.45594000000E+02  0.51100000000E-03 0. -1.
         11   -1    0    0    0    0 -0.00000000000E+00 -0.00000000000E+00 -0.45593999997E+02  0.45594000000E+02  0.51100000000E-03 0.  1.
    9900012    2    1    2    0    0  0.12615752148E+01 -0.40104311485E+02 -0.20473540856E+02  0.46142320442E+02  0.10000024445E+02 0.  0.
         12    1    1    2    0    0 -0.12615752148E+01  0.40104311485E+02  0.20473540856E+02  0.45045679558E+02  0.00000000000E+00 0. -1.
         11    1    3    3    0    0 -0.87487957664E+00 -0.19895579767E+02 -0.10314859752E+02  0.22427568760E+02  0.51100000000E-03 0. -1.
        -11    1    3    3    0    0  0.17125736164E+01 -0.19062960827E+02 -0.11141887191E+02  0.22146580647E+02  0.51100000000E-03 0.  1.
        -12    1    3    3    0    0  0.42388117505E+00 -0.11457708905E+01  0.98320608748E+00  0.15681710349E+01  0.00000000000E+00 0.  1.
</event>
<event>
 7    1  0.5664398E-009  0.4614232E+02  0.7816164E-02  0.1320468E+00
        -11   -1    0    0    0    0  0.00000000000E+00  0.00000000000E+00  0.45593999997E+02  0.45594000000E+02  0.51100000000E-03 0. -1.
         11   -1    0    0    0    0 -0.00000000000E+00 -0.00000000000E+00 -0.45593999997E+02  0.45594000000E+02  0.51100000000E-03 0.  1.
    9900012    2    1    2    0    0 -0.59627847802E+00  0.41719969323E+02  0.16976516278E+02  0.46142317706E+02  0.99999995015E+01 0.  0.
        -12    1    1    2    0    0  0.59627847802E+00 -0.41719969323E+02 -0.16976516278E+02  0.45045682294E+02  0.00000000000E+00 0.  1.
         11    1    3    3    0    0  0.10609531827E+01  0.27239723633E+02  0.11632194064E+02  0.29638422769E+02  0.51100000000E-03 0. -1.
        -11    1    3    3    0    0  0.19517912480E+01  0.68768978825E+01  0.31116516043E+01  0.77963831056E+01  0.51100000000E-03 0.  1.
        -12    1    3    3    0    0 -0.36090229088E+01  0.76033478083E+01  0.22326706094E+01  0.87075118317E+01  0.00000000000E+00 0.  1.
</event>
<event>
 7    1  0.5664398E-009  0.4614232E+02  0.7816164E-02  0.1320468E+00
        -11   -1    0    0    0    0  0.00000000000E+00  0.00000000000E+00  0.45593999997E+02  0.45594000000E+02  0.51100000000E-03 0.  1.
         11   -1    0    0    0    0 -0.00000000000E+00 -0.00000000000E+00 -0.45593999997E+02  0.45594000000E+02  0.51100000000E-03 0. -1.
    9900012    2    1    2    0    0  0.24254448958E+02 -0.37864878987E+02  0.26619594868E+01  0.46142318928E+02  0.10000010639E+02 0.  0.
         12    1    1    2    0    0 -0.24254448958E+02  0.37864878987E+02 -0.26619594868E+01  0.45045681072E+02  0.00000000000E+00 0. -1.
         11    1    3    3    0    0  0.17082591804E+01 -0.47486204886E+01 -0.18648283184E+01  0.53800679262E+01  0.51100000000E-03 0. -1.
        -11    1    3    3    0    0  0.67557908803E+01 -0.14043144716E+02 -0.38128659953E-01  0.15583711945E+02  0.51100000000E-03 0.  1.
        -12    1    3    3    0    0  0.15790398897E+02 -0.19073113782E+02  0.45649164651E+01  0.25178539057E+02  0.00000000000E+00 0.  1.
</event>
<event>
 7    1  0.5664398E-009  0.4614232E+02  0.7816164E-02  0.1320468E+00
        -11   -1    0    0    0    0  0.00000000000E+00  0.00000000000E+00  0.45593999997E+02  0.45594000000E+02  0.51100000000E-03 0. -1.
         11   -1    0    0    0    0 -0.00000000000E+00 -0.00000000000E+00 -0.45593999997E+02  0.45594000000E+02  0.51100000000E-03 0.  1.
    9900012    2    1    2    0    0 -0.25232313969E+02 -0.14773881039E+02  0.34266258842E+02  0.46142315144E+02  0.99999761352E+01 0.  0.
        -12    1    1    2    0    0  0.25232313969E+02  0.14773881039E+02 -0.34266258842E+02  0.45045684856E+02  0.00000000000E+00 0.  1.
         11    1    3    3    0    0 -0.16759964271E+02 -0.12100014624E+02  0.25785524015E+02  0.33048449363E+02  0.51100000000E-03 0. -1.
        -11    1    3    3    0    0 -0.23445409566E+01 -0.29266586683E+01  0.23694449444E+01  0.44358170458E+01  0.51100000000E-03 0.  1.
         12    1    3    3    0    0 -0.61278087412E+01  0.25279225357E+00  0.61112898817E+01  0.86580487357E+01  0.00000000000E+00 0. -1.
</event>
<event>
 7    1  0.5664398E-009  0.4614232E+02  0.7816164E-02  0.1320468E+00
        -11   -1    0    0    0    0  0.00000000000E+00  0.00000000000E+00  0.45593999997E+02  0.45594000000E+02  0.51100000000E-03 0.  1.
         11   -1    0    0    0    0 -0.00000000000E+00 -0.00000000000E+00 -0.45593999997E+02  0.45594000000E+02  0.51100000000E-03 0. -1.
    9900012    2    1    2    0    0 -0.40854928418E+02  0.10200338181E+02 -0.15998161284E+02  0.46142320523E+02  0.10000025184E+02 0.  0.
         12    1    1    2    0    0  0.40854928418E+02 -0.10200338181E+02  0.15998161284E+02  0.45045679477E+02  0.00000000000E+00 0. -1.
         11    1    3    3    0    0 -0.14490227497E+02  0.84480681441E+00 -0.55587619736E+01  0.15542851296E+02  0.51100000000E-03 0. -1.
        -11    1    3    3    0    0 -0.16322979736E+02  0.24065890215E+01 -0.69105834555E+01  0.17888194490E+02  0.51100000000E-03 0.  1.
         12    1    3    3    0    0 -0.10041721186E+02  0.69489423453E+01 -0.35288158548E+01  0.12711274736E+02  0.00000000000E+00 0. -1.
</event>
<event>
 7    1  0.5664398E-009  0.4614232E+02  0.7816164E-02  0.1320468E+00
        -11   -1    0    0    0    0  0.00000000000E+00  0.00000000000E+00  0.45593999997E+02  0.45594000000E+02  0.51100000000E-03 0. -1.
         11   -1    0    0    0    0 -0.00000000000E+00 -0.00000000000E+00 -0.45593999997E+02  0.45594000000E+02  0.51100000000E-03 0.  1.
    9900012    2    1    2    0    0  0.37484055506E+02 -0.29287970218E+01  0.24808894033E+02  0.46142317718E+02  0.99999996062E+01 0.  0.
        -12    1    1    2    0    0 -0.37484055506E+02  0.29287970218E+01 -0.24808894033E+02  0.45045682282E+02  0.00000000000E+00 0.  1.
         11    1    3    3    0    0  0.21968562691E+02  0.13744889528E+01  0.12460056510E+02  0.25293476928E+02  0.51100000000E-03 0. -1.
        -11    1    3    3    0    0  0.71244935486E+01 -0.37138294688E+01  0.39157639629E+01  0.89377930901E+01  0.51100000000E-03 0.  1.
        -12    1    3    3    0    0  0.83909992655E+01 -0.58945650583E+00  0.84330735598E+01  0.11911047700E+02  0.00000000000E+00 0.  1.
</event>
<event>
 7    1  0.5664398E-009  0.4614232E+02  0.7816164E-02  0.1320468E+00
        -11   -1    0    0    0    0  0.00000000000E+00  0.00000000000E+00  0.45593999997E+02  0.45594000000E+02  0.51100000000E-03 0. -1.
         11   -1    0    0    0    0 -0.00000000000E+00 -0.00000000000E+00 -0.45593999997E+02  0.45594000000E+02  0.51100000000E-03 0.  1.
    9900012    2    1    2    0    0  0.94563112077E+01  0.29245749467E+02  0.32929891087E+02  0.46142318625E+02  0.10000007877E+02 0.  0.
        -12    1    1    2    0    0 -0.94563112077E+01 -0.29245749467E+02 -0.32929891087E+02  0.45045681375E+02  0.00000000000E+00 0.  1.
         11    1    3    3    0    0  0.16284458541E+01  0.11947729985E+02  0.16684027886E+02  0.20585355825E+02  0.51100000000E-03 0. -1.
        -11    1    3    3    0    0 -0.24841612285E-01 -0.22143270934E+00  0.10463003674E+01  0.10697636516E+01  0.51100000000E-03 0.  1.
         12    1    3    3    0    0  0.78527069659E+01  0.17519452191E+02  0.15199562834E+02  0.24487199148E+02  0.00000000000E+00 0. -1.
</event>
<event>
 7    1  0.5664398E-009  0.4614232E+02  0.7816164E-02  0.1320468E+00
        -11   -1    0    0    0    0  0.00000000000E+00  0.00000000000E+00  0.45593999997E+02  0.45594000000E+02  0.51100000000E-03 0. -1.
         11   -1    0    0    0    0 -0.00000000000E+00 -0.00000000000E+00 -0.45593999997E+02  0.45594000000E+02  0.51100000000E-03 0.  1.
    9900012    2    1    2    0    0  0.28874419383E+02  0.88444431237E+01  0.33423896940E+02  0.46142321456E+02  0.10000033689E+02 0.  0.
        -12    1    1    2    0    0 -0.28874419383E+02 -0.88444431237E+01 -0.33423896940E+02  0.45045678544E+02  0.00000000000E+00 0.  1.
         11    1    3    3    0    0  0.41448556841E+01  0.16507456283E+01  0.22113577961E+01  0.49794470913E+01  0.51100000000E-03 0.  1.
        -11    1    3    3    0    0  0.24167932126E+02  0.78007404538E+01  0.31327343505E+02  0.40327942499E+02  0.51100000000E-03 0. -1.
        -12    1    3    3    0    0  0.56163157347E+00 -0.60704295831E+00 -0.11480436186E+00  0.83493186492E+00  0.00000000000E+00 0.  1.
</event>
<event>
 7    1  0.5664398E-009  0.4614232E+02  0.7816164E-02  0.1320468E+00
        -11   -1    0    0    0    0  0.00000000000E+00  0.00000000000E+00  0.45593999997E+02  0.45594000000E+02  0.51100000000E-03 0.  1.
         11   -1    0    0    0    0 -0.00000000000E+00 -0.00000000000E+00 -0.45593999997E+02  0.45594000000E+02  0.51100000000E-03 0. -1.
    9900012    2    1    2    0    0  0.19178054772E+02  0.40759089617E+02  0.11085866685E+00  0.46142318066E+02  0.10000002780E+02 0.  0.
         12    1    1    2    0    0 -0.19178054772E+02 -0.40759089617E+02 -0.11085866685E+00  0.45045681934E+02  0.00000000000E+00 0. -1.
         11    1    3    3    0    0  0.44757722252E+01  0.81583811040E+01 -0.19176543236E+01  0.95010061371E+01  0.51100000000E-03 0. -1.
        -11    1    3    3    0    0  0.11526525601E+02  0.28064449057E+02 -0.94895007442E+00  0.30354152925E+02  0.51100000000E-03 0.  1.
         12    1    3    3    0    0  0.31757569464E+01  0.45362594558E+01  0.29774630649E+01  0.62871590036E+01  0.00000000000E+00 0. -1.
</event>
<event>
 7    1  0.5664398E-009  0.4614231E+02  0.7816164E-02  0.1320468E+00
        -11   -1    0    0    0    0  0.00000000000E+00  0.00000000000E+00  0.45593999997E+02  0.45594000000E+02  0.51100000000E-03 0. -1.
         11   -1    0    0    0    0 -0.00000000000E+00 -0.00000000000E+00 -0.45593999997E+02  0.45594000000E+02  0.51100000000E-03 0.  1.
    9900012    2    1    2    0    0 -0.26627843887E+02 -0.29369401957E+02 -0.21389482565E+02  0.46142314238E+02  0.99999678705E+01 0.  0.
         12    1    1    2    0    0  0.26627843887E+02  0.29369401957E+02  0.21389482565E+02  0.45045685762E+02  0.00000000000E+00 0. -1.
         11    1    3    3    0    0 -0.32626864871E+01 -0.23333006818E+01  0.73774089069E+00  0.40784405191E+01  0.51100000000E-03 0. -1.
        -11    1    3    3    0    0 -0.97435992535E+01 -0.10334733623E+02 -0.81368751062E+01  0.16369275556E+02  0.51100000000E-03 0.  1.
         12    1    3    3    0    0 -0.13621558147E+02 -0.16701367652E+02 -0.13990348350E+02  0.25694598163E+02  0.00000000000E+00 0. -1.
</event>
<event>
 7    1  0.5664398E-009  0.4614232E+02  0.7816164E-02  0.1320468E+00
        -11   -1    0    0    0    0  0.00000000000E+00  0.00000000000E+00  0.45593999997E+02  0.45594000000E+02  0.51100000000E-03 0. -1.
         11   -1    0    0    0    0 -0.00000000000E+00 -0.00000000000E+00 -0.45593999997E+02  0.45594000000E+02  0.51100000000E-03 0.  1.
    9900012    2    1    2    0    0 -0.19401133331E+02  0.30105606386E+02  0.27319630523E+02  0.46142315164E+02  0.99999763198E+01 0.  0.
        -12    1    1    2    0    0  0.19401133331E+02 -0.30105606386E+02 -0.27319630523E+02  0.45045684836E+02  0.00000000000E+00 0.  1.
         11    1    3    3    0    0 -0.15778648640E+02  0.22853408830E+02  0.23634586626E+02  0.36466940279E+02  0.51100000000E-03 0. -1.
        -11    1    3    3    0    0 -0.40603693479E+01  0.72338795764E+01  0.39233504721E+01  0.91765076230E+01  0.51100000000E-03 0.  1.
        -12    1    3    3    0    0  0.43788465772E+00  0.18317980040E-01 -0.23830657485E+00  0.49886726238E+00  0.00000000000E+00 0.  1.
</event>
<event>
 7    1  0.5664398E-009  0.4614232E+02  0.7816164E-02  0.1320468E+00
        -11   -1    0    0    0    0  0.00000000000E+00  0.00000000000E+00  0.45593999997E+02  0.45594000000E+02  0.51100000000E-03 0. -1.
         11   -1    0    0    0    0 -0.00000000000E+00 -0.00000000000E+00 -0.45593999997E+02  0.45594000000E+02  0.51100000000E-03 0.  1.
    9900012    2    1    2    0    0 -0.67270330435E+01 -0.92830959812E+01  0.43562423434E+02  0.46142316744E+02  0.99999907208E+01 0.  0.
        -12    1    1    2    0    0  0.67270330435E+01  0.92830959812E+01 -0.43562423434E+02  0.45045683256E+02  0.00000000000E+00 0.  1.
         11    1    3    3    0    0 -0.17724171979E+01  0.44216902186E+00  0.99775913750E+01  0.10143436601E+02  0.51100000000E-03 0.  1.
        -11    1    3    3    0    0  0.64569913938E-01 -0.47225073408E+01  0.21293341741E+02  0.21810837848E+02  0.51100000000E-03 0. -1.
        -12    1    3    3    0    0 -0.50191857596E+01 -0.50027576623E+01  0.12291490318E+02  0.14188042295E+02  0.00000000000E+00 0.  1.
</event>
<event>
 7    1  0.5664398E-009  0.4614232E+02  0.7816164E-02  0.1320468E+00
        -11   -1    0    0    0    0  0.00000000000E+00  0.00000000000E+00  0.45593999997E+02  0.45594000000E+02  0.51100000000E-03 0.  1.
         11   -1    0    0    0    0 -0.00000000000E+00 -0.00000000000E+00 -0.45593999997E+02  0.45594000000E+02  0.51100000000E-03 0. -1.
    9900012    2    1    2    0    0 -0.36652152673E+02 -0.15518004837E+02 -0.21093237169E+02  0.46142318476E+02  0.10000006522E+02 0.  0.
         12    1    1    2    0    0  0.36652152673E+02  0.15518004837E+02  0.21093237169E+02  0.45045681524E+02  0.00000000000E+00 0. -1.
         11    1    3    3    0    0 -0.80018968783E+00  0.56299978147E+00 -0.15433699620E+01  0.18273651499E+01  0.51100000000E-03 0.  1.
        -11    1    3    3    0    0 -0.87098533324E+01 -0.11918603787E+01 -0.49245089847E+01  0.10076351782E+02  0.51100000000E-03 0. -1.
        -12    1    3    3    0    0 -0.27142109653E+02 -0.14889144240E+02 -0.14625358222E+02  0.34238601544E+02  0.00000000000E+00 0.  1.
</event>
<event>
 7    1  0.5664398E-009  0.4614232E+02  0.7816164E-02  0.1320468E+00
        -11   -1    0    0    0    0  0.00000000000E+00  0.00000000000E+00  0.45593999997E+02  0.45594000000E+02  0.51100000000E-03 0. -1.
         11   -1    0    0    0    0 -0.00000000000E+00 -0.00000000000E+00 -0.45593999997E+02  0.45594000000E+02  0.51100000000E-03 0.  1.
    9900012    2    1    2    0    0 -0.24933797553E+02 -0.19231023616E+02  0.32211597323E+02  0.46142317279E+02  0.99999955995E+01 0.  0.
        -12    1    1    2    0    0  0.24933797553E+02  0.19231023616E+02 -0.32211597323E+02  0.45045682721E+02  0.00000000000E+00 0.  1.
         11    1    3    3    0    0 -0.13689131287E+01 -0.16117926787E+01 -0.41743021158E+00  0.21554690988E+01  0.51100000000E-03 0.  1.
        -11    1    3    3    0    0 -0.11197696407E+02 -0.72084877340E+01  0.15459381255E+02  0.20404488950E+02  0.51100000000E-03 0. -1.
        -12    1    3    3    0    0 -0.12367188017E+02 -0.10410743203E+02  0.17169646280E+02  0.23582359230E+02  0.00000000000E+00 0.  1.
</event>
<event>
 7    1  0.5664398E-009  0.4614232E+02  0.7816164E-02  0.1320468E+00
        -11   -1    0    0    0    0  0.00000000000E+00  0.00000000000E+00  0.45593999997E+02  0.45594000000E+02  0.51100000000E-03 0. -1.
         11   -1    0    0    0    0 -0.00000000000E+00 -0.00000000000E+00 -0.45593999997E+02  0.45594000000E+02  0.51100000000E-03 0.  1.
    9900012    2    1    2    0    0  0.30344705904E+02 -0.25332585996E+02 -0.21600289651E+02  0.46142316492E+02  0.99999884293E+01 0.  0.
         12    1    1    2    0    0 -0.30344705904E+02  0.25332585996E+02  0.21600289651E+02  0.45045683508E+02  0.00000000000E+00 0. -1.
         11    1    3    3    0    0  0.99278031885E+01 -0.10428898067E+02 -0.65000173278E+01  0.15797892789E+02  0.51100000000E-03 0. -1.
        -11    1    3    3    0    0  0.18255183568E+02 -0.10067738854E+02 -0.10567695495E+02  0.23372789330E+02  0.51100000000E-03 0.  1.
         12    1    3    3    0    0  0.21617191476E+01 -0.48359490753E+01 -0.45325768277E+01  0.69716343730E+01  0.00000000000E+00 0. -1.
</event>
<event>
 7    1  0.5664398E-009  0.4614232E+02  0.7816164E-02  0.1320468E+00
        -11   -1    0    0    0    0  0.00000000000E+00  0.00000000000E+00  0.45593999997E+02  0.45594000000E+02  0.51100000000E-03 0. -1.
         11   -1    0    0    0    0 -0.00000000000E+00 -0.00000000000E+00 -0.45593999997E+02  0.45594000000E+02  0.51100000000E-03 0.  1.
    9900012    2    1    2    0    0 -0.12785303121E+02 -0.83942709507E+01  0.42369634350E+02  0.46142315683E+02  0.99999810479E+01 0.  0.
        -12    1    1    2    0    0  0.12785303121E+02  0.83942709507E+01 -0.42369634350E+02  0.45045684317E+02  0.00000000000E+00 0.  1.
         11    1    3    3    0    0 -0.32074966187E+01 -0.99670091811E-02  0.12197726022E+02  0.12612400813E+02  0.51100000000E-03 0. -1.
        -11    1    3    3    0    0  0.58742204621E+00 -0.30755340505E+01  0.73323836082E+01  0.79729432454E+01  0.51100000000E-03 0.  1.
         12    1    3    3    0    0 -0.10165228548E+02 -0.53087698911E+01  0.22839524720E+02  0.25556971624E+02  0.00000000000E+00 0. -1.
</event>
<event>
 7    1  0.5664398E-009  0.4614232E+02  0.7816164E-02  0.1320468E+00
        -11   -1    0    0    0    0  0.00000000000E+00  0.00000000000E+00  0.45593999997E+02  0.45594000000E+02  0.51100000000E-03 0. -1.
         11   -1    0    0    0    0 -0.00000000000E+00 -0.00000000000E+00 -0.45593999997E+02  0.45594000000E+02  0.51100000000E-03 0.  1.
    9900012    2    1    2    0    0  0.36794961613E+02 -0.77113275436E+01 -0.24814910512E+02  0.46142317007E+02  0.99999931230E+01 0.  0.
         12    1    1    2    0    0 -0.36794961613E+02  0.77113275436E+01  0.24814910512E+02  0.45045682993E+02  0.00000000000E+00 0. -1.
         11    1    3    3    0    0  0.13759004923E+01 -0.50838007820E+00  0.31418643914E+00  0.15000886135E+01  0.51100000000E-03 0. -1.
        -11    1    3    3    0    0  0.11789167585E+02 -0.31085227054E+01 -0.12797488452E+02  0.17675494242E+02  0.51100000000E-03 0.  1.
        -12    1    3    3    0    0  0.23629893535E+02 -0.40944247600E+01 -0.12331608499E+02  0.26966734151E+02  0.00000000000E+00 0.  1.
</event>
<event>
 7    1  0.5664398E-009  0.4614232E+02  0.7816164E-02  0.1320468E+00
        -11   -1    0    0    0    0  0.00000000000E+00  0.00000000000E+00  0.45593999997E+02  0.45594000000E+02  0.51100000000E-03 0. -1.
         11   -1    0    0    0    0 -0.00000000000E+00 -0.00000000000E+00 -0.45593999997E+02  0.45594000000E+02  0.51100000000E-03 0.  1.
    9900012    2    1    2    0    0 -0.17503461294E+02 -0.38654763388E+02  0.15117923780E+02  0.46142317529E+02  0.99999978809E+01 0.  0.
        -12    1    1    2    0    0  0.17503461294E+02  0.38654763388E+02 -0.15117923780E+02  0.45045682471E+02  0.00000000000E+00 0.  1.
         11    1    3    3    0    0 -0.14260956698E+02 -0.24034340712E+02  0.77777205656E+01  0.29008918575E+02  0.51100000000E-03 0. -1.
        -11    1    3    3    0    0  0.26505577580E+00 -0.28024699889E+01  0.57810906515E-01  0.28155700960E+01  0.51100000000E-03 0.  1.
         12    1    3    3    0    0 -0.35075603715E+01 -0.11817952687E+02  0.72823923083E+01  0.14317828858E+02  0.00000000000E+00 0. -1.
</event>
<event>
 7    1  0.5664398E-009  0.4614232E+02  0.7816164E-02  0.1320468E+00
        -11   -1    0    0    0    0  0.00000000000E+00  0.00000000000E+00  0.45593999997E+02  0.45594000000E+02  0.51100000000E-03 0. -1.
         11   -1    0    0    0    0 -0.00000000000E+00 -0.00000000000E+00 -0.45593999997E+02  0.45594000000E+02  0.51100000000E-03 0.  1.
    9900012    2    1    2    0    0 -0.16114124083E+02 -0.34759516590E+02  0.23690177971E+02  0.46142317401E+02  0.99999967188E+01 0.  0.
        -12    1    1    2    0    0  0.16114124083E+02  0.34759516590E+02 -0.23690177971E+02  0.45045682599E+02  0.00000000000E+00 0.  1.
         11    1    3    3    0    0 -0.90062788043E+01 -0.19721443449E+02  0.10497706891E+02  0.24088383920E+02  0.51100000000E-03 0. -1.
        -11    1    3    3    0    0  0.49891328843E+00 -0.43058114147E+01  0.19641592370E+01  0.47588704729E+01  0.51100000000E-03 0.  1.
         12    1    3    3    0    0 -0.76067585668E+01 -0.10732261726E+02  0.11228311843E+02  0.17295063009E+02  0.00000000000E+00 0. -1.
</event>
<event>
 7    1  0.5664398E-009  0.4614232E+02  0.7816164E-02  0.1320468E+00
        -11   -1    0    0    0    0  0.00000000000E+00  0.00000000000E+00  0.45593999997E+02  0.45594000000E+02  0.51100000000E-03 0. -1.
         11   -1    0    0    0    0 -0.00000000000E+00 -0.00000000000E+00 -0.45593999997E+02  0.45594000000E+02  0.51100000000E-03 0.  1.
    9900012    2    1    2    0    0  0.18739316482E+02  0.26503657314E+02  0.31233117873E+02  0.46142317796E+02  0.10000000314E+02 0.  0.
        -12    1    1    2    0    0 -0.18739316482E+02 -0.26503657314E+02 -0.31233117873E+02  0.45045682204E+02  0.00000000000E+00 0.  1.
         11    1    3    3    0    0  0.98388807260E+01  0.11344994400E+02  0.12924552343E+02  0.19813039277E+02  0.51100000000E-03 0. -1.
        -11    1    3    3    0    0  0.86552301346E+01  0.13728452919E+02  0.12905884833E+02  0.20735122180E+02  0.51100000000E-03 0.  1.
         12    1    3    3    0    0  0.24520562117E+00  0.14302099951E+01  0.54026806974E+01  0.55941563390E+01  0.00000000000E+00 0. -1.
</event>
<event>
 7    1  0.5664398E-009  0.4614232E+02  0.7816164E-02  0.1320468E+00
        -11   -1    0    0    0    0  0.00000000000E+00  0.00000000000E+00  0.45593999997E+02  0.45594000000E+02  0.51100000000E-03 0. -1.
         11   -1    0    0    0    0 -0.00000000000E+00 -0.00000000000E+00 -0.45593999997E+02  0.45594000000E+02  0.51100000000E-03 0.  1.
    9900012    2    1    2    0    0 -0.36173413200E+02  0.17558008438E+02  0.20305518044E+02  0.46142317123E+02  0.99999941800E+01 0.  0.
        -12    1    1    2    0    0  0.36173413200E+02 -0.17558008438E+02 -0.20305518044E+02  0.45045682877E+02  0.00000000000E+00 0.  1.
         11    1    3    3    0    0 -0.54236729086E+01 -0.37283735439E+00  0.26298989210E+01  0.60391724688E+01  0.51100000000E-03 0. -1.
        -11    1    3    3    0    0 -0.11425486296E+02  0.81432147038E+01  0.95284054550E+01  0.16960076461E+02  0.51100000000E-03 0.  1.
         12    1    3    3    0    0 -0.19324253996E+02  0.97876310890E+01  0.81472136678E+01  0.23143068193E+02  0.00000000000E+00 0. -1.
</event>
<event>
 7    1  0.5664398E-009  0.4614232E+02  0.7816164E-02  0.1320468E+00
        -11   -1    0    0    0    0  0.00000000000E+00  0.00000000000E+00  0.45593999997E+02  0.45594000000E+02  0.51100000000E-03 0. -1.
         11   -1    0    0    0    0 -0.00000000000E+00 -0.00000000000E+00 -0.45593999997E+02  0.45594000000E+02  0.51100000000E-03 0.  1.
    9900012    2    1    2    0    0  0.11391667532E+02  0.23244506989E+02  0.36865109864E+02  0.46142317414E+02  0.99999968370E+01 0.  0.
        -12    1    1    2    0    0 -0.11391667532E+02 -0.23244506989E+02 -0.36865109864E+02  0.45045682586E+02  0.00000000000E+00 0.  1.
         11    1    3    3    0    0  0.10583862377E+01  0.14597660558E+01  0.18909334420E+01  0.26128007787E+01  0.51100000000E-03 0. -1.
        -11    1    3    3    0    0  0.78735196787E+01  0.21134514487E+02  0.34010247080E+02  0.40808784856E+02  0.51100000000E-03 0.  1.
        -12    1    3    3    0    0  0.24597616160E+01  0.65022644690E+00  0.96392934157E+00  0.27207317794E+01  0.00000000000E+00 0.  1.
</event>
<event>
 7    1  0.5664398E-009  0.4614232E+02  0.7816164E-02  0.1320468E+00
        -11   -1    0    0    0    0  0.00000000000E+00  0.00000000000E+00  0.45593999997E+02  0.45594000000E+02  0.51100000000E-03 0. -1.
         11   -1    0    0    0    0 -0.00000000000E+00 -0.00000000000E+00 -0.45593999997E+02  0.45594000000E+02  0.51100000000E-03 0.  1.
    9900012    2    1    2    0    0  0.23603442886E+02  0.17043483958E+02 -0.34373108531E+02  0.46142318169E+02  0.10000003717E+02 0.  0.
         12    1    1    2    0    0 -0.23603442886E+02 -0.17043483958E+02  0.34373108531E+02  0.45045681831E+02  0.00000000000E+00 0. -1.
         11    1    3    3    0    0  0.13123134003E+02  0.40519446053E+01 -0.17920449700E+02  0.22578251014E+02  0.51100000000E-03 0. -1.
        -11    1    3    3    0    0  0.36722255995E+01  0.39901068295E+01 -0.69146960474E+01  0.87874464467E+01  0.51100000000E-03 0.  1.
         12    1    3    3    0    0  0.68080832836E+01  0.90014325235E+01 -0.95379627844E+01  0.14776620708E+02  0.00000000000E+00 0. -1.
</event>
<event>
 7    1  0.5664398E-009  0.4614232E+02  0.7816164E-02  0.1320468E+00
        -11   -1    0    0    0    0  0.00000000000E+00  0.00000000000E+00  0.45593999997E+02  0.45594000000E+02  0.51100000000E-03 0. -1.
         11   -1    0    0    0    0 -0.00000000000E+00 -0.00000000000E+00 -0.45593999997E+02  0.45594000000E+02  0.51100000000E-03 0.  1.
    9900012    2    1    2    0    0 -0.45124970387E+01  0.25366483022E+02  0.36949866615E+02  0.46142315043E+02  0.99999752110E+01 0.  0.
        -12    1    1    2    0    0  0.45124970387E+01 -0.25366483022E+02 -0.36949866615E+02  0.45045684957E+02  0.00000000000E+00 0.  1.
         11    1    3    3    0    0 -0.25967089022E+01  0.86667090513E+01  0.90411499383E+01  0.12790509582E+02  0.51100000000E-03 0. -1.
        -11    1    3    3    0    0 -0.32174062094E+01  0.85062892511E+01  0.94545899689E+01  0.13118610112E+02  0.51100000000E-03 0.  1.
         12    1    3    3    0    0  0.13016180730E+01  0.81934847196E+01  0.18454126707E+02  0.20233195348E+02  0.00000000000E+00 0. -1.
</event>
<event>
 7    1  0.5664398E-009  0.4614232E+02  0.7816164E-02  0.1320468E+00
        -11   -1    0    0    0    0  0.00000000000E+00  0.00000000000E+00  0.45593999997E+02  0.45594000000E+02  0.51100000000E-03 0. -1.
         11   -1    0    0    0    0 -0.00000000000E+00 -0.00000000000E+00 -0.45593999997E+02  0.45594000000E+02  0.51100000000E-03 0.  1.
    9900012    2    1    2    0    0  0.22872412512E+02 -0.29850675835E+01 -0.38691802523E+02  0.46142318020E+02  0.10000002360E+02 0.  0.
         12    1    1    2    0    0 -0.22872412512E+02  0.29850675835E+01  0.38691802523E+02  0.45045681980E+02  0.00000000000E+00 0. -1.
         11    1    3    3    0    0  0.42112132374E+01 -0.18108954018E+01 -0.58178626572E+01  0.74068336856E+01  0.51100000000E-03 0. -1.
        -11    1    3    3    0    0  0.19032895097E+02 -0.16355651809E+00 -0.32359335795E+02  0.37542035905E+02  0.51100000000E-03 0.  1.
         12    1    3    3    0    0 -0.37169582288E+00 -0.10106156636E+01 -0.51460407018E+00  0.11934484293E+01  0.00000000000E+00 0. -1.
</event>
<event>
 7    1  0.5664398E-009  0.4614232E+02  0.7816164E-02  0.1320468E+00
        -11   -1    0    0    0    0  0.00000000000E+00  0.00000000000E+00  0.45593999997E+02  0.45594000000E+02  0.51100000000E-03 0. -1.
         11   -1    0    0    0    0 -0.00000000000E+00 -0.00000000000E+00 -0.45593999997E+02  0.45594000000E+02  0.51100000000E-03 0.  1.
    9900012    2    1    2    0    0 -0.25435134963E+02 -0.31118686314E+01  0.37047046691E+02  0.46142317793E+02  0.10000000292E+02 0.  0.
        -12    1    1    2    0    0  0.25435134963E+02  0.31118686314E+01 -0.37047046691E+02  0.45045682207E+02  0.00000000000E+00 0.  1.
         11    1    3    3    0    0 -0.93871929811E+01 -0.18896517832E+01  0.95721120525E+01  0.13539405649E+02  0.51100000000E-03 0. -1.
        -11    1    3    3    0    0 -0.15719178728E+02 -0.27239807283E+01  0.25757948176E+02  0.30298259776E+02  0.51100000000E-03 0.  1.
        -12    1    3    3    0    0 -0.32876325301E+00  0.15017638801E+01  0.17169864622E+01  0.23046523684E+01  0.00000000000E+00 0.  1.
</event>
<event>
 7    1  0.5664398E-009  0.4614232E+02  0.7816164E-02  0.1320468E+00
        -11   -1    0    0    0    0  0.00000000000E+00  0.00000000000E+00  0.45593999997E+02  0.45594000000E+02  0.51100000000E-03 0.  1.
         11   -1    0    0    0    0 -0.00000000000E+00 -0.00000000000E+00 -0.45593999997E+02  0.45594000000E+02  0.51100000000E-03 0. -1.
    9900012    2    1    2    0    0 -0.38920583117E+02 -0.18081057855E+02 -0.13688575687E+02  0.46142317103E+02  0.99999939992E+01 0.  0.
        -12    1    1    2    0    0  0.38920583117E+02  0.18081057855E+02  0.13688575687E+02  0.45045682897E+02  0.00000000000E+00 0.  1.
         11    1    3    3    0    0 -0.12052008647E+02 -0.58034940823E+01 -0.58786733110E+01  0.14611305765E+02  0.51100000000E-03 0. -1.
        -11    1    3    3    0    0 -0.50204755969E+01 -0.23588942227E+00 -0.37159972039E+01  0.62505563368E+01  0.51100000000E-03 0.  1.
         12    1    3    3    0    0 -0.21848098873E+02 -0.12041674351E+02 -0.40939051719E+01  0.25280455002E+02  0.00000000000E+00 0. -1.
</event>
<event>
 7    1  0.5664398E-009  0.4614232E+02  0.7816164E-02  0.1320468E+00
        -11   -1    0    0    0    0  0.00000000000E+00  0.00000000000E+00  0.45593999997E+02  0.45594000000E+02  0.51100000000E-03 0. -1.
         11   -1    0    0    0    0 -0.00000000000E+00 -0.00000000000E+00 -0.45593999997E+02  0.45594000000E+02  0.51100000000E-03 0.  1.
    9900012    2    1    2    0    0 -0.15075634005E+02  0.30992520784E+02  0.29005216272E+02  0.46142315898E+02  0.99999830150E+01 0.  0.
        -12    1    1    2    0    0  0.15075634005E+02 -0.30992520784E+02 -0.29005216272E+02  0.45045684102E+02  0.00000000000E+00 0.  1.
         11    1    3    3    0    0 -0.80743468833E+01  0.25108066000E+02  0.19988660190E+02  0.33093150232E+02  0.51100000000E-03 0. -1.
        -11    1    3    3    0    0 -0.59828795333E+01  0.59094442721E+01  0.79060997518E+01  0.11542217840E+02  0.51100000000E-03 0.  1.
         12    1    3    3    0    0 -0.10184075883E+01 -0.24989487941E-01  0.11104563301E+01  0.15069478264E+01  0.00000000000E+00 0. -1.
</event>
<event>
 7    1  0.5664398E-009  0.4614232E+02  0.7816164E-02  0.1320468E+00
        -11   -1    0    0    0    0  0.00000000000E+00  0.00000000000E+00  0.45593999997E+02  0.45594000000E+02  0.51100000000E-03 0. -1.
         11   -1    0    0    0    0 -0.00000000000E+00 -0.00000000000E+00 -0.45593999997E+02  0.45594000000E+02  0.51100000000E-03 0.  1.
    9900012    2    1    2    0    0  0.28593501712E+02  0.13803248156E+02 -0.31953021157E+02  0.46142316956E+02  0.99999926586E+01 0.  0.
         12    1    1    2    0    0 -0.28593501712E+02 -0.13803248156E+02  0.31953021157E+02  0.45045683044E+02  0.00000000000E+00 0. -1.
         11    1    3    3    0    0  0.22793818857E+01 -0.53563381902E+00 -0.20962468285E+01  0.31427275409E+01  0.51100000000E-03 0. -1.
        -11    1    3    3    0    0  0.11155147703E+01  0.31721567250E+01 -0.27856150734E+01  0.43665321583E+01  0.51100000000E-03 0.  1.
        -12    1    3    3    0    0  0.25198605056E+02  0.11166725250E+02 -0.27071159255E+02  0.38633057257E+02  0.00000000000E+00 0.  1.
</event>
<event>
 7    1  0.5664398E-009  0.4614232E+02  0.7816164E-02  0.1320468E+00
        -11   -1    0    0    0    0  0.00000000000E+00  0.00000000000E+00  0.45593999997E+02  0.45594000000E+02  0.51100000000E-03 0. -1.
         11   -1    0    0    0    0 -0.00000000000E+00 -0.00000000000E+00 -0.45593999997E+02  0.45594000000E+02  0.51100000000E-03 0.  1.
    9900012    2    1    2    0    0  0.21670756711E+01  0.30696421376E+02  0.32896003161E+02  0.46142317341E+02  0.99999961674E+01 0.  0.
        -12    1    1    2    0    0 -0.21670756711E+01 -0.30696421376E+02 -0.32896003161E+02  0.45045682659E+02  0.00000000000E+00 0.  1.
         11    1    3    3    0    0  0.21746978076E+01  0.23534220139E+02  0.21594492437E+02  0.32014230149E+02  0.51100000000E-03 0. -1.
        -11    1    3    3    0    0 -0.22527169322E+01  0.39588168634E+01  0.64448249515E+01  0.78919410446E+01  0.51100000000E-03 0.  1.
        -12    1    3    3    0    0  0.22450947956E+01  0.32033843735E+01  0.48566857721E+01  0.62361461477E+01  0.00000000000E+00 0.  1.
</event>
<event>
 7    1  0.5664398E-009  0.4614232E+02  0.7816164E-02  0.1320468E+00
        -11   -1    0    0    0    0  0.00000000000E+00  0.00000000000E+00  0.45593999997E+02  0.45594000000E+02  0.51100000000E-03 0. -1.
         11   -1    0    0    0    0 -0.00000000000E+00 -0.00000000000E+00 -0.45593999997E+02  0.45594000000E+02  0.51100000000E-03 0.  1.
    9900012    2    1    2    0    0 -0.19657731237E+01  0.67975854439E+01 -0.44486424663E+02  0.46142318619E+02  0.10000007819E+02 0.  0.
         12    1    1    2    0    0  0.19657731237E+01 -0.67975854439E+01  0.44486424663E+02  0.45045681381E+02  0.00000000000E+00 0. -1.
         11    1    3    3    0    0 -0.42903961223E+01  0.21305437874E+01 -0.11721515888E+02  0.12662568882E+02  0.51100000000E-03 0. -1.
        -11    1    3    3    0    0 -0.11548763276E+01  0.96551496210E+00 -0.12387692089E+02  0.12478817013E+02  0.51100000000E-03 0.  1.
        -12    1    3    3    0    0  0.34794993263E+01  0.37015266945E+01 -0.20377216686E+02  0.21000932724E+02  0.00000000000E+00 0.  1.
</event>
<event>
 7    1  0.5664398E-009  0.4614232E+02  0.7816164E-02  0.1320468E+00
        -11   -1    0    0    0    0  0.00000000000E+00  0.00000000000E+00  0.45593999997E+02  0.45594000000E+02  0.51100000000E-03 0. -1.
         11   -1    0    0    0    0 -0.00000000000E+00 -0.00000000000E+00 -0.45593999997E+02  0.45594000000E+02  0.51100000000E-03 0.  1.
    9900012    2    1    2    0    0  0.28718579779E+02 -0.77100250342E+01  0.33836550936E+02  0.46142317745E+02  0.99999998570E+01 0.  0.
        -12    1    1    2    0    0 -0.28718579779E+02  0.77100250342E+01 -0.33836550936E+02  0.45045682255E+02  0.00000000000E+00 0.  1.
         11    1    3    3    0    0  0.83881903589E+01 -0.21930445026E+00  0.92222411207E+01  0.12468342452E+02  0.51100000000E-03 0. -1.
        -11    1    3    3    0    0  0.20192797646E+02 -0.80717074184E+01  0.21781065899E+02  0.30778504989E+02  0.51100000000E-03 0.  1.
        -12    1    3    3    0    0  0.13759177436E+00  0.58098683440E+00  0.28332439158E+01  0.28954703046E+01  0.00000000000E+00 0.  1.
</event>
<event>
 7    1  0.5664398E-009  0.4614232E+02  0.7816164E-02  0.1320468E+00
        -11   -1    0    0    0    0  0.00000000000E+00  0.00000000000E+00  0.45593999997E+02  0.45594000000E+02  0.51100000000E-03 0.  1.
         11   -1    0    0    0    0 -0.00000000000E+00 -0.00000000000E+00 -0.45593999997E+02  0.45594000000E+02  0.51100000000E-03 0. -1.
    9900012    2    1    2    0    0  0.12139110506E+02  0.43355852083E+02 -0.14232149882E+01  0.46142318136E+02  0.10000003418E+02 0.  0.
        -12    1    1    2    0    0 -0.12139110506E+02 -0.43355852083E+02  0.14232149882E+01  0.45045681864E+02  0.00000000000E+00 0.  1.
         11    1    3    3    0    0  0.41941114582E+00  0.10604237860E+02  0.31457693425E+00  0.10617190081E+02  0.51100000000E-03 0. -1.
        -11    1    3    3    0    0  0.56181172160E+01  0.71992756683E+01  0.59302260375E+00  0.91512014113E+01  0.51100000000E-03 0.  1.
        -12    1    3    3    0    0  0.61015821445E+01  0.25552338555E+02 -0.23308145262E+01  0.26373926644E+02  0.00000000000E+00 0.  1.
</event>
<event>
 7    1  0.5664398E-009  0.4614231E+02  0.7816164E-02  0.1320468E+00
        -11   -1    0    0    0    0  0.00000000000E+00  0.00000000000E+00  0.45593999997E+02  0.45594000000E+02  0.51100000000E-03 0. -1.
         11   -1    0    0    0    0 -0.00000000000E+00 -0.00000000000E+00 -0.45593999997E+02  0.45594000000E+02  0.51100000000E-03 0.  1.
    9900012    2    1    2    0    0 -0.23704893737E+02  0.44523482631E+01  0.38044296878E+02  0.46142313003E+02  0.99999566083E+01 0.  0.
        -12    1    1    2    0    0  0.23704893737E+02 -0.44523482631E+01 -0.38044296878E+02  0.45045686997E+02  0.00000000000E+00 0.  1.
         11    1    3    3    0    0 -0.22275927469E+01  0.10626886209E+01  0.44167454343E+01  0.50595570007E+01  0.51100000000E-03 0. -1.
        -11    1    3    3    0    0 -0.16873809980E+02 -0.12991905387E+01  0.22411052706E+02  0.28083244879E+02  0.51100000000E-03 0.  1.
        -12    1    3    3    0    0 -0.46034910100E+01  0.46888501809E+01  0.11216498738E+02  0.12999511123E+02  0.00000000000E+00 0.  1.
</event>
<event>
 7    1  0.5664398E-009  0.4614232E+02  0.7816164E-02  0.1320468E+00
        -11   -1    0    0    0    0  0.00000000000E+00  0.00000000000E+00  0.45593999997E+02  0.45594000000E+02  0.51100000000E-03 0. -1.
         11   -1    0    0    0    0 -0.00000000000E+00 -0.00000000000E+00 -0.45593999997E+02  0.45594000000E+02  0.51100000000E-03 0.  1.
    9900012    2    1    2    0    0 -0.50915255772E+01 -0.33379791599E+02 -0.29815757948E+02  0.46142317167E+02  0.99999945812E+01 0.  0.
         12    1    1    2    0    0  0.50915255772E+01  0.33379791599E+02  0.29815757948E+02  0.45045682833E+02  0.00000000000E+00 0. -1.
         11    1    3    3    0    0 -0.59831808640E-01 -0.57245903832E+01 -0.96377280542E+01  0.11209831275E+02  0.51100000000E-03 0. -1.
        -11    1    3    3    0    0 -0.29180833233E+01 -0.53180689180E+01 -0.38777927845E+01  0.71996072420E+01  0.51100000000E-03 0.  1.
         12    1    3    3    0    0 -0.21136104452E+01 -0.22337132298E+02 -0.16300237109E+02  0.27732878650E+02  0.00000000000E+00 0. -1.
</event>
<event>
 7    1  0.1013576E-008  0.4614232E+02  0.7816164E-02  0.1320468E+00
        -11   -1    0    0    0    0  0.00000000000E+00  0.00000000000E+00  0.45593999997E+02  0.45594000000E+02  0.51100000000E-03 0. -1.
         11   -1    0    0    0    0 -0.00000000000E+00 -0.00000000000E+00 -0.45593999997E+02  0.45594000000E+02  0.51100000000E-03 0.  1.
    9900012    2    1    2    0    0  0.10034115647E+02 -0.25761223908E+02  0.35563877673E+02  0.46142317308E+02  0.99999958649E+01 0.  0.
        -12    1    1    2    0    0 -0.10034115647E+02  0.25761223908E+02 -0.35563877673E+02  0.45045682692E+02  0.00000000000E+00 0.  1.
         11    1    3    3    0    0 -0.53839781156E+00 -0.91548638694E+00  0.50408232659E+00  0.11756218700E+01  0.51100000000E-03 0. -1.
        -11    1    3    3    0    0 -0.51576550692E+00  0.35011790526E+00  0.91736184487E+00  0.11091211031E+01  0.51100000000E-03 0.  1.
         12    1    3    3    0    0  0.11088278965E+02 -0.25195855427E+02  0.34142433502E+02  0.43857574335E+02  0.00000000000E+00 0. -1.
</event>
<event>
 7    1  0.5664398E-009  0.4614231E+02  0.7816164E-02  0.1320468E+00
        -11   -1    0    0    0    0  0.00000000000E+00  0.00000000000E+00  0.45593999997E+02  0.45594000000E+02  0.51100000000E-03 0. -1.
         11   -1    0    0    0    0 -0.00000000000E+00 -0.00000000000E+00 -0.45593999997E+02  0.45594000000E+02  0.51100000000E-03 0.  1.
    9900012    2    1    2    0    0 -0.20679157843E+02  0.14057279577E+02 -0.37468384007E+02  0.46142306773E+02  0.99998998000E+01 0.  0.
         12    1    1    2    0    0  0.20679157843E+02 -0.14057279577E+02  0.37468384007E+02  0.45045693227E+02  0.00000000000E+00 0. -1.
         11    1    3    3    0    0 -0.24480402672E+01  0.53115693599E+01 -0.77946106291E+01  0.97448255672E+01  0.51100000000E-03 0. -1.
        -11    1    3    3    0    0 -0.10144183326E+02  0.79886915172E+01 -0.19328709824E+02  0.23244841820E+02  0.51100000000E-03 0.  1.
         12    1    3    3    0    0 -0.80869342502E+01  0.75701869993E+00 -0.10345063554E+02  0.13152639386E+02  0.00000000000E+00 0. -1.
</event>
<event>
 7    1  0.5664398E-009  0.4614232E+02  0.7816164E-02  0.1320468E+00
        -11   -1    0    0    0    0  0.00000000000E+00  0.00000000000E+00  0.45593999997E+02  0.45594000000E+02  0.51100000000E-03 0. -1.
         11   -1    0    0    0    0 -0.00000000000E+00 -0.00000000000E+00 -0.45593999997E+02  0.45594000000E+02  0.51100000000E-03 0.  1.
    9900012    2    1    2    0    0  0.29078987331E+02 -0.52455875536E+01  0.34000143883E+02  0.46142317887E+02  0.10000001145E+02 0.  0.
        -12    1    1    2    0    0 -0.29078987331E+02  0.52455875536E+01 -0.34000143883E+02  0.45045682113E+02  0.00000000000E+00 0.  1.
         11    1    3    3    0    0  0.79979597094E+01  0.17442401098E+01  0.69083516304E+01  0.10711445074E+02  0.51100000000E-03 0. -1.
        -11    1    3    3    0    0  0.30309815720E+01 -0.28528312493E+00  0.14707607212E+01  0.33810313680E+01  0.51100000000E-03 0.  1.
         12    1    3    3    0    0  0.18050046050E+02 -0.67045445385E+01  0.25621031531E+02  0.32049841444E+02  0.00000000000E+00 0. -1.
</event>
<event>
 7    1  0.5664398E-009  0.4614232E+02  0.7816164E-02  0.1320468E+00
        -11   -1    0    0    0    0  0.00000000000E+00  0.00000000000E+00  0.45593999997E+02  0.45594000000E+02  0.51100000000E-03 0. -1.
         11   -1    0    0    0    0 -0.00000000000E+00 -0.00000000000E+00 -0.45593999997E+02  0.45594000000E+02  0.51100000000E-03 0.  1.
    9900012    2    1    2    0    0  0.13868551298E+00  0.65193637639E+01 -0.44571202403E+02  0.46142318507E+02  0.10000006802E+02 0.  0.
         12    1    1    2    0    0 -0.13868551298E+00 -0.65193637639E+01  0.44571202403E+02  0.45045681493E+02  0.00000000000E+00 0. -1.
         11    1    3    3    0    0  0.28198793547E+01  0.21376157528E+00 -0.40140746010E+01  0.49102147356E+01  0.51100000000E-03 0. -1.
        -11    1    3    3    0    0 -0.24145967463E+01  0.26762200753E+01 -0.15597563343E+02  0.16008635602E+02  0.51100000000E-03 0.  1.
        -12    1    3    3    0    0 -0.26659709543E+00  0.36293821134E+01 -0.24959564459E+02  0.25223468169E+02  0.00000000000E+00 0.  1.
</event>
<event>
 7    1  0.5664398E-009  0.4614232E+02  0.7816164E-02  0.1320468E+00
        -11   -1    0    0    0    0  0.00000000000E+00  0.00000000000E+00  0.45593999997E+02  0.45594000000E+02  0.51100000000E-03 0. -1.
         11   -1    0    0    0    0 -0.00000000000E+00 -0.00000000000E+00 -0.45593999997E+02  0.45594000000E+02  0.51100000000E-03 0.  1.
    9900012    2    1    2    0    0  0.24911410312E+02 -0.30259522116E+02  0.22201271965E+02  0.46142317418E+02  0.99999968697E+01 0.  0.
        -12    1    1    2    0    0 -0.24911410312E+02  0.30259522116E+02 -0.22201271965E+02  0.45045682582E+02  0.00000000000E+00 0.  1.
         11    1    3    3    0    0  0.76456698109E+01 -0.62494712101E+01  0.46131045093E+01  0.10899215143E+02  0.51100000000E-03 0.  1.
        -11    1    3    3    0    0  0.12147567917E+02 -0.15982472219E+02  0.76567879421E+01  0.21485558554E+02  0.51100000000E-03 0. -1.
         12    1    3    3    0    0  0.51181725838E+01 -0.80275786869E+01  0.99313795136E+01  0.13757543720E+02  0.00000000000E+00 0. -1.
</event>
<event>
 7    1  0.5664398E-009  0.4614232E+02  0.7816164E-02  0.1320468E+00
        -11   -1    0    0    0    0  0.00000000000E+00  0.00000000000E+00  0.45593999997E+02  0.45594000000E+02  0.51100000000E-03 0. -1.
         11   -1    0    0    0    0 -0.00000000000E+00 -0.00000000000E+00 -0.45593999997E+02  0.45594000000E+02  0.51100000000E-03 0.  1.
    9900012    2    1    2    0    0 -0.59735824372E+00 -0.42525952275E+02 -0.14842514724E+02  0.46142315444E+02  0.99999788739E+01 0.  0.
         12    1    1    2    0    0  0.59735824372E+00  0.42525952275E+02  0.14842514724E+02  0.45045684556E+02  0.00000000000E+00 0. -1.
         11    1    3    3    0    0  0.55670195000E+00 -0.20153199313E+02 -0.72022460196E+01  0.21408729705E+02  0.51100000000E-03 0. -1.
        -11    1    3    3    0    0 -0.32426096467E+01 -0.11438860395E+02 -0.64824847678E+01  0.13541958997E+02  0.51100000000E-03 0.  1.
         12    1    3    3    0    0  0.20885494530E+01 -0.10933892567E+02 -0.11577839366E+01  0.11191626742E+02  0.00000000000E+00 0. -1.
</event>
<event>
 7    1  0.5664398E-009  0.4614232E+02  0.7816164E-02  0.1320468E+00
        -11   -1    0    0    0    0  0.00000000000E+00  0.00000000000E+00  0.45593999997E+02  0.45594000000E+02  0.51100000000E-03 0. -1.
         11   -1    0    0    0    0 -0.00000000000E+00 -0.00000000000E+00 -0.45593999997E+02  0.45594000000E+02  0.51100000000E-03 0.  1.
    9900012    2    1    2    0    0  0.12262164733E+02 -0.33511356150E+02  0.27490757508E+02  0.46142318483E+02  0.10000006585E+02 0.  0.
        -12    1    1    2    0    0 -0.12262164733E+02  0.33511356150E+02 -0.27490757508E+02  0.45045681517E+02  0.00000000000E+00 0.  1.
         11    1    3    3    0    0  0.72573160209E+01 -0.15673633507E+02  0.13028188083E+02  0.21634812412E+02  0.51100000000E-03 0. -1.
        -11    1    3    3    0    0  0.27847933815E+01 -0.10594871107E+02  0.12619594599E+02  0.16711090211E+02  0.51100000000E-03 0.  1.
        -12    1    3    3    0    0  0.22200553304E+01 -0.72428515362E+01  0.18429748262E+01  0.77964158596E+01  0.00000000000E+00 0.  1.
</event>
<event>
 7    1  0.5664398E-009  0.4614232E+02  0.7816164E-02  0.1320468E+00
        -11   -1    0    0    0    0  0.00000000000E+00  0.00000000000E+00  0.45593999997E+02  0.45594000000E+02  0.51100000000E-03 0. -1.
         11   -1    0    0    0    0 -0.00000000000E+00 -0.00000000000E+00 -0.45593999997E+02  0.45594000000E+02  0.51100000000E-03 0.  1.
    9900012    2    1    2    0    0  0.28677899012E+02 -0.19754347368E+02 -0.28573720937E+02  0.46142315857E+02  0.99999826387E+01 0.  0.
         12    1    1    2    0    0 -0.28677899012E+02  0.19754347368E+02  0.28573720937E+02  0.45045684143E+02  0.00000000000E+00 0. -1.
         11    1    3    3    0    0  0.12942167936E+01 -0.30591145200E+01 -0.28233211791E+01  0.43593946251E+01  0.51100000000E-03 0. -1.
        -11    1    3    3    0    0  0.23424451156E+02 -0.14161010652E+02 -0.24904893827E+02  0.37006659825E+02  0.51100000000E-03 0.  1.
        -12    1    3    3    0    0  0.39592310630E+01 -0.25342221958E+01 -0.84550593142E+00  0.47762614070E+01  0.00000000000E+00 0.  1.
</event>
<event>
 7    1  0.5664398E-009  0.4614232E+02  0.7816164E-02  0.1320468E+00
        -11   -1    0    0    0    0  0.00000000000E+00  0.00000000000E+00  0.45593999997E+02  0.45594000000E+02  0.51100000000E-03 0. -1.
         11   -1    0    0    0    0 -0.00000000000E+00 -0.00000000000E+00 -0.45593999997E+02  0.45594000000E+02  0.51100000000E-03 0.  1.
    9900012    2    1    2    0    0 -0.57639902240E+00  0.28165342752E+02 -0.35149604573E+02  0.46142317966E+02  0.10000001873E+02 0.  0.
         12    1    1    2    0    0  0.57639902240E+00 -0.28165342752E+02  0.35149604573E+02  0.45045682034E+02  0.00000000000E+00 0. -1.
         11    1    3    3    0    0 -0.10383071583E+01  0.54223691305E+00 -0.53192339320E+01  0.54466827069E+01  0.51100000000E-03 0. -1.
        -11    1    3    3    0    0 -0.59292010691E+00  0.14026428187E+02 -0.14731720838E+02  0.20349836389E+02  0.51100000000E-03 0.  1.
         12    1    3    3    0    0  0.10548282429E+01  0.13596677653E+02 -0.15098649803E+02  0.20345798871E+02  0.00000000000E+00 0. -1.
</event>
<event>
 7    1  0.5664398E-009  0.4614232E+02  0.7816164E-02  0.1320468E+00
        -11   -1    0    0    0    0  0.00000000000E+00  0.00000000000E+00  0.45593999997E+02  0.45594000000E+02  0.51100000000E-03 0. -1.
         11   -1    0    0    0    0 -0.00000000000E+00 -0.00000000000E+00 -0.45593999997E+02  0.45594000000E+02  0.51100000000E-03 0.  1.
    9900012    2    1    2    0    0 -0.13452475210E+02 -0.24531662535E+02  0.35303563578E+02  0.46142321436E+02  0.10000033506E+02 0.  0.
        -12    1    1    2    0    0  0.13452475210E+02  0.24531662535E+02 -0.35303563578E+02  0.45045678564E+02  0.00000000000E+00 0.  1.
         11    1    3    3    0    0 -0.51738695019E+01 -0.62441800406E+01  0.54570387258E+01  0.97743532737E+01  0.51100000000E-03 0. -1.
        -11    1    3    3    0    0  0.68239209751E+00 -0.24626912322E+01  0.29869939780E+01  0.39309846559E+01  0.51100000000E-03 0.  1.
         12    1    3    3    0    0 -0.89609978060E+01 -0.15824791263E+02  0.26859530874E+02  0.32436983506E+02  0.00000000000E+00 0. -1.
</event>
<event>
 7    1  0.5664398E-009  0.4614232E+02  0.7816164E-02  0.1320468E+00
        -11   -1    0    0    0    0  0.00000000000E+00  0.00000000000E+00  0.45593999997E+02  0.45594000000E+02  0.51100000000E-03 0.  1.
         11   -1    0    0    0    0 -0.00000000000E+00 -0.00000000000E+00 -0.45593999997E+02  0.45594000000E+02  0.51100000000E-03 0. -1.
    9900012    2    1    2    0    0 -0.23374100315E+02  0.32478656678E+02  0.20685786209E+02  0.46142318118E+02  0.10000003255E+02 0.  0.
        -12    1    1    2    0    0  0.23374100315E+02 -0.32478656678E+02 -0.20685786209E+02  0.45045681882E+02  0.00000000000E+00 0.  1.
         11    1    3    3    0    0 -0.12380067994E+02  0.15936218793E+02  0.11736479036E+02  0.23344680194E+02  0.51100000000E-03 0. -1.
        -11    1    3    3    0    0 -0.12387317137E+01  0.42614851711E+01  0.48763017270E+01  0.65934081412E+01  0.51100000000E-03 0.  1.
        -12    1    3    3    0    0 -0.97553006070E+01  0.12280952713E+02  0.40730054468E+01  0.16204229782E+02  0.00000000000E+00 0.  1.
</event>
<event>
 7    1  0.5664398E-009  0.4614232E+02  0.7816164E-02  0.1320468E+00
        -11   -1    0    0    0    0  0.00000000000E+00  0.00000000000E+00  0.45593999997E+02  0.45594000000E+02  0.51100000000E-03 0. -1.
         11   -1    0    0    0    0 -0.00000000000E+00 -0.00000000000E+00 -0.45593999997E+02  0.45594000000E+02  0.51100000000E-03 0.  1.
    9900012    2    1    2    0    0  0.26648502273E+02 -0.30333995885E+02 -0.19970458062E+02  0.46142321240E+02  0.10000031721E+02 0.  0.
         12    1    1    2    0    0 -0.26648502273E+02  0.30333995885E+02  0.19970458062E+02  0.45045678760E+02  0.00000000000E+00 0. -1.
         11    1    3    3    0    0  0.27678954767E+01 -0.15824509700E+01 -0.35744004434E+01  0.47897531495E+01  0.51100000000E-03 0. -1.
        -11    1    3    3    0    0  0.20030586132E+02 -0.20254319492E+02 -0.10742686846E+02  0.30444493095E+02  0.51100000000E-03 0.  1.
        -12    1    3    3    0    0  0.38500206645E+01 -0.84972254236E+01 -0.56533707724E+01  0.10908074995E+02  0.00000000000E+00 0.  1.
</event>
<event>
 7    1  0.5664398E-009  0.4614232E+02  0.7816164E-02  0.1320468E+00
        -11   -1    0    0    0    0  0.00000000000E+00  0.00000000000E+00  0.45593999997E+02  0.45594000000E+02  0.51100000000E-03 0. -1.
         11   -1    0    0    0    0 -0.00000000000E+00 -0.00000000000E+00 -0.45593999997E+02  0.45594000000E+02  0.51100000000E-03 0.  1.
    9900012    2    1    2    0    0  0.26867497736E+02  0.96329650891E+01 -0.34849060955E+02  0.46142317627E+02  0.99999987748E+01 0.  0.
         12    1    1    2    0    0 -0.26867497736E+02 -0.96329650891E+01  0.34849060955E+02  0.45045682373E+02  0.00000000000E+00 0. -1.
         11    1    3    3    0    0  0.49157119995E+01  0.81936684354E+00 -0.28376947496E+01  0.57348145776E+01  0.51100000000E-03 0. -1.
        -11    1    3    3    0    0  0.59600592623E+01  0.45620059017E+01 -0.61407987841E+01  0.96976086859E+01  0.51100000000E-03 0.  1.
         12    1    3    3    0    0  0.15991726474E+02  0.42515923438E+01 -0.25870567422E+02  0.30709894363E+02  0.00000000000E+00 0. -1.
</event>
<event>
 7    1  0.5664398E-009  0.4614232E+02  0.7816164E-02  0.1320468E+00
        -11   -1    0    0    0    0  0.00000000000E+00  0.00000000000E+00  0.45593999997E+02  0.45594000000E+02  0.51100000000E-03 0. -1.
         11   -1    0    0    0    0 -0.00000000000E+00 -0.00000000000E+00 -0.45593999997E+02  0.45594000000E+02  0.51100000000E-03 0.  1.
    9900012    2    1    2    0    0 -0.39133966954E+01 -0.17925469186E+02  0.41139712064E+02  0.46142322872E+02  0.10000046602E+02 0.  0.
        -12    1    1    2    0    0  0.39133966954E+01  0.17925469186E+02 -0.41139712064E+02  0.45045677128E+02  0.00000000000E+00 0.  1.
         11    1    3    3    0    0 -0.26830561734E+01 -0.89075979063E+00  0.37948664745E+01  0.47321512290E+01  0.51100000000E-03 0.  1.
        -11    1    3    3    0    0 -0.11448717307E+01 -0.36339589209E+00  0.20494201717E+01  0.23754812472E+01  0.51100000000E-03 0. -1.
         12    1    3    3    0    0 -0.85468791299E-01 -0.16671313503E+02  0.35295425418E+02  0.39034690395E+02  0.00000000000E+00 0. -1.
</event>
<event>
 7    1  0.5664398E-009  0.4614232E+02  0.7816164E-02  0.1320468E+00
        -11   -1    0    0    0    0  0.00000000000E+00  0.00000000000E+00  0.45593999997E+02  0.45594000000E+02  0.51100000000E-03 0.  1.
         11   -1    0    0    0    0 -0.00000000000E+00 -0.00000000000E+00 -0.45593999997E+02  0.45594000000E+02  0.51100000000E-03 0. -1.
    9900012    2    1    2    0    0 -0.38801818988E+02 -0.12970385642E+02  0.18849433936E+02  0.46142320738E+02  0.10000027141E+02 0.  0.
         12    1    1    2    0    0  0.38801818988E+02  0.12970385642E+02 -0.18849433936E+02  0.45045679262E+02  0.00000000000E+00 0. -1.
         11    1    3    3    0    0 -0.46035905012E+00 -0.73097320383E+00  0.14381591525E+01  0.16776633419E+01  0.51100000000E-03 0. -1.
        -11    1    3    3    0    0 -0.18110248751E+01 -0.18034864755E+01  0.27167424843E+01  0.37300220579E+01  0.51100000000E-03 0.  1.
        -12    1    3    3    0    0 -0.36530435063E+02 -0.10435925963E+02  0.14694532299E+02  0.40734635338E+02  0.00000000000E+00 0.  1.
</event>
<event>
 7    1  0.5664398E-009  0.4614232E+02  0.7816164E-02  0.1320468E+00
        -11   -1    0    0    0    0  0.00000000000E+00  0.00000000000E+00  0.45593999997E+02  0.45594000000E+02  0.51100000000E-03 0. -1.
         11   -1    0    0    0    0 -0.00000000000E+00 -0.00000000000E+00 -0.45593999997E+02  0.45594000000E+02  0.51100000000E-03 0.  1.
    9900012    2    1    2    0    0  0.75214849034E+01  0.19559415486E+02 -0.39874427335E+02  0.46142318469E+02  0.10000006451E+02 0.  0.
         12    1    1    2    0    0 -0.75214849034E+01 -0.19559415486E+02  0.39874427335E+02  0.45045681531E+02  0.00000000000E+00 0. -1.
         11    1    3    3    0    0  0.29364600564E+00 -0.89205916059E+00 -0.50045218999E+00  0.10641664241E+01  0.51100000000E-03 0. -1.
        -11    1    3    3    0    0  0.85459163226E+00  0.18822854550E+01 -0.61386957042E+01  0.64774154261E+01  0.51100000000E-03 0.  1.
         12    1    3    3    0    0  0.63732472655E+01  0.18569189192E+02 -0.33235279441E+02  0.38600736618E+02  0.00000000000E+00 0. -1.
</event>
<event>
 7    1  0.5664398E-009  0.4614232E+02  0.7816164E-02  0.1320468E+00
        -11   -1    0    0    0    0  0.00000000000E+00  0.00000000000E+00  0.45593999997E+02  0.45594000000E+02  0.51100000000E-03 0. -1.
         11   -1    0    0    0    0 -0.00000000000E+00 -0.00000000000E+00 -0.45593999997E+02  0.45594000000E+02  0.51100000000E-03 0.  1.
    9900012    2    1    2    0    0 -0.12930393780E+02  0.37906896544E+02  0.20615179184E+02  0.46142317614E+02  0.99999986540E+01 0.  0.
        -12    1    1    2    0    0  0.12930393780E+02 -0.37906896544E+02 -0.20615179184E+02  0.45045682386E+02  0.00000000000E+00 0.  1.
         11    1    3    3    0    0 -0.25772363017E+01  0.88245207244E+01  0.45537137628E+01  0.10259172592E+02  0.51100000000E-03 0. -1.
        -11    1    3    3    0    0 -0.39203098594E+01  0.26231065353E+01  0.36176782276E+01  0.59445027806E+01  0.51100000000E-03 0.  1.
        -12    1    3    3    0    0 -0.64328476189E+01  0.26459269284E+02  0.12443787194E+02  0.29938642241E+02  0.00000000000E+00 0.  1.
</event>
<event>
 7    1  0.5664398E-009  0.4614232E+02  0.7816164E-02  0.1320468E+00
        -11   -1    0    0    0    0  0.00000000000E+00  0.00000000000E+00  0.45593999997E+02  0.45594000000E+02  0.51100000000E-03 0. -1.
         11   -1    0    0    0    0 -0.00000000000E+00 -0.00000000000E+00 -0.45593999997E+02  0.45594000000E+02  0.51100000000E-03 0.  1.
    9900012    2    1    2    0    0  0.90815392400E+01  0.26247986851E+02 -0.35463813927E+02  0.46142320219E+02  0.10000022414E+02 0.  0.
         12    1    1    2    0    0 -0.90815392400E+01 -0.26247986851E+02  0.35463813927E+02  0.45045679781E+02  0.00000000000E+00 0. -1.
         11    1    3    3    0    0  0.49857123176E+00  0.53923048210E+00  0.39560845713E+00  0.83417569998E+00  0.51100000000E-03 0. -1.
        -11    1    3    3    0    0  0.54836674717E+01  0.79131036662E+01 -0.12759566335E+02  0.15984190686E+02  0.51100000000E-03 0.  1.
         12    1    3    3    0    0  0.30993005365E+01  0.17795652702E+02 -0.23099856049E+02  0.29323953833E+02  0.00000000000E+00 0. -1.
</event>
<event>
 7    1  0.8630885E-009  0.4614232E+02  0.7816164E-02  0.1320468E+00
        -11   -1    0    0    0    0  0.00000000000E+00  0.00000000000E+00  0.45593999997E+02  0.45594000000E+02  0.51100000000E-03 0. -1.
         11   -1    0    0    0    0 -0.00000000000E+00 -0.00000000000E+00 -0.45593999997E+02  0.45594000000E+02  0.51100000000E-03 0.  1.
    9900012    2    1    2    0    0  0.10884243320E+02  0.20977183105E+02  0.38348462711E+02  0.46142317011E+02  0.99999931574E+01 0.  0.
        -12    1    1    2    0    0 -0.10884243320E+02 -0.20977183105E+02 -0.38348462711E+02  0.45045682989E+02  0.00000000000E+00 0.  1.
         11    1    3    3    0    0  0.78762246232E+00  0.12582940846E+01  0.89657937498E-01  0.14871758313E+01  0.51100000000E-03 0. -1.
        -11    1    3    3    0    0  0.29257901673E-01 -0.18381929350E+00 -0.15062660762E+00  0.23944559616E+00  0.51100000000E-03 0.  1.
         12    1    3    3    0    0  0.10067362956E+02  0.19902708314E+02  0.38409431381E+02  0.44415695583E+02  0.00000000000E+00 0. -1.
</event>
<event>
 7    1  0.5664398E-009  0.4614232E+02  0.7816164E-02  0.1320468E+00
        -11   -1    0    0    0    0  0.00000000000E+00  0.00000000000E+00  0.45593999997E+02  0.45594000000E+02  0.51100000000E-03 0. -1.
         11   -1    0    0    0    0 -0.00000000000E+00 -0.00000000000E+00 -0.45593999997E+02  0.45594000000E+02  0.51100000000E-03 0.  1.
    9900012    2    1    2    0    0 -0.96522233137E+01 -0.18684461692E+02 -0.39835147437E+02  0.46142317688E+02  0.99999993307E+01 0.  0.
         12    1    1    2    0    0  0.96522233137E+01  0.18684461692E+02  0.39835147437E+02  0.45045682312E+02  0.00000000000E+00 0. -1.
         11    1    3    3    0    0 -0.99225571411E+01 -0.12581173756E+02 -0.25612739729E+02  0.30211843869E+02  0.51100000000E-03 0. -1.
        -11    1    3    3    0    0 -0.16358213381E+01 -0.40561318161E+01 -0.89844781333E+01  0.99924453638E+01  0.51100000000E-03 0.  1.
         12    1    3    3    0    0  0.19061551655E+01 -0.20471561204E+01 -0.52379295755E+01  0.59380284551E+01  0.00000000000E+00 0. -1.
</event>
<event>
 7    1  0.5664398E-009  0.4614232E+02  0.7816164E-02  0.1320468E+00
        -11   -1    0    0    0    0  0.00000000000E+00  0.00000000000E+00  0.45593999997E+02  0.45594000000E+02  0.51100000000E-03 0. -1.
         11   -1    0    0    0    0 -0.00000000000E+00 -0.00000000000E+00 -0.45593999997E+02  0.45594000000E+02  0.51100000000E-03 0.  1.
    9900012    2    1    2    0    0 -0.15388730689E+02  0.32968674935E+02  0.26558744976E+02  0.46142317700E+02  0.99999994432E+01 0.  0.
        -12    1    1    2    0    0  0.15388730689E+02 -0.32968674935E+02 -0.26558744976E+02  0.45045682300E+02  0.00000000000E+00 0.  1.
         11    1    3    3    0    0 -0.42343164931E+01  0.74674779390E+01  0.81575025682E+01  0.11842191999E+02  0.51100000000E-03 0. -1.
        -11    1    3    3    0    0 -0.27314649043E+01  0.92002997406E+01  0.10776496545E+02  0.14430498740E+02  0.51100000000E-03 0.  1.
         12    1    3    3    0    0 -0.84229492913E+01  0.16300897255E+02  0.76247458625E+01  0.19869626961E+02  0.00000000000E+00 0. -1.
</event>
<event>
 7    1  0.5664398E-009  0.4614232E+02  0.7816164E-02  0.1320468E+00
        -11   -1    0    0    0    0  0.00000000000E+00  0.00000000000E+00  0.45593999997E+02  0.45594000000E+02  0.51100000000E-03 0. -1.
         11   -1    0    0    0    0 -0.00000000000E+00 -0.00000000000E+00 -0.45593999997E+02  0.45594000000E+02  0.51100000000E-03 0.  1.
    9900012    2    1    2    0    0 -0.76564491280E+01  0.19915674156E+02 -0.39671882074E+02  0.46142317436E+02  0.99999970379E+01 0.  0.
         12    1    1    2    0    0  0.76564491280E+01 -0.19915674156E+02  0.39671882074E+02  0.45045682564E+02  0.00000000000E+00 0. -1.
         11    1    3    3    0    0 -0.48574880633E+00  0.54859367080E+01 -0.11358760684E+02  0.12623505774E+02  0.51100000000E-03 0.  1.
        -11    1    3    3    0    0 -0.79882092056E+01  0.12441344391E+02 -0.27495680418E+02  0.31218760041E+02  0.51100000000E-03 0. -1.
         12    1    3    3    0    0  0.81750888387E+00  0.19883930563E+01 -0.81744097188E+00  0.23000516221E+01  0.00000000000E+00 0. -1.
</event>
<event>
 7    1  0.5664398E-009  0.4614231E+02  0.7816164E-02  0.1320468E+00
        -11   -1    0    0    0    0  0.00000000000E+00  0.00000000000E+00  0.45593999997E+02  0.45594000000E+02  0.51100000000E-03 0. -1.
         11   -1    0    0    0    0 -0.00000000000E+00 -0.00000000000E+00 -0.45593999997E+02  0.45594000000E+02  0.51100000000E-03 0.  1.
    9900012    2    1    2    0    0 -0.29494383486E+02 -0.13088930434E+02  0.31430488194E+02  0.46142308250E+02  0.99999132664E+01 0.  0.
        -12    1    1    2    0    0  0.29494383486E+02  0.13088930434E+02 -0.31430488194E+02  0.45045691750E+02  0.00000000000E+00 0.  1.
         11    1    3    3    0    0 -0.17827383570E+02 -0.71247052608E+01  0.15088605253E+02  0.24418088351E+02  0.51100000000E-03 0. -1.
        -11    1    3    3    0    0 -0.86427193704E+01 -0.19233529919E+01  0.77861932642E+01  0.11790703569E+02  0.51100000000E-03 0.  1.
        -12    1    3    3    0    0 -0.30242805460E+01 -0.40408721809E+01  0.85556896776E+01  0.99335163292E+01  0.00000000000E+00 0.  1.
</event>
<event>
 7    1  0.5664398E-009  0.4614232E+02  0.7816164E-02  0.1320468E+00
        -11   -1    0    0    0    0  0.00000000000E+00  0.00000000000E+00  0.45593999997E+02  0.45594000000E+02  0.51100000000E-03 0. -1.
         11   -1    0    0    0    0 -0.00000000000E+00 -0.00000000000E+00 -0.45593999997E+02  0.45594000000E+02  0.51100000000E-03 0.  1.
    9900012    2    1    2    0    0 -0.32597265787E+02  0.20362372218E+02  0.23492671578E+02  0.46142316999E+02  0.99999930509E+01 0.  0.
        -12    1    1    2    0    0  0.32597265787E+02 -0.20362372218E+02 -0.23492671578E+02  0.45045683001E+02  0.00000000000E+00 0.  1.
         11    1    3    3    0    0 -0.76287741717E+01  0.28502270269E+01  0.16794914971E+01  0.83152078397E+01  0.51100000000E-03 0.  1.
        -11    1    3    3    0    0 -0.12197114675E+02  0.10550862144E+02  0.91524710295E+01  0.18543409195E+02  0.51100000000E-03 0. -1.
        -12    1    3    3    0    0 -0.12771376940E+02  0.69612830473E+01  0.12660709052E+02  0.19283699964E+02  0.00000000000E+00 0.  1.
</event>
<event>
 7    1  0.5664398E-009  0.4614232E+02  0.7816164E-02  0.1320468E+00
        -11   -1    0    0    0    0  0.00000000000E+00  0.00000000000E+00  0.45593999997E+02  0.45594000000E+02  0.51100000000E-03 0. -1.
         11   -1    0    0    0    0 -0.00000000000E+00 -0.00000000000E+00 -0.45593999997E+02  0.45594000000E+02  0.51100000000E-03 0.  1.
    9900012    2    1    2    0    0  0.69337570358E+01  0.44414897506E+02  0.28902148715E+01  0.46142318197E+02  0.10000003971E+02 0.  0.
         12    1    1    2    0    0 -0.69337570358E+01 -0.44414897506E+02 -0.28902148715E+01  0.45045681803E+02  0.00000000000E+00 0. -1.
         11    1    3    3    0    0 -0.12253905256E+01  0.36100321488E+01  0.22270238943E+01  0.44151500249E+01  0.51100000000E-03 0. -1.
        -11    1    3    3    0    0  0.32406134204E+01  0.11351724798E+02  0.11596317237E+01  0.11862039337E+02  0.51100000000E-03 0.  1.
         12    1    3    3    0    0  0.49185341410E+01  0.29453140559E+02 -0.49644074648E+00  0.29865128835E+02  0.00000000000E+00 0. -1.
</event>
<event>
 7    1  0.5664398E-009  0.4614230E+02  0.7816164E-02  0.1320468E+00
        -11   -1    0    0    0    0  0.00000000000E+00  0.00000000000E+00  0.45593999997E+02  0.45594000000E+02  0.51100000000E-03 0. -1.
         11   -1    0    0    0    0 -0.00000000000E+00 -0.00000000000E+00 -0.45593999997E+02  0.45594000000E+02  0.51100000000E-03 0.  1.
    9900012    2    1    2    0    0 -0.57431832204E+01  0.20682593863E+02  0.39602535771E+02  0.46142304513E+02  0.99998791908E+01 0.  0.
        -12    1    1    2    0    0  0.57431832204E+01 -0.20682593863E+02 -0.39602535771E+02  0.45045695487E+02  0.00000000000E+00 0.  1.
         11    1    3    3    0    0  0.67700275763E-01  0.11335150187E+02  0.19240712857E+02  0.22331485500E+02  0.51100000000E-03 0. -1.
        -11    1    3    3    0    0 -0.66476110567E+01  0.77192335390E+01  0.18890325015E+02  0.21462098654E+02  0.51100000000E-03 0.  1.
        -12    1    3    3    0    0  0.83672756057E+00  0.16282101370E+01  0.14714978988E+01  0.23487203595E+01  0.00000000000E+00 0.  1.
</event>
<event>
 7    1  0.6251229E-009  0.4614232E+02  0.7816164E-02  0.1320468E+00
        -11   -1    0    0    0    0  0.00000000000E+00  0.00000000000E+00  0.45593999997E+02  0.45594000000E+02  0.51100000000E-03 0. -1.
         11   -1    0    0    0    0 -0.00000000000E+00 -0.00000000000E+00 -0.45593999997E+02  0.45594000000E+02  0.51100000000E-03 0.  1.
    9900012    2    1    2    0    0 -0.25880445491E+02  0.43047745517E+00  0.36866388923E+02  0.46142318721E+02  0.10000008753E+02 0.  0.
        -12    1    1    2    0    0  0.25880445491E+02 -0.43047745517E+00 -0.36866388923E+02  0.45045681279E+02  0.00000000000E+00 0.  1.
         11    1    3    3    0    0 -0.14951974110E+02  0.97214995287E+00  0.21784113900E+02  0.26439633583E+02  0.51100000000E-03 0. -1.
        -11    1    3    3    0    0 -0.81560926715E+01 -0.31117892735E+01  0.89762890149E+01  0.12521135926E+02  0.51100000000E-03 0.  1.
        -12    1    3    3    0    0 -0.27723787098E+01  0.25701167758E+01  0.61059860081E+01  0.71815492119E+01  0.00000000000E+00 0.  1.
</event>
<event>
 7    1  0.5664398E-009  0.4614232E+02  0.7816164E-02  0.1320468E+00
        -11   -1    0    0    0    0  0.00000000000E+00  0.00000000000E+00  0.45593999997E+02  0.45594000000E+02  0.51100000000E-03 0. -1.
         11   -1    0    0    0    0 -0.00000000000E+00 -0.00000000000E+00 -0.45593999997E+02  0.45594000000E+02  0.51100000000E-03 0.  1.
    9900012    2    1    2    0    0 -0.18070178308E+02 -0.28673584443E+02  0.29671666005E+02  0.46142317050E+02  0.99999935178E+01 0.  0.
        -12    1    1    2    0    0  0.18070178308E+02  0.28673584443E+02 -0.29671666005E+02  0.45045682950E+02  0.00000000000E+00 0.  1.
         11    1    3    3    0    0 -0.43191988468E+01 -0.13720438617E+02  0.13193725755E+02  0.19518717019E+02  0.51100000000E-03 0. -1.
        -11    1    3    3    0    0 -0.59941008012E+01 -0.47963333300E+01  0.35948041534E+01  0.84768316598E+01  0.51100000000E-03 0.  1.
         12    1    3    3    0    0 -0.77568786603E+01 -0.10156812496E+02  0.12883136097E+02  0.18146768371E+02  0.00000000000E+00 0. -1.
</event>
<event>
 7    1  0.5664398E-009  0.4614232E+02  0.7816164E-02  0.1320468E+00
        -11   -1    0    0    0    0  0.00000000000E+00  0.00000000000E+00  0.45593999997E+02  0.45594000000E+02  0.51100000000E-03 0. -1.
         11   -1    0    0    0    0 -0.00000000000E+00 -0.00000000000E+00 -0.45593999997E+02  0.45594000000E+02  0.51100000000E-03 0.  1.
    9900012    2    1    2    0    0 -0.25417714576E+02  0.26824066058E+02 -0.25758936550E+02  0.46142317118E+02  0.99999941313E+01 0.  0.
         12    1    1    2    0    0  0.25417714576E+02 -0.26824066058E+02  0.25758936550E+02  0.45045682882E+02  0.00000000000E+00 0. -1.
         11    1    3    3    0    0 -0.38945703198E+01  0.50457641880E+01 -0.58054337016E+01  0.86215123349E+01  0.51100000000E-03 0. -1.
        -11    1    3    3    0    0 -0.12964456861E+02  0.18495028435E+02 -0.13553305227E+02  0.26340753621E+02  0.51100000000E-03 0.  1.
         12    1    3    3    0    0 -0.85586873945E+01  0.32832734357E+01 -0.64001976218E+01  0.11180051161E+02  0.00000000000E+00 0. -1.
</event>
<event>
 7    1  0.5664398E-009  0.4614232E+02  0.7816164E-02  0.1320468E+00
        -11   -1    0    0    0    0  0.00000000000E+00  0.00000000000E+00  0.45593999997E+02  0.45594000000E+02  0.51100000000E-03 0.  1.
         11   -1    0    0    0    0 -0.00000000000E+00 -0.00000000000E+00 -0.45593999997E+02  0.45594000000E+02  0.51100000000E-03 0. -1.
    9900012    2    1    2    0    0 -0.25529276145E+02  0.35883614856E+02  0.94728877465E+01  0.46142319209E+02  0.10000013205E+02 0.  0.
        -12    1    1    2    0    0  0.25529276145E+02 -0.35883614856E+02 -0.94728877465E+01  0.45045680791E+02  0.00000000000E+00 0.  1.
         11    1    3    3    0    0 -0.64453834017E+01  0.97483455427E+01 -0.98902174458E+00  0.11728229717E+02  0.51100000000E-03 0.  1.
        -11    1    3    3    0    0 -0.99479998966E+01  0.13306847018E+02  0.26163555930E+01  0.16819042671E+02  0.51100000000E-03 0. -1.
        -12    1    3    3    0    0 -0.91358928468E+01  0.12828422296E+02  0.78455538980E+01  0.17595046822E+02  0.00000000000E+00 0.  1.
</event>
<event>
 7    1  0.5664398E-009  0.4614233E+02  0.7816164E-02  0.1320468E+00
        -11   -1    0    0    0    0  0.00000000000E+00  0.00000000000E+00  0.45593999997E+02  0.45594000000E+02  0.51100000000E-03 0. -1.
         11   -1    0    0    0    0 -0.00000000000E+00 -0.00000000000E+00 -0.45593999997E+02  0.45594000000E+02  0.51100000000E-03 0.  1.
    9900012    2    1    2    0    0 -0.37215198366E+02  0.79495945584E+01 -0.24102806827E+02  0.46142330508E+02  0.10000116233E+02 0.  0.
         12    1    1    2    0    0  0.37215198366E+02 -0.79495945584E+01  0.24102806827E+02  0.45045669492E+02  0.00000000000E+00 0. -1.
         11    1    3    3    0    0 -0.12033611238E+02  0.15125871088E+01 -0.39491306730E+01  0.12755052039E+02  0.51100000000E-03 0. -1.
        -11    1    3    3    0    0 -0.21597509799E+02  0.50647942730E+01 -0.14318303863E+02  0.26402999760E+02  0.51100000000E-03 0.  1.
         12    1    3    3    0    0 -0.35840773284E+01  0.13722131766E+01 -0.58353722910E+01  0.69842787081E+01  0.00000000000E+00 0. -1.
</event>
<event>
 7    1  0.5664398E-009  0.4614232E+02  0.7816164E-02  0.1320468E+00
        -11   -1    0    0    0    0  0.00000000000E+00  0.00000000000E+00  0.45593999997E+02  0.45594000000E+02  0.51100000000E-03 0. -1.
         11   -1    0    0    0    0 -0.00000000000E+00 -0.00000000000E+00 -0.45593999997E+02  0.45594000000E+02  0.51100000000E-03 0.  1.
    9900012    2    1    2    0    0 -0.33323016544E+02  0.16210393326E+02 -0.25610803894E+02  0.46142316972E+02  0.99999928026E+01 0.  0.
         12    1    1    2    0    0  0.33323016544E+02 -0.16210393326E+02  0.25610803894E+02  0.45045683028E+02  0.00000000000E+00 0. -1.
         11    1    3    3    0    0 -0.67391472798E+00  0.15479560700E+01 -0.38539195541E+01  0.42074963156E+01  0.51100000000E-03 0. -1.
        -11    1    3    3    0    0 -0.11392718509E+02  0.40632694856E+01 -0.71785526732E+01  0.14065411927E+02  0.51100000000E-03 0.  1.
        -12    1    3    3    0    0 -0.21256383307E+02  0.10599167770E+02 -0.14578331667E+02  0.27869408729E+02  0.00000000000E+00 0.  1.
</event>
<event>
 7    1  0.5664398E-009  0.4614232E+02  0.7816164E-02  0.1320468E+00
        -11   -1    0    0    0    0  0.00000000000E+00  0.00000000000E+00  0.45593999997E+02  0.45594000000E+02  0.51100000000E-03 0. -1.
         11   -1    0    0    0    0 -0.00000000000E+00 -0.00000000000E+00 -0.45593999997E+02  0.45594000000E+02  0.51100000000E-03 0.  1.
    9900012    2    1    2    0    0 -0.33206728332E+02 -0.50395506845E+01  0.30017155103E+02  0.46142317875E+02  0.10000001040E+02 0.  0.
        -12    1    1    2    0    0  0.33206728332E+02  0.50395506845E+01 -0.30017155103E+02  0.45045682125E+02  0.00000000000E+00 0.  1.
         11    1    3    3    0    0 -0.13725301529E+02  0.42494645892E+00  0.13108740312E+02  0.18984297574E+02  0.51100000000E-03 0. -1.
        -11    1    3    3    0    0 -0.60017212155E+01 -0.89799334317E+00  0.90617783239E+01  0.10906093537E+02  0.51100000000E-03 0.  1.
         12    1    3    3    0    0 -0.13479705588E+02 -0.45665038002E+01  0.78466364673E+01  0.16251926764E+02  0.00000000000E+00 0. -1.
</event>
<event>
 7    1  0.5664398E-009  0.4614232E+02  0.7816164E-02  0.1320468E+00
        -11   -1    0    0    0    0  0.00000000000E+00  0.00000000000E+00  0.45593999997E+02  0.45594000000E+02  0.51100000000E-03 0.  1.
         11   -1    0    0    0    0 -0.00000000000E+00 -0.00000000000E+00 -0.45593999997E+02  0.45594000000E+02  0.51100000000E-03 0. -1.
    9900012    2    1    2    0    0  0.19024998428E+02  0.35979578379E+02 -0.19303701849E+02  0.46142317293E+02  0.99999957301E+01 0.  0.
         12    1    1    2    0    0 -0.19024998428E+02 -0.35979578379E+02  0.19303701849E+02  0.45045682707E+02  0.00000000000E+00 0. -1.
         11    1    3    3    0    0  0.68422750691E+01  0.60284917396E+01 -0.51310401260E+01  0.10463604246E+02  0.51100000000E-03 0. -1.
        -11    1    3    3    0    0  0.12741783258E+01  0.63627661105E+01 -0.10795210847E+01  0.65782740150E+01  0.51100000000E-03 0.  1.
         12    1    3    3    0    0  0.10908545033E+02  0.23588320529E+02 -0.13093140638E+02  0.29100439032E+02  0.00000000000E+00 0. -1.
</event>
<event>
 7    1  0.5664398E-009  0.4614233E+02  0.7816164E-02  0.1320468E+00
        -11   -1    0    0    0    0  0.00000000000E+00  0.00000000000E+00  0.45593999997E+02  0.45594000000E+02  0.51100000000E-03 0. -1.
         11   -1    0    0    0    0 -0.00000000000E+00 -0.00000000000E+00 -0.45593999997E+02  0.45594000000E+02  0.51100000000E-03 0.  1.
    9900012    2    1    2    0    0 -0.27686170137E+02 -0.86699526070E+01  0.34458969511E+02  0.46142326792E+02  0.10000082347E+02 0.  0.
        -12    1    1    2    0    0  0.27686170137E+02  0.86699526070E+01 -0.34458969511E+02  0.45045673208E+02  0.00000000000E+00 0.  1.
         11    1    3    3    0    0 -0.21728170602E+02 -0.67955884740E+01  0.30821613590E+02  0.38317949905E+02  0.51100000000E-03 0. -1.
        -11    1    3    3    0    0 -0.87398989102E+00 -0.77645353143E-01  0.20081418006E+01  0.21914654647E+01  0.51100000000E-03 0.  1.
         12    1    3    3    0    0 -0.50840096438E+01 -0.17967187798E+01  0.16292141203E+01  0.56329114215E+01  0.00000000000E+00 0. -1.
</event>
<event>
 7    1  0.5664398E-009  0.4614232E+02  0.7816164E-02  0.1320468E+00
        -11   -1    0    0    0    0  0.00000000000E+00  0.00000000000E+00  0.45593999997E+02  0.45594000000E+02  0.51100000000E-03 0. -1.
         11   -1    0    0    0    0 -0.00000000000E+00 -0.00000000000E+00 -0.45593999997E+02  0.45594000000E+02  0.51100000000E-03 0.  1.
    9900012    2    1    2    0    0 -0.40226690887E+02 -0.18173018457E+02  0.89815539756E+01  0.46142316840E+02  0.99999916011E+01 0.  0.
        -12    1    1    2    0    0  0.40226690887E+02  0.18173018457E+02 -0.89815539756E+01  0.45045683160E+02  0.00000000000E+00 0.  1.
         11    1    3    3    0    0 -0.68127756974E+01 -0.80226051267E+00  0.18328582650E+01  0.71004862026E+01  0.51100000000E-03 0. -1.
        -11    1    3    3    0    0 -0.22983866792E+00 -0.11925735265E+01 -0.54462012043E+00  0.13310404825E+01  0.51100000000E-03 0.  1.
         12    1    3    3    0    0 -0.33184076521E+02 -0.16178184418E+02  0.76933158311E+01  0.37710790155E+02  0.00000000000E+00 0. -1.
</event>
<event>
 7    1  0.5664398E-009  0.4614232E+02  0.7816164E-02  0.1320468E+00
        -11   -1    0    0    0    0  0.00000000000E+00  0.00000000000E+00  0.45593999997E+02  0.45594000000E+02  0.51100000000E-03 0. -1.
         11   -1    0    0    0    0 -0.00000000000E+00 -0.00000000000E+00 -0.45593999997E+02  0.45594000000E+02  0.51100000000E-03 0.  1.
    9900012    2    1    2    0    0  0.27451534653E+02 -0.10609516029E+01  0.35698754017E+02  0.46142318615E+02  0.10000007782E+02 0.  0.
        -12    1    1    2    0    0 -0.27451534653E+02  0.10609516029E+01 -0.35698754017E+02  0.45045681385E+02  0.00000000000E+00 0.  1.
         11    1    3    3    0    0  0.35920156087E+01 -0.12131352024E+01  0.52538538652E+01  0.64789855572E+01  0.51100000000E-03 0. -1.
        -11    1    3    3    0    0 -0.37975570106E+00  0.10609325357E+01  0.93816648262E+00  0.14662703871E+01  0.51100000000E-03 0.  1.
         12    1    3    3    0    0  0.24239274746E+02 -0.90874893619E+00  0.29506733669E+02  0.38197062670E+02  0.00000000000E+00 0. -1.
</event>
<event>
 7    1  0.5664398E-009  0.4614232E+02  0.7816164E-02  0.1320468E+00
        -11   -1    0    0    0    0  0.00000000000E+00  0.00000000000E+00  0.45593999997E+02  0.45594000000E+02  0.51100000000E-03 0. -1.
         11   -1    0    0    0    0 -0.00000000000E+00 -0.00000000000E+00 -0.45593999997E+02  0.45594000000E+02  0.51100000000E-03 0.  1.
    9900012    2    1    2    0    0 -0.33700769611E+02  0.24005071120E+02  0.17808094702E+02  0.46142317091E+02  0.99999938879E+01 0.  0.
        -12    1    1    2    0    0  0.33700769611E+02 -0.24005071120E+02 -0.17808094702E+02  0.45045682909E+02  0.00000000000E+00 0.  1.
         11    1    3    3    0    0 -0.72542209351E+01  0.79018226181E+01  0.12698550742E+01  0.10801622759E+02  0.51100000000E-03 0. -1.
        -11    1    3    3    0    0 -0.40539834384E+01  0.14607230747E+01  0.10852316984E+01  0.44436720986E+01  0.51100000000E-03 0.  1.
        -12    1    3    3    0    0 -0.22392565237E+02  0.14642525427E+02  0.15453007930E+02  0.30897022233E+02  0.00000000000E+00 0.  1.
</event>
<event>
 7    1  0.5664398E-009  0.4614232E+02  0.7816164E-02  0.1320468E+00
        -11   -1    0    0    0    0  0.00000000000E+00  0.00000000000E+00  0.45593999997E+02  0.45594000000E+02  0.51100000000E-03 0.  1.
         11   -1    0    0    0    0 -0.00000000000E+00 -0.00000000000E+00 -0.45593999997E+02  0.45594000000E+02  0.51100000000E-03 0. -1.
    9900012    2    1    2    0    0 -0.41899670781E+02  0.16045478923E+02 -0.40091930224E+01  0.46142318363E+02  0.10000005489E+02 0.  0.
         12    1    1    2    0    0  0.41899670781E+02 -0.16045478923E+02  0.40091930224E+01  0.45045681637E+02  0.00000000000E+00 0. -1.
         11    1    3    3    0    0 -0.24013442703E+01  0.20488132027E+01  0.92917502894E+00  0.32905100425E+01  0.51100000000E-03 0. -1.
        -11    1    3    3    0    0 -0.64984688685E+01  0.51329632164E+01 -0.22243326030E+01  0.85746757843E+01  0.51100000000E-03 0.  1.
        -12    1    3    3    0    0 -0.32999857643E+02  0.88637025037E+01 -0.27140354484E+01  0.34277132536E+02  0.00000000000E+00 0.  1.
</event>
<event>
 7    1  0.5664398E-009  0.4614231E+02  0.7816164E-02  0.1320468E+00
        -11   -1    0    0    0    0  0.00000000000E+00  0.00000000000E+00  0.45593999997E+02  0.45594000000E+02  0.51100000000E-03 0. -1.
         11   -1    0    0    0    0 -0.00000000000E+00 -0.00000000000E+00 -0.45593999997E+02  0.45594000000E+02  0.51100000000E-03 0.  1.
    9900012    2    1    2    0    0  0.26935157345E+02  0.18085787369E+02 -0.31249250230E+02  0.46142311573E+02  0.99999435691E+01 0.  0.
         12    1    1    2    0    0 -0.26935157345E+02 -0.18085787369E+02  0.31249250230E+02  0.45045688427E+02  0.00000000000E+00 0. -1.
         11    1    3    3    0    0  0.13871312613E+01  0.95810027197E-01 -0.23121364904E+01  0.26980155872E+01  0.51100000000E-03 0.  1.
        -11    1    3    3    0    0  0.42409367731E+01  0.52795871189E+01 -0.10658374256E+02  0.12627768089E+02  0.51100000000E-03 0. -1.
         12    1    3    3    0    0  0.21307089311E+02  0.12710390223E+02 -0.18278739483E+02  0.30816527897E+02  0.00000000000E+00 0. -1.
</event>
<event>
 7    1  0.5664398E-009  0.4614232E+02  0.7816164E-02  0.1320468E+00
        -11   -1    0    0    0    0  0.00000000000E+00  0.00000000000E+00  0.45593999997E+02  0.45594000000E+02  0.51100000000E-03 0. -1.
         11   -1    0    0    0    0 -0.00000000000E+00 -0.00000000000E+00 -0.45593999997E+02  0.45594000000E+02  0.51100000000E-03 0.  1.
    9900012    2    1    2    0    0  0.17818477688E+02  0.32442566620E+01  0.41244274038E+02  0.46142317751E+02  0.99999999067E+01 0.  0.
        -12    1    1    2    0    0 -0.17818477688E+02 -0.32442566620E+01 -0.41244274038E+02  0.45045682249E+02  0.00000000000E+00 0.  1.
         11    1    3    3    0    0  0.38098026355E+01  0.27317037850E+01  0.97996944012E+01  0.10863278157E+02  0.51100000000E-03 0. -1.
        -11    1    3    3    0    0  0.46911987878E+01  0.33781025131E+01  0.78407780800E+01  0.97414949477E+01  0.51100000000E-03 0.  1.
        -12    1    3    3    0    0  0.93174762647E+01 -0.28655496362E+01  0.23603801556E+02  0.25537544647E+02  0.00000000000E+00 0.  1.
</event>
<event>
 7    1  0.5664398E-009  0.4614232E+02  0.7816164E-02  0.1320468E+00
        -11   -1    0    0    0    0  0.00000000000E+00  0.00000000000E+00  0.45593999997E+02  0.45594000000E+02  0.51100000000E-03 0.  1.
         11   -1    0    0    0    0 -0.00000000000E+00 -0.00000000000E+00 -0.45593999997E+02  0.45594000000E+02  0.51100000000E-03 0. -1.
    9900012    2    1    2    0    0 -0.38093431352E+02  0.19933655824E+02  0.13440735623E+02  0.46142317402E+02  0.99999967260E+01 0.  0.
        -12    1    1    2    0    0  0.38093431352E+02 -0.19933655824E+02 -0.13440735623E+02  0.45045682598E+02  0.00000000000E+00 0.  1.
         11    1    3    3    0    0 -0.44092394879E+01  0.73462248755E+00  0.61885191083E+00  0.45126534334E+01  0.51100000000E-03 0. -1.
        -11    1    3    3    0    0 -0.14232083216E+02  0.49403989675E+01  0.20095239335E+01  0.15198615770E+02  0.51100000000E-03 0.  1.
         12    1    3    3    0    0 -0.19452108647E+02  0.14258634368E+02  0.10812359778E+02  0.26431048198E+02  0.00000000000E+00 0. -1.
</event>
<event>
 7    1  0.5664398E-009  0.4614232E+02  0.7816164E-02  0.1320468E+00
        -11   -1    0    0    0    0  0.00000000000E+00  0.00000000000E+00  0.45593999997E+02  0.45594000000E+02  0.51100000000E-03 0. -1.
         11   -1    0    0    0    0 -0.00000000000E+00 -0.00000000000E+00 -0.45593999997E+02  0.45594000000E+02  0.51100000000E-03 0.  1.
    9900012    2    1    2    0    0 -0.22063427636E+02 -0.83107968767E+01  0.38382929790E+02  0.46142317820E+02  0.10000000540E+02 0.  0.
        -12    1    1    2    0    0  0.22063427636E+02  0.83107968767E+01 -0.38382929790E+02  0.45045682180E+02  0.00000000000E+00 0.  1.
         11    1    3    3    0    0 -0.11927361105E+02 -0.59953236219E+01  0.13835157145E+02  0.19225436842E+02  0.51100000000E-03 0. -1.
        -11    1    3    3    0    0 -0.44796283358E+01 -0.68204050153E+00  0.64277910805E+01  0.78643974790E+01  0.51100000000E-03 0.  1.
        -12    1    3    3    0    0 -0.56564381955E+01 -0.16334327533E+01  0.18119981564E+02  0.19052483500E+02  0.00000000000E+00 0.  1.
</event>
<event>
 7    1  0.5664398E-009  0.4614232E+02  0.7816164E-02  0.1320468E+00
        -11   -1    0    0    0    0  0.00000000000E+00  0.00000000000E+00  0.45593999997E+02  0.45594000000E+02  0.51100000000E-03 0. -1.
         11   -1    0    0    0    0 -0.00000000000E+00 -0.00000000000E+00 -0.45593999997E+02  0.45594000000E+02  0.51100000000E-03 0.  1.
    9900012    2    1    2    0    0  0.32487373911E+02 -0.29640064976E+02 -0.97545145779E+01  0.46142317965E+02  0.10000001857E+02 0.  0.
         12    1    1    2    0    0 -0.32487373911E+02  0.29640064976E+02  0.97545145779E+01  0.45045682035E+02  0.00000000000E+00 0. -1.
         11    1    3    3    0    0  0.89054762710E+01 -0.62747801745E+01  0.10280784700E+01  0.10942454910E+02  0.51100000000E-03 0. -1.
        -11    1    3    3    0    0  0.30752635546E+01 -0.33694873897E+01 -0.31969202608E+01  0.55705467070E+01  0.51100000000E-03 0.  1.
         12    1    3    3    0    0  0.20506634085E+02 -0.19995797411E+02 -0.75856727870E+01  0.29629316348E+02  0.00000000000E+00 0. -1.
</event>
<event>
 7    1  0.5664398E-009  0.4614232E+02  0.7816164E-02  0.1320468E+00
        -11   -1    0    0    0    0  0.00000000000E+00  0.00000000000E+00  0.45593999997E+02  0.45594000000E+02  0.51100000000E-03 0. -1.
         11   -1    0    0    0    0 -0.00000000000E+00 -0.00000000000E+00 -0.45593999997E+02  0.45594000000E+02  0.51100000000E-03 0.  1.
    9900012    2    1    2    0    0  0.19018094218E+02 -0.16272606122E+02  0.37451674249E+02  0.46142317390E+02  0.99999966199E+01 0.  0.
        -12    1    1    2    0    0 -0.19018094218E+02  0.16272606122E+02 -0.37451674249E+02  0.45045682610E+02  0.00000000000E+00 0.  1.
         11    1    3    3    0    0  0.65272980282E+01 -0.68507703044E+01  0.12149665478E+02  0.15399774180E+02  0.51100000000E-03 0. -1.
        -11    1    3    3    0    0  0.71525157820E+01 -0.68669938860E+01  0.89675646735E+01  0.13369042729E+02  0.51100000000E-03 0.  1.
         12    1    3    3    0    0  0.53382804075E+01 -0.25548419319E+01  0.16334444097E+02  0.17373500481E+02  0.00000000000E+00 0. -1.
</event>
<event>
 7    1  0.5664398E-009  0.4614232E+02  0.7816164E-02  0.1320468E+00
        -11   -1    0    0    0    0  0.00000000000E+00  0.00000000000E+00  0.45593999997E+02  0.45594000000E+02  0.51100000000E-03 0. -1.
         11   -1    0    0    0    0 -0.00000000000E+00 -0.00000000000E+00 -0.45593999997E+02  0.45594000000E+02  0.51100000000E-03 0.  1.
    9900012    2    1    2    0    0  0.75160943615E+01 -0.27137759325E+02  0.35159121507E+02  0.46142317846E+02  0.10000000772E+02 0.  0.
        -12    1    1    2    0    0 -0.75160943615E+01  0.27137759325E+02 -0.35159121507E+02  0.45045682154E+02  0.00000000000E+00 0.  1.
         11    1    3    3    0    0  0.34357930691E+01 -0.42681451780E+01  0.50963643050E+01  0.74829584166E+01  0.51100000000E-03 0. -1.
        -11    1    3    3    0    0  0.60876734757E+01 -0.18886080027E+02  0.24342251187E+02  0.31405238102E+02  0.51100000000E-03 0.  1.
        -12    1    3    3    0    0 -0.20073721834E+01 -0.39835341194E+01  0.57205060151E+01  0.72541213273E+01  0.00000000000E+00 0.  1.
</event>
<event>
 7    1  0.5664398E-009  0.4614232E+02  0.7816164E-02  0.1320468E+00
        -11   -1    0    0    0    0  0.00000000000E+00  0.00000000000E+00  0.45593999997E+02  0.45594000000E+02  0.51100000000E-03 0. -1.
         11   -1    0    0    0    0 -0.00000000000E+00 -0.00000000000E+00 -0.45593999997E+02  0.45594000000E+02  0.51100000000E-03 0.  1.
    9900012    2    1    2    0    0 -0.31680578848E+02 -0.16178227198E+02  0.27635473782E+02  0.46142317382E+02  0.99999965397E+01 0.  0.
        -12    1    1    2    0    0  0.31680578848E+02  0.16178227198E+02 -0.27635473782E+02  0.45045682618E+02  0.00000000000E+00 0.  1.
         11    1    3    3    0    0 -0.91997389420E+01 -0.60683641004E+01  0.13734761557E+02  0.17609767595E+02  0.51100000000E-03 0. -1.
        -11    1    3    3    0    0 -0.35131009511E-01 -0.48390195823E+00  0.38527246864E+00  0.61954049845E+00  0.51100000000E-03 0.  1.
         12    1    3    3    0    0 -0.22445708897E+02 -0.96259611391E+01  0.13515439756E+02  0.27913009288E+02  0.00000000000E+00 0. -1.
</event>
<event>
 7    1  0.5664398E-009  0.4614232E+02  0.7816164E-02  0.1320468E+00
        -11   -1    0    0    0    0  0.00000000000E+00  0.00000000000E+00  0.45593999997E+02  0.45594000000E+02  0.51100000000E-03 0. -1.
         11   -1    0    0    0    0 -0.00000000000E+00 -0.00000000000E+00 -0.45593999997E+02  0.45594000000E+02  0.51100000000E-03 0.  1.
    9900012    2    1    2    0    0 -0.33615161743E+02 -0.19733418488E+02 -0.22577125148E+02  0.46142317807E+02  0.10000000420E+02 0.  0.
         12    1    1    2    0    0  0.33615161743E+02  0.19733418488E+02  0.22577125148E+02  0.45045682193E+02  0.00000000000E+00 0. -1.
         11    1    3    3    0    0 -0.84375584849E+01 -0.51591357298E+01 -0.63840984404E+01  0.11771397021E+02  0.51100000000E-03 0. -1.
        -11    1    3    3    0    0 -0.79779760962E+01 -0.40302544029E+00 -0.50960714139E+01  0.94752559973E+01  0.51100000000E-03 0.  1.
         12    1    3    3    0    0 -0.17199627162E+02 -0.14171257318E+02 -0.11096955294E+02  0.24895664789E+02  0.00000000000E+00 0. -1.
</event>
<event>
 7    1  0.5664398E-009  0.4614232E+02  0.7816164E-02  0.1320468E+00
        -11   -1    0    0    0    0  0.00000000000E+00  0.00000000000E+00  0.45593999997E+02  0.45594000000E+02  0.51100000000E-03 0. -1.
         11   -1    0    0    0    0 -0.00000000000E+00 -0.00000000000E+00 -0.45593999997E+02  0.45594000000E+02  0.51100000000E-03 0.  1.
    9900012    2    1    2    0    0 -0.17509922796E+02  0.24145438188E+02 -0.33756688640E+02  0.46142316416E+02  0.99999877344E+01 0.  0.
         12    1    1    2    0    0  0.17509922796E+02 -0.24145438188E+02  0.33756688640E+02  0.45045683584E+02  0.00000000000E+00 0. -1.
         11    1    3    3    0    0 -0.41761925099E+00 -0.34671785928E+00 -0.19633900337E+00  0.57720739609E+00  0.51100000000E-03 0. -1.
        -11    1    3    3    0    0 -0.15835564147E+01  0.28824747003E+01 -0.83443654744E+00  0.33930216517E+01  0.51100000000E-03 0.  1.
        -12    1    3    3    0    0 -0.15508747130E+02  0.21609681347E+02 -0.32725913089E+02  0.42172087368E+02  0.00000000000E+00 0.  1.
</event>
<event>
 7    1  0.5664398E-009  0.4614232E+02  0.7816164E-02  0.1320468E+00
        -11   -1    0    0    0    0  0.00000000000E+00  0.00000000000E+00  0.45593999997E+02  0.45594000000E+02  0.51100000000E-03 0. -1.
         11   -1    0    0    0    0 -0.00000000000E+00 -0.00000000000E+00 -0.45593999997E+02  0.45594000000E+02  0.51100000000E-03 0.  1.
    9900012    2    1    2    0    0 -0.34864554902E+02 -0.15804768670E+02  0.23744172033E+02  0.46142316447E+02  0.99999880163E+01 0.  0.
        -12    1    1    2    0    0  0.34864554902E+02  0.15804768670E+02 -0.23744172033E+02  0.45045683553E+02  0.00000000000E+00 0.  1.
         11    1    3    3    0    0 -0.87174714249E+01 -0.36946458976E+01  0.38688385312E+01  0.10228031492E+02  0.51100000000E-03 0. -1.
        -11    1    3    3    0    0 -0.67507706236E+01  0.86131676652E-01  0.26645676837E+01  0.72581157252E+01  0.51100000000E-03 0.  1.
         12    1    3    3    0    0 -0.19396312854E+02 -0.12196254449E+02  0.17210765818E+02  0.28656169230E+02  0.00000000000E+00 0. -1.
</event>
<event>
 7    1  0.5664398E-009  0.4614232E+02  0.7816164E-02  0.1320468E+00
        -11   -1    0    0    0    0  0.00000000000E+00  0.00000000000E+00  0.45593999997E+02  0.45594000000E+02  0.51100000000E-03 0.  1.
         11   -1    0    0    0    0 -0.00000000000E+00 -0.00000000000E+00 -0.45593999997E+02  0.45594000000E+02  0.51100000000E-03 0. -1.
    9900012    2    1    2    0    0 -0.26699520862E+02  0.30263958733E+02 -0.20008545547E+02  0.46142317550E+02  0.99999980771E+01 0.  0.
         12    1    1    2    0    0  0.26699520862E+02 -0.30263958733E+02  0.20008545547E+02  0.45045682450E+02  0.00000000000E+00 0. -1.
         11    1    3    3    0    0 -0.12481864634E+02  0.13047754554E+02 -0.66370625187E+01  0.19237760857E+02  0.51100000000E-03 0. -1.
        -11    1    3    3    0    0 -0.49122503494E+01  0.10179939450E+02 -0.41755058381E+01  0.12049739415E+02  0.51100000000E-03 0.  1.
         12    1    3    3    0    0 -0.93054058787E+01  0.70362647295E+01 -0.91959771902E+01  0.14854817279E+02  0.00000000000E+00 0. -1.
</event>
<event>
 7    1  0.5664398E-009  0.4614232E+02  0.7816164E-02  0.1320468E+00
        -11   -1    0    0    0    0  0.00000000000E+00  0.00000000000E+00  0.45593999997E+02  0.45594000000E+02  0.51100000000E-03 0. -1.
         11   -1    0    0    0    0 -0.00000000000E+00 -0.00000000000E+00 -0.45593999997E+02  0.45594000000E+02  0.51100000000E-03 0.  1.
    9900012    2    1    2    0    0  0.40632709087E+01 -0.36351717293E+02  0.26289845004E+02  0.46142317954E+02  0.10000001759E+02 0.  0.
        -12    1    1    2    0    0 -0.40632709087E+01  0.36351717293E+02 -0.26289845004E+02  0.45045682046E+02  0.00000000000E+00 0.  1.
         11    1    3    3    0    0  0.83084038794E+00 -0.20296675975E+01  0.21886628122E+01  0.30984014384E+01  0.51100000000E-03 0. -1.
        -11    1    3    3    0    0  0.21879644087E+01 -0.87570435345E+01  0.11213950541E+02  0.14395335589E+02  0.51100000000E-03 0.  1.
        -12    1    3    3    0    0  0.10444661120E+01 -0.25565006161E+02  0.12887231651E+02  0.28648580926E+02  0.00000000000E+00 0.  1.
</event>
<event>
 7    1  0.5664398E-009  0.4614232E+02  0.7816164E-02  0.1320468E+00
        -11   -1    0    0    0    0  0.00000000000E+00  0.00000000000E+00  0.45593999997E+02  0.45594000000E+02  0.51100000000E-03 0. -1.
         11   -1    0    0    0    0 -0.00000000000E+00 -0.00000000000E+00 -0.45593999997E+02  0.45594000000E+02  0.51100000000E-03 0.  1.
    9900012    2    1    2    0    0  0.65181894623E+00 -0.18944464884E+02 -0.40863135467E+02  0.46142318100E+02  0.10000003088E+02 0.  0.
         12    1    1    2    0    0 -0.65181894623E+00  0.18944464884E+02  0.40863135467E+02  0.45045681900E+02  0.00000000000E+00 0. -1.
         11    1    3    3    0    0 -0.35829261287E+01 -0.14982740823E+02 -0.31172605304E+02  0.34771413602E+02  0.51100000000E-03 0.  1.
        -11    1    3    3    0    0  0.10183105521E+01 -0.42329919593E+00 -0.25370247585E+01  0.27663393639E+01  0.51100000000E-03 0. -1.
        -12    1    3    3    0    0  0.32164345228E+01 -0.35384248648E+01 -0.71535054048E+01  0.86045651337E+01  0.00000000000E+00 0.  1.
</event>
<event>
 7    1  0.5664398E-009  0.4614232E+02  0.7816164E-02  0.1320468E+00
        -11   -1    0    0    0    0  0.00000000000E+00  0.00000000000E+00  0.45593999997E+02  0.45594000000E+02  0.51100000000E-03 0. -1.
         11   -1    0    0    0    0 -0.00000000000E+00 -0.00000000000E+00 -0.45593999997E+02  0.45594000000E+02  0.51100000000E-03 0.  1.
    9900012    2    1    2    0    0  0.22798754792E+02  0.28652696175E+02 -0.26236487496E+02  0.46142317695E+02  0.99999993971E+01 0.  0.
         12    1    1    2    0    0 -0.22798754792E+02 -0.28652696175E+02  0.26236487496E+02  0.45045682305E+02  0.00000000000E+00 0. -1.
         11    1    3    3    0    0  0.60663401833E+01  0.45025424511E+01 -0.77247732512E+01  0.10804882868E+02  0.51100000000E-03 0.  1.
        -11    1    3    3    0    0  0.13894474435E+02  0.23107194193E+02 -0.15656919223E+02  0.31179127042E+02  0.51100000000E-03 0. -1.
         12    1    3    3    0    0  0.28379401742E+01  0.10429595306E+01 -0.28547950221E+01  0.41583077848E+01  0.00000000000E+00 0. -1.
</event>
<event>
 7    1  0.5664398E-009  0.4614232E+02  0.7816164E-02  0.1320468E+00
        -11   -1    0    0    0    0  0.00000000000E+00  0.00000000000E+00  0.45593999997E+02  0.45594000000E+02  0.51100000000E-03 0. -1.
         11   -1    0    0    0    0 -0.00000000000E+00 -0.00000000000E+00 -0.45593999997E+02  0.45594000000E+02  0.51100000000E-03 0.  1.
    9900012    2    1    2    0    0 -0.84223353575E+01  0.28730770107E+02 -0.33655914720E+02  0.46142317860E+02  0.10000000904E+02 0.  0.
         12    1    1    2    0    0  0.84223353575E+01 -0.28730770107E+02  0.33655914720E+02  0.45045682140E+02  0.00000000000E+00 0. -1.
         11    1    3    3    0    0 -0.24328125054E+01  0.49009416246E+01 -0.29120785602E+01  0.61982261411E+01  0.51100000000E-03 0. -1.
        -11    1    3    3    0    0 -0.67176687313E+01  0.17805199074E+02 -0.20015297795E+02  0.27618188451E+02  0.51100000000E-03 0.  1.
        -12    1    3    3    0    0  0.72814587931E+00  0.60246294086E+01 -0.10728538365E+02  0.12325903268E+02  0.00000000000E+00 0.  1.
</event>
<event>
 7    1  0.5664398E-009  0.4614232E+02  0.7816164E-02  0.1320468E+00
        -11   -1    0    0    0    0  0.00000000000E+00  0.00000000000E+00  0.45593999997E+02  0.45594000000E+02  0.51100000000E-03 0. -1.
         11   -1    0    0    0    0 -0.00000000000E+00 -0.00000000000E+00 -0.45593999997E+02  0.45594000000E+02  0.51100000000E-03 0.  1.
    9900012    2    1    2    0    0  0.76941305089E+01  0.37781367060E+02  0.23291246621E+02  0.46142317517E+02  0.99999977727E+01 0.  0.
        -12    1    1    2    0    0 -0.76941305089E+01 -0.37781367060E+02 -0.23291246621E+02  0.45045682483E+02  0.00000000000E+00 0.  1.
         11    1    3    3    0    0 -0.13711692182E+01  0.77927489894E+01  0.74712663501E+01  0.10882410715E+02  0.51100000000E-03 0.  1.
        -11    1    3    3    0    0  0.87089749831E+01  0.24705060340E+02  0.12670849346E+02  0.29098740094E+02  0.51100000000E-03 0. -1.
         12    1    3    3    0    0  0.35632474407E+00  0.52835577306E+01  0.31491309250E+01  0.61611667076E+01  0.00000000000E+00 0. -1.
</event>
<event>
 7    1  0.5664398E-009  0.4614232E+02  0.7816164E-02  0.1320468E+00
        -11   -1    0    0    0    0  0.00000000000E+00  0.00000000000E+00  0.45593999997E+02  0.45594000000E+02  0.51100000000E-03 0. -1.
         11   -1    0    0    0    0 -0.00000000000E+00 -0.00000000000E+00 -0.45593999997E+02  0.45594000000E+02  0.51100000000E-03 0.  1.
    9900012    2    1    2    0    0 -0.20666425547E+02  0.27564994245E+01  0.39930115242E+02  0.46142317219E+02  0.99999950599E+01 0.  0.
        -12    1    1    2    0    0  0.20666425547E+02 -0.27564994245E+01 -0.39930115242E+02  0.45045682781E+02  0.00000000000E+00 0.  1.
         11    1    3    3    0    0 -0.44858724035E+01  0.46565945001E+01  0.84373153714E+01  0.10629920719E+02  0.51100000000E-03 0.  1.
        -11    1    3    3    0    0 -0.87897318620E+01 -0.73584670498E-01  0.16315810891E+02  0.18532956758E+02  0.51100000000E-03 0. -1.
        -12    1    3    3    0    0 -0.73908212814E+01 -0.18265104052E+01  0.15176988979E+02  0.16979439742E+02  0.00000000000E+00 0.  1.
</event>
<event>
 7    1  0.5664398E-009  0.4614232E+02  0.7816164E-02  0.1320468E+00
        -11   -1    0    0    0    0  0.00000000000E+00  0.00000000000E+00  0.45593999997E+02  0.45594000000E+02  0.51100000000E-03 0. -1.
         11   -1    0    0    0    0 -0.00000000000E+00 -0.00000000000E+00 -0.45593999997E+02  0.45594000000E+02  0.51100000000E-03 0.  1.
    9900012    2    1    2    0    0  0.23285197062E+02 -0.27811906523E+02  0.26709753657E+02  0.46142317776E+02  0.10000000131E+02 0.  0.
        -12    1    1    2    0    0 -0.23285197062E+02  0.27811906523E+02 -0.26709753657E+02  0.45045682224E+02  0.00000000000E+00 0.  1.
         11    1    3    3    0    0  0.10606749910E+01 -0.21514494978E+00 -0.27301867021E+00  0.11161802011E+01  0.51100000000E-03 0.  1.
        -11    1    3    3    0    0  0.14982908518E+02 -0.15911689153E+02  0.13061052476E+02  0.25460960142E+02  0.51100000000E-03 0. -1.
        -12    1    3    3    0    0  0.72416135536E+01 -0.11685072420E+02  0.13921719851E+02  0.19565177432E+02  0.00000000000E+00 0.  1.
</event>
<event>
 7    1  0.5664398E-009  0.4614232E+02  0.7816164E-02  0.1320468E+00
        -11   -1    0    0    0    0  0.00000000000E+00  0.00000000000E+00  0.45593999997E+02  0.45594000000E+02  0.51100000000E-03 0. -1.
         11   -1    0    0    0    0 -0.00000000000E+00 -0.00000000000E+00 -0.45593999997E+02  0.45594000000E+02  0.51100000000E-03 0.  1.
    9900012    2    1    2    0    0  0.20646706790E+02  0.19068362811E+02 -0.35202621114E+02  0.46142317689E+02  0.99999993439E+01 0.  0.
         12    1    1    2    0    0 -0.20646706790E+02 -0.19068362811E+02  0.35202621114E+02  0.45045682311E+02  0.00000000000E+00 0. -1.
         11    1    3    3    0    0  0.11644206574E+02  0.85015896012E+01 -0.20331324327E+02  0.24924432224E+02  0.51100000000E-03 0. -1.
        -11    1    3    3    0    0  0.79225416038E+01  0.71636665397E+01 -0.13877135665E+02  0.17511701182E+02  0.51100000000E-03 0.  1.
         12    1    3    3    0    0  0.10799586122E+01  0.34031066700E+01 -0.99416112139E+00  0.37061842839E+01  0.00000000000E+00 0. -1.
</event>
<event>
 7    1  0.5664398E-009  0.4614232E+02  0.7816164E-02  0.1320468E+00
        -11   -1    0    0    0    0  0.00000000000E+00  0.00000000000E+00  0.45593999997E+02  0.45594000000E+02  0.51100000000E-03 0. -1.
         11   -1    0    0    0    0 -0.00000000000E+00 -0.00000000000E+00 -0.45593999997E+02  0.45594000000E+02  0.51100000000E-03 0.  1.
    9900012    2    1    2    0    0  0.17937798646E+02 -0.13258269818E+02  0.39135241731E+02  0.46142317808E+02  0.10000000425E+02 0.  0.
        -12    1    1    2    0    0 -0.17937798646E+02  0.13258269818E+02 -0.39135241731E+02  0.45045682192E+02  0.00000000000E+00 0.  1.
         11    1    3    3    0    0  0.15479418970E+02 -0.64869038988E+01  0.25453980756E+02  0.30489300917E+02  0.51100000000E-03 0. -1.
        -11    1    3    3    0    0 -0.48811711773E+00 -0.12785835154E+01  0.22847022409E+01  0.26632496535E+01  0.51100000000E-03 0.  1.
        -12    1    3    3    0    0  0.29464967936E+01 -0.54927824037E+01  0.11396558735E+02  0.12989767237E+02  0.00000000000E+00 0.  1.
</event>
<event>
 7    1  0.6730663E-009  0.4614232E+02  0.7816164E-02  0.1320468E+00
        -11   -1    0    0    0    0  0.00000000000E+00  0.00000000000E+00  0.45593999997E+02  0.45594000000E+02  0.51100000000E-03 0. -1.
         11   -1    0    0    0    0 -0.00000000000E+00 -0.00000000000E+00 -0.45593999997E+02  0.45594000000E+02  0.51100000000E-03 0.  1.
    9900012    2    1    2    0    0  0.24017808275E+02 -0.12005072994E+02  0.36168169378E+02  0.46142319096E+02  0.10000012175E+02 0.  0.
        -12    1    1    2    0    0 -0.24017808275E+02  0.12005072994E+02 -0.36168169378E+02  0.45045680904E+02  0.00000000000E+00 0.  1.
         11    1    3    3    0    0  0.17790737616E+01 -0.14480741122E+00  0.12683035564E+01  0.21896727628E+01  0.51100000000E-03 0. -1.
        -11    1    3    3    0    0  0.16981620417E+01 -0.37198535079E+01  0.26958896856E+01  0.48978450260E+01  0.51100000000E-03 0.  1.
         12    1    3    3    0    0  0.20540572472E+02 -0.81404120750E+01  0.32203976136E+02  0.39054801308E+02  0.00000000000E+00 0. -1.
</event>
<event>
 7    1  0.5664398E-009  0.4614232E+02  0.7816164E-02  0.1320468E+00
        -11   -1    0    0    0    0  0.00000000000E+00  0.00000000000E+00  0.45593999997E+02  0.45594000000E+02  0.51100000000E-03 0. -1.
         11   -1    0    0    0    0 -0.00000000000E+00 -0.00000000000E+00 -0.45593999997E+02  0.45594000000E+02  0.51100000000E-03 0.  1.
    9900012    2    1    2    0    0  0.31937717183E+02 -0.65241022256E+01  0.31089095301E+02  0.46142317240E+02  0.99999952493E+01 0.  0.
        -12    1    1    2    0    0 -0.31937717183E+02  0.65241022256E+01 -0.31089095301E+02  0.45045682760E+02  0.00000000000E+00 0.  1.
         11    1    3    3    0    0  0.10879037053E+02 -0.28677343727E+01  0.11836610808E+02  0.16330422632E+02  0.51100000000E-03 0.  1.
        -11    1    3    3    0    0  0.10962901002E+02 -0.53175187668E+01  0.78614646462E+01  0.14500476918E+02  0.51100000000E-03 0. -1.
         12    1    3    3    0    0  0.10095779127E+02  0.16611509139E+01  0.11391019846E+02  0.15311417690E+02  0.00000000000E+00 0. -1.
</event>
<event>
 7    1  0.5664398E-009  0.4614232E+02  0.7816164E-02  0.1320468E+00
        -11   -1    0    0    0    0  0.00000000000E+00  0.00000000000E+00  0.45593999997E+02  0.45594000000E+02  0.51100000000E-03 0. -1.
         11   -1    0    0    0    0 -0.00000000000E+00 -0.00000000000E+00 -0.45593999997E+02  0.45594000000E+02  0.51100000000E-03 0.  1.
    9900012    2    1    2    0    0 -0.44217849326E+02 -0.24168226765E+01 -0.82494997468E+01  0.46142317888E+02  0.10000001161E+02 0.  0.
         12    1    1    2    0    0  0.44217849326E+02  0.24168226765E+01  0.82494997468E+01  0.45045682112E+02  0.00000000000E+00 0. -1.
         11    1    3    3    0    0 -0.21443758356E+01  0.57682343134E+00  0.12617587414E+01  0.25540376618E+01  0.51100000000E-03 0. -1.
        -11    1    3    3    0    0 -0.22648134109E+02 -0.83464107112E+00 -0.24016501876E+01  0.22790404302E+02  0.51100000000E-03 0.  1.
        -12    1    3    3    0    0 -0.19425339380E+02 -0.21590050367E+01 -0.71096083006E+01  0.20797875925E+02  0.00000000000E+00 0.  1.
</event>
<event>
 7    1  0.5664398E-009  0.4614232E+02  0.7816164E-02  0.1320468E+00
        -11   -1    0    0    0    0  0.00000000000E+00  0.00000000000E+00  0.45593999997E+02  0.45594000000E+02  0.51100000000E-03 0. -1.
         11   -1    0    0    0    0 -0.00000000000E+00 -0.00000000000E+00 -0.45593999997E+02  0.45594000000E+02  0.51100000000E-03 0.  1.
    9900012    2    1    2    0    0  0.45710431136E+01 -0.31236665709E+02 -0.32132379597E+02  0.46142317207E+02  0.99999949429E+01 0.  0.
         12    1    1    2    0    0 -0.45710431136E+01  0.31236665709E+02  0.32132379597E+02  0.45045682793E+02  0.00000000000E+00 0. -1.
         11    1    3    3    0    0 -0.93831801436E+00 -0.42441190537E+01 -0.57943762655E+01  0.72434649033E+01  0.51100000000E-03 0. -1.
        -11    1    3    3    0    0  0.14861669393E+01 -0.22559420341E+02 -0.20072766603E+02  0.30233294522E+02  0.51100000000E-03 0.  1.
        -12    1    3    3    0    0  0.40231941887E+01 -0.44331263149E+01 -0.62652367278E+01  0.86655577812E+01  0.00000000000E+00 0.  1.
</event>
<event>
 7    1  0.5664398E-009  0.4614232E+02  0.7816164E-02  0.1320468E+00
        -11   -1    0    0    0    0  0.00000000000E+00  0.00000000000E+00  0.45593999997E+02  0.45594000000E+02  0.51100000000E-03 0. -1.
         11   -1    0    0    0    0 -0.00000000000E+00 -0.00000000000E+00 -0.45593999997E+02  0.45594000000E+02  0.51100000000E-03 0.  1.
    9900012    2    1    2    0    0 -0.16270533530E+02 -0.22113065346E+02  0.35712677475E+02  0.46142320376E+02  0.10000023844E+02 0.  0.
        -12    1    1    2    0    0  0.16270533530E+02  0.22113065346E+02 -0.35712677475E+02  0.45045679624E+02  0.00000000000E+00 0.  1.
         11    1    3    3    0    0 -0.77382742397E+01 -0.87546320325E+01  0.12634944062E+02  0.17209482326E+02  0.51100000000E-03 0. -1.
        -11    1    3    3    0    0 -0.27640127043E+01 -0.29047656864E+00  0.18218687219E+01  0.33231534372E+01  0.51100000000E-03 0.  1.
        -12    1    3    3    0    0 -0.57682465857E+01 -0.13067956745E+02  0.21255864692E+02  0.25609684612E+02  0.00000000000E+00 0.  1.
</event>
<event>
 7    1  0.5664398E-009  0.4614232E+02  0.7816164E-02  0.1320468E+00
        -11   -1    0    0    0    0  0.00000000000E+00  0.00000000000E+00  0.45593999997E+02  0.45594000000E+02  0.51100000000E-03 0. -1.
         11   -1    0    0    0    0 -0.00000000000E+00 -0.00000000000E+00 -0.45593999997E+02  0.45594000000E+02  0.51100000000E-03 0.  1.
    9900012    2    1    2    0    0 -0.38292531601E+02  0.15058597141E+02 -0.18331233802E+02  0.46142318110E+02  0.10000003179E+02 0.  0.
         12    1    1    2    0    0  0.38292531601E+02 -0.15058597141E+02  0.18331233802E+02  0.45045681890E+02  0.00000000000E+00 0. -1.
         11    1    3    3    0    0 -0.53113159472E+01  0.27934342914E+01 -0.21951256279E+01  0.63899866208E+01  0.51100000000E-03 0. -1.
        -11    1    3    3    0    0 -0.10661658832E+02  0.16098059285E+01 -0.11740534995E+01  0.10846236493E+02  0.51100000000E-03 0.  1.
         12    1    3    3    0    0 -0.22319556821E+02  0.10655356922E+02 -0.14962054675E+02  0.28906094996E+02  0.00000000000E+00 0. -1.
</event>
<event>
 7    1  0.5664398E-009  0.4614232E+02  0.7816164E-02  0.1320468E+00
        -11   -1    0    0    0    0  0.00000000000E+00  0.00000000000E+00  0.45593999997E+02  0.45594000000E+02  0.51100000000E-03 0. -1.
         11   -1    0    0    0    0 -0.00000000000E+00 -0.00000000000E+00 -0.45593999997E+02  0.45594000000E+02  0.51100000000E-03 0.  1.
    9900012    2    1    2    0    0  0.27596596607E+02  0.51241822769E+01 -0.35231861468E+02  0.46142318178E+02  0.10000003800E+02 0.  0.
         12    1    1    2    0    0 -0.27596596607E+02 -0.51241822769E+01  0.35231861468E+02  0.45045681822E+02  0.00000000000E+00 0. -1.
         11    1    3    3    0    0  0.45696950812E+01  0.27261257054E+01 -0.39173030669E+01  0.66075061919E+01  0.51100000000E-03 0. -1.
        -11    1    3    3    0    0  0.14144707468E+02 -0.18577047093E+01 -0.19264641625E+02  0.23971863368E+02  0.51100000000E-03 0.  1.
         12    1    3    3    0    0  0.88821940574E+01  0.42557612808E+01 -0.12049916777E+02  0.15562948618E+02  0.00000000000E+00 0. -1.
</event>
<event>
 7    1  0.5664398E-009  0.4614232E+02  0.7816164E-02  0.1320468E+00
        -11   -1    0    0    0    0  0.00000000000E+00  0.00000000000E+00  0.45593999997E+02  0.45594000000E+02  0.51100000000E-03 0. -1.
         11   -1    0    0    0    0 -0.00000000000E+00 -0.00000000000E+00 -0.45593999997E+02  0.45594000000E+02  0.51100000000E-03 0.  1.
    9900012    2    1    2    0    0 -0.40847026325E+02  0.63441255936E+01  0.17899326224E+02  0.46142319093E+02  0.10000012143E+02 0.  0.
        -12    1    1    2    0    0  0.40847026325E+02 -0.63441255936E+01 -0.17899326224E+02  0.45045680907E+02  0.00000000000E+00 0.  1.
         11    1    3    3    0    0 -0.10882497335E+02 -0.18916073390E+01  0.33839080811E+01  0.11552391992E+02  0.51100000000E-03 0. -1.
        -11    1    3    3    0    0 -0.22704187150E+02  0.53572676411E+01  0.12742716016E+02  0.26581144491E+02  0.51100000000E-03 0.  1.
         12    1    3    3    0    0 -0.72603418399E+01  0.28784652914E+01  0.17727021268E+01  0.80087826102E+01  0.00000000000E+00 0. -1.
</event>
<event>
 7    1  0.5664398E-009  0.4614232E+02  0.7816164E-02  0.1320468E+00
        -11   -1    0    0    0    0  0.00000000000E+00  0.00000000000E+00  0.45593999997E+02  0.45594000000E+02  0.51100000000E-03 0. -1.
         11   -1    0    0    0    0 -0.00000000000E+00 -0.00000000000E+00 -0.45593999997E+02  0.45594000000E+02  0.51100000000E-03 0.  1.
    9900012    2    1    2    0    0  0.49044543754E+01  0.13183301559E+02 -0.42793228395E+02  0.46142317530E+02  0.99999978920E+01 0.  0.
         12    1    1    2    0    0 -0.49044543754E+01 -0.13183301559E+02  0.42793228395E+02  0.45045682470E+02  0.00000000000E+00 0. -1.
         11    1    3    3    0    0 -0.19572028367E+01  0.50685487664E+01 -0.10435068669E+02  0.11764841177E+02  0.51100000000E-03 0. -1.
        -11    1    3    3    0    0  0.17482135937E+01  0.24075943013E+01 -0.16486321943E+02  0.16752658671E+02  0.51100000000E-03 0.  1.
         12    1    3    3    0    0  0.51134436184E+01  0.57071584910E+01 -0.15871837784E+02  0.17624817682E+02  0.00000000000E+00 0. -1.
</event>
<event>
 7    1  0.5664398E-009  0.4614232E+02  0.7816164E-02  0.1320468E+00
        -11   -1    0    0    0    0  0.00000000000E+00  0.00000000000E+00  0.45593999997E+02  0.45594000000E+02  0.51100000000E-03 0. -1.
         11   -1    0    0    0    0 -0.00000000000E+00 -0.00000000000E+00 -0.45593999997E+02  0.45594000000E+02  0.51100000000E-03 0.  1.
    9900012    2    1    2    0    0 -0.25896977395E+02  0.11271486101E+02  0.35091503013E+02  0.46142318511E+02  0.10000006837E+02 0.  0.
        -12    1    1    2    0    0  0.25896977395E+02 -0.11271486101E+02 -0.35091503013E+02  0.45045681489E+02  0.00000000000E+00 0.  1.
         11    1    3    3    0    0 -0.10703557993E+02  0.86957236006E+01  0.16185520289E+02  0.21263885579E+02  0.51100000000E-03 0. -1.
        -11    1    3    3    0    0 -0.12927901982E+02  0.34843822182E+01  0.13848548767E+02  0.19262758689E+02  0.51100000000E-03 0.  1.
         12    1    3    3    0    0 -0.22655174206E+01 -0.90861971745E+00  0.50574339570E+01  0.56156742430E+01  0.00000000000E+00 0. -1.
</event>
<event>
 7    1  0.5664398E-009  0.4614232E+02  0.7816164E-02  0.1320468E+00
        -11   -1    0    0    0    0  0.00000000000E+00  0.00000000000E+00  0.45593999997E+02  0.45594000000E+02  0.51100000000E-03 0. -1.
         11   -1    0    0    0    0 -0.00000000000E+00 -0.00000000000E+00 -0.45593999997E+02  0.45594000000E+02  0.51100000000E-03 0.  1.
    9900012    2    1    2    0    0  0.12342289758E+02 -0.29013779330E+02 -0.32171135716E+02  0.46142317846E+02  0.10000000774E+02 0.  0.
         12    1    1    2    0    0 -0.12342289758E+02  0.29013779330E+02  0.32171135716E+02  0.45045682154E+02  0.00000000000E+00 0. -1.
         11    1    3    3    0    0 -0.81424665872E+00 -0.40415899059E+00 -0.15018228603E+01  0.17555096912E+01  0.51100000000E-03 0. -1.
        -11    1    3    3    0    0  0.10031217468E+02 -0.26434775416E+02 -0.27290475341E+02  0.39296217627E+02  0.51100000000E-03 0.  1.
         12    1    3    3    0    0  0.31253189492E+01 -0.21748449235E+01 -0.33788375141E+01  0.50905905278E+01  0.00000000000E+00 0. -1.
</event>
<event>
 7    1  0.5664398E-009  0.4614232E+02  0.7816164E-02  0.1320468E+00
        -11   -1    0    0    0    0  0.00000000000E+00  0.00000000000E+00  0.45593999997E+02  0.45594000000E+02  0.51100000000E-03 0. -1.
         11   -1    0    0    0    0 -0.00000000000E+00 -0.00000000000E+00 -0.45593999997E+02  0.45594000000E+02  0.51100000000E-03 0.  1.
    9900012    2    1    2    0    0  0.30575254221E+02 -0.19124686678E+02  0.26990991278E+02  0.46142318504E+02  0.10000006779E+02 0.  0.
        -12    1    1    2    0    0 -0.30575254221E+02  0.19124686678E+02 -0.26990991278E+02  0.45045681496E+02  0.00000000000E+00 0.  1.
         11    1    3    3    0    0  0.97242235766E+01 -0.48876245916E+01  0.11902627609E+02  0.16128296332E+02  0.51100000000E-03 0. -1.
        -11    1    3    3    0    0  0.15141373812E+02 -0.12383472857E+02  0.13616597134E+02  0.23833239786E+02  0.51100000000E-03 0.  1.
        -12    1    3    3    0    0  0.57096568327E+01 -0.18535892288E+01  0.14717665355E+01  0.61807823866E+01  0.00000000000E+00 0.  1.
</event>
<event>
 7    1  0.5664398E-009  0.4614232E+02  0.7816164E-02  0.1320468E+00
        -11   -1    0    0    0    0  0.00000000000E+00  0.00000000000E+00  0.45593999997E+02  0.45594000000E+02  0.51100000000E-03 0.  1.
         11   -1    0    0    0    0 -0.00000000000E+00 -0.00000000000E+00 -0.45593999997E+02  0.45594000000E+02  0.51100000000E-03 0. -1.
    9900012    2    1    2    0    0  0.36852040721E+02 -0.16183069975E+02 -0.20227428103E+02  0.46142317557E+02  0.99999981401E+01 0.  0.
         12    1    1    2    0    0 -0.36852040721E+02  0.16183069975E+02  0.20227428103E+02  0.45045682443E+02  0.00000000000E+00 0. -1.
         11    1    3    3    0    0 -0.32070005288E+00 -0.55075989985E+00 -0.34141167066E+00  0.72301257333E+00  0.51100000000E-03 0. -1.
        -11    1    3    3    0    0  0.53557023045E+01 -0.48821659475E+01 -0.33044588686E+01  0.79648314601E+01  0.51100000000E-03 0.  1.
        -12    1    3    3    0    0  0.31817038469E+02 -0.10750144128E+02 -0.16581557564E+02  0.37454473524E+02  0.00000000000E+00 0.  1.
</event>
<event>
 7    1  0.5664398E-009  0.4614232E+02  0.7816164E-02  0.1320468E+00
        -11   -1    0    0    0    0  0.00000000000E+00  0.00000000000E+00  0.45593999997E+02  0.45594000000E+02  0.51100000000E-03 0. -1.
         11   -1    0    0    0    0 -0.00000000000E+00 -0.00000000000E+00 -0.45593999997E+02  0.45594000000E+02  0.51100000000E-03 0.  1.
    9900012    2    1    2    0    0 -0.18404561520E+01  0.32765186923E+02  0.30857231164E+02  0.46142317986E+02  0.10000002054E+02 0.  0.
        -12    1    1    2    0    0  0.18404561520E+01 -0.32765186923E+02 -0.30857231164E+02  0.45045682014E+02  0.00000000000E+00 0.  1.
         11    1    3    3    0    0 -0.87725450506E-01  0.17535995360E+02  0.20053946481E+02  0.26639812288E+02  0.51100000000E-03 0. -1.
        -11    1    3    3    0    0  0.47780859808E+00  0.50704724873E+01  0.96042581444E+00  0.51827029923E+01  0.51100000000E-03 0.  1.
        -12    1    3    3    0    0 -0.22305392995E+01  0.10158719076E+02  0.98428588692E+01  0.14319802706E+02  0.00000000000E+00 0.  1.
</event>
<event>
 7    1  0.5664398E-009  0.4614232E+02  0.7816164E-02  0.1320468E+00
        -11   -1    0    0    0    0  0.00000000000E+00  0.00000000000E+00  0.45593999997E+02  0.45594000000E+02  0.51100000000E-03 0.  1.
         11   -1    0    0    0    0 -0.00000000000E+00 -0.00000000000E+00 -0.45593999997E+02  0.45594000000E+02  0.51100000000E-03 0. -1.
    9900012    2    1    2    0    0  0.37899208858E+02  0.21317263674E+02  0.11761707914E+02  0.46142317236E+02  0.99999952118E+01 0.  0.
        -12    1    1    2    0    0 -0.37899208858E+02 -0.21317263674E+02 -0.11761707914E+02  0.45045682764E+02  0.00000000000E+00 0.  1.
         11    1    3    3    0    0  0.36575347207E+01  0.32753062492E+01  0.15076717742E+01  0.51359775797E+01  0.51100000000E-03 0.  1.
        -11    1    3    3    0    0  0.60665240993E+01  0.17975235080E+01  0.49950143551E+01  0.80612638015E+01  0.51100000000E-03 0. -1.
         12    1    3    3    0    0  0.28175150038E+02  0.16244433917E+02  0.52590217850E+01  0.32945075855E+02  0.00000000000E+00 0. -1.
</event>
<event>
 7    1  0.5664398E-009  0.4614232E+02  0.7816164E-02  0.1320468E+00
        -11   -1    0    0    0    0  0.00000000000E+00  0.00000000000E+00  0.45593999997E+02  0.45594000000E+02  0.51100000000E-03 0. -1.
         11   -1    0    0    0    0 -0.00000000000E+00 -0.00000000000E+00 -0.45593999997E+02  0.45594000000E+02  0.51100000000E-03 0.  1.
    9900012    2    1    2    0    0  0.36044780367E+02  0.18253965484E+02 -0.19916830024E+02  0.46142316902E+02  0.99999921653E+01 0.  0.
         12    1    1    2    0    0 -0.36044780367E+02 -0.18253965484E+02  0.19916830024E+02  0.45045683098E+02  0.00000000000E+00 0. -1.
         11    1    3    3    0    0  0.84557353833E+01  0.74994117157E+01 -0.44071381515E+01  0.12131096566E+02  0.51100000000E-03 0. -1.
        -11    1    3    3    0    0  0.10180139914E+02  0.69925391518E+01 -0.49497084036E+01  0.13305279629E+02  0.51100000000E-03 0.  1.
        -12    1    3    3    0    0  0.17408905069E+02  0.37620146161E+01 -0.10559983469E+02  0.20705940707E+02  0.00000000000E+00 0.  1.
</event>
<event>
 7    1  0.5664398E-009  0.4614232E+02  0.7816164E-02  0.1320468E+00
        -11   -1    0    0    0    0  0.00000000000E+00  0.00000000000E+00  0.45593999997E+02  0.45594000000E+02  0.51100000000E-03 0.  1.
         11   -1    0    0    0    0 -0.00000000000E+00 -0.00000000000E+00 -0.45593999997E+02  0.45594000000E+02  0.51100000000E-03 0. -1.
    9900012    2    1    2    0    0  0.34456542184E+02 -0.27272938689E+02  0.99018685365E+01  0.46142317804E+02  0.10000000393E+02 0.  0.
        -12    1    1    2    0    0 -0.34456542184E+02  0.27272938689E+02 -0.99018685365E+01  0.45045682196E+02  0.00000000000E+00 0.  1.
         11    1    3    3    0    0  0.26797399805E+02 -0.23552974002E+02  0.77859444451E+01  0.36516628429E+02  0.51100000000E-03 0. -1.
        -11    1    3    3    0    0  0.51189983662E+00 -0.94052542609E+00 -0.88657446872E+00  0.13901956947E+01  0.51100000000E-03 0.  1.
        -12    1    3    3    0    0  0.71472425420E+01 -0.27794392600E+01  0.30024985601E+01  0.82354936802E+01  0.00000000000E+00 0.  1.
</event>
<event>
 7    1  0.5664398E-009  0.4614232E+02  0.7816164E-02  0.1320468E+00
        -11   -1    0    0    0    0  0.00000000000E+00  0.00000000000E+00  0.45593999997E+02  0.45594000000E+02  0.51100000000E-03 0. -1.
         11   -1    0    0    0    0 -0.00000000000E+00 -0.00000000000E+00 -0.45593999997E+02  0.45594000000E+02  0.51100000000E-03 0.  1.
    9900012    2    1    2    0    0 -0.28950472420E+02 -0.21023405465E+02  0.27367868688E+02  0.46142315776E+02  0.99999818965E+01 0.  0.
        -12    1    1    2    0    0  0.28950472420E+02  0.21023405465E+02 -0.27367868688E+02  0.45045684224E+02  0.00000000000E+00 0.  1.
         11    1    3    3    0    0 -0.12886980987E+01 -0.11581400961E+01 -0.31497566337E+00  0.17610341284E+01  0.51100000000E-03 0. -1.
        -11    1    3    3    0    0 -0.72012945762E+01 -0.55115097705E+01  0.38684698991E+01  0.98590285092E+01  0.51100000000E-03 0.  1.
         12    1    3    3    0    0 -0.20460479745E+02 -0.14353755598E+02  0.23814374452E+02  0.34522253138E+02  0.00000000000E+00 0. -1.
</event>
<event>
 7    1  0.5664398E-009  0.4614231E+02  0.7816164E-02  0.1320468E+00
        -11   -1    0    0    0    0  0.00000000000E+00  0.00000000000E+00  0.45593999997E+02  0.45594000000E+02  0.51100000000E-03 0. -1.
         11   -1    0    0    0    0 -0.00000000000E+00 -0.00000000000E+00 -0.45593999997E+02  0.45594000000E+02  0.51100000000E-03 0.  1.
    9900012    2    1    2    0    0  0.35680339292E+02  0.24427189865E+02  0.12622983515E+02  0.46142312864E+02  0.99999553452E+01 0.  0.
        -12    1    1    2    0    0 -0.35680339292E+02 -0.24427189865E+02 -0.12622983515E+02  0.45045687136E+02  0.00000000000E+00 0.  1.
         11    1    3    3    0    0  0.75893441050E+01  0.51662461380E+01  0.28166180007E+01  0.96032067730E+01  0.51100000000E-03 0. -1.
        -11    1    3    3    0    0  0.78516348269E+01  0.33938499659E+01 -0.10617092607E+01  0.86193743312E+01  0.51100000000E-03 0.  1.
        -12    1    3    3    0    0  0.20239360361E+02  0.15867093761E+02  0.10868074775E+02  0.27919731760E+02  0.00000000000E+00 0.  1.
</event>
<event>
 7    1  0.5664398E-009  0.4614232E+02  0.7816164E-02  0.1320468E+00
        -11   -1    0    0    0    0  0.00000000000E+00  0.00000000000E+00  0.45593999997E+02  0.45594000000E+02  0.51100000000E-03 0. -1.
         11   -1    0    0    0    0 -0.00000000000E+00 -0.00000000000E+00 -0.45593999997E+02  0.45594000000E+02  0.51100000000E-03 0.  1.
    9900012    2    1    2    0    0  0.24029602847E+02 -0.19376376334E+02 -0.32806217007E+02  0.46142315999E+02  0.99999839285E+01 0.  0.
         12    1    1    2    0    0 -0.24029602847E+02  0.19376376334E+02  0.32806217007E+02  0.45045684001E+02  0.00000000000E+00 0. -1.
         11    1    3    3    0    0  0.46518277097E+01 -0.22433615320E+01 -0.20502190196E+01  0.55565790099E+01  0.51100000000E-03 0. -1.
        -11    1    3    3    0    0  0.75909777008E+01 -0.98023621459E+01 -0.17028265136E+02  0.21063500657E+02  0.51100000000E-03 0.  1.
        -12    1    3    3    0    0  0.11786797436E+02 -0.73306526560E+01 -0.13727732852E+02  0.19522236332E+02  0.00000000000E+00 0.  1.
</event>
<event>
 7    1  0.5664398E-009  0.4614231E+02  0.7816164E-02  0.1320468E+00
        -11   -1    0    0    0    0  0.00000000000E+00  0.00000000000E+00  0.45593999997E+02  0.45594000000E+02  0.51100000000E-03 0.  1.
         11   -1    0    0    0    0 -0.00000000000E+00 -0.00000000000E+00 -0.45593999997E+02  0.45594000000E+02  0.51100000000E-03 0. -1.
    9900012    2    1    2    0    0  0.43794142262E+02 -0.91628858819E+01  0.52180987139E+01  0.46142312878E+02  0.99999554714E+01 0.  0.
        -12    1    1    2    0    0 -0.43794142262E+02  0.91628858819E+01 -0.52180987139E+01  0.45045687122E+02  0.00000000000E+00 0.  1.
         11    1    3    3    0    0  0.17782547052E+02 -0.26170362248E+01  0.36899887664E+01  0.18348947534E+02  0.51100000000E-03 0. -1.
        -11    1    3    3    0    0  0.10600156441E+02 -0.63109366313E+01  0.82364654197E+00  0.12364045924E+02  0.51100000000E-03 0.  1.
         12    1    3    3    0    0  0.15411438769E+02 -0.23491302582E+00  0.70446340552E+00  0.15429319419E+02  0.00000000000E+00 0. -1.
</event>
<event>
 7    1  0.6621563E-009  0.4614232E+02  0.7816164E-02  0.1320468E+00
        -11   -1    0    0    0    0  0.00000000000E+00  0.00000000000E+00  0.45593999997E+02  0.45594000000E+02  0.51100000000E-03 0. -1.
         11   -1    0    0    0    0 -0.00000000000E+00 -0.00000000000E+00 -0.45593999997E+02  0.45594000000E+02  0.51100000000E-03 0.  1.
    9900012    2    1    2    0    0 -0.76000191499E+01  0.10547299854E+02 -0.43128965382E+02  0.46142317852E+02  0.10000000828E+02 0.  0.
         12    1    1    2    0    0  0.76000191499E+01 -0.10547299854E+02  0.43128965382E+02  0.45045682148E+02  0.00000000000E+00 0. -1.
         11    1    3    3    0    0  0.11587549752E+01  0.56439720393E+00 -0.26022822095E+01  0.29039852368E+01  0.51100000000E-03 0. -1.
        -11    1    3    3    0    0  0.22948028891E+00 -0.89455501333E+00 -0.18426648811E+01  0.20611414313E+01  0.51100000000E-03 0.  1.
        -12    1    3    3    0    0 -0.89882544140E+01  0.10877457664E+02 -0.38684018291E+02  0.41177191184E+02  0.00000000000E+00 0.  1.
</event>
<event>
 7    1  0.5664398E-009  0.4614232E+02  0.7816164E-02  0.1320468E+00
        -11   -1    0    0    0    0  0.00000000000E+00  0.00000000000E+00  0.45593999997E+02  0.45594000000E+02  0.51100000000E-03 0. -1.
         11   -1    0    0    0    0 -0.00000000000E+00 -0.00000000000E+00 -0.45593999997E+02  0.45594000000E+02  0.51100000000E-03 0.  1.
    9900012    2    1    2    0    0  0.59989959460E-01  0.98858504554E-01 -0.45045531902E+02  0.46142319673E+02  0.10000017435E+02 0.  0.
         12    1    1    2    0    0 -0.59989959460E-01 -0.98858504554E-01  0.45045531902E+02  0.45045680327E+02  0.00000000000E+00 0. -1.
         11    1    3    3    0    0 -0.66348097721E+00  0.31625581450E+01 -0.12716185236E+02  0.13120341011E+02  0.51100000000E-03 0. -1.
        -11    1    3    3    0    0  0.31986267568E+01 -0.67603870745E+00 -0.17013950110E+02  0.17325205340E+02  0.51100000000E-03 0.  1.
        -12    1    3    3    0    0 -0.24751558201E+01 -0.23876609330E+01 -0.15315396556E+02  0.15696773322E+02  0.00000000000E+00 0.  1.
</event>
<event>
 7    1  0.5664398E-009  0.4614232E+02  0.7816164E-02  0.1320468E+00
        -11   -1    0    0    0    0  0.00000000000E+00  0.00000000000E+00  0.45593999997E+02  0.45594000000E+02  0.51100000000E-03 0.  1.
         11   -1    0    0    0    0 -0.00000000000E+00 -0.00000000000E+00 -0.45593999997E+02  0.45594000000E+02  0.51100000000E-03 0. -1.
    9900012    2    1    2    0    0 -0.41179413525E+02 -0.14175387446E+02  0.11507718611E+02  0.46142319906E+02  0.10000019560E+02 0.  0.
        -12    1    1    2    0    0  0.41179413525E+02  0.14175387446E+02 -0.11507718611E+02  0.45045680094E+02  0.00000000000E+00 0.  1.
         11    1    3    3    0    0 -0.29864836055E+02 -0.10653745282E+02  0.74946748191E+01  0.32581910196E+02  0.51100000000E-03 0. -1.
        -11    1    3    3    0    0 -0.10980747896E+02 -0.44260545348E+01  0.42301147684E+01  0.12572217558E+02  0.51100000000E-03 0.  1.
        -12    1    3    3    0    0 -0.33382957350E+00  0.90441237085E+00 -0.21707097634E+00  0.98819215210E+00  0.00000000000E+00 0.  1.
</event>
<event>
 7    1  0.5664398E-009  0.4614232E+02  0.7816164E-02  0.1320468E+00
        -11   -1    0    0    0    0  0.00000000000E+00  0.00000000000E+00  0.45593999997E+02  0.45594000000E+02  0.51100000000E-03 0. -1.
         11   -1    0    0    0    0 -0.00000000000E+00 -0.00000000000E+00 -0.45593999997E+02  0.45594000000E+02  0.51100000000E-03 0.  1.
    9900012    2    1    2    0    0 -0.12772606704E+02 -0.29951537533E+01 -0.43092958871E+02  0.46142317273E+02  0.99999955524E+01 0.  0.
         12    1    1    2    0    0  0.12772606704E+02  0.29951537533E+01  0.43092958871E+02  0.45045682727E+02  0.00000000000E+00 0. -1.
         11    1    3    3    0    0 -0.37789744685E+01  0.27423370026E+01 -0.81380816174E+01  0.93824001696E+01  0.51100000000E-03 0. -1.
        -11    1    3    3    0    0  0.27426595181E+00 -0.86352417299E+00 -0.27370728761E+01  0.28831344055E+01  0.51100000000E-03 0.  1.
        -12    1    3    3    0    0 -0.92678981874E+01 -0.48739665830E+01 -0.32217804378E+02  0.33876782698E+02  0.00000000000E+00 0.  1.
</event>
<event>
 7    1  0.5664398E-009  0.4614232E+02  0.7816164E-02  0.1320468E+00
        -11   -1    0    0    0    0  0.00000000000E+00  0.00000000000E+00  0.45593999997E+02  0.45594000000E+02  0.51100000000E-03 0. -1.
         11   -1    0    0    0    0 -0.00000000000E+00 -0.00000000000E+00 -0.45593999997E+02  0.45594000000E+02  0.51100000000E-03 0.  1.
    9900012    2    1    2    0    0 -0.11752215574E+02 -0.32053251884E+02 -0.29386863611E+02  0.46142320072E+02  0.10000021077E+02 0.  0.
         12    1    1    2    0    0  0.11752215574E+02  0.32053251884E+02  0.29386863611E+02  0.45045679928E+02  0.00000000000E+00 0. -1.
         11    1    3    3    0    0 -0.10612010867E+01 -0.10535900073E+01  0.43269386735E+00  0.15567350108E+01  0.51100000000E-03 0. -1.
        -11    1    3    3    0    0 -0.43799302872E+01 -0.19465180813E+02 -0.19116783347E+02  0.27632018732E+02  0.51100000000E-03 0.  1.
        -12    1    3    3    0    0 -0.63110841996E+01 -0.11534481064E+02 -0.10702774132E+02  0.16953566330E+02  0.00000000000E+00 0.  1.
</event>
<event>
 7    1  0.5664398E-009  0.4614232E+02  0.7816164E-02  0.1320468E+00
        -11   -1    0    0    0    0  0.00000000000E+00  0.00000000000E+00  0.45593999997E+02  0.45594000000E+02  0.51100000000E-03 0. -1.
         11   -1    0    0    0    0 -0.00000000000E+00 -0.00000000000E+00 -0.45593999997E+02  0.45594000000E+02  0.51100000000E-03 0.  1.
    9900012    2    1    2    0    0 -0.10064244603E+02 -0.17784122891E+02  0.40144108522E+02  0.46142317682E+02  0.99999992819E+01 0.  0.
        -12    1    1    2    0    0  0.10064244603E+02  0.17784122891E+02 -0.40144108522E+02  0.45045682318E+02  0.00000000000E+00 0.  1.
         11    1    3    3    0    0 -0.68768970098E+01 -0.58561042964E+01  0.21618892188E+02  0.23429941735E+02  0.51100000000E-03 0. -1.
        -11    1    3    3    0    0 -0.40583422580E+01 -0.88577126034E+01  0.15543619618E+02  0.18344844658E+02  0.51100000000E-03 0.  1.
        -12    1    3    3    0    0  0.87099466462E+00 -0.30703059908E+01  0.29815967168E+01  0.43675312894E+01  0.00000000000E+00 0.  1.
</event>
<event>
 7    1  0.5664398E-009  0.4614232E+02  0.7816164E-02  0.1320468E+00
        -11   -1    0    0    0    0  0.00000000000E+00  0.00000000000E+00  0.45593999997E+02  0.45594000000E+02  0.51100000000E-03 0. -1.
         11   -1    0    0    0    0 -0.00000000000E+00 -0.00000000000E+00 -0.45593999997E+02  0.45594000000E+02  0.51100000000E-03 0.  1.
    9900012    2    1    2    0    0  0.71557218692E+01 -0.14960202665E+02 -0.41881993167E+02  0.46142319066E+02  0.10000011895E+02 0.  0.
         12    1    1    2    0    0 -0.71557218692E+01  0.14960202665E+02  0.41881993167E+02  0.45045680934E+02  0.00000000000E+00 0. -1.
         11    1    3    3    0    0  0.67420343176E+01 -0.57008407599E+01 -0.16555495654E+02  0.18762703662E+02  0.51100000000E-03 0. -1.
        -11    1    3    3    0    0  0.21183854899E+01 -0.68837762358E+01 -0.20589567199E+02  0.21812936759E+02  0.51100000000E-03 0.  1.
        -12    1    3    3    0    0 -0.17046979382E+01 -0.23755856694E+01 -0.47369303139E+01  0.55666786446E+01  0.00000000000E+00 0.  1.
</event>
<event>
 7    1  0.5664398E-009  0.4614232E+02  0.7816164E-02  0.1320468E+00
        -11   -1    0    0    0    0  0.00000000000E+00  0.00000000000E+00  0.45593999997E+02  0.45594000000E+02  0.51100000000E-03 0. -1.
         11   -1    0    0    0    0 -0.00000000000E+00 -0.00000000000E+00 -0.45593999997E+02  0.45594000000E+02  0.51100000000E-03 0.  1.
    9900012    2    1    2    0    0 -0.39774670123E+02  0.20114771551E+02 -0.65180539349E+01  0.46142318242E+02  0.10000004384E+02 0.  0.
         12    1    1    2    0    0  0.39774670123E+02 -0.20114771551E+02  0.65180539349E+01  0.45045681758E+02  0.00000000000E+00 0. -1.
         11    1    3    3    0    0 -0.28853606586E+01 -0.73269814243E+00 -0.62551972581E+00  0.30419447540E+01  0.51100000000E-03 0. -1.
        -11    1    3    3    0    0 -0.24806925081E+02  0.11213166116E+02 -0.43743855299E+01  0.27572701633E+02  0.51100000000E-03 0.  1.
        -12    1    3    3    0    0 -0.12082384384E+02  0.96343035777E+01 -0.15181486792E+01  0.15527671855E+02  0.00000000000E+00 0.  1.
</event>
<event>
 7    1  0.5664398E-009  0.4614232E+02  0.7816164E-02  0.1320468E+00
        -11   -1    0    0    0    0  0.00000000000E+00  0.00000000000E+00  0.45593999997E+02  0.45594000000E+02  0.51100000000E-03 0. -1.
         11   -1    0    0    0    0 -0.00000000000E+00 -0.00000000000E+00 -0.45593999997E+02  0.45594000000E+02  0.51100000000E-03 0.  1.
    9900012    2    1    2    0    0 -0.26391712444E+02  0.22379268137E+02 -0.28840236440E+02  0.46142319119E+02  0.10000012383E+02 0.  0.
         12    1    1    2    0    0  0.26391712444E+02 -0.22379268137E+02  0.28840236440E+02  0.45045680881E+02  0.00000000000E+00 0. -1.
         11    1    3    3    0    0 -0.80578995259E+01  0.84597991848E+01 -0.70314550881E+01  0.13635956436E+02  0.51100000000E-03 0. -1.
        -11    1    3    3    0    0 -0.28829170389E+01  0.44860512093E+01 -0.85133706537E+01  0.10045563511E+02  0.51100000000E-03 0.  1.
        -12    1    3    3    0    0 -0.15450895879E+02  0.94334177432E+01 -0.13295410698E+02  0.22460799172E+02  0.00000000000E+00 0.  1.
</event>
<event>
 7    1  0.5664398E-009  0.4614232E+02  0.7816164E-02  0.1320468E+00
        -11   -1    0    0    0    0  0.00000000000E+00  0.00000000000E+00  0.45593999997E+02  0.45594000000E+02  0.51100000000E-03 0. -1.
         11   -1    0    0    0    0 -0.00000000000E+00 -0.00000000000E+00 -0.45593999997E+02  0.45594000000E+02  0.51100000000E-03 0.  1.
    9900012    2    1    2    0    0  0.18323257209E+02 -0.19986397189E+02  0.35971039118E+02  0.46142317825E+02  0.10000000587E+02 0.  0.
        -12    1    1    2    0    0 -0.18323257209E+02  0.19986397189E+02 -0.35971039118E+02  0.45045682175E+02  0.00000000000E+00 0.  1.
         11    1    3    3    0    0  0.12341750765E+02 -0.16119204545E+02  0.28854178322E+02  0.35280464481E+02  0.51100000000E-03 0. -1.
        -11    1    3    3    0    0  0.42994060355E+01 -0.11458591054E+01  0.60073127667E+01  0.74756733667E+01  0.51100000000E-03 0.  1.
        -12    1    3    3    0    0  0.16821004085E+01 -0.27213335381E+01  0.11095480291E+01  0.33861799773E+01  0.00000000000E+00 0.  1.
</event>
<event>
 7    1  0.5664398E-009  0.4614232E+02  0.7816164E-02  0.1320468E+00
        -11   -1    0    0    0    0  0.00000000000E+00  0.00000000000E+00  0.45593999997E+02  0.45594000000E+02  0.51100000000E-03 0. -1.
         11   -1    0    0    0    0 -0.00000000000E+00 -0.00000000000E+00 -0.45593999997E+02  0.45594000000E+02  0.51100000000E-03 0.  1.
    9900012    2    1    2    0    0  0.42408527257E+02 -0.12605083703E+02 -0.84700723884E+01  0.46142318237E+02  0.10000004338E+02 0.  0.
         12    1    1    2    0    0 -0.42408527257E+02  0.12605083703E+02  0.84700723884E+01  0.45045681763E+02  0.00000000000E+00 0. -1.
         11    1    3    3    0    0  0.10448991271E+02 -0.62977790509E+01 -0.28175806636E+01  0.12521269928E+02  0.51100000000E-03 0. -1.
        -11    1    3    3    0    0  0.12570603302E+02 -0.48337274666E+01 -0.42634863665E+01  0.14126652287E+02  0.51100000000E-03 0.  1.
        -12    1    3    3    0    0  0.19388932684E+02 -0.14735771853E+01 -0.13890053583E+01  0.19494396021E+02  0.00000000000E+00 0.  1.
</event>
<event>
 7    1  0.7944102E-009  0.4614231E+02  0.7816164E-02  0.1320468E+00
        -11   -1    0    0    0    0  0.00000000000E+00  0.00000000000E+00  0.45593999997E+02  0.45594000000E+02  0.51100000000E-03 0. -1.
         11   -1    0    0    0    0 -0.00000000000E+00 -0.00000000000E+00 -0.45593999997E+02  0.45594000000E+02  0.51100000000E-03 0.  1.
    9900012    2    1    2    0    0 -0.21198838261E+02  0.20680203302E+02 -0.33941895383E+02  0.46142314142E+02  0.99999669959E+01 0.  0.
         12    1    1    2    0    0  0.21198838261E+02 -0.20680203302E+02  0.33941895383E+02  0.45045685858E+02  0.00000000000E+00 0. -1.
         11    1    3    3    0    0  0.25852363585E+00  0.57404081894E+00 -0.27040696096E+01  0.27763915514E+01  0.51100000000E-03 0. -1.
        -11    1    3    3    0    0 -0.13248206472E+01  0.11635949305E+01 -0.48073893554E+01  0.51205561793E+01  0.51100000000E-03 0.  1.
        -12    1    3    3    0    0 -0.20132541250E+02  0.18942567553E+02 -0.26430436418E+02  0.38245366411E+02  0.00000000000E+00 0.  1.
</event>
<event>
 7    1  0.5664398E-009  0.4614232E+02  0.7816164E-02  0.1320468E+00
        -11   -1    0    0    0    0  0.00000000000E+00  0.00000000000E+00  0.45593999997E+02  0.45594000000E+02  0.51100000000E-03 0. -1.
         11   -1    0    0    0    0 -0.00000000000E+00 -0.00000000000E+00 -0.45593999997E+02  0.45594000000E+02  0.51100000000E-03 0.  1.
    9900012    2    1    2    0    0 -0.29317702091E+00 -0.29525670322E+02 -0.34018559816E+02  0.46142316825E+02  0.99999914632E+01 0.  0.
         12    1    1    2    0    0  0.29317702091E+00  0.29525670322E+02  0.34018559816E+02  0.45045683175E+02  0.00000000000E+00 0. -1.
         11    1    3    3    0    0  0.25023706378E+01 -0.26046998535E+02 -0.29631054893E+02  0.39531094164E+02  0.51100000000E-03 0. -1.
        -11    1    3    3    0    0 -0.50670740125E-01 -0.66160744789E+00 -0.17604724019E+01  0.18813705849E+01  0.51100000000E-03 0.  1.
         12    1    3    3    0    0 -0.27448769186E+01 -0.28170643398E+01 -0.26270325212E+01  0.47298520759E+01  0.00000000000E+00 0. -1.
</event>
<event>
 7    1  0.5664398E-009  0.4614232E+02  0.7816164E-02  0.1320468E+00
        -11   -1    0    0    0    0  0.00000000000E+00  0.00000000000E+00  0.45593999997E+02  0.45594000000E+02  0.51100000000E-03 0. -1.
         11   -1    0    0    0    0 -0.00000000000E+00 -0.00000000000E+00 -0.45593999997E+02  0.45594000000E+02  0.51100000000E-03 0.  1.
    9900012    2    1    2    0    0  0.30714850518E+02 -0.14962237438E+01 -0.32916147761E+02  0.46142317507E+02  0.99999976817E+01 0.  0.
         12    1    1    2    0    0 -0.30714850518E+02  0.14962237438E+01  0.32916147761E+02  0.45045682493E+02  0.00000000000E+00 0. -1.
         11    1    3    3    0    0  0.16553780762E+02  0.10466727723E+01 -0.13734068322E+02  0.21534804721E+02  0.51100000000E-03 0. -1.
        -11    1    3    3    0    0  0.12150701209E+02 -0.30291435130E+01 -0.12834815142E+02  0.17931752014E+02  0.51100000000E-03 0.  1.
        -12    1    3    3    0    0  0.20103685468E+01  0.48624699693E+00 -0.63472642967E+01  0.66757607723E+01  0.00000000000E+00 0.  1.
</event>
<event>
 7    1  0.5664398E-009  0.4614232E+02  0.7816164E-02  0.1320468E+00
        -11   -1    0    0    0    0  0.00000000000E+00  0.00000000000E+00  0.45593999997E+02  0.45594000000E+02  0.51100000000E-03 0. -1.
         11   -1    0    0    0    0 -0.00000000000E+00 -0.00000000000E+00 -0.45593999997E+02  0.45594000000E+02  0.51100000000E-03 0.  1.
    9900012    2    1    2    0    0 -0.30134584078E+00 -0.39027241330E+01  0.44875289474E+02  0.46142315741E+02  0.99999815805E+01 0.  0.
        -12    1    1    2    0    0  0.30134584078E+00  0.39027241330E+01 -0.44875289474E+02  0.45045684259E+02  0.00000000000E+00 0.  1.
         11    1    3    3    0    0 -0.48909249173E+00 -0.40027659879E+00  0.85665843345E+00  0.10645641144E+01  0.51100000000E-03 0.  1.
        -11    1    3    3    0    0  0.54135355743E-01  0.26613822622E+01  0.23572097633E+02  0.23721923895E+02  0.51100000000E-03 0. -1.
         12    1    3    3    0    0  0.13361129521E+00 -0.61638297964E+01  0.20446533407E+02  0.21355827732E+02  0.00000000000E+00 0. -1.
</event>
<event>
 7    1  0.5664398E-009  0.4614232E+02  0.7816164E-02  0.1320468E+00
        -11   -1    0    0    0    0  0.00000000000E+00  0.00000000000E+00  0.45593999997E+02  0.45594000000E+02  0.51100000000E-03 0. -1.
         11   -1    0    0    0    0 -0.00000000000E+00 -0.00000000000E+00 -0.45593999997E+02  0.45594000000E+02  0.51100000000E-03 0.  1.
    9900012    2    1    2    0    0  0.14029298365E+02  0.27092520841E+02 -0.33140420232E+02  0.46142319282E+02  0.10000013872E+02 0.  0.
         12    1    1    2    0    0 -0.14029298365E+02 -0.27092520841E+02  0.33140420232E+02  0.45045680718E+02  0.00000000000E+00 0. -1.
         11    1    3    3    0    0 -0.28116022948E+00 -0.38120577533E+00 -0.24269825647E+01  0.24727744637E+01  0.51100000000E-03 0. -1.
        -11    1    3    3    0    0  0.32804717383E+01  0.51036460954E+01 -0.52054880614E+01  0.79941106142E+01  0.51100000000E-03 0.  1.
         12    1    3    3    0    0  0.11029986856E+02  0.22370080521E+02 -0.25507949606E+02  0.35675434205E+02  0.00000000000E+00 0. -1.
</event>
<event>
 7    1  0.5664398E-009  0.4614232E+02  0.7816164E-02  0.1320468E+00
        -11   -1    0    0    0    0  0.00000000000E+00  0.00000000000E+00  0.45593999997E+02  0.45594000000E+02  0.51100000000E-03 0. -1.
         11   -1    0    0    0    0 -0.00000000000E+00 -0.00000000000E+00 -0.45593999997E+02  0.45594000000E+02  0.51100000000E-03 0.  1.
    9900012    2    1    2    0    0  0.99142240963E+00 -0.40867483028E+02 -0.18920342617E+02  0.46142318163E+02  0.10000003663E+02 0.  0.
         12    1    1    2    0    0 -0.99142240963E+00  0.40867483028E+02  0.18920342617E+02  0.45045681837E+02  0.00000000000E+00 0. -1.
         11    1    3    3    0    0  0.38429773431E+01 -0.16060908357E+02 -0.55367788173E+01  0.17417725800E+02  0.51100000000E-03 0. -1.
        -11    1    3    3    0    0 -0.12125354253E+01 -0.46349564684E+01 -0.46697890752E+01  0.66902910169E+01  0.51100000000E-03 0.  1.
        -12    1    3    3    0    0 -0.16390195082E+01 -0.20171618202E+02 -0.87137747247E+01  0.22034301346E+02  0.00000000000E+00 0.  1.
</event>
<event>
 7    1  0.5664398E-009  0.4614232E+02  0.7816164E-02  0.1320468E+00
        -11   -1    0    0    0    0  0.00000000000E+00  0.00000000000E+00  0.45593999997E+02  0.45594000000E+02  0.51100000000E-03 0. -1.
         11   -1    0    0    0    0 -0.00000000000E+00 -0.00000000000E+00 -0.45593999997E+02  0.45594000000E+02  0.51100000000E-03 0.  1.
    9900012    2    1    2    0    0 -0.20005772920E+02  0.18929696470E+02 -0.35644763471E+02  0.46142317394E+02  0.99999966500E+01 0.  0.
         12    1    1    2    0    0  0.20005772920E+02 -0.18929696470E+02  0.35644763471E+02  0.45045682606E+02  0.00000000000E+00 0. -1.
         11    1    3    3    0    0 -0.52427678981E+01  0.42587130879E+01 -0.86068392273E+01  0.10940792208E+02  0.51100000000E-03 0. -1.
        -11    1    3    3    0    0 -0.13437873026E+02  0.78344531020E+01 -0.19390861778E+02  0.24858813480E+02  0.51100000000E-03 0.  1.
         12    1    3    3    0    0 -0.13251319963E+01  0.68365302802E+01 -0.76470624651E+01  0.10342711706E+02  0.00000000000E+00 0. -1.
</event>
<event>
 7    1  0.5664398E-009  0.4614232E+02  0.7816164E-02  0.1320468E+00
        -11   -1    0    0    0    0  0.00000000000E+00  0.00000000000E+00  0.45593999997E+02  0.45594000000E+02  0.51100000000E-03 0. -1.
         11   -1    0    0    0    0 -0.00000000000E+00 -0.00000000000E+00 -0.45593999997E+02  0.45594000000E+02  0.51100000000E-03 0.  1.
    9900012    2    1    2    0    0  0.25495126039E+02 -0.15309864655E+02  0.33833712175E+02  0.46142317776E+02  0.10000000133E+02 0.  0.
        -12    1    1    2    0    0 -0.25495126039E+02  0.15309864655E+02 -0.33833712175E+02  0.45045682224E+02  0.00000000000E+00 0.  1.
         11    1    3    3    0    0  0.14942625585E+02 -0.83396607567E+01  0.20339316968E+02  0.26580440476E+02  0.51100000000E-03 0. -1.
        -11    1    3    3    0    0  0.94711602859E+01 -0.28644685746E+01  0.89390517930E+01  0.13334718017E+02  0.51100000000E-03 0.  1.
        -12    1    3    3    0    0  0.10813401679E+01 -0.41057353238E+01  0.45553434138E+01  0.62271592822E+01  0.00000000000E+00 0.  1.
</event>
<event>
 7    1  0.5664398E-009  0.4614232E+02  0.7816164E-02  0.1320468E+00
        -11   -1    0    0    0    0  0.00000000000E+00  0.00000000000E+00  0.45593999997E+02  0.45594000000E+02  0.51100000000E-03 0. -1.
         11   -1    0    0    0    0 -0.00000000000E+00 -0.00000000000E+00 -0.45593999997E+02  0.45594000000E+02  0.51100000000E-03 0.  1.
    9900012    2    1    2    0    0  0.35730540385E+02  0.81940774358E+01  0.26178216463E+02  0.46142318315E+02  0.10000005054E+02 0.  0.
        -12    1    1    2    0    0 -0.35730540385E+02 -0.81940774358E+01 -0.26178216463E+02  0.45045681685E+02  0.00000000000E+00 0.  1.
         11    1    3    3    0    0  0.97906208056E+01 -0.91509169845E+00  0.48009852770E+01  0.10942719427E+02  0.51100000000E-03 0. -1.
        -11    1    3    3    0    0  0.24694478125E+02  0.80736509375E+01  0.18488266786E+02  0.31887569652E+02  0.51100000000E-03 0.  1.
        -12    1    3    3    0    0  0.12454414550E+01  0.10355181968E+01  0.28889643998E+01  0.33120292356E+01  0.00000000000E+00 0.  1.
</event>
<event>
 7    1  0.5664398E-009  0.4614232E+02  0.7816164E-02  0.1320468E+00
        -11   -1    0    0    0    0  0.00000000000E+00  0.00000000000E+00  0.45593999997E+02  0.45594000000E+02  0.51100000000E-03 0. -1.
         11   -1    0    0    0    0 -0.00000000000E+00 -0.00000000000E+00 -0.45593999997E+02  0.45594000000E+02  0.51100000000E-03 0.  1.
    9900012    2    1    2    0    0 -0.11438941678E+02 -0.55998398188E+01 -0.43207708131E+02  0.46142316137E+02  0.99999851897E+01 0.  0.
         12    1    1    2    0    0  0.11438941678E+02  0.55998398188E+01  0.43207708131E+02  0.45045683863E+02  0.00000000000E+00 0. -1.
         11    1    3    3    0    0 -0.22024275955E+00 -0.54551676653E+00 -0.24336749822E+00  0.63665015197E+00  0.51100000000E-03 0. -1.
        -11    1    3    3    0    0 -0.12398374400E+02 -0.33529879601E+01 -0.35198875805E+02  0.37468961478E+02  0.51100000000E-03 0.  1.
         12    1    3    3    0    0  0.11796754815E+01 -0.17013350921E+01 -0.77654648279E+01  0.80367045068E+01  0.00000000000E+00 0. -1.
</event>
<event>
 7    1  0.5664398E-009  0.4614232E+02  0.7816164E-02  0.1320468E+00
        -11   -1    0    0    0    0  0.00000000000E+00  0.00000000000E+00  0.45593999997E+02  0.45594000000E+02  0.51100000000E-03 0. -1.
         11   -1    0    0    0    0 -0.00000000000E+00 -0.00000000000E+00 -0.45593999997E+02  0.45594000000E+02  0.51100000000E-03 0.  1.
    9900012    2    1    2    0    0  0.22452634926E+02  0.22253918069E+01  0.38987693255E+02  0.46142318640E+02  0.10000008015E+02 0.  0.
        -12    1    1    2    0    0 -0.22452634926E+02 -0.22253918069E+01 -0.38987693255E+02  0.45045681360E+02  0.00000000000E+00 0.  1.
         11    1    3    3    0    0  0.95963305165E+01  0.49488188673E+01  0.13781944287E+02  0.17507779875E+02  0.51100000000E-03 0.  1.
        -11    1    3    3    0    0  0.61758209443E+01 -0.19033684644E+01  0.15783186547E+02  0.17054986182E+02  0.51100000000E-03 0. -1.
        -12    1    3    3    0    0  0.66804834651E+01 -0.82005859597E+00  0.94225624222E+01  0.11579552583E+02  0.00000000000E+00 0.  1.
</event>
<event>
 7    1  0.5664398E-009  0.4614232E+02  0.7816164E-02  0.1320468E+00
        -11   -1    0    0    0    0  0.00000000000E+00  0.00000000000E+00  0.45593999997E+02  0.45594000000E+02  0.51100000000E-03 0. -1.
         11   -1    0    0    0    0 -0.00000000000E+00 -0.00000000000E+00 -0.45593999997E+02  0.45594000000E+02  0.51100000000E-03 0.  1.
    9900012    2    1    2    0    0  0.43739708975E+01 -0.11291797015E+01 -0.44818598069E+02  0.46142318730E+02  0.10000008838E+02 0.  0.
         12    1    1    2    0    0 -0.43739708975E+01  0.11291797015E+01  0.44818598069E+02  0.45045681270E+02  0.00000000000E+00 0. -1.
         11    1    3    3    0    0  0.30565327404E+01  0.10433138536E+01 -0.14286517647E+02  0.14647029833E+02  0.51100000000E-03 0. -1.
        -11    1    3    3    0    0  0.42692855384E+01 -0.11140596881E+01 -0.21072754906E+02  0.21529721958E+02  0.51100000000E-03 0.  1.
         12    1    3    3    0    0 -0.29518473813E+01 -0.10584338670E+01 -0.94593255152E+01  0.99655669390E+01  0.00000000000E+00 0. -1.
</event>
<event>
 7    1  0.5813566E-009  0.4614232E+02  0.7816164E-02  0.1320468E+00
        -11   -1    0    0    0    0  0.00000000000E+00  0.00000000000E+00  0.45593999997E+02  0.45594000000E+02  0.51100000000E-03 0.  1.
         11   -1    0    0    0    0 -0.00000000000E+00 -0.00000000000E+00 -0.45593999997E+02  0.45594000000E+02  0.51100000000E-03 0. -1.
    9900012    2    1    2    0    0 -0.44932648606E+01  0.14669105053E+02  0.42352584897E+02  0.46142317415E+02  0.99999968398E+01 0.  0.
        -12    1    1    2    0    0  0.44932648606E+01 -0.14669105053E+02 -0.42352584897E+02  0.45045682585E+02  0.00000000000E+00 0.  1.
         11    1    3    3    0    0  0.77007729352E+00  0.17173883820E+01  0.10830395246E+01  0.21715010398E+01  0.51100000000E-03 0. -1.
        -11    1    3    3    0    0  0.95240453954E+00  0.18148168072E+01  0.98566707342E+01  0.10067501809E+02  0.51100000000E-03 0.  1.
         12    1    3    3    0    0 -0.62157466937E+01  0.11136899863E+02  0.31412874638E+02  0.33903314566E+02  0.00000000000E+00 0. -1.
</event>
<event>
 7    1  0.5664398E-009  0.4614232E+02  0.7816164E-02  0.1320468E+00
        -11   -1    0    0    0    0  0.00000000000E+00  0.00000000000E+00  0.45593999997E+02  0.45594000000E+02  0.51100000000E-03 0. -1.
         11   -1    0    0    0    0 -0.00000000000E+00 -0.00000000000E+00 -0.45593999997E+02  0.45594000000E+02  0.51100000000E-03 0.  1.
    9900012    2    1    2    0    0 -0.28203564558E+02  0.10235970049E+02 -0.33599067751E+02  0.46142317739E+02  0.99999998012E+01 0.  0.
         12    1    1    2    0    0  0.28203564558E+02 -0.10235970049E+02  0.33599067751E+02  0.45045682261E+02  0.00000000000E+00 0. -1.
         11    1    3    3    0    0 -0.39233111724E+00  0.10893916140E+01 -0.18837122993E+01  0.22111241670E+01  0.51100000000E-03 0. -1.
        -11    1    3    3    0    0 -0.24610036731E+02  0.51122856173E+01 -0.27671927638E+02  0.37383485012E+02  0.51100000000E-03 0.  1.
        -12    1    3    3    0    0 -0.32011967094E+01  0.40342928182E+01 -0.40434278129E+01  0.65477085605E+01  0.00000000000E+00 0.  1.
</event>
<event>
 7    1  0.5664398E-009  0.4614232E+02  0.7816164E-02  0.1320468E+00
        -11   -1    0    0    0    0  0.00000000000E+00  0.00000000000E+00  0.45593999997E+02  0.45594000000E+02  0.51100000000E-03 0. -1.
         11   -1    0    0    0    0 -0.00000000000E+00 -0.00000000000E+00 -0.45593999997E+02  0.45594000000E+02  0.51100000000E-03 0.  1.
    9900012    2    1    2    0    0  0.25593124698E+02 -0.31671290626E+02 -0.19262264660E+02  0.46142317393E+02  0.99999966406E+01 0.  0.
         12    1    1    2    0    0 -0.25593124698E+02  0.31671290626E+02  0.19262264660E+02  0.45045682607E+02  0.00000000000E+00 0. -1.
         11    1    3    3    0    0  0.68151119287E+01 -0.13102992511E+02 -0.84595184614E+01  0.17020505757E+02  0.51100000000E-03 0. -1.
        -11    1    3    3    0    0  0.12305864028E+02 -0.14857355408E+02 -0.96566652156E+01  0.21573745214E+02  0.51100000000E-03 0.  1.
         12    1    3    3    0    0  0.64721487407E+01 -0.37109427069E+01 -0.11460809832E+01  0.75480664223E+01  0.00000000000E+00 0. -1.
</event>
<event>
 7    1  0.5664398E-009  0.4614233E+02  0.7816164E-02  0.1320468E+00
        -11   -1    0    0    0    0  0.00000000000E+00  0.00000000000E+00  0.45593999997E+02  0.45594000000E+02  0.51100000000E-03 0. -1.
         11   -1    0    0    0    0 -0.00000000000E+00 -0.00000000000E+00 -0.45593999997E+02  0.45594000000E+02  0.51100000000E-03 0.  1.
    9900012    2    1    2    0    0 -0.17517893131E+02  0.12537303777E+02 -0.39560731403E+02  0.46142333894E+02  0.10000147114E+02 0.  0.
         12    1    1    2    0    0  0.17517893131E+02 -0.12537303777E+02  0.39560731403E+02  0.45045666106E+02  0.00000000000E+00 0. -1.
         11    1    3    3    0    0 -0.22975914108E+01 -0.32079085516E+00 -0.38884463571E+01  0.45278966858E+01  0.51100000000E-03 0. -1.
        -11    1    3    3    0    0 -0.23743330203E+01  0.13614392240E+01 -0.10385331274E+01  0.29273751672E+01  0.51100000000E-03 0.  1.
        -12    1    3    3    0    0 -0.12845968700E+02  0.11496655408E+02 -0.34633751919E+02  0.38687062041E+02  0.00000000000E+00 0.  1.
</event>
<event>
 7    1  0.5664398E-009  0.4614232E+02  0.7816164E-02  0.1320468E+00
        -11   -1    0    0    0    0  0.00000000000E+00  0.00000000000E+00  0.45593999997E+02  0.45594000000E+02  0.51100000000E-03 0. -1.
         11   -1    0    0    0    0 -0.00000000000E+00 -0.00000000000E+00 -0.45593999997E+02  0.45594000000E+02  0.51100000000E-03 0.  1.
    9900012    2    1    2    0    0 -0.25591583830E+02 -0.37069293663E+02  0.22771032896E+00  0.46142317104E+02  0.99999940100E+01 0.  0.
        -12    1    1    2    0    0  0.25591583830E+02  0.37069293663E+02 -0.22771032896E+00  0.45045682896E+02  0.00000000000E+00 0.  1.
         11    1    3    3    0    0 -0.36043508530E+01 -0.26484359959E+01  0.93344757083E+00  0.45691227741E+01  0.51100000000E-03 0. -1.
        -11    1    3    3    0    0 -0.14567631151E+02 -0.16742801038E+02 -0.24200556780E+01  0.22324738156E+02  0.51100000000E-03 0.  1.
         12    1    3    3    0    0 -0.74196018252E+01 -0.17678056628E+02  0.17143184362E+01  0.19248456175E+02  0.00000000000E+00 0. -1.
</event>
<event>
 7    1  0.5664398E-009  0.4614232E+02  0.7816164E-02  0.1320468E+00
        -11   -1    0    0    0    0  0.00000000000E+00  0.00000000000E+00  0.45593999997E+02  0.45594000000E+02  0.51100000000E-03 0. -1.
         11   -1    0    0    0    0 -0.00000000000E+00 -0.00000000000E+00 -0.45593999997E+02  0.45594000000E+02  0.51100000000E-03 0.  1.
    9900012    2    1    2    0    0 -0.22130448352E+01 -0.17634205629E+02  0.41391433016E+02  0.46142317602E+02  0.99999985470E+01 0.  0.
        -12    1    1    2    0    0  0.22130448352E+01  0.17634205629E+02 -0.41391433016E+02  0.45045682398E+02  0.00000000000E+00 0.  1.
         11    1    3    3    0    0 -0.15933364827E+01 -0.63433068380E+01  0.11397876068E+02  0.13141074610E+02  0.51100000000E-03 0. -1.
        -11    1    3    3    0    0 -0.10529468686E+01 -0.66801953488E+01  0.26066094865E+02  0.26929073671E+02  0.51100000000E-03 0.  1.
        -12    1    3    3    0    0  0.43323851615E+00 -0.46107034424E+01  0.39274620830E+01  0.60721693207E+01  0.00000000000E+00 0.  1.
</event>
<event>
 7    1  0.5664398E-009  0.4614232E+02  0.7816164E-02  0.1320468E+00
        -11   -1    0    0    0    0  0.00000000000E+00  0.00000000000E+00  0.45593999997E+02  0.45594000000E+02  0.51100000000E-03 0. -1.
         11   -1    0    0    0    0 -0.00000000000E+00 -0.00000000000E+00 -0.45593999997E+02  0.45594000000E+02  0.51100000000E-03 0.  1.
    9900012    2    1    2    0    0  0.26028594291E+01 -0.43000455225E+02 -0.13164326717E+02  0.46142317358E+02  0.99999963236E+01 0.  0.
         12    1    1    2    0    0 -0.26028594291E+01  0.43000455225E+02  0.13164326717E+02  0.45045682642E+02  0.00000000000E+00 0. -1.
         11    1    3    3    0    0 -0.16881225622E+01 -0.37109086846E+01  0.19594636926E+00  0.40815433712E+01  0.51100000000E-03 0. -1.
        -11    1    3    3    0    0 -0.10729764673E+01 -0.35159046972E+01 -0.17368453496E+01  0.40656483332E+01  0.51100000000E-03 0.  1.
        -12    1    3    3    0    0  0.53639584586E+01 -0.35773641843E+02 -0.11623427737E+02  0.37995125654E+02  0.00000000000E+00 0.  1.
</event>
<event>
 7    1  0.5664398E-009  0.4614232E+02  0.7816164E-02  0.1320468E+00
        -11   -1    0    0    0    0  0.00000000000E+00  0.00000000000E+00  0.45593999997E+02  0.45594000000E+02  0.51100000000E-03 0.  1.
         11   -1    0    0    0    0 -0.00000000000E+00 -0.00000000000E+00 -0.45593999997E+02  0.45594000000E+02  0.51100000000E-03 0. -1.
    9900012    2    1    2    0    0 -0.44924612809E+02 -0.23109468741E+01  0.23563062374E+01  0.46142317736E+02  0.99999997756E+01 0.  0.
         12    1    1    2    0    0  0.44924612809E+02  0.23109468741E+01 -0.23563062374E+01  0.45045682264E+02  0.00000000000E+00 0. -1.
         11    1    3    3    0    0 -0.19124848106E+02  0.24380929836E+01  0.95356761907E+00  0.19303196729E+02  0.51100000000E-03 0. -1.
        -11    1    3    3    0    0 -0.20767330000E+02 -0.46812008764E+01  0.31317496434E+01  0.21517515959E+02  0.51100000000E-03 0.  1.
         12    1    3    3    0    0 -0.50324347034E+01 -0.67838981281E-01 -0.17290110251E+01  0.53216050489E+01  0.00000000000E+00 0. -1.
</event>
<event>
 7    1  0.5664398E-009  0.4614233E+02  0.7816164E-02  0.1320468E+00
        -11   -1    0    0    0    0  0.00000000000E+00  0.00000000000E+00  0.45593999997E+02  0.45594000000E+02  0.51100000000E-03 0. -1.
         11   -1    0    0    0    0 -0.00000000000E+00 -0.00000000000E+00 -0.45593999997E+02  0.45594000000E+02  0.51100000000E-03 0.  1.
    9900012    2    1    2    0    0 -0.19043114067E+00  0.42568328561E+02  0.14731380552E+02  0.46142329471E+02  0.10000106775E+02 0.  0.
        -12    1    1    2    0    0  0.19043114067E+00 -0.42568328561E+02 -0.14731380552E+02  0.45045670529E+02  0.00000000000E+00 0.  1.
         11    1    3    3    0    0  0.13638506124E+01  0.37448703953E+02  0.14427882978E+02  0.40155065978E+02  0.51100000000E-03 0. -1.
        -11    1    3    3    0    0  0.62416590619E+00  0.87110132161E+00  0.55372465048E+00  0.12062387163E+01  0.51100000000E-03 0.  1.
        -12    1    3    3    0    0 -0.21784476593E+01  0.42485232863E+01 -0.25022707621E+00  0.47810247759E+01  0.00000000000E+00 0.  1.
</event>
<event>
 7    1  0.5664398E-009  0.4614232E+02  0.7816164E-02  0.1320468E+00
        -11   -1    0    0    0    0  0.00000000000E+00  0.00000000000E+00  0.45593999997E+02  0.45594000000E+02  0.51100000000E-03 0. -1.
         11   -1    0    0    0    0 -0.00000000000E+00 -0.00000000000E+00 -0.45593999997E+02  0.45594000000E+02  0.51100000000E-03 0.  1.
    9900012    2    1    2    0    0 -0.37354304145E+02 -0.24565319099E+02 -0.55058644294E+01  0.46142317813E+02  0.10000000469E+02 0.  0.
         12    1    1    2    0    0  0.37354304145E+02  0.24565319099E+02  0.55058644294E+01  0.45045682187E+02  0.00000000000E+00 0. -1.
         11    1    3    3    0    0 -0.13175017520E+02 -0.86313415489E+01 -0.51005735791E+01  0.16555874929E+02  0.51100000000E-03 0. -1.
        -11    1    3    3    0    0 -0.11288773419E+02 -0.42048606195E+01  0.10824149221E+01  0.12094994025E+02  0.51100000000E-03 0.  1.
        -12    1    3    3    0    0 -0.12890513206E+02 -0.11729116931E+02 -0.14877057724E+01  0.17491448858E+02  0.00000000000E+00 0.  1.
</event>
<event>
 7    1  0.5664398E-009  0.4614232E+02  0.7816164E-02  0.1320468E+00
        -11   -1    0    0    0    0  0.00000000000E+00  0.00000000000E+00  0.45593999997E+02  0.45594000000E+02  0.51100000000E-03 0. -1.
         11   -1    0    0    0    0 -0.00000000000E+00 -0.00000000000E+00 -0.45593999997E+02  0.45594000000E+02  0.51100000000E-03 0.  1.
    9900012    2    1    2    0    0 -0.32310523463E+02  0.63566880413E+01 -0.30736559510E+02  0.46142317634E+02  0.99999988405E+01 0.  0.
         12    1    1    2    0    0  0.32310523463E+02 -0.63566880413E+01  0.30736559510E+02  0.45045682366E+02  0.00000000000E+00 0. -1.
         11    1    3    3    0    0 -0.13319859784E+02 -0.87524231588E+00 -0.10476535843E+02  0.16968869064E+02  0.51100000000E-03 0. -1.
        -11    1    3    3    0    0 -0.19211018488E+02  0.74219453943E+01 -0.20249395335E+02  0.28882287244E+02  0.51100000000E-03 0.  1.
        -12    1    3    3    0    0  0.22035480889E+00 -0.19001503713E+00 -0.10628332306E-01  0.29116132570E+00  0.00000000000E+00 0.  1.
</event>
<event>
 7    1  0.5664398E-009  0.4614232E+02  0.7816164E-02  0.1320468E+00
        -11   -1    0    0    0    0  0.00000000000E+00  0.00000000000E+00  0.45593999997E+02  0.45594000000E+02  0.51100000000E-03 0. -1.
         11   -1    0    0    0    0 -0.00000000000E+00 -0.00000000000E+00 -0.45593999997E+02  0.45594000000E+02  0.51100000000E-03 0.  1.
    9900012    2    1    2    0    0  0.34700482599E+02 -0.28570239150E+02 -0.29549102252E+01  0.46142317054E+02  0.99999935498E+01 0.  0.
        -12    1    1    2    0    0 -0.34700482599E+02  0.28570239150E+02  0.29549102252E+01  0.45045682946E+02  0.00000000000E+00 0.  1.
         11    1    3    3    0    0  0.11489524516E+02 -0.11730309510E+02 -0.16927925756E+01  0.16506813192E+02  0.51100000000E-03 0. -1.
        -11    1    3    3    0    0  0.15538415449E+02 -0.14434938672E+02 -0.29694725151E+01  0.21415591900E+02  0.51100000000E-03 0.  1.
        -12    1    3    3    0    0  0.76725426338E+01 -0.24049909674E+01  0.17073548654E+01  0.82199119616E+01  0.00000000000E+00 0.  1.
</event>
<event>
 7    1  0.5664398E-009  0.4614232E+02  0.7816164E-02  0.1320468E+00
        -11   -1    0    0    0    0  0.00000000000E+00  0.00000000000E+00  0.45593999997E+02  0.45594000000E+02  0.51100000000E-03 0. -1.
         11   -1    0    0    0    0 -0.00000000000E+00 -0.00000000000E+00 -0.45593999997E+02  0.45594000000E+02  0.51100000000E-03 0.  1.
    9900012    2    1    2    0    0 -0.68377999495E+01 -0.41936362213E+02 -0.14956586388E+02  0.46142318074E+02  0.10000002856E+02 0.  0.
         12    1    1    2    0    0  0.68377999495E+01  0.41936362213E+02  0.14956586388E+02  0.45045681926E+02  0.00000000000E+00 0. -1.
         11    1    3    3    0    0 -0.28562098090E+01 -0.10017472887E+02 -0.30019095662E+01  0.10840625388E+02  0.51100000000E-03 0. -1.
        -11    1    3    3    0    0 -0.36426432002E+01 -0.32344153207E+02 -0.12122129030E+02  0.34732680701E+02  0.51100000000E-03 0.  1.
         12    1    3    3    0    0 -0.33894694022E+00  0.42526388129E+00  0.16745220860E+00  0.56901198509E+00  0.00000000000E+00 0. -1.
</event>
<event>
 7    1  0.5664398E-009  0.4614232E+02  0.7816164E-02  0.1320468E+00
        -11   -1    0    0    0    0  0.00000000000E+00  0.00000000000E+00  0.45593999997E+02  0.45594000000E+02  0.51100000000E-03 0. -1.
         11   -1    0    0    0    0 -0.00000000000E+00 -0.00000000000E+00 -0.45593999997E+02  0.45594000000E+02  0.51100000000E-03 0.  1.
    9900012    2    1    2    0    0 -0.24039095658E+02  0.17514761319E+02 -0.33829995018E+02  0.46142317110E+02  0.99999940594E+01 0.  0.
         12    1    1    2    0    0  0.24039095658E+02 -0.17514761319E+02  0.33829995018E+02  0.45045682890E+02  0.00000000000E+00 0. -1.
         11    1    3    3    0    0 -0.58079470711E+01  0.19398584153E+01 -0.10674411932E+02  0.12306029831E+02  0.51100000000E-03 0. -1.
        -11    1    3    3    0    0 -0.14380192151E+01  0.40256044519E+01 -0.44877404386E+01  0.61978387339E+01  0.51100000000E-03 0.  1.
        -12    1    3    3    0    0 -0.16793129371E+02  0.11549298452E+02 -0.18667842648E+02  0.27638448545E+02  0.00000000000E+00 0.  1.
</event>
<event>
 7    1  0.5664398E-009  0.4614232E+02  0.7816164E-02  0.1320468E+00
        -11   -1    0    0    0    0  0.00000000000E+00  0.00000000000E+00  0.45593999997E+02  0.45594000000E+02  0.51100000000E-03 0.  1.
         11   -1    0    0    0    0 -0.00000000000E+00 -0.00000000000E+00 -0.45593999997E+02  0.45594000000E+02  0.51100000000E-03 0. -1.
    9900012    2    1    2    0    0  0.43672422392E+02 -0.86451698471E+00  0.11003895207E+02  0.46142316779E+02  0.99999910404E+01 0.  0.
        -12    1    1    2    0    0 -0.43672422392E+02  0.86451698471E+00 -0.11003895207E+02  0.45045683221E+02  0.00000000000E+00 0.  1.
         11    1    3    3    0    0  0.49317607337E+01 -0.12374503646E+01  0.11804142159E+01  0.52198587453E+01  0.51100000000E-03 0. -1.
        -11    1    3    3    0    0  0.24668207147E+02 -0.31669130151E+01  0.35861535994E+01  0.25127878538E+02  0.51100000000E-03 0.  1.
         12    1    3    3    0    0  0.14072454511E+02  0.35398463950E+01  0.62373273913E+01  0.15794579495E+02  0.00000000000E+00 0. -1.
</event>
<event>
 7    1  0.5664398E-009  0.4614232E+02  0.7816164E-02  0.1320468E+00
        -11   -1    0    0    0    0  0.00000000000E+00  0.00000000000E+00  0.45593999997E+02  0.45594000000E+02  0.51100000000E-03 0. -1.
         11   -1    0    0    0    0 -0.00000000000E+00 -0.00000000000E+00 -0.45593999997E+02  0.45594000000E+02  0.51100000000E-03 0.  1.
    9900012    2    1    2    0    0  0.47675781543E+01  0.41271677047E+02 -0.17407826077E+02  0.46142317227E+02  0.99999951328E+01 0.  0.
         12    1    1    2    0    0 -0.47675781543E+01 -0.41271677047E+02  0.17407826077E+02  0.45045682773E+02  0.00000000000E+00 0. -1.
         11    1    3    3    0    0  0.39470785200E+01  0.73464613761E+01 -0.48935901508E+01  0.96693923500E+01  0.51100000000E-03 0. -1.
        -11    1    3    3    0    0  0.22205952773E+01  0.25324385087E+02 -0.10646851020E+02  0.27561040625E+02  0.51100000000E-03 0.  1.
         12    1    3    3    0    0 -0.14000956430E+01  0.86008305841E+01 -0.18673849061E+01  0.89118842526E+01  0.00000000000E+00 0. -1.
</event>
<event>
 7    1  0.5664398E-009  0.4614232E+02  0.7816164E-02  0.1320468E+00
        -11   -1    0    0    0    0  0.00000000000E+00  0.00000000000E+00  0.45593999997E+02  0.45594000000E+02  0.51100000000E-03 0. -1.
         11   -1    0    0    0    0 -0.00000000000E+00 -0.00000000000E+00 -0.45593999997E+02  0.45594000000E+02  0.51100000000E-03 0.  1.
    9900012    2    1    2    0    0  0.29692699784E+02 -0.25317568776E+01  0.33779390715E+02  0.46142318182E+02  0.10000003840E+02 0.  0.
        -12    1    1    2    0    0 -0.29692699784E+02  0.25317568776E+01 -0.33779390715E+02  0.45045681818E+02  0.00000000000E+00 0.  1.
         11    1    3    3    0    0  0.14656788299E+02 -0.19105865887E+01  0.15054073070E+02  0.21097319750E+02  0.51100000000E-03 0. -1.
        -11    1    3    3    0    0  0.14703620205E+02 -0.16450383927E+01  0.14617226416E+02  0.20798218837E+02  0.51100000000E-03 0.  1.
         12    1    3    3    0    0  0.33229128036E+00  0.10238681038E+01  0.41080912290E+01  0.42467795958E+01  0.00000000000E+00 0. -1.
</event>
<event>
 7    1  0.5664398E-009  0.4614233E+02  0.7816164E-02  0.1320468E+00
        -11   -1    0    0    0    0  0.00000000000E+00  0.00000000000E+00  0.45593999997E+02  0.45594000000E+02  0.51100000000E-03 0.  1.
         11   -1    0    0    0    0 -0.00000000000E+00 -0.00000000000E+00 -0.45593999997E+02  0.45594000000E+02  0.51100000000E-03 0. -1.
    9900012    2    1    2    0    0 -0.18204166157E+02 -0.39874704175E+02 -0.10379239980E+02  0.46142330718E+02  0.10000118148E+02 0.  0.
         12    1    1    2    0    0  0.18204166157E+02  0.39874704175E+02  0.10379239980E+02  0.45045669282E+02  0.00000000000E+00 0. -1.
         11    1    3    3    0    0 -0.76841536460E+00 -0.53901860256E+01 -0.15889312530E+01  0.56717960428E+01  0.51100000000E-03 0. -1.
        -11    1    3    3    0    0 -0.92707345798E+01 -0.24589300938E+02 -0.85654040840E+01  0.27639580092E+02  0.51100000000E-03 0.  1.
        -12    1    3    3    0    0 -0.81650162129E+01 -0.98952172117E+01 -0.22490464307E+00  0.12830954583E+02  0.00000000000E+00 0.  1.
</event>
<event>
 7    1  0.5664398E-009  0.4614232E+02  0.7816164E-02  0.1320468E+00
        -11   -1    0    0    0    0  0.00000000000E+00  0.00000000000E+00  0.45593999997E+02  0.45594000000E+02  0.51100000000E-03 0. -1.
         11   -1    0    0    0    0 -0.00000000000E+00 -0.00000000000E+00 -0.45593999997E+02  0.45594000000E+02  0.51100000000E-03 0.  1.
    9900012    2    1    2    0    0  0.29889208223E+02 -0.47600323150E+01 -0.33363016420E+02  0.46142317182E+02  0.99999947230E+01 0.  0.
         12    1    1    2    0    0 -0.29889208223E+02  0.47600323150E+01  0.33363016420E+02  0.45045682818E+02  0.00000000000E+00 0. -1.
         11    1    3    3    0    0  0.16960858636E+02 -0.38767084553E+01 -0.20370969923E+02  0.26789475732E+02  0.51100000000E-03 0. -1.
        -11    1    3    3    0    0  0.97653954822E+01  0.87768522605E+00 -0.12191930597E+02  0.15645333241E+02  0.51100000000E-03 0.  1.
         12    1    3    3    0    0  0.31629541052E+01 -0.17610090858E+01 -0.80011590019E+00  0.37075082098E+01  0.00000000000E+00 0. -1.
</event>
<event>
 7    1  0.5664398E-009  0.4614232E+02  0.7816164E-02  0.1320468E+00
        -11   -1    0    0    0    0  0.00000000000E+00  0.00000000000E+00  0.45593999997E+02  0.45594000000E+02  0.51100000000E-03 0. -1.
         11   -1    0    0    0    0 -0.00000000000E+00 -0.00000000000E+00 -0.45593999997E+02  0.45594000000E+02  0.51100000000E-03 0.  1.
    9900012    2    1    2    0    0 -0.40302335940E+02  0.20116085434E+02  0.42229697401E+00  0.46142317520E+02  0.99999977974E+01 0.  0.
         12    1    1    2    0    0  0.40302335940E+02 -0.20116085434E+02 -0.42229697401E+00  0.45045682480E+02  0.00000000000E+00 0. -1.
         11    1    3    3    0    0 -0.15309884765E+02  0.96309001016E+01  0.93707440810E+00  0.18111458169E+02  0.51100000000E-03 0. -1.
        -11    1    3    3    0    0 -0.19194091246E+02  0.54260442089E+01  0.17128909493E+01  0.20019717535E+02  0.51100000000E-03 0.  1.
         12    1    3    3    0    0 -0.57983599288E+01  0.50591411230E+01 -0.22276683834E+01  0.80111418158E+01  0.00000000000E+00 0. -1.
</event>
<event>
 7    1  0.5664398E-009  0.4614232E+02  0.7816164E-02  0.1320468E+00
        -11   -1    0    0    0    0  0.00000000000E+00  0.00000000000E+00  0.45593999997E+02  0.45594000000E+02  0.51100000000E-03 0. -1.
         11   -1    0    0    0    0 -0.00000000000E+00 -0.00000000000E+00 -0.45593999997E+02  0.45594000000E+02  0.51100000000E-03 0.  1.
    9900012    2    1    2    0    0  0.24966570372E+02 -0.19075767889E+02 -0.32278459463E+02  0.46142317610E+02  0.99999986193E+01 0.  0.
         12    1    1    2    0    0 -0.24966570372E+02  0.19075767889E+02  0.32278459463E+02  0.45045682390E+02  0.00000000000E+00 0. -1.
         11    1    3    3    0    0  0.53910848154E+01 -0.15587240957E+01 -0.72541943456E+01  0.91715185307E+01  0.51100000000E-03 0. -1.
        -11    1    3    3    0    0  0.11781550928E+02 -0.61304134886E+01 -0.14112617173E+02  0.19379186659E+02  0.51100000000E-03 0.  1.
        -12    1    3    3    0    0  0.77939346286E+01 -0.11386630305E+02 -0.10911647944E+02  0.17591612420E+02  0.00000000000E+00 0.  1.
</event>
<event>
 7    1  0.5664398E-009  0.4614232E+02  0.7816164E-02  0.1320468E+00
        -11   -1    0    0    0    0  0.00000000000E+00  0.00000000000E+00  0.45593999997E+02  0.45594000000E+02  0.51100000000E-03 0.  1.
         11   -1    0    0    0    0 -0.00000000000E+00 -0.00000000000E+00 -0.45593999997E+02  0.45594000000E+02  0.51100000000E-03 0. -1.
    9900012    2    1    2    0    0 -0.39408075879E+02 -0.20464118751E+02  0.75721101297E+01  0.46142318159E+02  0.10000003626E+02 0.  0.
        -12    1    1    2    0    0  0.39408075879E+02  0.20464118751E+02 -0.75721101297E+01  0.45045681841E+02  0.00000000000E+00 0.  1.
         11    1    3    3    0    0 -0.35277566470E+02 -0.18101092478E+02  0.39401672782E+01  0.39845717002E+02  0.51100000000E-03 0. -1.
        -11    1    3    3    0    0 -0.11375999283E+01 -0.15625109048E+01  0.77522410921E+00  0.20824376594E+01  0.51100000000E-03 0.  1.
         12    1    3    3    0    0 -0.29929094802E+01 -0.80051536864E+00  0.28567187423E+01  0.42141634976E+01  0.00000000000E+00 0. -1.
</event>
<event>
 7    1  0.5664398E-009  0.4614232E+02  0.7816164E-02  0.1320468E+00
        -11   -1    0    0    0    0  0.00000000000E+00  0.00000000000E+00  0.45593999997E+02  0.45594000000E+02  0.51100000000E-03 0. -1.
         11   -1    0    0    0    0 -0.00000000000E+00 -0.00000000000E+00 -0.45593999997E+02  0.45594000000E+02  0.51100000000E-03 0.  1.
    9900012    2    1    2    0    0 -0.17431845481E+02 -0.32052672371E+02  0.26417240377E+02  0.46142316166E+02  0.99999854502E+01 0.  0.
        -12    1    1    2    0    0  0.17431845481E+02  0.32052672371E+02 -0.26417240377E+02  0.45045683834E+02  0.00000000000E+00 0.  1.
         11    1    3    3    0    0 -0.15468903989E+02 -0.28205515577E+02  0.23697731585E+02  0.39955232224E+02  0.51100000000E-03 0. -1.
        -11    1    3    3    0    0 -0.24915082813E+01 -0.21170161524E+01  0.28983470893E+01  0.43691860817E+01  0.51100000000E-03 0.  1.
        -12    1    3    3    0    0  0.52856678889E+00 -0.17301406417E+01 -0.17883829779E+00  0.18178978594E+01  0.00000000000E+00 0.  1.
</event>
<event>
 7    1  0.5664398E-009  0.4614232E+02  0.7816164E-02  0.1320468E+00
        -11   -1    0    0    0    0  0.00000000000E+00  0.00000000000E+00  0.45593999997E+02  0.45594000000E+02  0.51100000000E-03 0. -1.
         11   -1    0    0    0    0 -0.00000000000E+00 -0.00000000000E+00 -0.45593999997E+02  0.45594000000E+02  0.51100000000E-03 0.  1.
    9900012    2    1    2    0    0 -0.20279886359E+02  0.12073562294E+02 -0.38367548334E+02  0.46142318050E+02  0.10000002632E+02 0.  0.
         12    1    1    2    0    0  0.20279886359E+02 -0.12073562294E+02  0.38367548334E+02  0.45045681950E+02  0.00000000000E+00 0. -1.
         11    1    3    3    0    0 -0.80049554161E+01  0.48643714969E+01 -0.11584657407E+02  0.14897842420E+02  0.51100000000E-03 0. -1.
        -11    1    3    3    0    0 -0.12306251001E+02  0.74689444967E+01 -0.27187039588E+02  0.30763030856E+02  0.51100000000E-03 0.  1.
         12    1    3    3    0    0  0.31320058315E-01 -0.25975369942E+00  0.40414866099E+00  0.48144477419E+00  0.00000000000E+00 0. -1.
</event>
<event>
 7    1  0.5664398E-009  0.4614232E+02  0.7816164E-02  0.1320468E+00
        -11   -1    0    0    0    0  0.00000000000E+00  0.00000000000E+00  0.45593999997E+02  0.45594000000E+02  0.51100000000E-03 0. -1.
         11   -1    0    0    0    0 -0.00000000000E+00 -0.00000000000E+00 -0.45593999997E+02  0.45594000000E+02  0.51100000000E-03 0.  1.
    9900012    2    1    2    0    0 -0.19810063516E+00  0.40896611018E+02  0.18882303866E+02  0.46142318343E+02  0.10000005310E+02 0.  0.
        -12    1    1    2    0    0  0.19810063516E+00 -0.40896611018E+02 -0.18882303866E+02  0.45045681657E+02  0.00000000000E+00 0.  1.
         11    1    3    3    0    0  0.18616288192E+01  0.22739661171E+02  0.13739376935E+02  0.26633218560E+02  0.51100000000E-03 0. -1.
        -11    1    3    3    0    0 -0.14043835021E+01  0.58467561625E+01  0.37891681838E+01  0.71073656463E+01  0.51100000000E-03 0.  1.
        -12    1    3    3    0    0 -0.65534595229E+00  0.12310193684E+02  0.13537587471E+01  0.12401734137E+02  0.00000000000E+00 0.  1.
</event>
<event>
 7    1  0.5664398E-009  0.4614232E+02  0.7816164E-02  0.1320468E+00
        -11   -1    0    0    0    0  0.00000000000E+00  0.00000000000E+00  0.45593999997E+02  0.45594000000E+02  0.51100000000E-03 0. -1.
         11   -1    0    0    0    0 -0.00000000000E+00 -0.00000000000E+00 -0.45593999997E+02  0.45594000000E+02  0.51100000000E-03 0.  1.
    9900012    2    1    2    0    0 -0.30229475380E+02  0.32727661873E+02  0.66477491050E+01  0.46142316504E+02  0.99999885400E+01 0.  0.
        -12    1    1    2    0    0  0.30229475380E+02 -0.32727661873E+02 -0.66477491050E+01  0.45045683496E+02  0.00000000000E+00 0.  1.
         11    1    3    3    0    0 -0.80182429379E+01  0.87212711095E+01 -0.18990744911E+01  0.11998302953E+02  0.51100000000E-03 0. -1.
        -11    1    3    3    0    0 -0.28705164608E+01  0.49494403942E+01  0.15104870763E+00  0.57236038420E+01  0.51100000000E-03 0.  1.
        -12    1    3    3    0    0 -0.19340715981E+02  0.19056950369E+02  0.83957748884E+01  0.28420409709E+02  0.00000000000E+00 0.  1.
</event>
<event>
 7    1  0.5664398E-009  0.4614232E+02  0.7816164E-02  0.1320468E+00
        -11   -1    0    0    0    0  0.00000000000E+00  0.00000000000E+00  0.45593999997E+02  0.45594000000E+02  0.51100000000E-03 0.  1.
         11   -1    0    0    0    0 -0.00000000000E+00 -0.00000000000E+00 -0.45593999997E+02  0.45594000000E+02  0.51100000000E-03 0. -1.
    9900012    2    1    2    0    0  0.39185273321E+02  0.22152559842E+02 -0.17005826332E+01  0.46142317253E+02  0.99999953698E+01 0.  0.
        -12    1    1    2    0    0 -0.39185273321E+02 -0.22152559842E+02  0.17005826332E+01  0.45045682747E+02  0.00000000000E+00 0.  1.
         11    1    3    3    0    0  0.19789309790E+02  0.84796693462E+01  0.23654705188E+01  0.21659109520E+02  0.51100000000E-03 0. -1.
        -11    1    3    3    0    0  0.47801549248E+01  0.31566826998E+01  0.91506440728E+00  0.58010231772E+01  0.51100000000E-03 0.  1.
         12    1    3    3    0    0  0.14615808607E+02  0.10516207796E+02 -0.49811175593E+01  0.18682184556E+02  0.00000000000E+00 0. -1.
</event>
<event>
 7    1  0.5664398E-009  0.4614232E+02  0.7816164E-02  0.1320468E+00
        -11   -1    0    0    0    0  0.00000000000E+00  0.00000000000E+00  0.45593999997E+02  0.45594000000E+02  0.51100000000E-03 0. -1.
         11   -1    0    0    0    0 -0.00000000000E+00 -0.00000000000E+00 -0.45593999997E+02  0.45594000000E+02  0.51100000000E-03 0.  1.
    9900012    2    1    2    0    0 -0.23752826402E+02  0.12295935779E+02 -0.36245369974E+02  0.46142316041E+02  0.99999843185E+01 0.  0.
         12    1    1    2    0    0  0.23752826402E+02 -0.12295935779E+02  0.36245369974E+02  0.45045683959E+02  0.00000000000E+00 0. -1.
         11    1    3    3    0    0 -0.14254634962E+02  0.10127475730E+02 -0.22080579984E+02  0.28165801875E+02  0.51100000000E-03 0. -1.
        -11    1    3    3    0    0 -0.37086822379E+01 -0.58251156290E+00 -0.89768771661E+01  0.97302604066E+01  0.51100000000E-03 0.  1.
         12    1    3    3    0    0 -0.57895092020E+01  0.27509716114E+01 -0.51879128237E+01  0.82462537599E+01  0.00000000000E+00 0. -1.
</event>
<event>
 7    1  0.5664398E-009  0.4614232E+02  0.7816164E-02  0.1320468E+00
        -11   -1    0    0    0    0  0.00000000000E+00  0.00000000000E+00  0.45593999997E+02  0.45594000000E+02  0.51100000000E-03 0.  1.
         11   -1    0    0    0    0 -0.00000000000E+00 -0.00000000000E+00 -0.45593999997E+02  0.45594000000E+02  0.51100000000E-03 0. -1.
    9900012    2    1    2    0    0  0.37816887168E+01  0.39327071285E+02  0.21637787678E+02  0.46142316955E+02  0.99999926522E+01 0.  0.
        -12    1    1    2    0    0 -0.37816887168E+01 -0.39327071285E+02 -0.21637787678E+02  0.45045683045E+02  0.00000000000E+00 0.  1.
         11    1    3    3    0    0  0.36216826550E+01  0.11523067332E+02  0.50942208904E+01  0.13109109532E+02  0.51100000000E-03 0. -1.
        -11    1    3    3    0    0  0.10565661821E+01  0.95272399990E+01  0.92915737023E+01  0.13349830569E+02  0.51100000000E-03 0.  1.
         12    1    3    3    0    0 -0.89656012040E+00  0.18276763954E+02  0.72519930850E+01  0.19683376854E+02  0.00000000000E+00 0. -1.
</event>
<event>
 7    1  0.5664398E-009  0.4614232E+02  0.7816164E-02  0.1320468E+00
        -11   -1    0    0    0    0  0.00000000000E+00  0.00000000000E+00  0.45593999997E+02  0.45594000000E+02  0.51100000000E-03 0. -1.
         11   -1    0    0    0    0 -0.00000000000E+00 -0.00000000000E+00 -0.45593999997E+02  0.45594000000E+02  0.51100000000E-03 0.  1.
    9900012    2    1    2    0    0  0.17106320378E+02 -0.23716655007E+02  0.34263791792E+02  0.46142319302E+02  0.10000014050E+02 0.  0.
        -12    1    1    2    0    0 -0.17106320378E+02  0.23716655007E+02 -0.34263791792E+02  0.45045680698E+02  0.00000000000E+00 0.  1.
         11    1    3    3    0    0  0.11324837683E+02 -0.15217984185E+02  0.19715282142E+02  0.27359300821E+02  0.51100000000E-03 0. -1.
        -11    1    3    3    0    0  0.60572107694E+01 -0.37975280606E+01  0.93236633029E+01  0.11749115683E+02  0.51100000000E-03 0.  1.
         12    1    3    3    0    0 -0.27572807379E+00 -0.47011427614E+01  0.52248463469E+01  0.70339027987E+01  0.00000000000E+00 0. -1.
</event>
<event>
 7    1  0.5664398E-009  0.4614232E+02  0.7816164E-02  0.1320468E+00
        -11   -1    0    0    0    0  0.00000000000E+00  0.00000000000E+00  0.45593999997E+02  0.45594000000E+02  0.51100000000E-03 0. -1.
         11   -1    0    0    0    0 -0.00000000000E+00 -0.00000000000E+00 -0.45593999997E+02  0.45594000000E+02  0.51100000000E-03 0.  1.
    9900012    2    1    2    0    0 -0.34422950400E+02  0.66355872979E+01  0.28286797987E+02  0.46142317927E+02  0.10000001515E+02 0.  0.
        -12    1    1    2    0    0  0.34422950400E+02 -0.66355872979E+01 -0.28286797987E+02  0.45045682073E+02  0.00000000000E+00 0.  1.
         11    1    3    3    0    0 -0.87809135233E+01  0.32256965975E+01  0.58054126618E+01  0.11009649280E+02  0.51100000000E-03 0. -1.
        -11    1    3    3    0    0 -0.94058039754E+01  0.48931478014E+01  0.74610233961E+01  0.12964525221E+02  0.51100000000E-03 0.  1.
        -12    1    3    3    0    0 -0.16236232902E+02 -0.14832571010E+01  0.15020361929E+02  0.22168143426E+02  0.00000000000E+00 0.  1.
</event>
<event>
 7    1  0.5664398E-009  0.4614232E+02  0.7816164E-02  0.1320468E+00
        -11   -1    0    0    0    0  0.00000000000E+00  0.00000000000E+00  0.45593999997E+02  0.45594000000E+02  0.51100000000E-03 0. -1.
         11   -1    0    0    0    0 -0.00000000000E+00 -0.00000000000E+00 -0.45593999997E+02  0.45594000000E+02  0.51100000000E-03 0.  1.
    9900012    2    1    2    0    0  0.15763378258E+02 -0.42409687912E+01 -0.41983849723E+02  0.46142317100E+02  0.99999939671E+01 0.  0.
         12    1    1    2    0    0 -0.15763378258E+02  0.42409687912E+01  0.41983849723E+02  0.45045682900E+02  0.00000000000E+00 0. -1.
         11    1    3    3    0    0  0.71876844402E+01  0.13276131471E+01 -0.17344559254E+02  0.18821771975E+02  0.51100000000E-03 0. -1.
        -11    1    3    3    0    0  0.41019516227E+01 -0.59525618661E+01 -0.13575008027E+02  0.15379851855E+02  0.51100000000E-03 0.  1.
        -12    1    3    3    0    0  0.44737421955E+01  0.38397992776E+00 -0.11064282441E+02  0.11940693270E+02  0.00000000000E+00 0.  1.
</event>
<event>
 7    1  0.5664398E-009  0.4614232E+02  0.7816164E-02  0.1320468E+00
        -11   -1    0    0    0    0  0.00000000000E+00  0.00000000000E+00  0.45593999997E+02  0.45594000000E+02  0.51100000000E-03 0. -1.
         11   -1    0    0    0    0 -0.00000000000E+00 -0.00000000000E+00 -0.45593999997E+02  0.45594000000E+02  0.51100000000E-03 0.  1.
    9900012    2    1    2    0    0 -0.23439229287E+02  0.17537360432E+02 -0.34236778808E+02  0.46142317592E+02  0.99999984579E+01 0.  0.
         12    1    1    2    0    0  0.23439229287E+02 -0.17537360432E+02  0.34236778808E+02  0.45045682408E+02  0.00000000000E+00 0. -1.
         11    1    3    3    0    0 -0.67826050045E+01  0.18577298568E+01 -0.98553971988E+01  0.12107177420E+02  0.51100000000E-03 0. -1.
        -11    1    3    3    0    0 -0.16303254666E+02  0.16283513015E+02 -0.23780575512E+02  0.33112908068E+02  0.51100000000E-03 0.  1.
        -12    1    3    3    0    0 -0.35336961652E+00 -0.60388243993E+00 -0.60080609715E+00  0.92223210392E+00  0.00000000000E+00 0.  1.
</event>
<event>
 7    1  0.5664398E-009  0.4614232E+02  0.7816164E-02  0.1320468E+00
        -11   -1    0    0    0    0  0.00000000000E+00  0.00000000000E+00  0.45593999997E+02  0.45594000000E+02  0.51100000000E-03 0. -1.
         11   -1    0    0    0    0 -0.00000000000E+00 -0.00000000000E+00 -0.45593999997E+02  0.45594000000E+02  0.51100000000E-03 0.  1.
    9900012    2    1    2    0    0  0.30878163355E-01 -0.33350370320E+02 -0.30279784432E+02  0.46142317641E+02  0.99999989079E+01 0.  0.
         12    1    1    2    0    0 -0.30878163355E-01  0.33350370320E+02  0.30279784432E+02  0.45045682359E+02  0.00000000000E+00 0. -1.
         11    1    3    3    0    0 -0.12277094792E+01 -0.55413340517E+01 -0.75197510812E+01  0.94212690346E+01  0.51100000000E-03 0.  1.
        -11    1    3    3    0    0  0.20213856932E+01 -0.42907998227E+01 -0.67910523966E+01  0.82834386672E+01  0.51100000000E-03 0. -1.
        -12    1    3    3    0    0 -0.76279805067E+00 -0.23518236445E+02 -0.15968980954E+02  0.28437609939E+02  0.00000000000E+00 0.  1.
</event>
<event>
 7    1  0.5664398E-009  0.4614232E+02  0.7816164E-02  0.1320468E+00
        -11   -1    0    0    0    0  0.00000000000E+00  0.00000000000E+00  0.45593999997E+02  0.45594000000E+02  0.51100000000E-03 0. -1.
         11   -1    0    0    0    0 -0.00000000000E+00 -0.00000000000E+00 -0.45593999997E+02  0.45594000000E+02  0.51100000000E-03 0.  1.
    9900012    2    1    2    0    0  0.25183183306E+02  0.27893794897E+02  0.24836605417E+02  0.46142317812E+02  0.10000000461E+02 0.  0.
        -12    1    1    2    0    0 -0.25183183306E+02 -0.27893794897E+02 -0.24836605417E+02  0.45045682188E+02  0.00000000000E+00 0.  1.
         11    1    3    3    0    0  0.11350712749E+02  0.74154684392E+01  0.71165929107E+01  0.15312535616E+02  0.51100000000E-03 0. -1.
        -11    1    3    3    0    0  0.13719924082E+02  0.20779273957E+02  0.17406999333E+02  0.30381214082E+02  0.51100000000E-03 0.  1.
        -12    1    3    3    0    0  0.11254647454E+00 -0.30094749949E+00  0.31301317279E+00  0.44856811380E+00  0.00000000000E+00 0.  1.
</event>
<event>
 7    1  0.5664398E-009  0.4614232E+02  0.7816164E-02  0.1320468E+00
        -11   -1    0    0    0    0  0.00000000000E+00  0.00000000000E+00  0.45593999997E+02  0.45594000000E+02  0.51100000000E-03 0. -1.
         11   -1    0    0    0    0 -0.00000000000E+00 -0.00000000000E+00 -0.45593999997E+02  0.45594000000E+02  0.51100000000E-03 0.  1.
    9900012    2    1    2    0    0 -0.21365236579E+02 -0.83589582292E+01  0.38765551101E+02  0.46142317977E+02  0.10000001970E+02 0.  0.
        -12    1    1    2    0    0  0.21365236579E+02  0.83589582292E+01 -0.38765551101E+02  0.45045682023E+02  0.00000000000E+00 0.  1.
         11    1    3    3    0    0 -0.77849451985E+01 -0.67081686989E+00  0.13897594472E+02  0.15943603714E+02  0.51100000000E-03 0. -1.
        -11    1    3    3    0    0 -0.10927109576E+02 -0.28204953113E+01  0.13857853805E+02  0.17871682345E+02  0.51100000000E-03 0.  1.
        -12    1    3    3    0    0 -0.26531818053E+01 -0.48676460480E+01  0.11010102823E+02  0.12327031919E+02  0.00000000000E+00 0.  1.
</event>
<event>
 7    1  0.5664398E-009  0.4614232E+02  0.7816164E-02  0.1320468E+00
        -11   -1    0    0    0    0  0.00000000000E+00  0.00000000000E+00  0.45593999997E+02  0.45594000000E+02  0.51100000000E-03 0. -1.
         11   -1    0    0    0    0 -0.00000000000E+00 -0.00000000000E+00 -0.45593999997E+02  0.45594000000E+02  0.51100000000E-03 0.  1.
    9900012    2    1    2    0    0  0.19809640071E+02  0.16078519215E+02  0.37123750412E+02  0.46142318026E+02  0.10000002411E+02 0.  0.
        -12    1    1    2    0    0 -0.19809640071E+02 -0.16078519215E+02 -0.37123750412E+02  0.45045681974E+02  0.00000000000E+00 0.  1.
         11    1    3    3    0    0  0.58966018427E+01  0.88516249079E+01  0.10066468212E+02  0.14644280772E+02  0.51100000000E-03 0. -1.
        -11    1    3    3    0    0  0.79291732799E+01  0.51246516908E+01  0.12907116815E+02  0.15991482376E+02  0.51100000000E-03 0.  1.
        -12    1    3    3    0    0  0.59838649484E+01  0.21022426162E+01  0.14150165385E+02  0.15506554878E+02  0.00000000000E+00 0.  1.
</event>
<event>
 7    1  0.5664398E-009  0.4614232E+02  0.7816164E-02  0.1320468E+00
        -11   -1    0    0    0    0  0.00000000000E+00  0.00000000000E+00  0.45593999997E+02  0.45594000000E+02  0.51100000000E-03 0. -1.
         11   -1    0    0    0    0 -0.00000000000E+00 -0.00000000000E+00 -0.45593999997E+02  0.45594000000E+02  0.51100000000E-03 0.  1.
    9900012    2    1    2    0    0  0.13678911833E+02 -0.11320463405E+02  0.41398647684E+02  0.46142317070E+02  0.99999936948E+01 0.  0.
        -12    1    1    2    0    0 -0.13678911833E+02  0.11320463405E+02 -0.41398647684E+02  0.45045682930E+02  0.00000000000E+00 0.  1.
         11    1    3    3    0    0  0.26090391511E+01 -0.51657379863E+01  0.16114074976E+02  0.17121779897E+02  0.51100000000E-03 0.  1.
        -11    1    3    3    0    0  0.44116435920E+00 -0.11378924707E+01  0.81592153044E+01  0.82499830250E+01  0.51100000000E-03 0. -1.
        -12    1    3    3    0    0  0.10628708322E+02 -0.50168329484E+01  0.17125357403E+02  0.20770554148E+02  0.00000000000E+00 0.  1.
</event>
<event>
 7    1  0.5664398E-009  0.4614232E+02  0.7816164E-02  0.1320468E+00
        -11   -1    0    0    0    0  0.00000000000E+00  0.00000000000E+00  0.45593999997E+02  0.45594000000E+02  0.51100000000E-03 0. -1.
         11   -1    0    0    0    0 -0.00000000000E+00 -0.00000000000E+00 -0.45593999997E+02  0.45594000000E+02  0.51100000000E-03 0.  1.
    9900012    2    1    2    0    0 -0.37675264074E+02  0.23611301044E+02  0.72245286604E+01  0.46142324575E+02  0.10000062139E+02 0.  0.
        -12    1    1    2    0    0  0.37675264074E+02 -0.23611301044E+02 -0.72245286604E+01  0.45045675425E+02  0.00000000000E+00 0.  1.
         11    1    3    3    0    0 -0.32359757739E+01  0.51864221154E+00  0.58829848089E+00  0.33296582882E+01  0.51100000000E-03 0.  1.
        -11    1    3    3    0    0 -0.20371788853E+02  0.87975535545E+01  0.45134712115E+01  0.22644605367E+02  0.51100000000E-03 0. -1.
         12    1    3    3    0    0 -0.14067499448E+02  0.14295105278E+02  0.21227589680E+01  0.20168060920E+02  0.00000000000E+00 0. -1.
</event>
<event>
 7    1  0.5664398E-009  0.4614232E+02  0.7816164E-02  0.1320468E+00
        -11   -1    0    0    0    0  0.00000000000E+00  0.00000000000E+00  0.45593999997E+02  0.45594000000E+02  0.51100000000E-03 0. -1.
         11   -1    0    0    0    0 -0.00000000000E+00 -0.00000000000E+00 -0.45593999997E+02  0.45594000000E+02  0.51100000000E-03 0.  1.
    9900012    2    1    2    0    0 -0.12004573149E+01  0.10695877156E+02 -0.43740948850E+02  0.46142317718E+02  0.99999996088E+01 0.  0.
         12    1    1    2    0    0  0.12004573149E+01 -0.10695877156E+02  0.43740948850E+02  0.45045682282E+02  0.00000000000E+00 0. -1.
         11    1    3    3    0    0 -0.10370441581E+01  0.59847556185E+01 -0.81157679410E+01  0.10136984262E+02  0.51100000000E-03 0. -1.
        -11    1    3    3    0    0 -0.11234691344E+01  0.16360161966E+01 -0.12406338657E+02  0.12564074619E+02  0.51100000000E-03 0.  1.
        -12    1    3    3    0    0  0.96005597761E+00  0.30751053412E+01 -0.23218842252E+02  0.23441258837E+02  0.00000000000E+00 0.  1.
</event>
<event>
 7    1  0.5664398E-009  0.4614232E+02  0.7816164E-02  0.1320468E+00
        -11   -1    0    0    0    0  0.00000000000E+00  0.00000000000E+00  0.45593999997E+02  0.45594000000E+02  0.51100000000E-03 0. -1.
         11   -1    0    0    0    0 -0.00000000000E+00 -0.00000000000E+00 -0.45593999997E+02  0.45594000000E+02  0.51100000000E-03 0.  1.
    9900012    2    1    2    0    0 -0.11854258204E+02  0.26392749706E+02 -0.34525538768E+02  0.46142317611E+02  0.99999986343E+01 0.  0.
         12    1    1    2    0    0  0.11854258204E+02 -0.26392749706E+02  0.34525538768E+02  0.45045682389E+02  0.00000000000E+00 0. -1.
         11    1    3    3    0    0 -0.91194356830E+01  0.16976033124E+02 -0.28332797261E+02  0.34265101907E+02  0.51100000000E-03 0. -1.
        -11    1    3    3    0    0 -0.74117357597E+00  0.14543958459E+01 -0.22272580868E+01  0.27613917492E+01  0.51100000000E-03 0.  1.
         12    1    3    3    0    0 -0.19936489446E+01  0.79623207362E+01 -0.39654834205E+01  0.91158239550E+01  0.00000000000E+00 0. -1.
</event>
<event>
 7    1  0.5664398E-009  0.4614232E+02  0.7816164E-02  0.1320468E+00
        -11   -1    0    0    0    0  0.00000000000E+00  0.00000000000E+00  0.45593999997E+02  0.45594000000E+02  0.51100000000E-03 0. -1.
         11   -1    0    0    0    0 -0.00000000000E+00 -0.00000000000E+00 -0.45593999997E+02  0.45594000000E+02  0.51100000000E-03 0.  1.
    9900012    2    1    2    0    0  0.20032280466E+01 -0.22768346486E+02 -0.38816272614E+02  0.46142317144E+02  0.99999943709E+01 0.  0.
         12    1    1    2    0    0 -0.20032280466E+01  0.22768346486E+02  0.38816272614E+02  0.45045682856E+02  0.00000000000E+00 0. -1.
         11    1    3    3    0    0  0.77845260710E+00  0.10463579097E+00 -0.59151478766E+01  0.59670689432E+01  0.51100000000E-03 0. -1.
        -11    1    3    3    0    0  0.12413997809E+01 -0.43672259280E+01 -0.60259234113E+01  0.75448982062E+01  0.51100000000E-03 0.  1.
        -12    1    3    3    0    0 -0.16624341494E-01 -0.18505756349E+02 -0.26875201326E+02  0.32630349994E+02  0.00000000000E+00 0.  1.
</event>
<event>
 7    1  0.5664398E-009  0.4614232E+02  0.7816164E-02  0.1320468E+00
        -11   -1    0    0    0    0  0.00000000000E+00  0.00000000000E+00  0.45593999997E+02  0.45594000000E+02  0.51100000000E-03 0. -1.
         11   -1    0    0    0    0 -0.00000000000E+00 -0.00000000000E+00 -0.45593999997E+02  0.45594000000E+02  0.51100000000E-03 0.  1.
    9900012    2    1    2    0    0 -0.32181657115E+02  0.12063984083E+02  0.29118974447E+02  0.46142318304E+02  0.10000004949E+02 0.  0.
        -12    1    1    2    0    0  0.32181657115E+02 -0.12063984083E+02 -0.29118974447E+02  0.45045681696E+02  0.00000000000E+00 0.  1.
         11    1    3    3    0    0 -0.15543452964E+01  0.18089060605E+01 -0.20480531208E-01  0.23850681645E+01  0.51100000000E-03 0. -1.
        -11    1    3    3    0    0 -0.14145493773E+02  0.33934070663E+01  0.10451747503E+02  0.17912264840E+02  0.51100000000E-03 0.  1.
         12    1    3    3    0    0 -0.16481818046E+02  0.68616709559E+01  0.18687707476E+02  0.25844985299E+02  0.00000000000E+00 0. -1.
</event>
<event>
 7    1  0.5664398E-009  0.4614231E+02  0.7816164E-02  0.1320468E+00
        -11   -1    0    0    0    0  0.00000000000E+00  0.00000000000E+00  0.45593999997E+02  0.45594000000E+02  0.51100000000E-03 0. -1.
         11   -1    0    0    0    0 -0.00000000000E+00 -0.00000000000E+00 -0.45593999997E+02  0.45594000000E+02  0.51100000000E-03 0.  1.
    9900012    2    1    2    0    0 -0.36727316602E+02  0.56411732063E+01 -0.25463603778E+02  0.46142314998E+02  0.99999748046E+01 0.  0.
         12    1    1    2    0    0  0.36727316602E+02 -0.56411732063E+01  0.25463603778E+02  0.45045685002E+02  0.00000000000E+00 0. -1.
         11    1    3    3    0    0 -0.23671327190E+02  0.27313082734E+01 -0.19966148965E+02  0.31087600110E+02  0.51100000000E-03 0.  1.
        -11    1    3    3    0    0 -0.43501187051E+01  0.10493869580E+01  0.20997256882E+00  0.44798252731E+01  0.51100000000E-03 0. -1.
         12    1    3    3    0    0 -0.87058707068E+01  0.18604779749E+01 -0.57074273816E+01  0.10574889615E+02  0.00000000000E+00 0. -1.
</event>
<event>
 7    1  0.5664398E-009  0.4614232E+02  0.7816164E-02  0.1320468E+00
        -11   -1    0    0    0    0  0.00000000000E+00  0.00000000000E+00  0.45593999997E+02  0.45594000000E+02  0.51100000000E-03 0. -1.
         11   -1    0    0    0    0 -0.00000000000E+00 -0.00000000000E+00 -0.45593999997E+02  0.45594000000E+02  0.51100000000E-03 0.  1.
    9900012    2    1    2    0    0  0.31798178169E+02 -0.16871263061E+02  0.27080431711E+02  0.46142318367E+02  0.10000005525E+02 0.  0.
        -12    1    1    2    0    0 -0.31798178169E+02  0.16871263061E+02 -0.27080431711E+02  0.45045681633E+02  0.00000000000E+00 0.  1.
         11    1    3    3    0    0  0.79505518401E+01 -0.51414060921E+01  0.44050790475E+01  0.10442703330E+02  0.51100000000E-03 0. -1.
        -11    1    3    3    0    0  0.73059128709E+01 -0.42993561049E+01  0.11884047280E+02  0.14597650695E+02  0.51100000000E-03 0.  1.
        -12    1    3    3    0    0  0.16541713458E+02 -0.74305008642E+01  0.10791305383E+02  0.21101964342E+02  0.00000000000E+00 0.  1.
</event>
<event>
 7    1  0.5664398E-009  0.4614232E+02  0.7816164E-02  0.1320468E+00
        -11   -1    0    0    0    0  0.00000000000E+00  0.00000000000E+00  0.45593999997E+02  0.45594000000E+02  0.51100000000E-03 0. -1.
         11   -1    0    0    0    0 -0.00000000000E+00 -0.00000000000E+00 -0.45593999997E+02  0.45594000000E+02  0.51100000000E-03 0.  1.
    9900012    2    1    2    0    0 -0.41573772248E+02  0.17574152542E+01 -0.17252434499E+02  0.46142317149E+02  0.99999944215E+01 0.  0.
         12    1    1    2    0    0  0.41573772248E+02 -0.17574152542E+01  0.17252434499E+02  0.45045682851E+02  0.00000000000E+00 0. -1.
         11    1    3    3    0    0 -0.11544655245E+02 -0.37081493385E+01 -0.56874025500E+01  0.13393131981E+02  0.51100000000E-03 0. -1.
        -11    1    3    3    0    0 -0.78441393504E+01  0.12666330889E+01 -0.42741917629E+01  0.90223941955E+01  0.51100000000E-03 0.  1.
         12    1    3    3    0    0 -0.22184977653E+02  0.41989315038E+01 -0.72908401860E+01  0.23726790973E+02  0.00000000000E+00 0. -1.
</event>
<event>
 7    1  0.5664398E-009  0.4614232E+02  0.7816164E-02  0.1320468E+00
        -11   -1    0    0    0    0  0.00000000000E+00  0.00000000000E+00  0.45593999997E+02  0.45594000000E+02  0.51100000000E-03 0. -1.
         11   -1    0    0    0    0 -0.00000000000E+00 -0.00000000000E+00 -0.45593999997E+02  0.45594000000E+02  0.51100000000E-03 0.  1.
    9900012    2    1    2    0    0  0.34549148113E+02 -0.66908600196E+01  0.28119427367E+02  0.46142318314E+02  0.10000005041E+02 0.  0.
        -12    1    1    2    0    0 -0.34549148113E+02  0.66908600196E+01 -0.28119427367E+02  0.45045681686E+02  0.00000000000E+00 0.  1.
         11    1    3    3    0    0  0.52778153374E+01  0.23077308852E+00  0.78773848240E+01  0.94848185475E+01  0.51100000000E-03 0. -1.
        -11    1    3    3    0    0  0.38938667548E+01 -0.27313234990E+01  0.22060825418E+01  0.52430074196E+01  0.51100000000E-03 0.  1.
        -12    1    3    3    0    0  0.25377466021E+02 -0.41903096092E+01  0.18035960001E+02  0.31414492347E+02  0.00000000000E+00 0.  1.
</event>
<event>
 7    1  0.5664398E-009  0.4614232E+02  0.7816164E-02  0.1320468E+00
        -11   -1    0    0    0    0  0.00000000000E+00  0.00000000000E+00  0.45593999997E+02  0.45594000000E+02  0.51100000000E-03 0. -1.
         11   -1    0    0    0    0 -0.00000000000E+00 -0.00000000000E+00 -0.45593999997E+02  0.45594000000E+02  0.51100000000E-03 0.  1.
    9900012    2    1    2    0    0 -0.24922735518E+02 -0.12629836945E+02  0.35333521014E+02  0.46142320582E+02  0.10000025720E+02 0.  0.
        -12    1    1    2    0    0  0.24922735518E+02  0.12629836945E+02 -0.35333521014E+02  0.45045679418E+02  0.00000000000E+00 0.  1.
         11    1    3    3    0    0 -0.74081392159E+01 -0.87167928041E+00  0.81418299137E+01  0.11042180311E+02  0.51100000000E-03 0. -1.
        -11    1    3    3    0    0 -0.13463013082E+02 -0.10600931068E+02  0.17307666705E+02  0.24355446779E+02  0.51100000000E-03 0.  1.
        -12    1    3    3    0    0 -0.40515832205E+01 -0.11572265969E+01  0.98840243956E+01  0.10744693492E+02  0.00000000000E+00 0.  1.
</event>
<event>
 7    1  0.5664398E-009  0.4614232E+02  0.7816164E-02  0.1320468E+00
        -11   -1    0    0    0    0  0.00000000000E+00  0.00000000000E+00  0.45593999997E+02  0.45594000000E+02  0.51100000000E-03 0. -1.
         11   -1    0    0    0    0 -0.00000000000E+00 -0.00000000000E+00 -0.45593999997E+02  0.45594000000E+02  0.51100000000E-03 0.  1.
    9900012    2    1    2    0    0 -0.83303624244E+01  0.74171347298E+01 -0.43642922902E+02  0.46142317131E+02  0.99999942504E+01 0.  0.
         12    1    1    2    0    0  0.83303624244E+01 -0.74171347298E+01  0.43642922902E+02  0.45045682869E+02  0.00000000000E+00 0. -1.
         11    1    3    3    0    0  0.52801771045E+00 -0.10332712065E+00 -0.72937477134E+01  0.73135651474E+01  0.51100000000E-03 0. -1.
        -11    1    3    3    0    0 -0.98591716461E+01  0.52684168467E+01 -0.29186697804E+02  0.31254164691E+02  0.51100000000E-03 0.  1.
        -12    1    3    3    0    0  0.10007915112E+01  0.22520450037E+01 -0.71624773852E+01  0.75745872918E+01  0.00000000000E+00 0.  1.
</event>
<event>
 7    1  0.5664398E-009  0.4614231E+02  0.7816164E-02  0.1320468E+00
        -11   -1    0    0    0    0  0.00000000000E+00  0.00000000000E+00  0.45593999997E+02  0.45594000000E+02  0.51100000000E-03 0. -1.
         11   -1    0    0    0    0 -0.00000000000E+00 -0.00000000000E+00 -0.45593999997E+02  0.45594000000E+02  0.51100000000E-03 0.  1.
    9900012    2    1    2    0    0 -0.11161167461E+02  0.19160010947E+02  0.39210154987E+02  0.46142312829E+02  0.99999550237E+01 0.  0.
        -12    1    1    2    0    0  0.11161167461E+02 -0.19160010947E+02 -0.39210154987E+02  0.45045687171E+02  0.00000000000E+00 0.  1.
         11    1    3    3    0    0 -0.19495059485E+01  0.83647562924E+01  0.11620353381E+02  0.14449994264E+02  0.51100000000E-03 0. -1.
        -11    1    3    3    0    0 -0.84508103477E+01  0.61053293014E+01  0.15283876935E+02  0.18501030669E+02  0.51100000000E-03 0.  1.
         12    1    3    3    0    0 -0.76085116516E+00  0.46899253532E+01  0.12305924672E+02  0.13191287895E+02  0.00000000000E+00 0. -1.
</event>
<event>
 7    1  0.5664398E-009  0.4614232E+02  0.7816164E-02  0.1320468E+00
        -11   -1    0    0    0    0  0.00000000000E+00  0.00000000000E+00  0.45593999997E+02  0.45594000000E+02  0.51100000000E-03 0. -1.
         11   -1    0    0    0    0 -0.00000000000E+00 -0.00000000000E+00 -0.45593999997E+02  0.45594000000E+02  0.51100000000E-03 0.  1.
    9900012    2    1    2    0    0  0.19298629640E+02  0.33747640811E+02  0.22754625322E+02  0.46142319410E+02  0.10000015033E+02 0.  0.
        -12    1    1    2    0    0 -0.19298629640E+02 -0.33747640811E+02 -0.22754625322E+02  0.45045680590E+02  0.00000000000E+00 0.  1.
         11    1    3    3    0    0  0.17167925675E+02  0.26368263776E+02  0.16569606270E+02  0.35560861333E+02  0.51100000000E-03 0. -1.
        -11    1    3    3    0    0  0.23026596040E+01  0.35279579160E+01  0.14061867631E+01  0.44414062843E+01  0.51100000000E-03 0.  1.
         12    1    3    3    0    0 -0.17195563825E+00  0.38514191198E+01  0.47788322884E+01  0.61400517928E+01  0.00000000000E+00 0. -1.
</event>
<event>
 7    1  0.5664398E-009  0.4614231E+02  0.7816164E-02  0.1320468E+00
        -11   -1    0    0    0    0  0.00000000000E+00  0.00000000000E+00  0.45593999997E+02  0.45594000000E+02  0.51100000000E-03 0.  1.
         11   -1    0    0    0    0 -0.00000000000E+00 -0.00000000000E+00 -0.45593999997E+02  0.45594000000E+02  0.51100000000E-03 0. -1.
    9900012    2    1    2    0    0 -0.40849251172E+02 -0.17083627926E+02 -0.82826543175E+01  0.46142311783E+02  0.99999454822E+01 0.  0.
         12    1    1    2    0    0  0.40849251172E+02  0.17083627926E+02  0.82826543175E+01  0.45045688217E+02  0.00000000000E+00 0. -1.
         11    1    3    3    0    0 -0.31922127834E+02 -0.11082936104E+02 -0.95720469732E+01  0.35120902631E+02  0.51100000000E-03 0. -1.
        -11    1    3    3    0    0 -0.72804593572E+01 -0.41769704564E+01  0.38258317700E+00  0.84022937817E+01  0.51100000000E-03 0.  1.
         12    1    3    3    0    0 -0.16466639810E+01 -0.18237213662E+01  0.90680947873E+00  0.26191153695E+01  0.00000000000E+00 0. -1.
</event>
<event>
 7    1  0.5664398E-009  0.4614232E+02  0.7816164E-02  0.1320468E+00
        -11   -1    0    0    0    0  0.00000000000E+00  0.00000000000E+00  0.45593999997E+02  0.45594000000E+02  0.51100000000E-03 0. -1.
         11   -1    0    0    0    0 -0.00000000000E+00 -0.00000000000E+00 -0.45593999997E+02  0.45594000000E+02  0.51100000000E-03 0.  1.
    9900012    2    1    2    0    0 -0.13557894604E+02 -0.77437434994E+01  0.42253182074E+02  0.46142318022E+02  0.10000002382E+02 0.  0.
        -12    1    1    2    0    0  0.13557894604E+02  0.77437434994E+01 -0.42253182074E+02  0.45045681978E+02  0.00000000000E+00 0.  1.
         11    1    3    3    0    0 -0.37121223605E+01 -0.63409162110E+00  0.15867355042E+02  0.16308123157E+02  0.51100000000E-03 0. -1.
        -11    1    3    3    0    0 -0.74887364573E+00 -0.43367571056E+01  0.89454376655E+01  0.99694096725E+01  0.51100000000E-03 0.  1.
         12    1    3    3    0    0 -0.90968985981E+01 -0.27728947727E+01  0.17440389366E+02  0.19864785193E+02  0.00000000000E+00 0. -1.
</event>
<event>
 7    1  0.5664398E-009  0.4614232E+02  0.7816164E-02  0.1320468E+00
        -11   -1    0    0    0    0  0.00000000000E+00  0.00000000000E+00  0.45593999997E+02  0.45594000000E+02  0.51100000000E-03 0. -1.
         11   -1    0    0    0    0 -0.00000000000E+00 -0.00000000000E+00 -0.45593999997E+02  0.45594000000E+02  0.51100000000E-03 0.  1.
    9900012    2    1    2    0    0  0.25741321607E+02  0.32541750918E+02  0.17536598410E+02  0.46142317913E+02  0.10000001388E+02 0.  0.
        -12    1    1    2    0    0 -0.25741321607E+02 -0.32541750918E+02 -0.17536598410E+02  0.45045682087E+02  0.00000000000E+00 0.  1.
         11    1    3    3    0    0  0.34306832243E+01  0.98863239060E+01  0.43152177315E+01  0.11319456351E+02  0.51100000000E-03 0.  1.
        -11    1    3    3    0    0  0.81007892784E+01  0.64025209085E+01  0.65459053237E+01  0.12225544474E+02  0.51100000000E-03 0. -1.
        -12    1    3    3    0    0  0.14209849104E+02  0.16252906104E+02  0.66754753544E+01  0.22597317088E+02  0.00000000000E+00 0.  1.
</event>
<event>
 7    1  0.5664398E-009  0.4614232E+02  0.7816164E-02  0.1320468E+00
        -11   -1    0    0    0    0  0.00000000000E+00  0.00000000000E+00  0.45593999997E+02  0.45594000000E+02  0.51100000000E-03 0. -1.
         11   -1    0    0    0    0 -0.00000000000E+00 -0.00000000000E+00 -0.45593999997E+02  0.45594000000E+02  0.51100000000E-03 0.  1.
    9900012    2    1    2    0    0  0.30630204366E+02  0.17170253179E+02 -0.28215006556E+02  0.46142316426E+02  0.99999878220E+01 0.  0.
         12    1    1    2    0    0 -0.30630204366E+02 -0.17170253179E+02  0.28215006556E+02  0.45045683574E+02  0.00000000000E+00 0. -1.
         11    1    3    3    0    0  0.61078188485E+01  0.73350754467E+01 -0.55227110812E+01  0.11027652554E+02  0.51100000000E-03 0. -1.
        -11    1    3    3    0    0  0.21993668740E+02  0.97318938648E+01 -0.19058718203E+02  0.30686576262E+02  0.51100000000E-03 0.  1.
         12    1    3    3    0    0  0.25287167775E+01  0.10328386714E+00 -0.36335772715E+01  0.44280876105E+01  0.00000000000E+00 0. -1.
</event>
<event>
 7    1  0.5664398E-009  0.4614232E+02  0.7816164E-02  0.1320468E+00
        -11   -1    0    0    0    0  0.00000000000E+00  0.00000000000E+00  0.45593999997E+02  0.45594000000E+02  0.51100000000E-03 0. -1.
         11   -1    0    0    0    0 -0.00000000000E+00 -0.00000000000E+00 -0.45593999997E+02  0.45594000000E+02  0.51100000000E-03 0.  1.
    9900012    2    1    2    0    0  0.17838082923E+02  0.32152229196E+02 -0.26022113286E+02  0.46142318470E+02  0.10000006465E+02 0.  0.
         12    1    1    2    0    0 -0.17838082923E+02 -0.32152229196E+02  0.26022113286E+02  0.45045681530E+02  0.00000000000E+00 0. -1.
         11    1    3    3    0    0  0.54304118636E+01  0.74947727133E+01 -0.40440526631E+01  0.10100265008E+02  0.51100000000E-03 0. -1.
        -11    1    3    3    0    0  0.99692768090E+00  0.85973593137E+01 -0.47613358627E+01  0.98781967700E+01  0.51100000000E-03 0.  1.
         12    1    3    3    0    0  0.11410743379E+02  0.16060097169E+02 -0.17216724760E+02  0.26163856692E+02  0.00000000000E+00 0. -1.
</event>
<event>
 7    1  0.5664398E-009  0.4614232E+02  0.7816164E-02  0.1320468E+00
        -11   -1    0    0    0    0  0.00000000000E+00  0.00000000000E+00  0.45593999997E+02  0.45594000000E+02  0.51100000000E-03 0. -1.
         11   -1    0    0    0    0 -0.00000000000E+00 -0.00000000000E+00 -0.45593999997E+02  0.45594000000E+02  0.51100000000E-03 0.  1.
    9900012    2    1    2    0    0  0.19461973027E+02  0.21236191826E+02  0.34631910582E+02  0.46142317988E+02  0.10000002068E+02 0.  0.
        -12    1    1    2    0    0 -0.19461973027E+02 -0.21236191826E+02 -0.34631910582E+02  0.45045682012E+02  0.00000000000E+00 0.  1.
         11    1    3    3    0    0  0.13832519047E+02  0.13514505632E+02  0.23286719254E+02  0.30269650470E+02  0.51100000000E-03 0. -1.
        -11    1    3    3    0    0  0.51931526090E+01  0.83858683587E+01  0.88428450987E+01  0.13247170711E+02  0.51100000000E-03 0.  1.
         12    1    3    3    0    0  0.43630137088E+00 -0.66418216466E+00  0.25023462290E+01  0.26254968071E+01  0.00000000000E+00 0. -1.
</event>
<event>
 7    1  0.5664398E-009  0.4614232E+02  0.7816164E-02  0.1320468E+00
        -11   -1    0    0    0    0  0.00000000000E+00  0.00000000000E+00  0.45593999997E+02  0.45594000000E+02  0.51100000000E-03 0. -1.
         11   -1    0    0    0    0 -0.00000000000E+00 -0.00000000000E+00 -0.45593999997E+02  0.45594000000E+02  0.51100000000E-03 0.  1.
    9900012    2    1    2    0    0 -0.24594999687E+02  0.37651960702E+02 -0.25552646569E+01  0.46142317279E+02  0.99999956023E+01 0.  0.
         12    1    1    2    0    0  0.24594999687E+02 -0.37651960702E+02  0.25552646569E+01  0.45045682721E+02  0.00000000000E+00 0. -1.
         11    1    3    3    0    0 -0.45898811911E+01  0.71446754705E+01 -0.29955270288E+01  0.90048086803E+01  0.51100000000E-03 0. -1.
        -11    1    3    3    0    0 -0.11856741592E+02  0.14982555127E+02 -0.27902055104E+01  0.19309182437E+02  0.51100000000E-03 0.  1.
         12    1    3    3    0    0 -0.81483769038E+01  0.15524730105E+02  0.32304678824E+01  0.17828326162E+02  0.00000000000E+00 0. -1.
</event>
<event>
 7    1  0.5664398E-009  0.4614232E+02  0.7816164E-02  0.1320468E+00
        -11   -1    0    0    0    0  0.00000000000E+00  0.00000000000E+00  0.45593999997E+02  0.45594000000E+02  0.51100000000E-03 0. -1.
         11   -1    0    0    0    0 -0.00000000000E+00 -0.00000000000E+00 -0.45593999997E+02  0.45594000000E+02  0.51100000000E-03 0.  1.
    9900012    2    1    2    0    0  0.20143248979E+02 -0.30436698114E+02  0.26400195965E+02  0.46142318536E+02  0.10000007068E+02 0.  0.
        -12    1    1    2    0    0 -0.20143248979E+02  0.30436698114E+02 -0.26400195965E+02  0.45045681464E+02  0.00000000000E+00 0.  1.
         11    1    3    3    0    0  0.31021671568E+01 -0.56950800586E+01  0.72688271600E+01  0.97413154391E+01  0.51100000000E-03 0.  1.
        -11    1    3    3    0    0  0.10429076248E+02 -0.17299756181E+02  0.16557056102E+02  0.26118638983E+02  0.51100000000E-03 0. -1.
         12    1    3    3    0    0  0.66120055746E+01 -0.74418618744E+01  0.25743127033E+01  0.10282364114E+02  0.00000000000E+00 0. -1.
</event>
<event>
 7    1  0.5664398E-009  0.4614232E+02  0.7816164E-02  0.1320468E+00
        -11   -1    0    0    0    0  0.00000000000E+00  0.00000000000E+00  0.45593999997E+02  0.45594000000E+02  0.51100000000E-03 0.  1.
         11   -1    0    0    0    0 -0.00000000000E+00 -0.00000000000E+00 -0.45593999997E+02  0.45594000000E+02  0.51100000000E-03 0. -1.
    9900012    2    1    2    0    0 -0.36197264985E+02 -0.24143701691E+02  0.11659899595E+02  0.46142316719E+02  0.99999904932E+01 0.  0.
        -12    1    1    2    0    0  0.36197264985E+02  0.24143701691E+02 -0.11659899595E+02  0.45045683281E+02  0.00000000000E+00 0.  1.
         11    1    3    3    0    0 -0.15471999485E+02 -0.77817255444E+01  0.15890480600E+01  0.17391466140E+02  0.51100000000E-03 0. -1.
        -11    1    3    3    0    0 -0.56073141317E+00 -0.21721327855E+01  0.47826148706E+00  0.22937556249E+01  0.51100000000E-03 0.  1.
         12    1    3    3    0    0 -0.20164534087E+02 -0.14189843361E+02  0.95925900479E+01  0.26457094954E+02  0.00000000000E+00 0. -1.
</event>
<event>
 7    1  0.5664398E-009  0.4614232E+02  0.7816164E-02  0.1320468E+00
        -11   -1    0    0    0    0  0.00000000000E+00  0.00000000000E+00  0.45593999997E+02  0.45594000000E+02  0.51100000000E-03 0. -1.
         11   -1    0    0    0    0 -0.00000000000E+00 -0.00000000000E+00 -0.45593999997E+02  0.45594000000E+02  0.51100000000E-03 0.  1.
    9900012    2    1    2    0    0  0.39317653494E+02 -0.46345180783E+01  0.21488528430E+02  0.46142317763E+02  0.10000000021E+02 0.  0.
        -12    1    1    2    0    0 -0.39317653494E+02  0.46345180783E+01 -0.21488528430E+02  0.45045682237E+02  0.00000000000E+00 0.  1.
         11    1    3    3    0    0  0.35511184166E+01 -0.84534994248E+00  0.44470989933E+00  0.36773394852E+01  0.51100000000E-03 0.  1.
        -11    1    3    3    0    0  0.28561424073E+02 -0.39860976795E+01  0.20197389188E+02  0.35207647607E+02  0.51100000000E-03 0. -1.
         12    1    3    3    0    0  0.72051110045E+01  0.19692954368E+00  0.84642934247E+00  0.72573306707E+01  0.00000000000E+00 0. -1.
</event>
<event>
 7    1  0.5664398E-009  0.4614232E+02  0.7816164E-02  0.1320468E+00
        -11   -1    0    0    0    0  0.00000000000E+00  0.00000000000E+00  0.45593999997E+02  0.45594000000E+02  0.51100000000E-03 0. -1.
         11   -1    0    0    0    0 -0.00000000000E+00 -0.00000000000E+00 -0.45593999997E+02  0.45594000000E+02  0.51100000000E-03 0.  1.
    9900012    2    1    2    0    0  0.13215692578E+02 -0.40506937079E+02 -0.14616669606E+02  0.46142317497E+02  0.99999975876E+01 0.  0.
         12    1    1    2    0    0 -0.13215692578E+02  0.40506937079E+02  0.14616669606E+02  0.45045682503E+02  0.00000000000E+00 0. -1.
         11    1    3    3    0    0  0.12357580819E+01 -0.87257549515E+01 -0.35774949372E+01  0.95112758239E+01  0.51100000000E-03 0. -1.
        -11    1    3    3    0    0  0.11782427846E+02 -0.23207783111E+02 -0.10410955456E+02  0.28032388351E+02  0.51100000000E-03 0.  1.
         12    1    3    3    0    0  0.19750664996E+00 -0.85733990166E+01 -0.62821921279E+00  0.85986533221E+01  0.00000000000E+00 0. -1.
</event>
<event>
 7    1  0.5664398E-009  0.4614232E+02  0.7816164E-02  0.1320468E+00
        -11   -1    0    0    0    0  0.00000000000E+00  0.00000000000E+00  0.45593999997E+02  0.45594000000E+02  0.51100000000E-03 0.  1.
         11   -1    0    0    0    0 -0.00000000000E+00 -0.00000000000E+00 -0.45593999997E+02  0.45594000000E+02  0.51100000000E-03 0. -1.
    9900012    2    1    2    0    0 -0.44281835451E+02 -0.10680367105E+01  0.81909566509E+01  0.46142318474E+02  0.10000006499E+02 0.  0.
        -12    1    1    2    0    0  0.44281835451E+02  0.10680367105E+01 -0.81909566509E+01  0.45045681526E+02  0.00000000000E+00 0.  1.
         11    1    3    3    0    0 -0.31918860798E+02  0.91729131483E+00  0.21484698046E+01  0.32004234419E+02  0.51100000000E-03 0. -1.
        -11    1    3    3    0    0 -0.14715238028E+01 -0.11221736000E+01  0.10243497940E+01  0.21151710693E+01  0.51100000000E-03 0.  1.
        -12    1    3    3    0    0 -0.10891450850E+02 -0.86315442537E+00  0.50181370523E+01  0.12022912986E+02  0.00000000000E+00 0.  1.
</event>
<event>
 7    1  0.5664398E-009  0.4614231E+02  0.7816164E-02  0.1320468E+00
        -11   -1    0    0    0    0  0.00000000000E+00  0.00000000000E+00  0.45593999997E+02  0.45594000000E+02  0.51100000000E-03 0. -1.
         11   -1    0    0    0    0 -0.00000000000E+00 -0.00000000000E+00 -0.45593999997E+02  0.45594000000E+02  0.51100000000E-03 0.  1.
    9900012    2    1    2    0    0  0.13149501153E+02  0.32716590084E+02  0.28032646574E+02  0.46142312957E+02  0.99999561900E+01 0.  0.
        -12    1    1    2    0    0 -0.13149501153E+02 -0.32716590084E+02 -0.28032646574E+02  0.45045687043E+02  0.00000000000E+00 0.  1.
         11    1    3    3    0    0 -0.52652714961E+00  0.46449377683E+01  0.49492668410E+01  0.68079306868E+01  0.51100000000E-03 0. -1.
        -11    1    3    3    0    0  0.27597115164E+01  0.67465633598E+01  0.88614981189E+01  0.11474243940E+02  0.51100000000E-03 0.  1.
         12    1    3    3    0    0  0.10916316786E+02  0.21325088956E+02  0.14221881614E+02  0.27860138330E+02  0.00000000000E+00 0. -1.
</event>
<event>
 7    1  0.5664398E-009  0.4614232E+02  0.7816164E-02  0.1320468E+00
        -11   -1    0    0    0    0  0.00000000000E+00  0.00000000000E+00  0.45593999997E+02  0.45594000000E+02  0.51100000000E-03 0. -1.
         11   -1    0    0    0    0 -0.00000000000E+00 -0.00000000000E+00 -0.45593999997E+02  0.45594000000E+02  0.51100000000E-03 0.  1.
    9900012    2    1    2    0    0  0.11324225951E+02 -0.95020267741E+01  0.42550991531E+02  0.46142317783E+02  0.10000000195E+02 0.  0.
        -12    1    1    2    0    0 -0.11324225951E+02  0.95020267741E+01 -0.42550991531E+02  0.45045682217E+02  0.00000000000E+00 0.  1.
         11    1    3    3    0    0  0.77030975150E+01 -0.48706858689E+01  0.16685443261E+02  0.19012241037E+02  0.51100000000E-03 0. -1.
        -11    1    3    3    0    0  0.24823038871E+01  0.64567969544E+00  0.11527141957E+02  0.11809053172E+02  0.51100000000E-03 0.  1.
         12    1    3    3    0    0  0.11388245490E+01 -0.52770206006E+01  0.14338406312E+02  0.15321023574E+02  0.00000000000E+00 0. -1.
</event>
<event>
 7    1  0.5664398E-009  0.4614232E+02  0.7816164E-02  0.1320468E+00
        -11   -1    0    0    0    0  0.00000000000E+00  0.00000000000E+00  0.45593999997E+02  0.45594000000E+02  0.51100000000E-03 0. -1.
         11   -1    0    0    0    0 -0.00000000000E+00 -0.00000000000E+00 -0.45593999997E+02  0.45594000000E+02  0.51100000000E-03 0.  1.
    9900012    2    1    2    0    0 -0.19216846459E+02 -0.38931801165E+01 -0.40554524554E+02  0.46142317620E+02  0.99999987177E+01 0.  0.
         12    1    1    2    0    0  0.19216846459E+02  0.38931801165E+01  0.40554524554E+02  0.45045682380E+02  0.00000000000E+00 0. -1.
         11    1    3    3    0    0 -0.16482105813E+01 -0.10654689129E+01 -0.11808377402E+02  0.11970363372E+02  0.51100000000E-03 0. -1.
        -11    1    3    3    0    0 -0.55294958387E+01 -0.82152746303E+00 -0.51250657777E+01  0.75839653934E+01  0.51100000000E-03 0.  1.
         12    1    3    3    0    0 -0.12039140039E+02 -0.20061837406E+01 -0.23621081374E+02  0.26587988855E+02  0.00000000000E+00 0. -1.
</event>
<event>
 7    1  0.5664398E-009  0.4614232E+02  0.7816164E-02  0.1320468E+00
        -11   -1    0    0    0    0  0.00000000000E+00  0.00000000000E+00  0.45593999997E+02  0.45594000000E+02  0.51100000000E-03 0. -1.
         11   -1    0    0    0    0 -0.00000000000E+00 -0.00000000000E+00 -0.45593999997E+02  0.45594000000E+02  0.51100000000E-03 0.  1.
    9900012    2    1    2    0    0 -0.31167711214E+02  0.37886345591E+01 -0.32300673925E+02  0.46142317520E+02  0.99999977968E+01 0.  0.
         12    1    1    2    0    0  0.31167711214E+02 -0.37886345591E+01  0.32300673925E+02  0.45045682480E+02  0.00000000000E+00 0. -1.
         11    1    3    3    0    0 -0.13268887321E+01  0.19417086926E+01 -0.44021940325E+01  0.49910098092E+01  0.51100000000E-03 0. -1.
        -11    1    3    3    0    0 -0.11509602651E+02  0.79000316913E+00 -0.13889302967E+02  0.18055685956E+02  0.51100000000E-03 0.  1.
         12    1    3    3    0    0 -0.18331219831E+02  0.10569226974E+01 -0.14009176926E+02  0.23095621754E+02  0.00000000000E+00 0. -1.
</event>
<event>
 7    1  0.5664398E-009  0.4614232E+02  0.7816164E-02  0.1320468E+00
        -11   -1    0    0    0    0  0.00000000000E+00  0.00000000000E+00  0.45593999997E+02  0.45594000000E+02  0.51100000000E-03 0. -1.
         11   -1    0    0    0    0 -0.00000000000E+00 -0.00000000000E+00 -0.45593999997E+02  0.45594000000E+02  0.51100000000E-03 0.  1.
    9900012    2    1    2    0    0  0.28680778510E+02  0.33085207359E+02  0.10578066014E+02  0.46142317826E+02  0.10000000592E+02 0.  0.
        -12    1    1    2    0    0 -0.28680778510E+02 -0.33085207359E+02 -0.10578066014E+02  0.45045682174E+02  0.00000000000E+00 0.  1.
         11    1    3    3    0    0  0.16285055681E+02  0.14137052049E+02  0.85506985258E+01  0.23198571610E+02  0.51100000000E-03 0. -1.
        -11    1    3    3    0    0  0.11856349021E+02  0.17141830168E+02  0.25223654760E+01  0.20994706034E+02  0.51100000000E-03 0.  1.
         12    1    3    3    0    0  0.53937380812E+00  0.18063251420E+01 -0.49499798836E+00  0.19490401822E+01  0.00000000000E+00 0. -1.
</event>
<event>
 7    1  0.5664398E-009  0.4614232E+02  0.7816164E-02  0.1320468E+00
        -11   -1    0    0    0    0  0.00000000000E+00  0.00000000000E+00  0.45593999997E+02  0.45594000000E+02  0.51100000000E-03 0. -1.
         11   -1    0    0    0    0 -0.00000000000E+00 -0.00000000000E+00 -0.45593999997E+02  0.45594000000E+02  0.51100000000E-03 0.  1.
    9900012    2    1    2    0    0 -0.19348786828E+02 -0.37812721134E+01 -0.40502339080E+02  0.46142322722E+02  0.10000045235E+02 0.  0.
         12    1    1    2    0    0  0.19348786828E+02  0.37812721134E+01  0.40502339080E+02  0.45045677278E+02  0.00000000000E+00 0. -1.
         11    1    3    3    0    0  0.83306498610E+00 -0.54478013913E+00 -0.44060772096E+01  0.45171118327E+01  0.51100000000E-03 0. -1.
        -11    1    3    3    0    0 -0.18503697404E+01 -0.32809021719E+00 -0.16691762793E+01  0.25134957886E+01  0.51100000000E-03 0.  1.
        -12    1    3    3    0    0 -0.18331482073E+02 -0.29084017571E+01 -0.34427085591E+02  0.39111715100E+02  0.00000000000E+00 0.  1.
</event>
<event>
 7    1  0.5664398E-009  0.4614232E+02  0.7816164E-02  0.1320468E+00
        -11   -1    0    0    0    0  0.00000000000E+00  0.00000000000E+00  0.45593999997E+02  0.45594000000E+02  0.51100000000E-03 0. -1.
         11   -1    0    0    0    0 -0.00000000000E+00 -0.00000000000E+00 -0.45593999997E+02  0.45594000000E+02  0.51100000000E-03 0.  1.
    9900012    2    1    2    0    0  0.91295893849E+00 -0.27758939067E+02 -0.35464367041E+02  0.46142317390E+02  0.99999966185E+01 0.  0.
         12    1    1    2    0    0 -0.91295893849E+00  0.27758939067E+02  0.35464367041E+02  0.45045682610E+02  0.00000000000E+00 0. -1.
         11    1    3    3    0    0  0.13271648086E+01 -0.20351061333E+02 -0.21113575178E+02  0.29354899435E+02  0.51100000000E-03 0. -1.
        -11    1    3    3    0    0 -0.49902743120E+00 -0.46332165386E+01 -0.42324229202E+01  0.62951670277E+01  0.51100000000E-03 0.  1.
         12    1    3    3    0    0  0.84821561041E-01 -0.27746611951E+01 -0.10118368943E+02  0.10492250927E+02  0.00000000000E+00 0. -1.
</event>
<event>
 7    1  0.5664398E-009  0.4614232E+02  0.7816164E-02  0.1320468E+00
        -11   -1    0    0    0    0  0.00000000000E+00  0.00000000000E+00  0.45593999997E+02  0.45594000000E+02  0.51100000000E-03 0. -1.
         11   -1    0    0    0    0 -0.00000000000E+00 -0.00000000000E+00 -0.45593999997E+02  0.45594000000E+02  0.51100000000E-03 0.  1.
    9900012    2    1    2    0    0  0.19297366005E+02  0.11698200420E+02 -0.38985602239E+02  0.46142318634E+02  0.10000007957E+02 0.  0.
         12    1    1    2    0    0 -0.19297366005E+02 -0.11698200420E+02  0.38985602239E+02  0.45045681366E+02  0.00000000000E+00 0. -1.
         11    1    3    3    0    0  0.13762546678E+01 -0.71712953756E+00 -0.63561871432E+01  0.65428943859E+01  0.51100000000E-03 0.  1.
        -11    1    3    3    0    0  0.15844330072E+02  0.12498271297E+02 -0.30845108828E+02  0.36860145411E+02  0.51100000000E-03 0. -1.
         12    1    3    3    0    0  0.20767812650E+01 -0.82941339242E-01 -0.17843062685E+01  0.27392788372E+01  0.00000000000E+00 0. -1.
</event>
<event>
 7    1  0.5664398E-009  0.4614232E+02  0.7816164E-02  0.1320468E+00
        -11   -1    0    0    0    0  0.00000000000E+00  0.00000000000E+00  0.45593999997E+02  0.45594000000E+02  0.51100000000E-03 0. -1.
         11   -1    0    0    0    0 -0.00000000000E+00 -0.00000000000E+00 -0.45593999997E+02  0.45594000000E+02  0.51100000000E-03 0.  1.
    9900012    2    1    2    0    0  0.25519042912E+02  0.71689375613E+01 -0.36421123410E+02  0.46142318216E+02  0.10000004152E+02 0.  0.
         12    1    1    2    0    0 -0.25519042912E+02 -0.71689375613E+01  0.36421123410E+02  0.45045681784E+02  0.00000000000E+00 0. -1.
         11    1    3    3    0    0  0.14298713902E+02  0.33160386917E+01 -0.18138664034E+02  0.23333676630E+02  0.51100000000E-03 0. -1.
        -11    1    3    3    0    0  0.11377902927E+02  0.46846229926E+01 -0.14910149358E+02  0.19331707678E+02  0.51100000000E-03 0.  1.
        -12    1    3    3    0    0 -0.15757391596E+00 -0.83172412304E+00 -0.33723100176E+01  0.34769339094E+01  0.00000000000E+00 0.  1.
</event>
<event>
 7    1  0.5664398E-009  0.4614232E+02  0.7816164E-02  0.1320468E+00
        -11   -1    0    0    0    0  0.00000000000E+00  0.00000000000E+00  0.45593999997E+02  0.45594000000E+02  0.51100000000E-03 0. -1.
         11   -1    0    0    0    0 -0.00000000000E+00 -0.00000000000E+00 -0.45593999997E+02  0.45594000000E+02  0.51100000000E-03 0.  1.
    9900012    2    1    2    0    0 -0.81395834179E+01 -0.29908822179E+02 -0.32685211945E+02  0.46142317163E+02  0.99999945466E+01 0.  0.
         12    1    1    2    0    0  0.81395834179E+01  0.29908822179E+02  0.32685211945E+02  0.45045682837E+02  0.00000000000E+00 0. -1.
         11    1    3    3    0    0  0.20197680810E+01 -0.27663284989E+01 -0.32871026273E+01  0.47473234994E+01  0.51100000000E-03 0. -1.
        -11    1    3    3    0    0 -0.52695515889E+01 -0.12441371213E+02 -0.15714120187E+02  0.20724127608E+02  0.51100000000E-03 0.  1.
         12    1    3    3    0    0 -0.48897999100E+01 -0.14701122467E+02 -0.13683989131E+02  0.20670866056E+02  0.00000000000E+00 0. -1.
</event>
<event>
 7    1  0.5664398E-009  0.4614232E+02  0.7816164E-02  0.1320468E+00
        -11   -1    0    0    0    0  0.00000000000E+00  0.00000000000E+00  0.45593999997E+02  0.45594000000E+02  0.51100000000E-03 0. -1.
         11   -1    0    0    0    0 -0.00000000000E+00 -0.00000000000E+00 -0.45593999997E+02  0.45594000000E+02  0.51100000000E-03 0.  1.
    9900012    2    1    2    0    0  0.10917747822E+02  0.34236443633E+02 -0.27162145803E+02  0.46142318134E+02  0.10000003401E+02 0.  0.
         12    1    1    2    0    0 -0.10917747822E+02 -0.34236443633E+02  0.27162145803E+02  0.45045681866E+02  0.00000000000E+00 0. -1.
         11    1    3    3    0    0 -0.18946151980E+00  0.53154461002E+01 -0.30401239043E+01  0.61263542606E+01  0.51100000000E-03 0. -1.
        -11    1    3    3    0    0 -0.17940223227E+00 -0.29082918761E+00 -0.10888863663E+01  0.11412451784E+01  0.51100000000E-03 0.  1.
        -12    1    3    3    0    0  0.11286611574E+02  0.29211826721E+02 -0.23033135532E+02  0.38874718695E+02  0.00000000000E+00 0.  1.
</event>
<event>
 7    1  0.5664398E-009  0.4614232E+02  0.7816164E-02  0.1320468E+00
        -11   -1    0    0    0    0  0.00000000000E+00  0.00000000000E+00  0.45593999997E+02  0.45594000000E+02  0.51100000000E-03 0.  1.
         11   -1    0    0    0    0 -0.00000000000E+00 -0.00000000000E+00 -0.45593999997E+02  0.45594000000E+02  0.51100000000E-03 0. -1.
    9900012    2    1    2    0    0  0.70528955651E+01  0.44360361773E+02  0.33953487027E+01  0.46142318461E+02  0.10000006384E+02 0.  0.
        -12    1    1    2    0    0 -0.70528955651E+01 -0.44360361773E+02 -0.33953487027E+01  0.45045681539E+02  0.00000000000E+00 0.  1.
         11    1    3    3    0    0 -0.15227314685E+01  0.11833028190E+02  0.85474852488E+00  0.11961181488E+02  0.51100000000E-03 0. -1.
        -11    1    3    3    0    0  0.62853567509E+01  0.15774578546E+02  0.31093244281E+01  0.17262993265E+02  0.51100000000E-03 0.  1.
        -12    1    3    3    0    0  0.22902702827E+01  0.16752755037E+02 -0.56872425031E+00  0.16918143709E+02  0.00000000000E+00 0.  1.
</event>
<event>
 7    1  0.5664398E-009  0.4614232E+02  0.7816164E-02  0.1320468E+00
        -11   -1    0    0    0    0  0.00000000000E+00  0.00000000000E+00  0.45593999997E+02  0.45594000000E+02  0.51100000000E-03 0. -1.
         11   -1    0    0    0    0 -0.00000000000E+00 -0.00000000000E+00 -0.45593999997E+02  0.45594000000E+02  0.51100000000E-03 0.  1.
    9900012    2    1    2    0    0  0.31890231603E+02  0.12689196952E+01  0.31788617083E+02  0.46142320907E+02  0.10000028690E+02 0.  0.
        -12    1    1    2    0    0 -0.31890231603E+02 -0.12689196952E+01 -0.31788617083E+02  0.45045679093E+02  0.00000000000E+00 0.  1.
         11    1    3    3    0    0  0.84821465084E+00 -0.69829509063E+00  0.10715015621E+01  0.15346660829E+01  0.51100000000E-03 0. -1.
        -11    1    3    3    0    0  0.22258933002E+02 -0.25583397450E+01  0.22553321750E+02  0.31790840235E+02  0.51100000000E-03 0.  1.
        -12    1    3    3    0    0  0.87830839503E+01  0.45255545308E+01  0.81637937707E+01  0.12816814589E+02  0.00000000000E+00 0.  1.
</event>
<event>
 7    1  0.5664398E-009  0.4614232E+02  0.7816164E-02  0.1320468E+00
        -11   -1    0    0    0    0  0.00000000000E+00  0.00000000000E+00  0.45593999997E+02  0.45594000000E+02  0.51100000000E-03 0. -1.
         11   -1    0    0    0    0 -0.00000000000E+00 -0.00000000000E+00 -0.45593999997E+02  0.45594000000E+02  0.51100000000E-03 0.  1.
    9900012    2    1    2    0    0  0.17127973522E+02 -0.37484980812E+02  0.18183019944E+02  0.46142317879E+02  0.10000001077E+02 0.  0.
        -12    1    1    2    0    0 -0.17127973522E+02  0.37484980812E+02 -0.18183019944E+02  0.45045682121E+02  0.00000000000E+00 0.  1.
         11    1    3    3    0    0  0.22595463256E+01 -0.23560928954E+01 -0.43619286742E-01  0.32647551566E+01  0.51100000000E-03 0. -1.
        -11    1    3    3    0    0  0.30900729605E+01 -0.89940306944E+01  0.13313859949E+01  0.96027979236E+01  0.51100000000E-03 0.  1.
         12    1    3    3    0    0  0.11778354236E+02 -0.26134857222E+02  0.16895253236E+02  0.33274764799E+02  0.00000000000E+00 0. -1.
</event>
<event>
 7    1  0.5664398E-009  0.4614232E+02  0.7816164E-02  0.1320468E+00
        -11   -1    0    0    0    0  0.00000000000E+00  0.00000000000E+00  0.45593999997E+02  0.45594000000E+02  0.51100000000E-03 0. -1.
         11   -1    0    0    0    0 -0.00000000000E+00 -0.00000000000E+00 -0.45593999997E+02  0.45594000000E+02  0.51100000000E-03 0.  1.
    9900012    2    1    2    0    0  0.35350403833E+02 -0.11375801923E+02  0.25496150928E+02  0.46142316159E+02  0.99999853891E+01 0.  0.
        -12    1    1    2    0    0 -0.35350403833E+02  0.11375801923E+02 -0.25496150928E+02  0.45045683841E+02  0.00000000000E+00 0.  1.
         11    1    3    3    0    0  0.11711672834E+02 -0.37497283632E+01  0.84260595195E+01  0.14907119864E+02  0.51100000000E-03 0. -1.
        -11    1    3    3    0    0  0.37144320347E+01  0.96228452112E-01  0.62802341527E+01  0.72970957599E+01  0.51100000000E-03 0.  1.
         12    1    3    3    0    0  0.19924298965E+02 -0.77223020115E+01  0.10789857256E+02  0.23938100535E+02  0.00000000000E+00 0. -1.
</event>
<event>
 7    1  0.5664398E-009  0.4614232E+02  0.7816164E-02  0.1320468E+00
        -11   -1    0    0    0    0  0.00000000000E+00  0.00000000000E+00  0.45593999997E+02  0.45594000000E+02  0.51100000000E-03 0. -1.
         11   -1    0    0    0    0 -0.00000000000E+00 -0.00000000000E+00 -0.45593999997E+02  0.45594000000E+02  0.51100000000E-03 0.  1.
    9900012    2    1    2    0    0 -0.46718279466E+01 -0.25883287278E+02 -0.36569703145E+02  0.46142315136E+02  0.99999760664E+01 0.  0.
         12    1    1    2    0    0  0.46718279466E+01  0.25883287278E+02  0.36569703145E+02  0.45045684864E+02  0.00000000000E+00 0. -1.
         11    1    3    3    0    0 -0.19498385279E+01 -0.33981833676E+01 -0.48956088562E+01  0.62702876185E+01  0.51100000000E-03 0. -1.
        -11    1    3    3    0    0 -0.50942995942E+01 -0.20504482360E+02 -0.27589684338E+02  0.34750199529E+02  0.51100000000E-03 0.  1.
         12    1    3    3    0    0  0.23723101755E+01 -0.19806215510E+01 -0.40844099512E+01  0.51218279887E+01  0.00000000000E+00 0. -1.
</event>
<event>
 7    1  0.5664398E-009  0.4614232E+02  0.7816164E-02  0.1320468E+00
        -11   -1    0    0    0    0  0.00000000000E+00  0.00000000000E+00  0.45593999997E+02  0.45594000000E+02  0.51100000000E-03 0. -1.
         11   -1    0    0    0    0 -0.00000000000E+00 -0.00000000000E+00 -0.45593999997E+02  0.45594000000E+02  0.51100000000E-03 0.  1.
    9900012    2    1    2    0    0  0.34385169716E+02 -0.34122338125E+01 -0.28898619114E+02  0.46142318490E+02  0.10000006645E+02 0.  0.
         12    1    1    2    0    0 -0.34385169716E+02  0.34122338125E+01  0.28898619114E+02  0.45045681510E+02  0.00000000000E+00 0. -1.
         11    1    3    3    0    0  0.21736295867E+02 -0.23834414696E+01 -0.13004895166E+02  0.25441592910E+02  0.51100000000E-03 0. -1.
        -11    1    3    3    0    0  0.38136624069E+01  0.13982379705E+00 -0.23306649459E+01  0.44716407503E+01  0.51100000000E-03 0.  1.
        -12    1    3    3    0    0  0.88352114427E+01 -0.11686161399E+01 -0.13563059002E+02  0.16229084830E+02  0.00000000000E+00 0.  1.
</event>
<event>
 7    1  0.5696406E-009  0.4614232E+02  0.7816164E-02  0.1320468E+00
        -11   -1    0    0    0    0  0.00000000000E+00  0.00000000000E+00  0.45593999997E+02  0.45594000000E+02  0.51100000000E-03 0. -1.
         11   -1    0    0    0    0 -0.00000000000E+00 -0.00000000000E+00 -0.45593999997E+02  0.45594000000E+02  0.51100000000E-03 0.  1.
    9900012    2    1    2    0    0 -0.26873558468E+02  0.99106110016E+01 -0.34766436024E+02  0.46142318421E+02  0.10000006013E+02 0.  0.
         12    1    1    2    0    0  0.26873558468E+02 -0.99106110016E+01  0.34766436024E+02  0.45045681579E+02  0.00000000000E+00 0. -1.
         11    1    3    3    0    0 -0.65804564240E+01 -0.75739015332E+00 -0.64709762652E+01  0.92601069475E+01  0.51100000000E-03 0. -1.
        -11    1    3    3    0    0 -0.80464725133E+01  0.25464110186E+01 -0.67722682036E+01  0.10820977122E+02  0.51100000000E-03 0.  1.
        -12    1    3    3    0    0 -0.12246629531E+02  0.81215901363E+01 -0.21523191555E+02  0.26061234351E+02  0.00000000000E+00 0.  1.
</event>
<event>
 7    1  0.5664398E-009  0.4614232E+02  0.7816164E-02  0.1320468E+00
        -11   -1    0    0    0    0  0.00000000000E+00  0.00000000000E+00  0.45593999997E+02  0.45594000000E+02  0.51100000000E-03 0. -1.
         11   -1    0    0    0    0 -0.00000000000E+00 -0.00000000000E+00 -0.45593999997E+02  0.45594000000E+02  0.51100000000E-03 0.  1.
    9900012    2    1    2    0    0 -0.12080220907E+01  0.18061456267E+02  0.41248489558E+02  0.46142318624E+02  0.10000007864E+02 0.  0.
        -12    1    1    2    0    0  0.12080220907E+01 -0.18061456267E+02 -0.41248489558E+02  0.45045681376E+02  0.00000000000E+00 0.  1.
         11    1    3    3    0    0 -0.26960183397E+01  0.23107468513E+01  0.11461353100E+02  0.11998778315E+02  0.51100000000E-03 0. -1.
        -11    1    3    3    0    0  0.25297008319E+01  0.57120645346E+01  0.14912378356E+02  0.16168057893E+02  0.51100000000E-03 0.  1.
         12    1    3    3    0    0 -0.10417045829E+01  0.10038644881E+02  0.14874758102E+02  0.17975482416E+02  0.00000000000E+00 0. -1.
</event>
<event>
 7    1  0.5664398E-009  0.4614232E+02  0.7816164E-02  0.1320468E+00
        -11   -1    0    0    0    0  0.00000000000E+00  0.00000000000E+00  0.45593999997E+02  0.45594000000E+02  0.51100000000E-03 0. -1.
         11   -1    0    0    0    0 -0.00000000000E+00 -0.00000000000E+00 -0.45593999997E+02  0.45594000000E+02  0.51100000000E-03 0.  1.
    9900012    2    1    2    0    0  0.35450518918E+02 -0.40349478672E-01  0.27791591291E+02  0.46142318008E+02  0.10000002253E+02 0.  0.
        -12    1    1    2    0    0 -0.35450518918E+02  0.40349478672E-01 -0.27791591291E+02  0.45045681992E+02  0.00000000000E+00 0.  1.
         11    1    3    3    0    0  0.49853263931E+01  0.37427114807E+00  0.51508732353E+00  0.50258206644E+01  0.51100000000E-03 0.  1.
        -11    1    3    3    0    0  0.14370734428E+02  0.38971890933E+00  0.10133172786E+02  0.17588379113E+02  0.51100000000E-03 0. -1.
        -12    1    3    3    0    0  0.16094458096E+02 -0.80433953607E+00  0.17143331181E+02  0.23528118231E+02  0.00000000000E+00 0.  1.
</event>
<event>
 7    1  0.5664398E-009  0.4614232E+02  0.7816164E-02  0.1320468E+00
        -11   -1    0    0    0    0  0.00000000000E+00  0.00000000000E+00  0.45593999997E+02  0.45594000000E+02  0.51100000000E-03 0. -1.
         11   -1    0    0    0    0 -0.00000000000E+00 -0.00000000000E+00 -0.45593999997E+02  0.45594000000E+02  0.51100000000E-03 0.  1.
    9900012    2    1    2    0    0 -0.11207775663E+02  0.34031077621E+02  0.27301738115E+02  0.46142318925E+02  0.10000010617E+02 0.  0.
        -12    1    1    2    0    0  0.11207775663E+02 -0.34031077621E+02 -0.27301738115E+02  0.45045681075E+02  0.00000000000E+00 0.  1.
         11    1    3    3    0    0 -0.47602170693E+01  0.24122037840E+02  0.18311813642E+02  0.30657052944E+02  0.51100000000E-03 0. -1.
        -11    1    3    3    0    0 -0.82434813922E+00  0.30850168158E+01  0.50974448029E+00  0.32336849421E+01  0.51100000000E-03 0.  1.
         12    1    3    3    0    0 -0.56232104547E+01  0.68240229650E+01  0.84801799930E+01  0.12251581039E+02  0.00000000000E+00 0. -1.
</event>
<event>
 7    1  0.5664398E-009  0.4614232E+02  0.7816164E-02  0.1320468E+00
        -11   -1    0    0    0    0  0.00000000000E+00  0.00000000000E+00  0.45593999997E+02  0.45594000000E+02  0.51100000000E-03 0. -1.
         11   -1    0    0    0    0 -0.00000000000E+00 -0.00000000000E+00 -0.45593999997E+02  0.45594000000E+02  0.51100000000E-03 0.  1.
    9900012    2    1    2    0    0 -0.66110342575E+01 -0.18537975167E+02 -0.40518529655E+02  0.46142317159E+02  0.99999945066E+01 0.  0.
         12    1    1    2    0    0  0.66110342575E+01  0.18537975167E+02  0.40518529655E+02  0.45045682841E+02  0.00000000000E+00 0. -1.
         11    1    3    3    0    0  0.25682013677E+01 -0.33094590814E+01 -0.70812227783E+01  0.82275083697E+01  0.51100000000E-03 0. -1.
        -11    1    3    3    0    0 -0.43684152848E+01 -0.67464094487E+01 -0.16964621572E+02  0.18772199602E+02  0.51100000000E-03 0.  1.
         12    1    3    3    0    0 -0.48108203404E+01 -0.84821066367E+01 -0.16472685305E+02  0.19142609187E+02  0.00000000000E+00 0. -1.
</event>
<event>
 7    1  0.5664398E-009  0.4614232E+02  0.7816164E-02  0.1320468E+00
        -11   -1    0    0    0    0  0.00000000000E+00  0.00000000000E+00  0.45593999997E+02  0.45594000000E+02  0.51100000000E-03 0. -1.
         11   -1    0    0    0    0 -0.00000000000E+00 -0.00000000000E+00 -0.45593999997E+02  0.45594000000E+02  0.51100000000E-03 0.  1.
    9900012    2    1    2    0    0  0.16559373484E+02  0.24733665834E+02 -0.33810448137E+02  0.46142317865E+02  0.10000000945E+02 0.  0.
         12    1    1    2    0    0 -0.16559373484E+02 -0.24733665834E+02  0.33810448137E+02  0.45045682135E+02  0.00000000000E+00 0. -1.
         11    1    3    3    0    0  0.75411213583E+01  0.74703900693E+01 -0.11680729168E+02  0.15783366982E+02  0.51100000000E-03 0.  1.
        -11    1    3    3    0    0 -0.27959834301E-01 -0.60523739889E+00 -0.15232931942E+00  0.62473878063E+00  0.51100000000E-03 0. -1.
        -12    1    3    3    0    0  0.90462119605E+01  0.17868513163E+02 -0.21977389650E+02  0.29734212102E+02  0.00000000000E+00 0.  1.
</event>
<event>
 7    1  0.5664398E-009  0.4614232E+02  0.7816164E-02  0.1320468E+00
        -11   -1    0    0    0    0  0.00000000000E+00  0.00000000000E+00  0.45593999997E+02  0.45594000000E+02  0.51100000000E-03 0. -1.
         11   -1    0    0    0    0 -0.00000000000E+00 -0.00000000000E+00 -0.45593999997E+02  0.45594000000E+02  0.51100000000E-03 0.  1.
    9900012    2    1    2    0    0 -0.14460654829E+02 -0.19325504808E+02  0.38033246523E+02  0.46142317463E+02  0.99999972835E+01 0.  0.
        -12    1    1    2    0    0  0.14460654829E+02  0.19325504808E+02 -0.38033246523E+02  0.45045682537E+02  0.00000000000E+00 0.  1.
         11    1    3    3    0    0 -0.13827340004E+02 -0.17798005722E+02  0.36153103723E+02  0.42602948822E+02  0.51100000000E-03 0. -1.
        -11    1    3    3    0    0  0.30752235481E+00 -0.14277913080E+01  0.21095891668E+01  0.25658380175E+01  0.51100000000E-03 0.  1.
        -12    1    3    3    0    0 -0.94083717969E+00 -0.99707777197E-01 -0.22944636714E+00  0.97353062351E+00  0.00000000000E+00 0.  1.
</event>
<event>
 7    1  0.5664398E-009  0.4614232E+02  0.7816164E-02  0.1320468E+00
        -11   -1    0    0    0    0  0.00000000000E+00  0.00000000000E+00  0.45593999997E+02  0.45594000000E+02  0.51100000000E-03 0. -1.
         11   -1    0    0    0    0 -0.00000000000E+00 -0.00000000000E+00 -0.45593999997E+02  0.45594000000E+02  0.51100000000E-03 0.  1.
    9900012    2    1    2    0    0  0.97588163439E+01  0.35240552828E+01  0.43834460859E+02  0.46142318510E+02  0.10000006833E+02 0.  0.
        -12    1    1    2    0    0 -0.97588163439E+01 -0.35240552828E+01 -0.43834460859E+02  0.45045681490E+02  0.00000000000E+00 0.  1.
         11    1    3    3    0    0  0.28315101241E+01 -0.13149487203E+01  0.11164593661E+02  0.11592872448E+02  0.51100000000E-03 0. -1.
        -11    1    3    3    0    0 -0.12869114474E+01  0.11650270927E+01  0.23445986236E+01  0.29172884957E+01  0.51100000000E-03 0.  1.
        -12    1    3    3    0    0  0.82142176672E+01  0.36739769104E+01  0.30325268574E+02  0.31632157567E+02  0.00000000000E+00 0.  1.
</event>
<event>
 7    1  0.5664398E-009  0.4614232E+02  0.7816164E-02  0.1320468E+00
        -11   -1    0    0    0    0  0.00000000000E+00  0.00000000000E+00  0.45593999997E+02  0.45594000000E+02  0.51100000000E-03 0. -1.
         11   -1    0    0    0    0 -0.00000000000E+00 -0.00000000000E+00 -0.45593999997E+02  0.45594000000E+02  0.51100000000E-03 0.  1.
    9900012    2    1    2    0    0  0.28760636078E+02  0.34651673664E+02 -0.10958193188E+01  0.46142317684E+02  0.99999992931E+01 0.  0.
         12    1    1    2    0    0 -0.28760636078E+02 -0.34651673664E+02  0.10958193188E+01  0.45045682316E+02  0.00000000000E+00 0. -1.
         11    1    3    3    0    0  0.66321312160E+01  0.10184610336E+02 -0.24511625301E+01  0.12398372884E+02  0.51100000000E-03 0.  1.
        -11    1    3    3    0    0  0.21161500234E+02  0.23658744512E+02  0.27541217248E+01  0.31861112202E+02  0.51100000000E-03 0. -1.
         12    1    3    3    0    0  0.96700462875E+00  0.80831881715E+00 -0.13987785136E+01  0.18828325980E+01  0.00000000000E+00 0. -1.
</event>
<event>
 7    1  0.5664398E-009  0.4614232E+02  0.7816164E-02  0.1320468E+00
        -11   -1    0    0    0    0  0.00000000000E+00  0.00000000000E+00  0.45593999997E+02  0.45594000000E+02  0.51100000000E-03 0. -1.
         11   -1    0    0    0    0 -0.00000000000E+00 -0.00000000000E+00 -0.45593999997E+02  0.45594000000E+02  0.51100000000E-03 0.  1.
    9900012    2    1    2    0    0 -0.40921429628E+02  0.14944656952E+02 -0.11454573305E+02  0.46142318477E+02  0.10000006532E+02 0.  0.
         12    1    1    2    0    0  0.40921429628E+02 -0.14944656952E+02  0.11454573305E+02  0.45045681523E+02  0.00000000000E+00 0. -1.
         11    1    3    3    0    0 -0.23243196138E+01 -0.96127108485E+00 -0.11592234020E+01  0.27695311737E+01  0.51100000000E-03 0. -1.
        -11    1    3    3    0    0 -0.10039659790E+02  0.30264123454E+01 -0.49384842300E+01  0.11590624104E+02  0.51100000000E-03 0.  1.
         12    1    3    3    0    0 -0.28557450225E+02  0.12879515692E+02 -0.53568656732E+01  0.31782163199E+02  0.00000000000E+00 0. -1.
</event>
<event>
 7    1  0.5664398E-009  0.4614232E+02  0.7816164E-02  0.1320468E+00
        -11   -1    0    0    0    0  0.00000000000E+00  0.00000000000E+00  0.45593999997E+02  0.45594000000E+02  0.51100000000E-03 0.  1.
         11   -1    0    0    0    0 -0.00000000000E+00 -0.00000000000E+00 -0.45593999997E+02  0.45594000000E+02  0.51100000000E-03 0. -1.
    9900012    2    1    2    0    0  0.25867192513E+02  0.29669798313E+02  0.21902165845E+02  0.46142318197E+02  0.10000003976E+02 0.  0.
        -12    1    1    2    0    0 -0.25867192513E+02 -0.29669798313E+02 -0.21902165845E+02  0.45045681803E+02  0.00000000000E+00 0.  1.
         11    1    3    3    0    0  0.16679150157E+02  0.19367443073E+02  0.18601081634E+02  0.31611582361E+02  0.51100000000E-03 0. -1.
        -11    1    3    3    0    0  0.34460119318E+00  0.35717355201E+00  0.87074970417E+00  0.10022615612E+01  0.51100000000E-03 0.  1.
         12    1    3    3    0    0  0.88434411626E+01  0.99451816872E+01  0.24303345063E+01  0.13528474275E+02  0.00000000000E+00 0. -1.
</event>
<event>
 7    1  0.5664398E-009  0.4614232E+02  0.7816164E-02  0.1320468E+00
        -11   -1    0    0    0    0  0.00000000000E+00  0.00000000000E+00  0.45593999997E+02  0.45594000000E+02  0.51100000000E-03 0. -1.
         11   -1    0    0    0    0 -0.00000000000E+00 -0.00000000000E+00 -0.45593999997E+02  0.45594000000E+02  0.51100000000E-03 0.  1.
    9900012    2    1    2    0    0  0.91393928741E+01  0.53646219502E+01 -0.43781340866E+02  0.46142317868E+02  0.10000000970E+02 0.  0.
         12    1    1    2    0    0 -0.91393928741E+01 -0.53646219502E+01  0.43781340866E+02  0.45045682132E+02  0.00000000000E+00 0. -1.
         11    1    3    3    0    0  0.83913611910E+01  0.55182091714E+01 -0.32152009620E+02  0.33684080780E+02  0.51100000000E-03 0. -1.
        -11    1    3    3    0    0 -0.85185968953E+00  0.16971678093E+01 -0.36813548307E+01  0.41422719797E+01  0.51100000000E-03 0.  1.
         12    1    3    3    0    0  0.15998913726E+01 -0.18507550305E+01 -0.79479764147E+01  0.83159651079E+01  0.00000000000E+00 0. -1.
</event>
<event>
 7    1  0.5664398E-009  0.4614232E+02  0.7816164E-02  0.1320468E+00
        -11   -1    0    0    0    0  0.00000000000E+00  0.00000000000E+00  0.45593999997E+02  0.45594000000E+02  0.51100000000E-03 0. -1.
         11   -1    0    0    0    0 -0.00000000000E+00 -0.00000000000E+00 -0.45593999997E+02  0.45594000000E+02  0.51100000000E-03 0.  1.
    9900012    2    1    2    0    0  0.41954756206E+02 -0.17877129155E+01  0.16300796566E+02  0.46142318138E+02  0.10000003432E+02 0.  0.
        -12    1    1    2    0    0 -0.41954756206E+02  0.17877129155E+01 -0.16300796566E+02  0.45045681862E+02  0.00000000000E+00 0.  1.
         11    1    3    3    0    0  0.13357342371E+02 -0.22230747891E+01  0.65942471431E+01  0.15061366219E+02  0.51100000000E-03 0. -1.
        -11    1    3    3    0    0  0.32169184113E+01  0.10100736763E+00  0.38744188528E+01  0.50368530117E+01  0.51100000000E-03 0.  1.
         12    1    3    3    0    0  0.25380495423E+02  0.33435450596E+00  0.58321305698E+01  0.26044098907E+02  0.00000000000E+00 0. -1.
</event>
<event>
 7    1  0.5664398E-009  0.4614232E+02  0.7816164E-02  0.1320468E+00
        -11   -1    0    0    0    0  0.00000000000E+00  0.00000000000E+00  0.45593999997E+02  0.45594000000E+02  0.51100000000E-03 0. -1.
         11   -1    0    0    0    0 -0.00000000000E+00 -0.00000000000E+00 -0.45593999997E+02  0.45594000000E+02  0.51100000000E-03 0.  1.
    9900012    2    1    2    0    0  0.24381437086E+02  0.29764286445E+02 -0.23425332710E+02  0.46142318358E+02  0.10000005445E+02 0.  0.
         12    1    1    2    0    0 -0.24381437086E+02 -0.29764286445E+02  0.23425332710E+02  0.45045681642E+02  0.00000000000E+00 0. -1.
         11    1    3    3    0    0  0.95581065259E+01  0.11646424571E+02 -0.55218132603E+01  0.16046402325E+02  0.51100000000E-03 0.  1.
        -11    1    3    3    0    0  0.59336490939E+01  0.98588386636E+01 -0.55337323589E+01  0.12768206039E+02  0.51100000000E-03 0. -1.
        -12    1    3    3    0    0  0.88896814666E+01  0.82590232110E+01 -0.12369787091E+02  0.17327709994E+02  0.00000000000E+00 0.  1.
</event>
<event>
 7    1  0.5664398E-009  0.4614232E+02  0.7816164E-02  0.1320468E+00
        -11   -1    0    0    0    0  0.00000000000E+00  0.00000000000E+00  0.45593999997E+02  0.45594000000E+02  0.51100000000E-03 0. -1.
         11   -1    0    0    0    0 -0.00000000000E+00 -0.00000000000E+00 -0.45593999997E+02  0.45594000000E+02  0.51100000000E-03 0.  1.
    9900012    2    1    2    0    0 -0.86344925801E+01 -0.33489679682E+02  0.28861746567E+02  0.46142317385E+02  0.99999965743E+01 0.  0.
        -12    1    1    2    0    0  0.86344925801E+01  0.33489679682E+02 -0.28861746567E+02  0.45045682615E+02  0.00000000000E+00 0.  1.
         11    1    3    3    0    0 -0.50584380463E+01 -0.92095313818E+01  0.60531192854E+01  0.12126150135E+02  0.51100000000E-03 0. -1.
        -11    1    3    3    0    0 -0.23383522774E+01 -0.25083021506E+01  0.30991725269E+01  0.46221576850E+01  0.51100000000E-03 0.  1.
         12    1    3    3    0    0 -0.12377022564E+01 -0.21771846150E+02  0.19709454755E+02  0.29394009566E+02  0.00000000000E+00 0. -1.
</event>
<event>
 7    1  0.5664398E-009  0.4614232E+02  0.7816164E-02  0.1320468E+00
        -11   -1    0    0    0    0  0.00000000000E+00  0.00000000000E+00  0.45593999997E+02  0.45594000000E+02  0.51100000000E-03 0. -1.
         11   -1    0    0    0    0 -0.00000000000E+00 -0.00000000000E+00 -0.45593999997E+02  0.45594000000E+02  0.51100000000E-03 0.  1.
    9900012    2    1    2    0    0  0.81723619197E+01  0.31972526192E+01 -0.44182617415E+02  0.46142316463E+02  0.99999881627E+01 0.  0.
         12    1    1    2    0    0 -0.81723619197E+01 -0.31972526192E+01  0.44182617415E+02  0.45045683537E+02  0.00000000000E+00 0. -1.
         11    1    3    3    0    0  0.17456074951E+01 -0.13044319690E+01 -0.23777339945E+01  0.32252608419E+01  0.51100000000E-03 0. -1.
        -11    1    3    3    0    0  0.29161877659E+01  0.52526713869E+01 -0.22943472189E+02  0.23717032363E+02  0.51100000000E-03 0.  1.
         12    1    3    3    0    0  0.35105666587E+01 -0.75098679873E+00 -0.18861411232E+02  0.19200023258E+02  0.00000000000E+00 0. -1.
</event>
<event>
 7    1  0.5664398E-009  0.4614232E+02  0.7816164E-02  0.1320468E+00
        -11   -1    0    0    0    0  0.00000000000E+00  0.00000000000E+00  0.45593999997E+02  0.45594000000E+02  0.51100000000E-03 0. -1.
         11   -1    0    0    0    0 -0.00000000000E+00 -0.00000000000E+00 -0.45593999997E+02  0.45594000000E+02  0.51100000000E-03 0.  1.
    9900012    2    1    2    0    0  0.23463361688E+01  0.16692535343E+02 -0.41772807606E+02  0.46142317800E+02  0.10000000353E+02 0.  0.
         12    1    1    2    0    0 -0.23463361688E+01 -0.16692535343E+02  0.41772807606E+02  0.45045682200E+02  0.00000000000E+00 0. -1.
         11    1    3    3    0    0  0.17031520838E+01  0.79010897370E+01 -0.12409825045E+02  0.14809851585E+02  0.51100000000E-03 0. -1.
        -11    1    3    3    0    0  0.35688891271E+00  0.97029493600E+01 -0.24080926777E+02  0.25964699703E+02  0.51100000000E-03 0.  1.
         12    1    3    3    0    0  0.28629517230E+00 -0.91150375440E+00 -0.52820557841E+01  0.53677665119E+01  0.00000000000E+00 0. -1.
</event>
<event>
 7    1  0.5664398E-009  0.4614232E+02  0.7816164E-02  0.1320468E+00
        -11   -1    0    0    0    0  0.00000000000E+00  0.00000000000E+00  0.45593999997E+02  0.45594000000E+02  0.51100000000E-03 0. -1.
         11   -1    0    0    0    0 -0.00000000000E+00 -0.00000000000E+00 -0.45593999997E+02  0.45594000000E+02  0.51100000000E-03 0.  1.
    9900012    2    1    2    0    0  0.23966341341E+02 -0.14882419062E+02 -0.35117539920E+02  0.46142317361E+02  0.99999963508E+01 0.  0.
         12    1    1    2    0    0 -0.23966341341E+02  0.14882419062E+02  0.35117539920E+02  0.45045682639E+02  0.00000000000E+00 0. -1.
         11    1    3    3    0    0  0.18242164208E+02 -0.64062886867E+01 -0.25653225820E+02  0.32123279486E+02  0.51100000000E-03 0. -1.
        -11    1    3    3    0    0  0.17271320087E+01 -0.22599631457E+01 -0.35789273697E+01  0.45715576967E+01  0.51100000000E-03 0.  1.
         12    1    3    3    0    0  0.39970451246E+01 -0.62161672293E+01 -0.58853867303E+01  0.94474801781E+01  0.00000000000E+00 0. -1.
</event>
<event>
 7    1  0.5664398E-009  0.4614232E+02  0.7816164E-02  0.1320468E+00
        -11   -1    0    0    0    0  0.00000000000E+00  0.00000000000E+00  0.45593999997E+02  0.45594000000E+02  0.51100000000E-03 0. -1.
         11   -1    0    0    0    0 -0.00000000000E+00 -0.00000000000E+00 -0.45593999997E+02  0.45594000000E+02  0.51100000000E-03 0.  1.
    9900012    2    1    2    0    0  0.17424698138E+01  0.34191466860E+02 -0.29274918625E+02  0.46142317992E+02  0.10000002101E+02 0.  0.
         12    1    1    2    0    0 -0.17424698138E+01 -0.34191466860E+02  0.29274918625E+02  0.45045682008E+02  0.00000000000E+00 0. -1.
         11    1    3    3    0    0  0.18432867638E+01  0.58468264671E+01 -0.66350390201E+01  0.90336498100E+01  0.51100000000E-03 0. -1.
        -11    1    3    3    0    0  0.12994029638E+01  0.25097920766E+02 -0.22224053384E+02  0.33548511501E+02  0.51100000000E-03 0.  1.
         12    1    3    3    0    0 -0.14002199138E+01  0.32467196272E+01 -0.41582622040E+00  0.35601566806E+01  0.00000000000E+00 0. -1.
</event>
<event>
 7    1  0.5664398E-009  0.4614232E+02  0.7816164E-02  0.1320468E+00
        -11   -1    0    0    0    0  0.00000000000E+00  0.00000000000E+00  0.45593999997E+02  0.45594000000E+02  0.51100000000E-03 0. -1.
         11   -1    0    0    0    0 -0.00000000000E+00 -0.00000000000E+00 -0.45593999997E+02  0.45594000000E+02  0.51100000000E-03 0.  1.
    9900012    2    1    2    0    0 -0.10883898629E+02  0.18220185783E+02 -0.39732594858E+02  0.46142317482E+02  0.99999974547E+01 0.  0.
         12    1    1    2    0    0  0.10883898629E+02 -0.18220185783E+02  0.39732594858E+02  0.45045682518E+02  0.00000000000E+00 0. -1.
         11    1    3    3    0    0  0.58964014348E+00  0.39526417000E+00 -0.15537610383E+01  0.17082397046E+01  0.51100000000E-03 0. -1.
        -11    1    3    3    0    0 -0.10727247581E+02  0.10152539712E+02 -0.21804590891E+02  0.26336060591E+02  0.51100000000E-03 0.  1.
        -12    1    3    3    0    0 -0.74629119116E+00  0.76723819010E+01 -0.16374242929E+02  0.18098017186E+02  0.00000000000E+00 0.  1.
</event>
<event>
 7    1  0.5664398E-009  0.4614232E+02  0.7816164E-02  0.1320468E+00
        -11   -1    0    0    0    0  0.00000000000E+00  0.00000000000E+00  0.45593999997E+02  0.45594000000E+02  0.51100000000E-03 0.  1.
         11   -1    0    0    0    0 -0.00000000000E+00 -0.00000000000E+00 -0.45593999997E+02  0.45594000000E+02  0.51100000000E-03 0. -1.
    9900012    2    1    2    0    0  0.10366132624E+02  0.43808877218E+02  0.15617647806E+01  0.46142317211E+02  0.99999949855E+01 0.  0.
         12    1    1    2    0    0 -0.10366132624E+02 -0.43808877218E+02 -0.15617647806E+01  0.45045682789E+02  0.00000000000E+00 0. -1.
         11    1    3    3    0    0  0.30047025362E+01  0.31544458298E+02  0.97389484086E+00  0.31702201155E+02  0.51100000000E-03 0.  1.
        -11    1    3    3    0    0  0.92664688151E-01  0.92025023562E+00 -0.19129471723E+00  0.94447931187E+00  0.51100000000E-03 0. -1.
        -12    1    3    3    0    0  0.72687653998E+01  0.11344168685E+02  0.77916465700E+00  0.13495636745E+02  0.00000000000E+00 0.  1.
</event>
<event>
 7    1  0.5664398E-009  0.4614231E+02  0.7816164E-02  0.1320468E+00
        -11   -1    0    0    0    0  0.00000000000E+00  0.00000000000E+00  0.45593999997E+02  0.45594000000E+02  0.51100000000E-03 0. -1.
         11   -1    0    0    0    0 -0.00000000000E+00 -0.00000000000E+00 -0.45593999997E+02  0.45594000000E+02  0.51100000000E-03 0.  1.
    9900012    2    1    2    0    0 -0.26322917656E+02 -0.26086479435E+02 -0.25606917616E+02  0.46142305055E+02  0.99998841352E+01 0.  0.
         12    1    1    2    0    0  0.26322917656E+02  0.26086479435E+02  0.25606917616E+02  0.45045694945E+02  0.00000000000E+00 0. -1.
         11    1    3    3    0    0 -0.73308543271E+01 -0.30805597065E+01 -0.50072900614E+01  0.93970328982E+01  0.51100000000E-03 0. -1.
        -11    1    3    3    0    0 -0.97994436059E+01 -0.11920440852E+02 -0.14257203826E+02  0.21009375676E+02  0.51100000000E-03 0.  1.
        -12    1    3    3    0    0 -0.91926197233E+01 -0.11085478876E+02 -0.63424237288E+01  0.15735896481E+02  0.00000000000E+00 0.  1.
</event>
<event>
 7    1  0.5664398E-009  0.4614232E+02  0.7816164E-02  0.1320468E+00
        -11   -1    0    0    0    0  0.00000000000E+00  0.00000000000E+00  0.45593999997E+02  0.45594000000E+02  0.51100000000E-03 0. -1.
         11   -1    0    0    0    0 -0.00000000000E+00 -0.00000000000E+00 -0.45593999997E+02  0.45594000000E+02  0.51100000000E-03 0.  1.
    9900012    2    1    2    0    0 -0.11211410219E+02  0.36388088102E+02 -0.24069168839E+02  0.46142316928E+02  0.99999924026E+01 0.  0.
         12    1    1    2    0    0  0.11211410219E+02 -0.36388088102E+02  0.24069168839E+02  0.45045683072E+02  0.00000000000E+00 0. -1.
         11    1    3    3    0    0 -0.77733031026E+01  0.19303467435E+02 -0.15755447256E+02  0.26101383385E+02  0.51100000000E-03 0. -1.
        -11    1    3    3    0    0 -0.17207485352E+01  0.31791276234E+01 -0.39760406312E+01  0.53737070379E+01  0.51100000000E-03 0.  1.
        -12    1    3    3    0    0 -0.17173585815E+01  0.13905493044E+02 -0.43376809509E+01  0.14667226505E+02  0.00000000000E+00 0.  1.
</event>
<event>
 7    1  0.5664398E-009  0.4614232E+02  0.7816164E-02  0.1320468E+00
        -11   -1    0    0    0    0  0.00000000000E+00  0.00000000000E+00  0.45593999997E+02  0.45594000000E+02  0.51100000000E-03 0. -1.
         11   -1    0    0    0    0 -0.00000000000E+00 -0.00000000000E+00 -0.45593999997E+02  0.45594000000E+02  0.51100000000E-03 0.  1.
    9900012    2    1    2    0    0 -0.40676267474E+02  0.18158750651E+01 -0.19268038106E+02  0.46142318405E+02  0.10000005875E+02 0.  0.
         12    1    1    2    0    0  0.40676267474E+02 -0.18158750651E+01  0.19268038106E+02  0.45045681595E+02  0.00000000000E+00 0. -1.
         11    1    3    3    0    0 -0.25631315985E+02 -0.10263362568E+01 -0.96417290078E+01  0.27404026415E+02  0.51100000000E-03 0. -1.
        -11    1    3    3    0    0 -0.15030936348E+02  0.28205905738E+01 -0.10058977239E+02  0.18304857334E+02  0.51100000000E-03 0.  1.
         12    1    3    3    0    0 -0.14015141141E-01  0.21620748142E-01  0.43266814069E+00  0.43343465585E+00  0.00000000000E+00 0. -1.
</event>
<event>
 7    1  0.5664398E-009  0.4614232E+02  0.7816164E-02  0.1320468E+00
        -11   -1    0    0    0    0  0.00000000000E+00  0.00000000000E+00  0.45593999997E+02  0.45594000000E+02  0.51100000000E-03 0. -1.
         11   -1    0    0    0    0 -0.00000000000E+00 -0.00000000000E+00 -0.45593999997E+02  0.45594000000E+02  0.51100000000E-03 0.  1.
    9900012    2    1    2    0    0  0.37808831179E+01  0.18262040471E+02 -0.41003857361E+02  0.46142317434E+02  0.99999970213E+01 0.  0.
         12    1    1    2    0    0 -0.37808831179E+01 -0.18262040471E+02  0.41003857361E+02  0.45045682566E+02  0.00000000000E+00 0. -1.
         11    1    3    3    0    0  0.24192065567E+01  0.84433826775E+01 -0.26047919311E+02  0.27488859054E+02  0.51100000000E-03 0. -1.
        -11    1    3    3    0    0  0.14327658272E+01  0.10429380958E+02 -0.13989693367E+02  0.17508178827E+02  0.51100000000E-03 0.  1.
         12    1    3    3    0    0 -0.71089266042E-01 -0.61072316451E+00 -0.96624468271E+00  0.11452795529E+01  0.00000000000E+00 0. -1.
</event>
<event>
 7    1  0.5664398E-009  0.4614232E+02  0.7816164E-02  0.1320468E+00
        -11   -1    0    0    0    0  0.00000000000E+00  0.00000000000E+00  0.45593999997E+02  0.45594000000E+02  0.51100000000E-03 0. -1.
         11   -1    0    0    0    0 -0.00000000000E+00 -0.00000000000E+00 -0.45593999997E+02  0.45594000000E+02  0.51100000000E-03 0.  1.
    9900012    2    1    2    0    0 -0.42359104033E+02 -0.14605793227E+02  0.46358139785E+01  0.46142315839E+02  0.99999824742E+01 0.  0.
        -12    1    1    2    0    0  0.42359104033E+02  0.14605793227E+02 -0.46358139785E+01  0.45045684161E+02  0.00000000000E+00 0.  1.
         11    1    3    3    0    0 -0.30792459226E+02 -0.63273719123E+01  0.25197141885E+01  0.31536647576E+02  0.51100000000E-03 0. -1.
        -11    1    3    3    0    0 -0.35573464559E+01 -0.20190591061E+01  0.17072650830E+01  0.44323884989E+01  0.51100000000E-03 0.  1.
        -12    1    3    3    0    0 -0.80092983516E+01 -0.62593622087E+01  0.40883470692E+00  0.10173279764E+02  0.00000000000E+00 0.  1.
</event>
<event>
 7    1  0.5664398E-009  0.4614232E+02  0.7816164E-02  0.1320468E+00
        -11   -1    0    0    0    0  0.00000000000E+00  0.00000000000E+00  0.45593999997E+02  0.45594000000E+02  0.51100000000E-03 0. -1.
         11   -1    0    0    0    0 -0.00000000000E+00 -0.00000000000E+00 -0.45593999997E+02  0.45594000000E+02  0.51100000000E-03 0.  1.
    9900012    2    1    2    0    0  0.13921500319E+02  0.13646737780E+02 -0.40608764207E+02  0.46142319257E+02  0.10000013641E+02 0.  0.
         12    1    1    2    0    0 -0.13921500319E+02 -0.13646737780E+02  0.40608764207E+02  0.45045680743E+02  0.00000000000E+00 0. -1.
         11    1    3    3    0    0  0.90200091392E+01  0.13238006170E+02 -0.30446576126E+02  0.34403479043E+02  0.51100000000E-03 0. -1.
        -11    1    3    3    0    0  0.17937928581E+01  0.17319101991E+01 -0.40741649530E+01  0.47766124064E+01  0.51100000000E-03 0.  1.
         12    1    3    3    0    0  0.31076983217E+01 -0.13231785883E+01 -0.60880231284E+01  0.69622278078E+01  0.00000000000E+00 0. -1.
</event>
<event>
 7    1  0.5664398E-009  0.4614232E+02  0.7816164E-02  0.1320468E+00
        -11   -1    0    0    0    0  0.00000000000E+00  0.00000000000E+00  0.45593999997E+02  0.45594000000E+02  0.51100000000E-03 0. -1.
         11   -1    0    0    0    0 -0.00000000000E+00 -0.00000000000E+00 -0.45593999997E+02  0.45594000000E+02  0.51100000000E-03 0.  1.
    9900012    2    1    2    0    0 -0.28170227403E+02  0.75072050281E+01 -0.34339389156E+02  0.46142317777E+02  0.10000000149E+02 0.  0.
         12    1    1    2    0    0  0.28170227403E+02 -0.75072050281E+01  0.34339389156E+02  0.45045682223E+02  0.00000000000E+00 0. -1.
         11    1    3    3    0    0 -0.60734179193E+01  0.10253139029E+01 -0.52449074894E+01  0.80899152441E+01  0.51100000000E-03 0. -1.
        -11    1    3    3    0    0 -0.46383198718E+01  0.39234080447E+01 -0.36462116196E+01  0.70853370671E+01  0.51100000000E-03 0.  1.
         12    1    3    3    0    0 -0.17458489612E+02  0.25584830806E+01 -0.25448270047E+02  0.30967065466E+02  0.00000000000E+00 0. -1.
</event>
<event>
 7    1  0.5664398E-009  0.4614232E+02  0.7816164E-02  0.1320468E+00
        -11   -1    0    0    0    0  0.00000000000E+00  0.00000000000E+00  0.45593999997E+02  0.45594000000E+02  0.51100000000E-03 0. -1.
         11   -1    0    0    0    0 -0.00000000000E+00 -0.00000000000E+00 -0.45593999997E+02  0.45594000000E+02  0.51100000000E-03 0.  1.
    9900012    2    1    2    0    0  0.12617423499E+02 -0.35885286009E+01  0.43093348560E+02  0.46142316484E+02  0.99999883569E+01 0.  0.
        -12    1    1    2    0    0 -0.12617423499E+02  0.35885286009E+01 -0.43093348560E+02  0.45045683516E+02  0.00000000000E+00 0.  1.
         11    1    3    3    0    0  0.90583901377E+01 -0.23322617707E+01  0.16895201327E+02  0.19311698656E+02  0.51100000000E-03 0. -1.
        -11    1    3    3    0    0  0.24332318013E+01 -0.21780701469E+01  0.90559189645E+01  0.96267478993E+01  0.51100000000E-03 0.  1.
         12    1    3    3    0    0  0.11258015601E+01  0.92180331660E+00  0.17142228269E+02  0.17203869929E+02  0.00000000000E+00 0. -1.
</event>
<event>
 7    1  0.5664398E-009  0.4614232E+02  0.7816164E-02  0.1320468E+00
        -11   -1    0    0    0    0  0.00000000000E+00  0.00000000000E+00  0.45593999997E+02  0.45594000000E+02  0.51100000000E-03 0. -1.
         11   -1    0    0    0    0 -0.00000000000E+00 -0.00000000000E+00 -0.45593999997E+02  0.45594000000E+02  0.51100000000E-03 0.  1.
    9900012    2    1    2    0    0  0.30878475108E+02  0.23331236620E+02 -0.23049654916E+02  0.46142318531E+02  0.10000007024E+02 0.  0.
         12    1    1    2    0    0 -0.30878475108E+02 -0.23331236620E+02  0.23049654916E+02  0.45045681469E+02  0.00000000000E+00 0. -1.
         11    1    3    3    0    0  0.90700759008E+01  0.72762203330E+01 -0.11352189003E+02  0.16250595515E+02  0.51100000000E-03 0. -1.
        -11    1    3    3    0    0  0.19910282708E+02  0.14285195988E+02 -0.11988550576E+02  0.27280240598E+02  0.51100000000E-03 0.  1.
         12    1    3    3    0    0  0.18981164998E+01  0.17698202993E+01  0.29108466339E+00  0.26114824181E+01  0.00000000000E+00 0. -1.
</event>
<event>
 7    1  0.5664398E-009  0.4614231E+02  0.7816164E-02  0.1320468E+00
        -11   -1    0    0    0    0  0.00000000000E+00  0.00000000000E+00  0.45593999997E+02  0.45594000000E+02  0.51100000000E-03 0. -1.
         11   -1    0    0    0    0 -0.00000000000E+00 -0.00000000000E+00 -0.45593999997E+02  0.45594000000E+02  0.51100000000E-03 0.  1.
    9900012    2    1    2    0    0  0.20640090539E+02 -0.19566411948E+02  0.34932174427E+02  0.46142305154E+02  0.99998850390E+01 0.  0.
        -12    1    1    2    0    0 -0.20640090539E+02  0.19566411948E+02 -0.34932174427E+02  0.45045694846E+02  0.00000000000E+00 0.  1.
         11    1    3    3    0    0  0.11719601778E+02 -0.10206882309E+02  0.22091533071E+02  0.27010467341E+02  0.51100000000E-03 0. -1.
        -11    1    3    3    0    0  0.88777546400E+01 -0.85453475283E+01  0.13352330612E+02  0.18169265942E+02  0.51100000000E-03 0.  1.
        -12    1    3    3    0    0  0.42734121417E-01 -0.81418211010E+00 -0.51168925579E+00  0.96257187161E+00  0.00000000000E+00 0.  1.
</event>
<event>
 7    1  0.5664398E-009  0.4614232E+02  0.7816164E-02  0.1320468E+00
        -11   -1    0    0    0    0  0.00000000000E+00  0.00000000000E+00  0.45593999997E+02  0.45594000000E+02  0.51100000000E-03 0. -1.
         11   -1    0    0    0    0 -0.00000000000E+00 -0.00000000000E+00 -0.45593999997E+02  0.45594000000E+02  0.51100000000E-03 0.  1.
    9900012    2    1    2    0    0 -0.37874422694E+02 -0.99208425492E+01 -0.22275960117E+02  0.46142318627E+02  0.10000007895E+02 0.  0.
         12    1    1    2    0    0  0.37874422694E+02  0.99208425492E+01  0.22275960117E+02  0.45045681373E+02  0.00000000000E+00 0. -1.
         11    1    3    3    0    0 -0.12604653152E+02 -0.57133289960E+01 -0.95149675997E+01  0.16794463909E+02  0.51100000000E-03 0. -1.
        -11    1    3    3    0    0 -0.23828037140E+02 -0.36782882888E+01 -0.13511894757E+02  0.27638315051E+02  0.51100000000E-03 0.  1.
         12    1    3    3    0    0 -0.14417324012E+01 -0.52922526439E+00  0.75090224031E+00  0.17095396666E+01  0.00000000000E+00 0. -1.
</event>
<event>
 7    1  0.5664398E-009  0.4614232E+02  0.7816164E-02  0.1320468E+00
        -11   -1    0    0    0    0  0.00000000000E+00  0.00000000000E+00  0.45593999997E+02  0.45594000000E+02  0.51100000000E-03 0. -1.
         11   -1    0    0    0    0 -0.00000000000E+00 -0.00000000000E+00 -0.45593999997E+02  0.45594000000E+02  0.51100000000E-03 0.  1.
    9900012    2    1    2    0    0  0.51545973922E+01  0.21752172109E+02  0.39107372212E+02  0.46142318441E+02  0.10000006203E+02 0.  0.
        -12    1    1    2    0    0 -0.51545973922E+01 -0.21752172109E+02 -0.39107372212E+02  0.45045681559E+02  0.00000000000E+00 0.  1.
         11    1    3    3    0    0 -0.12069484328E-01 -0.42493963935E+00  0.22182551656E+00  0.47950619440E+00  0.51100000000E-03 0. -1.
        -11    1    3    3    0    0 -0.12452605676E+01  0.85962129499E+01  0.17415166787E+02  0.19461078733E+02  0.51100000000E-03 0.  1.
         12    1    3    3    0    0  0.64119274441E+01  0.13580898799E+02  0.21470379908E+02  0.26201733514E+02  0.00000000000E+00 0. -1.
</event>
<event>
 7    1  0.5664398E-009  0.4614232E+02  0.7816164E-02  0.1320468E+00
        -11   -1    0    0    0    0  0.00000000000E+00  0.00000000000E+00  0.45593999997E+02  0.45594000000E+02  0.51100000000E-03 0. -1.
         11   -1    0    0    0    0 -0.00000000000E+00 -0.00000000000E+00 -0.45593999997E+02  0.45594000000E+02  0.51100000000E-03 0.  1.
    9900012    2    1    2    0    0 -0.99696629238E+00 -0.31175814126E+02  0.32499041614E+02  0.46142322804E+02  0.10000045982E+02 0.  0.
        -12    1    1    2    0    0  0.99696629238E+00  0.31175814126E+02 -0.32499041614E+02  0.45045677196E+02  0.00000000000E+00 0.  1.
         11    1    3    3    0    0 -0.22145106547E+01 -0.35728518489E+01  0.78256244414E+01  0.88831146527E+01  0.51100000000E-03 0. -1.
        -11    1    3    3    0    0 -0.13419455292E+01 -0.14475555787E+02  0.13260971353E+02  0.19677293885E+02  0.51100000000E-03 0.  1.
        -12    1    3    3    0    0  0.25594898915E+01 -0.13127406491E+02  0.11412445819E+02  0.17581914266E+02  0.00000000000E+00 0.  1.
</event>
<event>
 7    1  0.5664398E-009  0.4614232E+02  0.7816164E-02  0.1320468E+00
        -11   -1    0    0    0    0  0.00000000000E+00  0.00000000000E+00  0.45593999997E+02  0.45594000000E+02  0.51100000000E-03 0. -1.
         11   -1    0    0    0    0 -0.00000000000E+00 -0.00000000000E+00 -0.45593999997E+02  0.45594000000E+02  0.51100000000E-03 0.  1.
    9900012    2    1    2    0    0 -0.36172583027E+02  0.22085225288E+02  0.15261081887E+02  0.46142316975E+02  0.99999928297E+01 0.  0.
        -12    1    1    2    0    0  0.36172583027E+02 -0.22085225288E+02 -0.15261081887E+02  0.45045683025E+02  0.00000000000E+00 0.  1.
         11    1    3    3    0    0 -0.15054435188E+02  0.10882141938E+02  0.53049920405E+01  0.19318384322E+02  0.51100000000E-03 0. -1.
        -11    1    3    3    0    0 -0.18364735289E+02  0.10368552239E+02  0.10971678379E+02  0.23772843845E+02  0.51100000000E-03 0.  1.
         12    1    3    3    0    0 -0.27534125504E+01  0.83453111109E+00 -0.10155885332E+01  0.30510888084E+01  0.00000000000E+00 0. -1.
</event>
<event>
 7    1  0.5664398E-009  0.4614232E+02  0.7816164E-02  0.1320468E+00
        -11   -1    0    0    0    0  0.00000000000E+00  0.00000000000E+00  0.45593999997E+02  0.45594000000E+02  0.51100000000E-03 0. -1.
         11   -1    0    0    0    0 -0.00000000000E+00 -0.00000000000E+00 -0.45593999997E+02  0.45594000000E+02  0.51100000000E-03 0.  1.
    9900012    2    1    2    0    0 -0.72146783859E+01  0.22960561513E+01  0.44404844287E+02  0.46142315920E+02  0.99999832108E+01 0.  0.
        -12    1    1    2    0    0  0.72146783859E+01 -0.22960561513E+01 -0.44404844287E+02  0.45045684080E+02  0.00000000000E+00 0.  1.
         11    1    3    3    0    0 -0.46435421100E+01  0.31595321291E+01  0.22862391418E+02  0.23542176370E+02  0.51100000000E-03 0. -1.
        -11    1    3    3    0    0  0.17796176572E+01  0.88554758885E+00  0.44047436756E+01  0.48324942469E+01  0.51100000000E-03 0.  1.
        -12    1    3    3    0    0 -0.43507539331E+01 -0.17490235667E+01  0.17137709194E+02  0.17767645303E+02  0.00000000000E+00 0.  1.
</event>
<event>
 7    1  0.5664398E-009  0.4614232E+02  0.7816164E-02  0.1320468E+00
        -11   -1    0    0    0    0  0.00000000000E+00  0.00000000000E+00  0.45593999997E+02  0.45594000000E+02  0.51100000000E-03 0.  1.
         11   -1    0    0    0    0 -0.00000000000E+00 -0.00000000000E+00 -0.45593999997E+02  0.45594000000E+02  0.51100000000E-03 0. -1.
    9900012    2    1    2    0    0 -0.37477573509E+02 -0.13979943307E+02  0.20714882826E+02  0.46142315395E+02  0.99999784282E+01 0.  0.
        -12    1    1    2    0    0  0.37477573509E+02  0.13979943307E+02 -0.20714882826E+02  0.45045684605E+02  0.00000000000E+00 0.  1.
         11    1    3    3    0    0 -0.23571053191E+02 -0.94592666792E+01  0.15023885377E+02  0.29509141070E+02  0.51100000000E-03 0. -1.
        -11    1    3    3    0    0 -0.11490197043E+02 -0.40758007588E+01  0.22381518199E+01  0.12395406558E+02  0.51100000000E-03 0.  1.
         12    1    3    3    0    0 -0.24163232754E+01 -0.44487586950E+00  0.34528456291E+01  0.42377677672E+01  0.00000000000E+00 0. -1.
</event>
<event>
 7    1  0.5664398E-009  0.4614232E+02  0.7816164E-02  0.1320468E+00
        -11   -1    0    0    0    0  0.00000000000E+00  0.00000000000E+00  0.45593999997E+02  0.45594000000E+02  0.51100000000E-03 0.  1.
         11   -1    0    0    0    0 -0.00000000000E+00 -0.00000000000E+00 -0.45593999997E+02  0.45594000000E+02  0.51100000000E-03 0. -1.
    9900012    2    1    2    0    0  0.36446899584E+02 -0.19982045210E+02 -0.17362453665E+02  0.46142318550E+02  0.10000007191E+02 0.  0.
         12    1    1    2    0    0 -0.36446899584E+02  0.19982045210E+02  0.17362453665E+02  0.45045681450E+02  0.00000000000E+00 0. -1.
         11    1    3    3    0    0  0.10968483475E+02 -0.10219174084E+02 -0.65172596468E+01  0.16346676184E+02  0.51100000000E-03 0. -1.
        -11    1    3    3    0    0  0.47578638260E+01 -0.30181946944E+01 -0.41561347366E+01  0.70014443946E+01  0.51100000000E-03 0.  1.
        -12    1    3    3    0    0  0.20720552283E+02 -0.67446764320E+01 -0.66890592816E+01  0.22794197971E+02  0.00000000000E+00 0.  1.
</event>
<event>
 7    1  0.5664398E-009  0.4614232E+02  0.7816164E-02  0.1320468E+00
        -11   -1    0    0    0    0  0.00000000000E+00  0.00000000000E+00  0.45593999997E+02  0.45594000000E+02  0.51100000000E-03 0. -1.
         11   -1    0    0    0    0 -0.00000000000E+00 -0.00000000000E+00 -0.45593999997E+02  0.45594000000E+02  0.51100000000E-03 0.  1.
    9900012    2    1    2    0    0  0.19291318149E+02  0.33313202571E+02 -0.23392074245E+02  0.46142316978E+02  0.99999928548E+01 0.  0.
         12    1    1    2    0    0 -0.19291318149E+02 -0.33313202571E+02  0.23392074245E+02  0.45045683022E+02  0.00000000000E+00 0. -1.
         11    1    3    3    0    0 -0.49558617835E+00  0.19746408745E+01 -0.87459307508E+00  0.22157900513E+01  0.51100000000E-03 0. -1.
        -11    1    3    3    0    0  0.58851721937E+01  0.14142609214E+02 -0.65931420783E+01  0.16676875303E+02  0.51100000000E-03 0.  1.
        -12    1    3    3    0    0  0.13901732134E+02  0.17195952482E+02 -0.15924339092E+02  0.27249651624E+02  0.00000000000E+00 0.  1.
</event>
<event>
 7    1  0.5664398E-009  0.4614232E+02  0.7816164E-02  0.1320468E+00
        -11   -1    0    0    0    0  0.00000000000E+00  0.00000000000E+00  0.45593999997E+02  0.45594000000E+02  0.51100000000E-03 0. -1.
         11   -1    0    0    0    0 -0.00000000000E+00 -0.00000000000E+00 -0.45593999997E+02  0.45594000000E+02  0.51100000000E-03 0.  1.
    9900012    2    1    2    0    0  0.22303236749E+02 -0.32533258344E+00 -0.39135320018E+02  0.46142317813E+02  0.10000000474E+02 0.  0.
         12    1    1    2    0    0 -0.22303236749E+02  0.32533258344E+00  0.39135320018E+02  0.45045682187E+02  0.00000000000E+00 0. -1.
         11    1    3    3    0    0 -0.62418167151E+00  0.33894393848E-01 -0.41640682899E+00  0.75109686282E+00  0.51100000000E-03 0. -1.
        -11    1    3    3    0    0  0.13065204984E+02  0.18843092204E+01 -0.25830951350E+02  0.29008416890E+02  0.51100000000E-03 0.  1.
        -12    1    3    3    0    0  0.98622134365E+01 -0.22435361977E+01 -0.12887961839E+02  0.16382804061E+02  0.00000000000E+00 0.  1.
</event>
<event>
 7    1  0.5664398E-009  0.4614232E+02  0.7816164E-02  0.1320468E+00
        -11   -1    0    0    0    0  0.00000000000E+00  0.00000000000E+00  0.45593999997E+02  0.45594000000E+02  0.51100000000E-03 0.  1.
         11   -1    0    0    0    0 -0.00000000000E+00 -0.00000000000E+00 -0.45593999997E+02  0.45594000000E+02  0.51100000000E-03 0. -1.
    9900012    2    1    2    0    0 -0.39650378470E+02  0.11170463156E+02  0.18225852875E+02  0.46142317933E+02  0.10000001565E+02 0.  0.
        -12    1    1    2    0    0  0.39650378470E+02 -0.11170463156E+02 -0.18225852875E+02  0.45045682067E+02  0.00000000000E+00 0.  1.
         11    1    3    3    0    0 -0.63551951040E+01 -0.15807491388E+00  0.15648726454E+01  0.65469320407E+01  0.51100000000E-03 0. -1.
        -11    1    3    3    0    0 -0.10046768111E+02  0.61736577521E+01  0.80298191669E+01  0.14266379906E+02  0.51100000000E-03 0.  1.
         12    1    3    3    0    0 -0.23248415255E+02  0.51548803177E+01  0.86311610623E+01  0.25329005986E+02  0.00000000000E+00 0. -1.
</event>
<event>
 7    1  0.5664398E-009  0.4614232E+02  0.7816164E-02  0.1320468E+00
        -11   -1    0    0    0    0  0.00000000000E+00  0.00000000000E+00  0.45593999997E+02  0.45594000000E+02  0.51100000000E-03 0. -1.
         11   -1    0    0    0    0 -0.00000000000E+00 -0.00000000000E+00 -0.45593999997E+02  0.45594000000E+02  0.51100000000E-03 0.  1.
    9900012    2    1    2    0    0 -0.42596587281E+02 -0.12359124370E+02 -0.78674208021E+01  0.46142317485E+02  0.99999974799E+01 0.  0.
         12    1    1    2    0    0  0.42596587281E+02  0.12359124370E+02  0.78674208021E+01  0.45045682515E+02  0.00000000000E+00 0. -1.
         11    1    3    3    0    0 -0.13027843582E+00 -0.11079902136E+00  0.80574677155E-01  0.18905404966E+00  0.51100000000E-03 0. -1.
        -11    1    3    3    0    0 -0.34399604386E+02 -0.13345688999E+02 -0.47313001461E+01  0.37199803738E+02  0.51100000000E-03 0.  1.
        -12    1    3    3    0    0 -0.80667044586E+01  0.10973636500E+01 -0.32166953332E+01  0.87534596972E+01  0.00000000000E+00 0.  1.
</event>
<event>
 7    1  0.5664398E-009  0.4614232E+02  0.7816164E-02  0.1320468E+00
        -11   -1    0    0    0    0  0.00000000000E+00  0.00000000000E+00  0.45593999997E+02  0.45594000000E+02  0.51100000000E-03 0. -1.
         11   -1    0    0    0    0 -0.00000000000E+00 -0.00000000000E+00 -0.45593999997E+02  0.45594000000E+02  0.51100000000E-03 0.  1.
    9900012    2    1    2    0    0  0.32692595190E+02  0.41463033800E+01  0.30710190214E+02  0.46142318798E+02  0.10000009457E+02 0.  0.
        -12    1    1    2    0    0 -0.32692595190E+02 -0.41463033800E+01 -0.30710190214E+02  0.45045681202E+02  0.00000000000E+00 0.  1.
         11    1    3    3    0    0  0.10144355991E+02 -0.11606516061E+01  0.10865299678E+02  0.14910057276E+02  0.51100000000E-03 0. -1.
        -11    1    3    3    0    0  0.18846175345E+02  0.17456071930E+01  0.14732299411E+02  0.23984705873E+02  0.51100000000E-03 0.  1.
        -12    1    3    3    0    0  0.37020638544E+01  0.35613477931E+01  0.51125911248E+01  0.72475556497E+01  0.00000000000E+00 0.  1.
</event>
<event>
 7    1  0.5664398E-009  0.4614232E+02  0.7816164E-02  0.1320468E+00
        -11   -1    0    0    0    0  0.00000000000E+00  0.00000000000E+00  0.45593999997E+02  0.45594000000E+02  0.51100000000E-03 0. -1.
         11   -1    0    0    0    0 -0.00000000000E+00 -0.00000000000E+00 -0.45593999997E+02  0.45594000000E+02  0.51100000000E-03 0.  1.
    9900012    2    1    2    0    0  0.45834104275E+01  0.41398415597E+02  0.17154503713E+02  0.46142318046E+02  0.10000002599E+02 0.  0.
        -12    1    1    2    0    0 -0.45834104275E+01 -0.41398415597E+02 -0.17154503713E+02  0.45045681954E+02  0.00000000000E+00 0.  1.
         11    1    3    3    0    0 -0.19953616714E+00  0.42026863833E+01  0.40870696421E+01  0.58657076333E+01  0.51100000000E-03 0.  1.
        -11    1    3    3    0    0  0.38250165384E+01  0.11330787214E+02  0.19916204697E+01  0.12123697570E+02  0.51100000000E-03 0. -1.
         12    1    3    3    0    0  0.95793005626E+00  0.25864941999E+02  0.11075813601E+02  0.28152912843E+02  0.00000000000E+00 0. -1.
</event>
<event>
 7    1  0.5664398E-009  0.4614232E+02  0.7816164E-02  0.1320468E+00
        -11   -1    0    0    0    0  0.00000000000E+00  0.00000000000E+00  0.45593999997E+02  0.45594000000E+02  0.51100000000E-03 0. -1.
         11   -1    0    0    0    0 -0.00000000000E+00 -0.00000000000E+00 -0.45593999997E+02  0.45594000000E+02  0.51100000000E-03 0.  1.
    9900012    2    1    2    0    0  0.15890040666E+02  0.24020632980E+02 -0.34635664802E+02  0.46142317882E+02  0.10000001106E+02 0.  0.
         12    1    1    2    0    0 -0.15890040666E+02 -0.24020632980E+02  0.34635664802E+02  0.45045682118E+02  0.00000000000E+00 0. -1.
         11    1    3    3    0    0  0.18919871378E+01  0.83106146165E+01 -0.90296360358E+01  0.12416934317E+02  0.51100000000E-03 0. -1.
        -11    1    3    3    0    0  0.12300023201E+02  0.10317940274E+02 -0.20996873904E+02  0.26431405113E+02  0.51100000000E-03 0.  1.
        -12    1    3    3    0    0  0.16980303270E+01  0.53920780894E+01 -0.46091548625E+01  0.72939784521E+01  0.00000000000E+00 0.  1.
</event>
<event>
 7    1  0.5664398E-009  0.4614232E+02  0.7816164E-02  0.1320468E+00
        -11   -1    0    0    0    0  0.00000000000E+00  0.00000000000E+00  0.45593999997E+02  0.45594000000E+02  0.51100000000E-03 0. -1.
         11   -1    0    0    0    0 -0.00000000000E+00 -0.00000000000E+00 -0.45593999997E+02  0.45594000000E+02  0.51100000000E-03 0.  1.
    9900012    2    1    2    0    0 -0.54263323853E+01  0.26975652018E+02  0.35664866316E+02  0.46142316807E+02  0.99999913024E+01 0.  0.
        -12    1    1    2    0    0  0.54263323853E+01 -0.26975652018E+02 -0.35664866316E+02  0.45045683193E+02  0.00000000000E+00 0.  1.
         11    1    3    3    0    0 -0.18043671152E+01  0.10355874671E+02  0.11926016538E+02  0.15897476266E+02  0.51100000000E-03 0. -1.
        -11    1    3    3    0    0 -0.32078420304E+01  0.15120685253E+01  0.34697144603E+01  0.49614030691E+01  0.51100000000E-03 0.  1.
         12    1    3    3    0    0 -0.41412323964E+00  0.15107708821E+02  0.20269135318E+02  0.25283437473E+02  0.00000000000E+00 0. -1.
</event>
<event>
 7    1  0.5664398E-009  0.4614232E+02  0.7816164E-02  0.1320468E+00
        -11   -1    0    0    0    0  0.00000000000E+00  0.00000000000E+00  0.45593999997E+02  0.45594000000E+02  0.51100000000E-03 0.  1.
         11   -1    0    0    0    0 -0.00000000000E+00 -0.00000000000E+00 -0.45593999997E+02  0.45594000000E+02  0.51100000000E-03 0. -1.
    9900012    2    1    2    0    0  0.21699759618E+02 -0.36476055407E+02  0.15090772174E+02  0.46142316630E+02  0.99999896825E+01 0.  0.
        -12    1    1    2    0    0 -0.21699759618E+02  0.36476055407E+02 -0.15090772174E+02  0.45045683370E+02  0.00000000000E+00 0.  1.
         11    1    3    3    0    0  0.42979891139E+01 -0.43707327805E+01  0.50112122750E+00  0.61503770785E+01  0.51100000000E-03 0. -1.
        -11    1    3    3    0    0  0.38391861261E+01 -0.14539001853E+02  0.62326902632E+01  0.16277848543E+02  0.51100000000E-03 0.  1.
        -12    1    3    3    0    0  0.13562584378E+02 -0.17566320773E+02  0.83569606832E+01  0.23714091009E+02  0.00000000000E+00 0.  1.
</event>
<event>
 7    1  0.5664398E-009  0.4614232E+02  0.7816164E-02  0.1320468E+00
        -11   -1    0    0    0    0  0.00000000000E+00  0.00000000000E+00  0.45593999997E+02  0.45594000000E+02  0.51100000000E-03 0. -1.
         11   -1    0    0    0    0 -0.00000000000E+00 -0.00000000000E+00 -0.45593999997E+02  0.45594000000E+02  0.51100000000E-03 0.  1.
    9900012    2    1    2    0    0  0.35475733127E+02  0.60736486847E+01 -0.27086834847E+02  0.46142317951E+02  0.10000001733E+02 0.  0.
         12    1    1    2    0    0 -0.35475733127E+02 -0.60736486847E+01  0.27086834847E+02  0.45045682049E+02  0.00000000000E+00 0. -1.
         11    1    3    3    0    0  0.11007954095E+02 -0.13338971980E+01 -0.60114601425E+01  0.12613167263E+02  0.51100000000E-03 0. -1.
        -11    1    3    3    0    0  0.17166924098E+02  0.27853309512E+01 -0.13140281564E+02  0.21797439100E+02  0.51100000000E-03 0.  1.
         12    1    3    3    0    0  0.73008549334E+01  0.46222149315E+01 -0.79350931407E+01  0.11731711588E+02  0.00000000000E+00 0. -1.
</event>
<event>
 7    1  0.5664398E-009  0.4614232E+02  0.7816164E-02  0.1320468E+00
        -11   -1    0    0    0    0  0.00000000000E+00  0.00000000000E+00  0.45593999997E+02  0.45594000000E+02  0.51100000000E-03 0. -1.
         11   -1    0    0    0    0 -0.00000000000E+00 -0.00000000000E+00 -0.45593999997E+02  0.45594000000E+02  0.51100000000E-03 0.  1.
    9900012    2    1    2    0    0  0.41940648400E+02  0.32763588914E+00  0.16431315602E+02  0.46142318011E+02  0.10000002277E+02 0.  0.
        -12    1    1    2    0    0 -0.41940648400E+02 -0.32763588914E+00 -0.16431315602E+02  0.45045681989E+02  0.00000000000E+00 0.  1.
         11    1    3    3    0    0  0.20390350997E+02  0.10458466744E+01  0.75933532983E+01  0.21783462159E+02  0.51100000000E-03 0. -1.
        -11    1    3    3    0    0  0.14672531828E+02  0.24133428554E+01  0.40453134134E+01  0.15410125725E+02  0.51100000000E-03 0.  1.
        -12    1    3    3    0    0  0.68777655744E+01 -0.31315536406E+01  0.47926488899E+01  0.89487301269E+01  0.00000000000E+00 0.  1.
</event>
<event>
 7    1  0.5664398E-009  0.4614232E+02  0.7816164E-02  0.1320468E+00
        -11   -1    0    0    0    0  0.00000000000E+00  0.00000000000E+00  0.45593999997E+02  0.45594000000E+02  0.51100000000E-03 0. -1.
         11   -1    0    0    0    0 -0.00000000000E+00 -0.00000000000E+00 -0.45593999997E+02  0.45594000000E+02  0.51100000000E-03 0.  1.
    9900012    2    1    2    0    0 -0.27906693511E+02 -0.15272864733E+02 -0.31891527517E+02  0.46142317996E+02  0.10000002139E+02 0.  0.
         12    1    1    2    0    0  0.27906693511E+02  0.15272864733E+02  0.31891527517E+02  0.45045682004E+02  0.00000000000E+00 0. -1.
         11    1    3    3    0    0 -0.66795385681E+01 -0.22715170142E+00 -0.70171429549E+01  0.96906206659E+01  0.51100000000E-03 0. -1.
        -11    1    3    3    0    0 -0.90671596929E+01 -0.68647137079E+01 -0.14810348663E+02  0.18673085095E+02  0.51100000000E-03 0.  1.
         12    1    3    3    0    0 -0.12159995250E+02 -0.81809993234E+01 -0.10064035898E+02  0.17778612234E+02  0.00000000000E+00 0. -1.
</event>
<event>
 7    1  0.5664398E-009  0.4614232E+02  0.7816164E-02  0.1320468E+00
        -11   -1    0    0    0    0  0.00000000000E+00  0.00000000000E+00  0.45593999997E+02  0.45594000000E+02  0.51100000000E-03 0. -1.
         11   -1    0    0    0    0 -0.00000000000E+00 -0.00000000000E+00 -0.45593999997E+02  0.45594000000E+02  0.51100000000E-03 0.  1.
    9900012    2    1    2    0    0  0.24820839661E+02 -0.33770428560E+02  0.16510523523E+02  0.46142319701E+02  0.10000017690E+02 0.  0.
        -12    1    1    2    0    0 -0.24820839661E+02  0.33770428560E+02 -0.16510523523E+02  0.45045680299E+02  0.00000000000E+00 0.  1.
         11    1    3    3    0    0  0.16578347661E+02 -0.22572961046E+02  0.15080798969E+02  0.31808971680E+02  0.51100000000E-03 0. -1.
        -11    1    3    3    0    0  0.37321525082E+01 -0.75063877157E+01  0.14365418062E+01  0.85052026140E+01  0.51100000000E-03 0.  1.
         12    1    3    3    0    0  0.45103394916E+01 -0.36910797982E+01 -0.68172520144E-02  0.58281454067E+01  0.00000000000E+00 0. -1.
</event>
<event>
 7    1  0.5664398E-009  0.4614232E+02  0.7816164E-02  0.1320468E+00
        -11   -1    0    0    0    0  0.00000000000E+00  0.00000000000E+00  0.45593999997E+02  0.45594000000E+02  0.51100000000E-03 0. -1.
         11   -1    0    0    0    0 -0.00000000000E+00 -0.00000000000E+00 -0.45593999997E+02  0.45594000000E+02  0.51100000000E-03 0.  1.
    9900012    2    1    2    0    0  0.18263087486E+02 -0.29835709346E+02 -0.28379631414E+02  0.46142318788E+02  0.10000009363E+02 0.  0.
         12    1    1    2    0    0 -0.18263087486E+02  0.29835709346E+02  0.28379631414E+02  0.45045681212E+02  0.00000000000E+00 0. -1.
         11    1    3    3    0    0  0.60125881777E+01 -0.15170115560E+02 -0.12920058401E+02  0.20813734216E+02  0.51100000000E-03 0. -1.
        -11    1    3    3    0    0  0.12116419764E+01 -0.48164540905E-03 -0.27424289626E+01  0.29981650033E+01  0.51100000000E-03 0.  1.
        -12    1    3    3    0    0  0.11038857332E+02 -0.14665112140E+02 -0.12717144050E+02  0.22330419568E+02  0.00000000000E+00 0.  1.
</event>
<event>
 7    1  0.5664398E-009  0.4614232E+02  0.7816164E-02  0.1320468E+00
        -11   -1    0    0    0    0  0.00000000000E+00  0.00000000000E+00  0.45593999997E+02  0.45594000000E+02  0.51100000000E-03 0. -1.
         11   -1    0    0    0    0 -0.00000000000E+00 -0.00000000000E+00 -0.45593999997E+02  0.45594000000E+02  0.51100000000E-03 0.  1.
    9900012    2    1    2    0    0  0.19896169407E+02  0.20356535071E+02 -0.34912281757E+02  0.46142317691E+02  0.99999993611E+01 0.  0.
         12    1    1    2    0    0 -0.19896169407E+02 -0.20356535071E+02  0.34912281757E+02  0.45045682309E+02  0.00000000000E+00 0. -1.
         11    1    3    3    0    0  0.18078005343E+01  0.46050848505E+01 -0.27168356656E+01  0.56441248699E+01  0.51100000000E-03 0. -1.
        -11    1    3    3    0    0  0.98979863115E+01  0.11337388337E+02 -0.17242311535E+02  0.22886760685E+02  0.51100000000E-03 0.  1.
         12    1    3    3    0    0  0.81903825614E+01  0.44140618840E+01 -0.14953134557E+02  0.17611432136E+02  0.00000000000E+00 0. -1.
</event>
<event>
 7    1  0.7435138E-009  0.4614232E+02  0.7816164E-02  0.1320468E+00
        -11   -1    0    0    0    0  0.00000000000E+00  0.00000000000E+00  0.45593999997E+02  0.45594000000E+02  0.51100000000E-03 0.  1.
         11   -1    0    0    0    0 -0.00000000000E+00 -0.00000000000E+00 -0.45593999997E+02  0.45594000000E+02  0.51100000000E-03 0. -1.
    9900012    2    1    2    0    0 -0.23666722516E+02 -0.43411049623E+01  0.38080895465E+02  0.46142317117E+02  0.99999941277E+01 0.  0.
        -12    1    1    2    0    0  0.23666722516E+02  0.43411049623E+01 -0.38080895465E+02  0.45045682883E+02  0.00000000000E+00 0.  1.
         11    1    3    3    0    0 -0.14780256339E+02 -0.24755246089E+01  0.26473277667E+02  0.30420694111E+02  0.51100000000E-03 0. -1.
        -11    1    3    3    0    0 -0.60146853472E+00 -0.19940437160E+01  0.38173904461E+01  0.43486141262E+01  0.51100000000E-03 0.  1.
         12    1    3    3    0    0 -0.82849976427E+01  0.12846336264E+00  0.77902273523E+01  0.11373008880E+02  0.00000000000E+00 0. -1.
</event>
<event>
 7    1  0.5664398E-009  0.4614232E+02  0.7816164E-02  0.1320468E+00
        -11   -1    0    0    0    0  0.00000000000E+00  0.00000000000E+00  0.45593999997E+02  0.45594000000E+02  0.51100000000E-03 0. -1.
         11   -1    0    0    0    0 -0.00000000000E+00 -0.00000000000E+00 -0.45593999997E+02  0.45594000000E+02  0.51100000000E-03 0.  1.
    9900012    2    1    2    0    0  0.16405145817E+02  0.40922482924E+02 -0.92377017465E+01  0.46142317060E+02  0.99999936059E+01 0.  0.
        -12    1    1    2    0    0 -0.16405145817E+02 -0.40922482924E+02  0.92377017465E+01  0.45045682940E+02  0.00000000000E+00 0.  1.
         11    1    3    3    0    0  0.52170524955E+01  0.14313095841E+02 -0.59301296328E+01  0.16347745625E+02  0.51100000000E-03 0.  1.
        -11    1    3    3    0    0  0.56859195519E+01  0.13729810482E+02 -0.50178717594E+01  0.15684910401E+02  0.51100000000E-03 0. -1.
        -12    1    3    3    0    0  0.55021737700E+01  0.12879576602E+02  0.17102996457E+01  0.14109661035E+02  0.00000000000E+00 0.  1.
</event>
<event>
 7    1  0.5664398E-009  0.4614232E+02  0.7816164E-02  0.1320468E+00
        -11   -1    0    0    0    0  0.00000000000E+00  0.00000000000E+00  0.45593999997E+02  0.45594000000E+02  0.51100000000E-03 0. -1.
         11   -1    0    0    0    0 -0.00000000000E+00 -0.00000000000E+00 -0.45593999997E+02  0.45594000000E+02  0.51100000000E-03 0.  1.
    9900012    2    1    2    0    0  0.28108979568E+02  0.30034402473E+02  0.18355746688E+02  0.46142317624E+02  0.99999987503E+01 0.  0.
        -12    1    1    2    0    0 -0.28108979568E+02 -0.30034402473E+02 -0.18355746688E+02  0.45045682376E+02  0.00000000000E+00 0.  1.
         11    1    3    3    0    0  0.20839831890E+01  0.13992144390E+01  0.36144600945E+01  0.44005805315E+01  0.51100000000E-03 0.  1.
        -11    1    3    3    0    0  0.16281162757E+02  0.14039854099E+02  0.78024630523E+01  0.22870771604E+02  0.51100000000E-03 0. -1.
         12    1    3    3    0    0  0.97438336217E+01  0.14595333935E+02  0.69388235414E+01  0.18870965488E+02  0.00000000000E+00 0. -1.
</event>
<event>
 7    1  0.5664398E-009  0.4614232E+02  0.7816164E-02  0.1320468E+00
        -11   -1    0    0    0    0  0.00000000000E+00  0.00000000000E+00  0.45593999997E+02  0.45594000000E+02  0.51100000000E-03 0. -1.
         11   -1    0    0    0    0 -0.00000000000E+00 -0.00000000000E+00 -0.45593999997E+02  0.45594000000E+02  0.51100000000E-03 0.  1.
    9900012    2    1    2    0    0 -0.24633883597E+02 -0.27005220202E+02 -0.26324957059E+02  0.46142317594E+02  0.99999984794E+01 0.  0.
         12    1    1    2    0    0  0.24633883597E+02  0.27005220202E+02  0.26324957059E+02  0.45045682406E+02  0.00000000000E+00 0. -1.
         11    1    3    3    0    0 -0.78500114273E+01 -0.12764089349E+02 -0.13481097557E+02  0.20156503861E+02  0.51100000000E-03 0. -1.
        -11    1    3    3    0    0 -0.71648727661E+01 -0.84409124580E+01 -0.84361263932E+01  0.13919505511E+02  0.51100000000E-03 0.  1.
         12    1    3    3    0    0 -0.96189994034E+01 -0.58002183956E+01 -0.44077331088E+01  0.12066308222E+02  0.00000000000E+00 0. -1.
</event>
<event>
 7    1  0.5664398E-009  0.4614232E+02  0.7816164E-02  0.1320468E+00
        -11   -1    0    0    0    0  0.00000000000E+00  0.00000000000E+00  0.45593999997E+02  0.45594000000E+02  0.51100000000E-03 0. -1.
         11   -1    0    0    0    0 -0.00000000000E+00 -0.00000000000E+00 -0.45593999997E+02  0.45594000000E+02  0.51100000000E-03 0.  1.
    9900012    2    1    2    0    0 -0.26000623279E+02  0.18055680500E+02  0.32047986827E+02  0.46142317978E+02  0.10000001978E+02 0.  0.
        -12    1    1    2    0    0  0.26000623279E+02 -0.18055680500E+02 -0.32047986827E+02  0.45045682022E+02  0.00000000000E+00 0.  1.
         11    1    3    3    0    0 -0.82063662572E+01  0.68115566027E+01  0.90981712666E+01  0.14018504598E+02  0.51100000000E-03 0. -1.
        -11    1    3    3    0    0 -0.15150088544E+02  0.80853663390E+01  0.13596334544E+02  0.21903393459E+02  0.51100000000E-03 0.  1.
        -12    1    3    3    0    0 -0.26441684773E+01  0.31587575583E+01  0.93534810160E+01  0.10220419921E+02  0.00000000000E+00 0.  1.
</event>
<event>
 7    1  0.5664398E-009  0.4614231E+02  0.7816164E-02  0.1320468E+00
        -11   -1    0    0    0    0  0.00000000000E+00  0.00000000000E+00  0.45593999997E+02  0.45594000000E+02  0.51100000000E-03 0. -1.
         11   -1    0    0    0    0 -0.00000000000E+00 -0.00000000000E+00 -0.45593999997E+02  0.45594000000E+02  0.51100000000E-03 0.  1.
    9900012    2    1    2    0    0  0.24434832416E+02 -0.37213177418E+02  0.68726173029E+01  0.46142306784E+02  0.99998999014E+01 0.  0.
        -12    1    1    2    0    0 -0.24434832416E+02  0.37213177418E+02 -0.68726173029E+01  0.45045693216E+02  0.00000000000E+00 0.  1.
         11    1    3    3    0    0  0.13327214307E+02 -0.21707839735E+02  0.12473650865E+01  0.25502958006E+02  0.51100000000E-03 0. -1.
        -11    1    3    3    0    0  0.31168358607E+01 -0.51842916366E+01 -0.78077310099E+00  0.60992747481E+01  0.51100000000E-03 0.  1.
         12    1    3    3    0    0  0.79907822476E+01 -0.10321046046E+02  0.64060253173E+01  0.14540074029E+02  0.00000000000E+00 0. -1.
</event>
<event>
 7    1  0.5664398E-009  0.4614232E+02  0.7816164E-02  0.1320468E+00
        -11   -1    0    0    0    0  0.00000000000E+00  0.00000000000E+00  0.45593999997E+02  0.45594000000E+02  0.51100000000E-03 0.  1.
         11   -1    0    0    0    0 -0.00000000000E+00 -0.00000000000E+00 -0.45593999997E+02  0.45594000000E+02  0.51100000000E-03 0. -1.
    9900012    2    1    2    0    0 -0.34543876540E+02 -0.27729804368E+02  0.81787620513E+01  0.46142316462E+02  0.99999881570E+01 0.  0.
        -12    1    1    2    0    0  0.34543876540E+02  0.27729804368E+02 -0.81787620513E+01  0.45045683538E+02  0.00000000000E+00 0.  1.
         11    1    3    3    0    0 -0.68252097061E+01 -0.59072598375E+01 -0.12452149950E+01  0.91120671071E+01  0.51100000000E-03 0. -1.
        -11    1    3    3    0    0 -0.15876532112E+02 -0.12495353886E+02  0.22276089604E+01  0.20326347006E+02  0.51100000000E-03 0.  1.
        -12    1    3    3    0    0 -0.11842134722E+02 -0.93271906440E+01  0.71963680860E+01  0.16703902349E+02  0.00000000000E+00 0.  1.
</event>
<event>
 7    1  0.5664398E-009  0.4614232E+02  0.7816164E-02  0.1320468E+00
        -11   -1    0    0    0    0  0.00000000000E+00  0.00000000000E+00  0.45593999997E+02  0.45594000000E+02  0.51100000000E-03 0. -1.
         11   -1    0    0    0    0 -0.00000000000E+00 -0.00000000000E+00 -0.45593999997E+02  0.45594000000E+02  0.51100000000E-03 0.  1.
    9900012    2    1    2    0    0 -0.40696406380E+02  0.14562627948E+02 -0.12682502426E+02  0.46142317712E+02  0.99999995553E+01 0.  0.
         12    1    1    2    0    0  0.40696406380E+02 -0.14562627948E+02  0.12682502426E+02  0.45045682288E+02  0.00000000000E+00 0. -1.
         11    1    3    3    0    0 -0.20982457872E+02  0.69129394092E+01 -0.86525714957E+01  0.23725919653E+02  0.51100000000E-03 0. -1.
        -11    1    3    3    0    0 -0.34867395913E+01  0.28600772039E+01 -0.30983205276E+01  0.54714700897E+01  0.51100000000E-03 0.  1.
         12    1    3    3    0    0 -0.16227208917E+02  0.47896113347E+01 -0.93161040268E+00  0.16944927970E+02  0.00000000000E+00 0. -1.
</event>
<event>
 7    1  0.5664398E-009  0.4614232E+02  0.7816164E-02  0.1320468E+00
        -11   -1    0    0    0    0  0.00000000000E+00  0.00000000000E+00  0.45593999997E+02  0.45594000000E+02  0.51100000000E-03 0.  1.
         11   -1    0    0    0    0 -0.00000000000E+00 -0.00000000000E+00 -0.45593999997E+02  0.45594000000E+02  0.51100000000E-03 0. -1.
    9900012    2    1    2    0    0  0.32160873836E+02  0.28933732054E+02  0.12555107606E+02  0.46142318925E+02  0.10000010617E+02 0.  0.
        -12    1    1    2    0    0 -0.32160873836E+02 -0.28933732054E+02 -0.12555107606E+02  0.45045681075E+02  0.00000000000E+00 0.  1.
         11    1    3    3    0    0  0.16157154568E+00 -0.34076608984E+00  0.75759452742E+00  0.84627219112E+00  0.51100000000E-03 0. -1.
        -11    1    3    3    0    0  0.12927433127E+01  0.30894061643E+01  0.13455703155E+01  0.36091793327E+01  0.51100000000E-03 0.  1.
         12    1    3    3    0    0  0.30706558978E+02  0.26185091979E+02  0.10451942763E+02  0.41686867402E+02  0.00000000000E+00 0. -1.
</event>
<event>
 7    1  0.5664398E-009  0.4614232E+02  0.7816164E-02  0.1320468E+00
        -11   -1    0    0    0    0  0.00000000000E+00  0.00000000000E+00  0.45593999997E+02  0.45594000000E+02  0.51100000000E-03 0. -1.
         11   -1    0    0    0    0 -0.00000000000E+00 -0.00000000000E+00 -0.45593999997E+02  0.45594000000E+02  0.51100000000E-03 0.  1.
    9900012    2    1    2    0    0  0.37793811084E+02 -0.86289107248E+01  0.22940864585E+02  0.46142317360E+02  0.99999963460E+01 0.  0.
        -12    1    1    2    0    0 -0.37793811084E+02  0.86289107248E+01 -0.22940864585E+02  0.45045682640E+02  0.00000000000E+00 0.  1.
         11    1    3    3    0    0  0.16691361286E+01  0.17360663547E+01  0.16131518155E+01  0.28986550061E+01  0.51100000000E-03 0.  1.
        -11    1    3    3    0    0  0.15749881616E+02 -0.53634376071E+01  0.95570090189E+01  0.19187539069E+02  0.51100000000E-03 0. -1.
        -12    1    3    3    0    0  0.20374793340E+02 -0.50015394723E+01  0.11770703751E+02  0.24056123285E+02  0.00000000000E+00 0.  1.
</event>
<event>
 7    1  0.5664398E-009  0.4614232E+02  0.7816164E-02  0.1320468E+00
        -11   -1    0    0    0    0  0.00000000000E+00  0.00000000000E+00  0.45593999997E+02  0.45594000000E+02  0.51100000000E-03 0. -1.
         11   -1    0    0    0    0 -0.00000000000E+00 -0.00000000000E+00 -0.45593999997E+02  0.45594000000E+02  0.51100000000E-03 0.  1.
    9900012    2    1    2    0    0 -0.28381939279E+02  0.33785258868E+02  0.90628477923E+01  0.46142318696E+02  0.10000008526E+02 0.  0.
        -12    1    1    2    0    0  0.28381939279E+02 -0.33785258868E+02 -0.90628477923E+01  0.45045681304E+02  0.00000000000E+00 0.  1.
         11    1    3    3    0    0 -0.13254398327E+02  0.14486093299E+02  0.52689611795E+01  0.20329484161E+02  0.51100000000E-03 0. -1.
        -11    1    3    3    0    0 -0.15024186080E+02  0.17327220443E+02  0.17963627711E+01  0.23004035627E+02  0.51100000000E-03 0.  1.
        -12    1    3    3    0    0 -0.10335487215E+00  0.19719451255E+01  0.19975238417E+01  0.28087989080E+01  0.00000000000E+00 0.  1.
</event>
<event>
 7    1  0.5664398E-009  0.4614232E+02  0.7816164E-02  0.1320468E+00
        -11   -1    0    0    0    0  0.00000000000E+00  0.00000000000E+00  0.45593999997E+02  0.45594000000E+02  0.51100000000E-03 0. -1.
         11   -1    0    0    0    0 -0.00000000000E+00 -0.00000000000E+00 -0.45593999997E+02  0.45594000000E+02  0.51100000000E-03 0.  1.
    9900012    2    1    2    0    0  0.56904581471E+01 -0.40298169456E+02 -0.19307763483E+02  0.46142317564E+02  0.99999982027E+01 0.  0.
         12    1    1    2    0    0 -0.56904581471E+01  0.40298169456E+02  0.19307763483E+02  0.45045682436E+02  0.00000000000E+00 0. -1.
         11    1    3    3    0    0  0.37907133458E+01 -0.10223070758E+02 -0.31843897966E+01  0.11358742097E+02  0.51100000000E-03 0. -1.
        -11    1    3    3    0    0  0.40609132341E+01 -0.20007044991E+02 -0.12076565315E+02  0.23719534052E+02  0.51100000000E-03 0.  1.
        -12    1    3    3    0    0 -0.21611684328E+01 -0.10068053707E+02 -0.40468083716E+01  0.11064041415E+02  0.00000000000E+00 0.  1.
</event>
<event>
 7    1  0.5664398E-009  0.4614232E+02  0.7816164E-02  0.1320468E+00
        -11   -1    0    0    0    0  0.00000000000E+00  0.00000000000E+00  0.45593999997E+02  0.45594000000E+02  0.51100000000E-03 0. -1.
         11   -1    0    0    0    0 -0.00000000000E+00 -0.00000000000E+00 -0.45593999997E+02  0.45594000000E+02  0.51100000000E-03 0.  1.
    9900012    2    1    2    0    0 -0.18068153755E+02 -0.19612844630E+02 -0.36304147541E+02  0.46142323368E+02  0.10000051124E+02 0.  0.
         12    1    1    2    0    0  0.18068153755E+02  0.19612844630E+02  0.36304147541E+02  0.45045676632E+02  0.00000000000E+00 0. -1.
         11    1    3    3    0    0 -0.72127303042E+01 -0.55089238286E+01 -0.12780994430E+02  0.15675635205E+02  0.51100000000E-03 0. -1.
        -11    1    3    3    0    0 -0.24495800066E+01 -0.14392737625E+01 -0.90217707096E+01  0.94585568756E+01  0.51100000000E-03 0.  1.
         12    1    3    3    0    0 -0.84058434442E+01 -0.12664647039E+02 -0.14501382401E+02  0.21008131287E+02  0.00000000000E+00 0. -1.
</event>
<event>
 7    1  0.5664398E-009  0.4614232E+02  0.7816164E-02  0.1320468E+00
        -11   -1    0    0    0    0  0.00000000000E+00  0.00000000000E+00  0.45593999997E+02  0.45594000000E+02  0.51100000000E-03 0. -1.
         11   -1    0    0    0    0 -0.00000000000E+00 -0.00000000000E+00 -0.45593999997E+02  0.45594000000E+02  0.51100000000E-03 0.  1.
    9900012    2    1    2    0    0 -0.26533922006E+02 -0.26598251147E+02  0.24851509856E+02  0.46142317374E+02  0.99999964742E+01 0.  0.
        -12    1    1    2    0    0  0.26533922006E+02  0.26598251147E+02 -0.24851509856E+02  0.45045682626E+02  0.00000000000E+00 0.  1.
         11    1    3    3    0    0 -0.15578052147E+01 -0.83435634407E+00  0.28300684408E+01  0.33364944533E+01  0.51100000000E-03 0.  1.
        -11    1    3    3    0    0 -0.12904306050E+02 -0.10134497818E+02  0.13699862344E+02  0.21375579271E+02  0.51100000000E-03 0. -1.
        -12    1    3    3    0    0 -0.12071810741E+02 -0.15629396985E+02  0.83215790710E+01  0.21430243650E+02  0.00000000000E+00 0.  1.
</event>
<event>
 7    1  0.5664398E-009  0.4614230E+02  0.7816164E-02  0.1320468E+00
        -11   -1    0    0    0    0  0.00000000000E+00  0.00000000000E+00  0.45593999997E+02  0.45594000000E+02  0.51100000000E-03 0. -1.
         11   -1    0    0    0    0 -0.00000000000E+00 -0.00000000000E+00 -0.45593999997E+02  0.45594000000E+02  0.51100000000E-03 0.  1.
    9900012    2    1    2    0    0 -0.15966885208E+02 -0.28421846077E+02  0.31086524725E+02  0.46142303455E+02  0.99998695490E+01 0.  0.
        -12    1    1    2    0    0  0.15966885208E+02  0.28421846077E+02 -0.31086524725E+02  0.45045696545E+02  0.00000000000E+00 0.  1.
         11    1    3    3    0    0 -0.12819734166E+01 -0.66701249256E+01  0.48155059289E+01  0.83260506831E+01  0.51100000000E-03 0. -1.
        -11    1    3    3    0    0 -0.14644793598E+01 -0.76941528256E+01  0.88543033210E+01  0.11821310209E+02  0.51100000000E-03 0.  1.
        -12    1    3    3    0    0 -0.13220432432E+02 -0.14057568326E+02  0.17416715476E+02  0.25994942563E+02  0.00000000000E+00 0.  1.
</event>
<event>
 7    1  0.5664398E-009  0.4614232E+02  0.7816164E-02  0.1320468E+00
        -11   -1    0    0    0    0  0.00000000000E+00  0.00000000000E+00  0.45593999997E+02  0.45594000000E+02  0.51100000000E-03 0. -1.
         11   -1    0    0    0    0 -0.00000000000E+00 -0.00000000000E+00 -0.45593999997E+02  0.45594000000E+02  0.51100000000E-03 0.  1.
    9900012    2    1    2    0    0 -0.29147081541E+01  0.35826090884E+02 -0.27149752707E+02  0.46142318923E+02  0.10000010599E+02 0.  0.
         12    1    1    2    0    0  0.29147081541E+01 -0.35826090884E+02  0.27149752707E+02  0.45045681077E+02  0.00000000000E+00 0. -1.
         11    1    3    3    0    0 -0.19573765060E+01  0.66863161835E+01 -0.51467110637E+01  0.86618001550E+01  0.51100000000E-03 0. -1.
        -11    1    3    3    0    0 -0.43871044816E+01  0.10782555239E+02 -0.76909462166E+01  0.13952090782E+02  0.51100000000E-03 0.  1.
        -12    1    3    3    0    0  0.34297728335E+01  0.18357219461E+02 -0.14312095426E+02  0.23528427986E+02  0.00000000000E+00 0.  1.
</event>
<event>
 7    1  0.5664398E-009  0.4614232E+02  0.7816164E-02  0.1320468E+00
        -11   -1    0    0    0    0  0.00000000000E+00  0.00000000000E+00  0.45593999997E+02  0.45594000000E+02  0.51100000000E-03 0. -1.
         11   -1    0    0    0    0 -0.00000000000E+00 -0.00000000000E+00 -0.45593999997E+02  0.45594000000E+02  0.51100000000E-03 0.  1.
    9900012    2    1    2    0    0 -0.40895938727E+02 -0.11491160980E+02  0.14986291693E+02  0.46142317368E+02  0.99999964173E+01 0.  0.
        -12    1    1    2    0    0  0.40895938727E+02  0.11491160980E+02 -0.14986291693E+02  0.45045682632E+02  0.00000000000E+00 0.  1.
         11    1    3    3    0    0 -0.18858208869E+02 -0.18365029811E+01  0.58905626498E+01  0.19841963450E+02  0.51100000000E-03 0. -1.
        -11    1    3    3    0    0 -0.20283207511E+01 -0.23637053145E+01 -0.69705464071E-01  0.31154529359E+01  0.51100000000E-03 0.  1.
         12    1    3    3    0    0 -0.20009409107E+02 -0.72909526842E+01  0.91654345077E+01  0.23184900983E+02  0.00000000000E+00 0. -1.
</event>
<event>
 7    1  0.5664398E-009  0.4614232E+02  0.7816164E-02  0.1320468E+00
        -11   -1    0    0    0    0  0.00000000000E+00  0.00000000000E+00  0.45593999997E+02  0.45594000000E+02  0.51100000000E-03 0.  1.
         11   -1    0    0    0    0 -0.00000000000E+00 -0.00000000000E+00 -0.45593999997E+02  0.45594000000E+02  0.51100000000E-03 0. -1.
    9900012    2    1    2    0    0  0.30308274694E+02 -0.19076159330E+02  0.27324387006E+02  0.46142317688E+02  0.99999993320E+01 0.  0.
        -12    1    1    2    0    0 -0.30308274694E+02  0.19076159330E+02 -0.27324387006E+02  0.45045682312E+02  0.00000000000E+00 0.  1.
         11    1    3    3    0    0  0.12093255083E+02 -0.52278606394E+01  0.76575691720E+01  0.15238625636E+02  0.51100000000E-03 0. -1.
        -11    1    3    3    0    0  0.22112040665E+01  0.42874576722E+00  0.29503503869E+01  0.37118477909E+01  0.51100000000E-03 0.  1.
         12    1    3    3    0    0  0.16003815544E+02 -0.14277044458E+02  0.16716467447E+02  0.27191844261E+02  0.00000000000E+00 0. -1.
</event>
<event>
 7    1  0.5664398E-009  0.4614232E+02  0.7816164E-02  0.1320468E+00
        -11   -1    0    0    0    0  0.00000000000E+00  0.00000000000E+00  0.45593999997E+02  0.45594000000E+02  0.51100000000E-03 0. -1.
         11   -1    0    0    0    0 -0.00000000000E+00 -0.00000000000E+00 -0.45593999997E+02  0.45594000000E+02  0.51100000000E-03 0.  1.
    9900012    2    1    2    0    0  0.38809142049E+02 -0.21418000749E+02  0.80145689202E+01  0.46142316771E+02  0.99999909685E+01 0.  0.
        -12    1    1    2    0    0 -0.38809142049E+02  0.21418000749E+02 -0.80145689202E+01  0.45045683229E+02  0.00000000000E+00 0.  1.
         11    1    3    3    0    0  0.11428329295E+02 -0.45723510844E+01  0.50973964404E+01  0.13322783329E+02  0.51100000000E-03 0. -1.
        -11    1    3    3    0    0  0.96255345963E+01 -0.84596123210E+01  0.30930247846E+01  0.13182668905E+02  0.51100000000E-03 0.  1.
        -12    1    3    3    0    0  0.17755278158E+02 -0.83860373432E+01 -0.17585230487E+00  0.19636864536E+02  0.00000000000E+00 0.  1.
</event>
<event>
 7    1  0.5664398E-009  0.4614232E+02  0.7816164E-02  0.1320468E+00
        -11   -1    0    0    0    0  0.00000000000E+00  0.00000000000E+00  0.45593999997E+02  0.45594000000E+02  0.51100000000E-03 0. -1.
         11   -1    0    0    0    0 -0.00000000000E+00 -0.00000000000E+00 -0.45593999997E+02  0.45594000000E+02  0.51100000000E-03 0.  1.
    9900012    2    1    2    0    0 -0.14719058416E+02 -0.11035293342E+02 -0.41117940968E+02  0.46142318195E+02  0.10000003961E+02 0.  0.
         12    1    1    2    0    0  0.14719058416E+02  0.11035293342E+02  0.41117940968E+02  0.45045681805E+02  0.00000000000E+00 0. -1.
         11    1    3    3    0    0 -0.43668997210E+01  0.21153414644E+00 -0.91085592064E+01  0.10103485089E+02  0.51100000000E-03 0. -1.
        -11    1    3    3    0    0 -0.95000876157E+01 -0.68617219173E+01 -0.26274019090E+02  0.28769062754E+02  0.51100000000E-03 0.  1.
         12    1    3    3    0    0 -0.85207107920E+00 -0.43851055711E+01 -0.57353626719E+01  0.72697703520E+01  0.00000000000E+00 0. -1.
</event>
<event>
 7    1  0.5664398E-009  0.4614232E+02  0.7816164E-02  0.1320468E+00
        -11   -1    0    0    0    0  0.00000000000E+00  0.00000000000E+00  0.45593999997E+02  0.45594000000E+02  0.51100000000E-03 0. -1.
         11   -1    0    0    0    0 -0.00000000000E+00 -0.00000000000E+00 -0.45593999997E+02  0.45594000000E+02  0.51100000000E-03 0.  1.
    9900012    2    1    2    0    0  0.27905323307E+02 -0.34435465026E+02 -0.80377345498E+01  0.46142317664E+02  0.99999991144E+01 0.  0.
         12    1    1    2    0    0 -0.27905323307E+02  0.34435465026E+02  0.80377345498E+01  0.45045682336E+02  0.00000000000E+00 0. -1.
         11    1    3    3    0    0  0.36537359143E+01 -0.43179137987E+01 -0.32430080638E+00  0.56656276773E+01  0.51100000000E-03 0. -1.
        -11    1    3    3    0    0  0.20184146410E+02 -0.20915260115E+02 -0.25770403792E+01  0.29180284600E+02  0.51100000000E-03 0.  1.
         12    1    3    3    0    0  0.40674409830E+01 -0.92022911120E+01 -0.51363933642E+01  0.11296405386E+02  0.00000000000E+00 0. -1.
</event>
<event>
 7    1  0.5664398E-009  0.4614231E+02  0.7816164E-02  0.1320468E+00
        -11   -1    0    0    0    0  0.00000000000E+00  0.00000000000E+00  0.45593999997E+02  0.45594000000E+02  0.51100000000E-03 0. -1.
         11   -1    0    0    0    0 -0.00000000000E+00 -0.00000000000E+00 -0.45593999997E+02  0.45594000000E+02  0.51100000000E-03 0.  1.
    9900012    2    1    2    0    0 -0.27458712956E+02 -0.25141076043E+02 -0.25358620821E+02  0.46142309066E+02  0.99999207102E+01 0.  0.
         12    1    1    2    0    0  0.27458712956E+02  0.25141076043E+02  0.25358620821E+02  0.45045690934E+02  0.00000000000E+00 0. -1.
         11    1    3    3    0    0 -0.15529472887E+02 -0.18055836709E+02 -0.15738589033E+02  0.28546119744E+02  0.51100000000E-03 0. -1.
        -11    1    3    3    0    0 -0.11652232661E+02 -0.73661350312E+01 -0.10014023526E+02  0.17038636645E+02  0.51100000000E-03 0.  1.
         12    1    3    3    0    0 -0.27700740787E+00  0.28089569808E+00  0.39399173832E+00  0.55755267651E+00  0.00000000000E+00 0. -1.
</event>
<event>
 7    1  0.5664398E-009  0.4614232E+02  0.7816164E-02  0.1320468E+00
        -11   -1    0    0    0    0  0.00000000000E+00  0.00000000000E+00  0.45593999997E+02  0.45594000000E+02  0.51100000000E-03 0. -1.
         11   -1    0    0    0    0 -0.00000000000E+00 -0.00000000000E+00 -0.45593999997E+02  0.45594000000E+02  0.51100000000E-03 0.  1.
    9900012    2    1    2    0    0  0.26662905151E+02  0.23276302837E+02 -0.27864255322E+02  0.46142317527E+02  0.99999978611E+01 0.  0.
         12    1    1    2    0    0 -0.26662905151E+02 -0.23276302837E+02  0.27864255322E+02  0.45045682473E+02  0.00000000000E+00 0. -1.
         11    1    3    3    0    0  0.69222236788E+01  0.22548108242E+01 -0.64767120123E+01  0.97441855105E+01  0.51100000000E-03 0. -1.
        -11    1    3    3    0    0  0.73887790218E+01  0.68965520338E+01 -0.41759334261E+01  0.10935945575E+02  0.51100000000E-03 0.  1.
        -12    1    3    3    0    0  0.12351902451E+02  0.14124939979E+02 -0.17211609883E+02  0.25462186441E+02  0.00000000000E+00 0.  1.
</event>
<event>
 7    1  0.5664398E-009  0.4614232E+02  0.7816164E-02  0.1320468E+00
        -11   -1    0    0    0    0  0.00000000000E+00  0.00000000000E+00  0.45593999997E+02  0.45594000000E+02  0.51100000000E-03 0. -1.
         11   -1    0    0    0    0 -0.00000000000E+00 -0.00000000000E+00 -0.45593999997E+02  0.45594000000E+02  0.51100000000E-03 0.  1.
    9900012    2    1    2    0    0  0.87909458626E+01  0.14342398583E+02  0.41786701156E+02  0.46142317412E+02  0.99999968211E+01 0.  0.
        -12    1    1    2    0    0 -0.87909458626E+01 -0.14342398583E+02 -0.41786701156E+02  0.45045682588E+02  0.00000000000E+00 0.  1.
         11    1    3    3    0    0  0.85018184005E+01  0.60515546596E+01  0.28109539558E+02  0.29984136545E+02  0.51100000000E-03 0. -1.
        -11    1    3    3    0    0 -0.36859033130E+00  0.30653222818E+01  0.70249081624E+01  0.76734213018E+01  0.51100000000E-03 0.  1.
         12    1    3    3    0    0  0.65771779342E+00  0.52255216412E+01  0.66522534359E+01  0.84847595660E+01  0.00000000000E+00 0. -1.
</event>
<event>
 7    1  0.5664398E-009  0.4614232E+02  0.7816164E-02  0.1320468E+00
        -11   -1    0    0    0    0  0.00000000000E+00  0.00000000000E+00  0.45593999997E+02  0.45594000000E+02  0.51100000000E-03 0. -1.
         11   -1    0    0    0    0 -0.00000000000E+00 -0.00000000000E+00 -0.45593999997E+02  0.45594000000E+02  0.51100000000E-03 0.  1.
    9900012    2    1    2    0    0  0.38976686012E+01  0.21883081994E+02 -0.39179744484E+02  0.46142317900E+02  0.10000001264E+02 0.  0.
         12    1    1    2    0    0 -0.38976686012E+01 -0.21883081994E+02  0.39179744484E+02  0.45045682100E+02  0.00000000000E+00 0. -1.
         11    1    3    3    0    0  0.24209069357E+00  0.48536653799E+01 -0.78123614969E+01  0.92005254167E+01  0.51100000000E-03 0.  1.
        -11    1    3    3    0    0  0.53646945596E-01  0.52303998574E+01 -0.30526681969E+01  0.60562978827E+01  0.51100000000E-03 0. -1.
        -12    1    3    3    0    0  0.36019309620E+01  0.11799016756E+02 -0.28314714790E+02  0.30885494600E+02  0.00000000000E+00 0.  1.
</event>
<event>
 7    1  0.5664398E-009  0.4614232E+02  0.7816164E-02  0.1320468E+00
        -11   -1    0    0    0    0  0.00000000000E+00  0.00000000000E+00  0.45593999997E+02  0.45594000000E+02  0.51100000000E-03 0. -1.
         11   -1    0    0    0    0 -0.00000000000E+00 -0.00000000000E+00 -0.45593999997E+02  0.45594000000E+02  0.51100000000E-03 0.  1.
    9900012    2    1    2    0    0 -0.30899267232E+02  0.74865138275E+01 -0.31910825276E+02  0.46142319024E+02  0.10000011517E+02 0.  0.
         12    1    1    2    0    0  0.30899267232E+02 -0.74865138275E+01  0.31910825276E+02  0.45045680976E+02  0.00000000000E+00 0. -1.
         11    1    3    3    0    0  0.46567485099E+00  0.32609005836E+00 -0.11540193014E+01  0.12864480565E+01  0.51100000000E-03 0. -1.
        -11    1    3    3    0    0 -0.87256591952E+01  0.43622400781E+01 -0.10716807907E+02  0.14491937029E+02  0.51100000000E-03 0.  1.
         12    1    3    3    0    0 -0.22639282888E+02  0.27981836910E+01 -0.20039998068E+02  0.30363933938E+02  0.00000000000E+00 0. -1.
</event>
<event>
 7    1  0.5664398E-009  0.4614232E+02  0.7816164E-02  0.1320468E+00
        -11   -1    0    0    0    0  0.00000000000E+00  0.00000000000E+00  0.45593999997E+02  0.45594000000E+02  0.51100000000E-03 0. -1.
         11   -1    0    0    0    0 -0.00000000000E+00 -0.00000000000E+00 -0.45593999997E+02  0.45594000000E+02  0.51100000000E-03 0.  1.
    9900012    2    1    2    0    0  0.37076006580E+02  0.54746104697E+01  0.24990236174E+02  0.46142317324E+02  0.99999960150E+01 0.  0.
        -12    1    1    2    0    0 -0.37076006580E+02 -0.54746104697E+01 -0.24990236174E+02  0.45045682676E+02  0.00000000000E+00 0.  1.
         11    1    3    3    0    0  0.11092420113E+02  0.33046332042E+01  0.42303198702E+01  0.12323067436E+02  0.51100000000E-03 0. -1.
        -11    1    3    3    0    0  0.20543241822E+02 -0.67689651553E+00  0.15765982624E+02  0.25904616997E+02  0.51100000000E-03 0.  1.
        -12    1    3    3    0    0  0.54403446451E+01  0.28468737811E+01  0.49939336805E+01  0.79146328903E+01  0.00000000000E+00 0.  1.
</event>
<event>
 7    1  0.5664398E-009  0.4614232E+02  0.7816164E-02  0.1320468E+00
        -11   -1    0    0    0    0  0.00000000000E+00  0.00000000000E+00  0.45593999997E+02  0.45594000000E+02  0.51100000000E-03 0.  1.
         11   -1    0    0    0    0 -0.00000000000E+00 -0.00000000000E+00 -0.45593999997E+02  0.45594000000E+02  0.51100000000E-03 0. -1.
    9900012    2    1    2    0    0 -0.31580158036E+01 -0.40665698084E+02 -0.19116506041E+02  0.46142324651E+02  0.10000062823E+02 0.  0.
         12    1    1    2    0    0  0.31580158036E+01  0.40665698084E+02  0.19116506041E+02  0.45045675349E+02  0.00000000000E+00 0. -1.
         11    1    3    3    0    0 -0.44008266003E+01 -0.10145209118E+02 -0.39361420069E+01  0.11738217794E+02  0.51100000000E-03 0. -1.
        -11    1    3    3    0    0  0.31421341267E+00 -0.14593894233E+01  0.20778524363E+00  0.15072234493E+01  0.51100000000E-03 0.  1.
        -12    1    3    3    0    0  0.92859738405E+00 -0.29061099543E+02 -0.15388149277E+02  0.32896883407E+02  0.00000000000E+00 0.  1.
</event>
<event>
 7    1  0.5664398E-009  0.4614232E+02  0.7816164E-02  0.1320468E+00
        -11   -1    0    0    0    0  0.00000000000E+00  0.00000000000E+00  0.45593999997E+02  0.45594000000E+02  0.51100000000E-03 0. -1.
         11   -1    0    0    0    0 -0.00000000000E+00 -0.00000000000E+00 -0.45593999997E+02  0.45594000000E+02  0.51100000000E-03 0.  1.
    9900012    2    1    2    0    0  0.18450849438E+02  0.56243615656E+01 -0.40706832299E+02  0.46142317812E+02  0.10000000464E+02 0.  0.
         12    1    1    2    0    0 -0.18450849438E+02 -0.56243615656E+01  0.40706832299E+02  0.45045682188E+02  0.00000000000E+00 0. -1.
         11    1    3    3    0    0  0.10462422412E+01  0.63826752610E+00 -0.12410626420E+01  0.17442032578E+01  0.51100000000E-03 0. -1.
        -11    1    3    3    0    0  0.72314197604E+01  0.68410974927E+01 -0.20797200135E+02  0.23056833702E+02  0.51100000000E-03 0.  1.
        -12    1    3    3    0    0  0.10173187436E+02 -0.18550034532E+01 -0.18668569522E+02  0.21341280852E+02  0.00000000000E+00 0.  1.
</event>
<event>
 7    1  0.5664398E-009  0.4614232E+02  0.7816164E-02  0.1320468E+00
        -11   -1    0    0    0    0  0.00000000000E+00  0.00000000000E+00  0.45593999997E+02  0.45594000000E+02  0.51100000000E-03 0. -1.
         11   -1    0    0    0    0 -0.00000000000E+00 -0.00000000000E+00 -0.45593999997E+02  0.45594000000E+02  0.51100000000E-03 0.  1.
    9900012    2    1    2    0    0 -0.28888142347E+02  0.19087360596E+02  0.28814256981E+02  0.46142317541E+02  0.99999979961E+01 0.  0.
        -12    1    1    2    0    0  0.28888142347E+02 -0.19087360596E+02 -0.28814256981E+02  0.45045682459E+02  0.00000000000E+00 0.  1.
         11    1    3    3    0    0 -0.99868622730E+01  0.50584788013E+01  0.96046712602E+01  0.14750435116E+02  0.51100000000E-03 0. -1.
        -11    1    3    3    0    0 -0.77978439396E+01  0.56942389754E+01  0.31351881496E+01  0.10151853654E+02  0.51100000000E-03 0.  1.
        -12    1    3    3    0    0 -0.11103436135E+02  0.83346428192E+01  0.16074397571E+02  0.21240028771E+02  0.00000000000E+00 0.  1.
</event>
<event>
 7    1  0.5664398E-009  0.4614232E+02  0.7816164E-02  0.1320468E+00
        -11   -1    0    0    0    0  0.00000000000E+00  0.00000000000E+00  0.45593999997E+02  0.45594000000E+02  0.51100000000E-03 0. -1.
         11   -1    0    0    0    0 -0.00000000000E+00 -0.00000000000E+00 -0.45593999997E+02  0.45594000000E+02  0.51100000000E-03 0.  1.
    9900012    2    1    2    0    0  0.10133272128E+02  0.57934183436E+01  0.43507086417E+02  0.46142317981E+02  0.10000002002E+02 0.  0.
        -12    1    1    2    0    0 -0.10133272128E+02 -0.57934183436E+01 -0.43507086417E+02  0.45045682019E+02  0.00000000000E+00 0.  1.
         11    1    3    3    0    0  0.32053878297E+01  0.52531742269E+01  0.20510993358E+02  0.21414275598E+02  0.51100000000E-03 0. -1.
        -11    1    3    3    0    0  0.73941059347E+01  0.11034717437E+01  0.22765165783E+02  0.23961285980E+02  0.51100000000E-03 0.  1.
        -12    1    3    3    0    0 -0.46622163616E+00 -0.56322762691E+00  0.23092727617E+00  0.76675640240E+00  0.00000000000E+00 0.  1.
</event>
<event>
 7    1  0.5664398E-009  0.4614232E+02  0.7816164E-02  0.1320468E+00
        -11   -1    0    0    0    0  0.00000000000E+00  0.00000000000E+00  0.45593999997E+02  0.45594000000E+02  0.51100000000E-03 0. -1.
         11   -1    0    0    0    0 -0.00000000000E+00 -0.00000000000E+00 -0.45593999997E+02  0.45594000000E+02  0.51100000000E-03 0.  1.
    9900012    2    1    2    0    0  0.39805722072E+00  0.25961280663E+02 -0.36809872655E+02  0.46142320206E+02  0.10000022294E+02 0.  0.
         12    1    1    2    0    0 -0.39805722072E+00 -0.25961280663E+02  0.36809872655E+02  0.45045679794E+02  0.00000000000E+00 0. -1.
         11    1    3    3    0    0 -0.24271058713E+00  0.11191587338E+02 -0.21293404700E+02  0.24056592019E+02  0.51100000000E-03 0. -1.
        -11    1    3    3    0    0 -0.12931829597E+01  0.12596028310E+02 -0.13702077863E+02  0.18656880484E+02  0.51100000000E-03 0.  1.
         12    1    3    3    0    0  0.19339507675E+01  0.21736650142E+01 -0.18143900924E+01  0.34288477034E+01  0.00000000000E+00 0. -1.
</event>
<event>
 7    1  0.5664398E-009  0.4614232E+02  0.7816164E-02  0.1320468E+00
        -11   -1    0    0    0    0  0.00000000000E+00  0.00000000000E+00  0.45593999997E+02  0.45594000000E+02  0.51100000000E-03 0. -1.
         11   -1    0    0    0    0 -0.00000000000E+00 -0.00000000000E+00 -0.45593999997E+02  0.45594000000E+02  0.51100000000E-03 0.  1.
    9900012    2    1    2    0    0  0.16564620450E+02 -0.37486587405E+01  0.41721390485E+02  0.46142317443E+02  0.99999970973E+01 0.  0.
        -12    1    1    2    0    0 -0.16564620450E+02  0.37486587405E+01 -0.41721390485E+02  0.45045682557E+02  0.00000000000E+00 0.  1.
         11    1    3    3    0    0  0.31476041309E+00  0.21595578331E+01  0.32751341998E+01  0.39356407915E+01  0.51100000000E-03 0. -1.
        -11    1    3    3    0    0  0.12818764545E+02 -0.51500371528E+01  0.28840705747E+02  0.31978585263E+02  0.51100000000E-03 0.  1.
         12    1    3    3    0    0  0.34310954919E+01 -0.75817942080E+00  0.96055505384E+01  0.10228091389E+02  0.00000000000E+00 0. -1.
</event>
<event>
 7    1  0.5664398E-009  0.4614232E+02  0.7816164E-02  0.1320468E+00
        -11   -1    0    0    0    0  0.00000000000E+00  0.00000000000E+00  0.45593999997E+02  0.45594000000E+02  0.51100000000E-03 0. -1.
         11   -1    0    0    0    0 -0.00000000000E+00 -0.00000000000E+00 -0.45593999997E+02  0.45594000000E+02  0.51100000000E-03 0.  1.
    9900012    2    1    2    0    0  0.11693641155E+02 -0.36733919091E+02  0.23302176062E+02  0.46142318027E+02  0.10000002422E+02 0.  0.
        -12    1    1    2    0    0 -0.11693641155E+02  0.36733919091E+02 -0.23302176062E+02  0.45045681973E+02  0.00000000000E+00 0.  1.
         11    1    3    3    0    0  0.72928904779E-01 -0.53502811810E+01  0.24647770990E+01  0.58911759224E+01  0.51100000000E-03 0. -1.
        -11    1    3    3    0    0  0.88998600332E+01 -0.17040229478E+02  0.80434194637E+01  0.20839230461E+02  0.51100000000E-03 0.  1.
         12    1    3    3    0    0  0.27208522167E+01 -0.14343408432E+02  0.12793979499E+02  0.19411911643E+02  0.00000000000E+00 0. -1.
</event>
<event>
 7    1  0.5664398E-009  0.4614232E+02  0.7816164E-02  0.1320468E+00
        -11   -1    0    0    0    0  0.00000000000E+00  0.00000000000E+00  0.45593999997E+02  0.45594000000E+02  0.51100000000E-03 0. -1.
         11   -1    0    0    0    0 -0.00000000000E+00 -0.00000000000E+00 -0.45593999997E+02  0.45594000000E+02  0.51100000000E-03 0.  1.
    9900012    2    1    2    0    0 -0.38309012946E+01  0.28578910067E+02 -0.34607566581E+02  0.46142316855E+02  0.99999917356E+01 0.  0.
         12    1    1    2    0    0  0.38309012946E+01 -0.28578910067E+02  0.34607566581E+02  0.45045683145E+02  0.00000000000E+00 0. -1.
         11    1    3    3    0    0 -0.20058034187E+01  0.28874861427E+01 -0.24010290061E+01  0.42574363328E+01  0.51100000000E-03 0. -1.
        -11    1    3    3    0    0 -0.23331191944E+01  0.17159010278E+02 -0.16071186978E+02  0.23625370474E+02  0.51100000000E-03 0.  1.
         12    1    3    3    0    0  0.50802131841E+00  0.85324136457E+01 -0.16135350597E+02  0.18259510048E+02  0.00000000000E+00 0. -1.
</event>
<event>
 7    1  0.5664398E-009  0.4614233E+02  0.7816164E-02  0.1320468E+00
        -11   -1    0    0    0    0  0.00000000000E+00  0.00000000000E+00  0.45593999997E+02  0.45594000000E+02  0.51100000000E-03 0. -1.
         11   -1    0    0    0    0 -0.00000000000E+00 -0.00000000000E+00 -0.45593999997E+02  0.45594000000E+02  0.51100000000E-03 0.  1.
    9900012    2    1    2    0    0 -0.68563925468E+01 -0.44170390793E+02 -0.55748530315E+01  0.46142328422E+02  0.10000097213E+02 0.  0.
         12    1    1    2    0    0  0.68563925468E+01  0.44170390793E+02  0.55748530315E+01  0.45045671578E+02  0.00000000000E+00 0. -1.
         11    1    3    3    0    0 -0.60175321689E+00  0.23132159786E-01  0.20607300686E+00  0.63648124571E+00  0.51100000000E-03 0. -1.
        -11    1    3    3    0    0 -0.73701354612E+01 -0.30820848310E+02 -0.33239322185E+01  0.31863648770E+02  0.51100000000E-03 0.  1.
        -12    1    3    3    0    0  0.11154961313E+01 -0.13372674643E+02 -0.24569938198E+01  0.13642198406E+02  0.00000000000E+00 0.  1.
</event>
<event>
 7    1  0.5664398E-009  0.4614232E+02  0.7816164E-02  0.1320468E+00
        -11   -1    0    0    0    0  0.00000000000E+00  0.00000000000E+00  0.45593999997E+02  0.45594000000E+02  0.51100000000E-03 0. -1.
         11   -1    0    0    0    0 -0.00000000000E+00 -0.00000000000E+00 -0.45593999997E+02  0.45594000000E+02  0.51100000000E-03 0.  1.
    9900012    2    1    2    0    0  0.28977640663E+02 -0.27583960297E+01 -0.34377334310E+02  0.46142317395E+02  0.99999966646E+01 0.  0.
         12    1    1    2    0    0 -0.28977640663E+02  0.27583960297E+01  0.34377334310E+02  0.45045682605E+02  0.00000000000E+00 0. -1.
         11    1    3    3    0    0  0.13086742481E+02 -0.40699757742E+00 -0.12097063642E+02  0.17826032223E+02  0.51100000000E-03 0. -1.
        -11    1    3    3    0    0  0.66833713192E+01 -0.30842681491E+01 -0.55978394440E+01  0.92474844638E+01  0.51100000000E-03 0.  1.
         12    1    3    3    0    0  0.92075268629E+01  0.73286969679E+00 -0.16682431224E+02  0.19068800709E+02  0.00000000000E+00 0. -1.
</event>
<event>
 7    1  0.5664398E-009  0.4614232E+02  0.7816164E-02  0.1320468E+00
        -11   -1    0    0    0    0  0.00000000000E+00  0.00000000000E+00  0.45593999997E+02  0.45594000000E+02  0.51100000000E-03 0. -1.
         11   -1    0    0    0    0 -0.00000000000E+00 -0.00000000000E+00 -0.45593999997E+02  0.45594000000E+02  0.51100000000E-03 0.  1.
    9900012    2    1    2    0    0  0.42522062216E+02 -0.10088602459E+02  0.10918219991E+02  0.46142320934E+02  0.10000028936E+02 0.  0.
        -12    1    1    2    0    0 -0.42522062216E+02  0.10088602459E+02 -0.10918219991E+02  0.45045679066E+02  0.00000000000E+00 0.  1.
         11    1    3    3    0    0  0.22156269183E+02 -0.37795232707E+01  0.97026612889E+00  0.22497254875E+02  0.51100000000E-03 0. -1.
        -11    1    3    3    0    0  0.34585900693E+01 -0.59499547668E+00  0.24885901752E+01  0.43022024831E+01  0.51100000000E-03 0.  1.
         12    1    3    3    0    0  0.16907202964E+02 -0.57140837120E+01  0.74593636867E+01  0.19342863576E+02  0.00000000000E+00 0. -1.
</event>
<event>
 7    1  0.5664398E-009  0.4614232E+02  0.7816164E-02  0.1320468E+00
        -11   -1    0    0    0    0  0.00000000000E+00  0.00000000000E+00  0.45593999997E+02  0.45594000000E+02  0.51100000000E-03 0.  1.
         11   -1    0    0    0    0 -0.00000000000E+00 -0.00000000000E+00 -0.45593999997E+02  0.45594000000E+02  0.51100000000E-03 0. -1.
    9900012    2    1    2    0    0 -0.28839821454E+01  0.44813246974E+02 -0.35452743558E+01  0.46142318436E+02  0.10000006152E+02 0.  0.
        -12    1    1    2    0    0  0.28839821454E+01 -0.44813246974E+02  0.35452743558E+01  0.45045681564E+02  0.00000000000E+00 0.  1.
         11    1    3    3    0    0  0.69509377449E+00  0.36007960509E+02 -0.26776359756E+01  0.36114070805E+02  0.51100000000E-03 0. -1.
        -11    1    3    3    0    0 -0.28066430138E+00  0.18179084641E+01 -0.13572561330E+01  0.22859807754E+01  0.51100000000E-03 0.  1.
         12    1    3    3    0    0 -0.32984116185E+01  0.69873780001E+01  0.48961775280E+00  0.77422668557E+01  0.00000000000E+00 0. -1.
</event>
<event>
 7    1  0.5664398E-009  0.4614232E+02  0.7816164E-02  0.1320468E+00
        -11   -1    0    0    0    0  0.00000000000E+00  0.00000000000E+00  0.45593999997E+02  0.45594000000E+02  0.51100000000E-03 0. -1.
         11   -1    0    0    0    0 -0.00000000000E+00 -0.00000000000E+00 -0.45593999997E+02  0.45594000000E+02  0.51100000000E-03 0.  1.
    9900012    2    1    2    0    0  0.22275153051E+02 -0.24106459475E+02  0.30851413482E+02  0.46142317125E+02  0.99999941969E+01 0.  0.
        -12    1    1    2    0    0 -0.22275153051E+02  0.24106459475E+02 -0.30851413482E+02  0.45045682875E+02  0.00000000000E+00 0.  1.
         11    1    3    3    0    0  0.35570307284E+01 -0.27588990541E+01  0.67457370684E+01  0.81098064373E+01  0.51100000000E-03 0. -1.
        -11    1    3    3    0    0  0.10785348369E+01 -0.51041875402E+01  0.26299584759E+01  0.58423154388E+01  0.51100000000E-03 0.  1.
         12    1    3    3    0    0  0.17639587486E+02 -0.16243372881E+02  0.21475717937E+02  0.32190195249E+02  0.00000000000E+00 0. -1.
</event>
<event>
 7    1  0.5664398E-009  0.4614232E+02  0.7816164E-02  0.1320468E+00
        -11   -1    0    0    0    0  0.00000000000E+00  0.00000000000E+00  0.45593999997E+02  0.45594000000E+02  0.51100000000E-03 0. -1.
         11   -1    0    0    0    0 -0.00000000000E+00 -0.00000000000E+00 -0.45593999997E+02  0.45594000000E+02  0.51100000000E-03 0.  1.
    9900012    2    1    2    0    0 -0.34308896394E+02  0.16781836064E+01  0.29140980736E+02  0.46142318407E+02  0.10000005886E+02 0.  0.
        -12    1    1    2    0    0  0.34308896394E+02 -0.16781836064E+01 -0.29140980736E+02  0.45045681593E+02  0.00000000000E+00 0.  1.
         11    1    3    3    0    0 -0.16923670530E+02  0.24058251648E+01  0.14114945829E+02  0.22168227601E+02  0.51100000000E-03 0. -1.
        -11    1    3    3    0    0 -0.14059236521E+02  0.77290611874E+00  0.14627980052E+02  0.20303628151E+02  0.51100000000E-03 0.  1.
        -12    1    3    3    0    0 -0.33259893422E+01 -0.15005476772E+01  0.39805485535E+00  0.36704626553E+01  0.00000000000E+00 0.  1.
</event>
<event>
 7    1  0.5664398E-009  0.4614232E+02  0.7816164E-02  0.1320468E+00
        -11   -1    0    0    0    0  0.00000000000E+00  0.00000000000E+00  0.45593999997E+02  0.45594000000E+02  0.51100000000E-03 0. -1.
         11   -1    0    0    0    0 -0.00000000000E+00 -0.00000000000E+00 -0.45593999997E+02  0.45594000000E+02  0.51100000000E-03 0.  1.
    9900012    2    1    2    0    0  0.16800904347E+02  0.27537999768E+02 -0.31440447920E+02  0.46142316705E+02  0.99999903668E+01 0.  0.
         12    1    1    2    0    0 -0.16800904347E+02 -0.27537999768E+02  0.31440447920E+02  0.45045683295E+02  0.00000000000E+00 0. -1.
         11    1    3    3    0    0  0.13892191718E+01  0.38102723878E+01 -0.50990209412E+01  0.65152222062E+01  0.51100000000E-03 0. -1.
        -11    1    3    3    0    0  0.89488494990E+01  0.16149575255E+02 -0.22111297264E+02  0.28806252017E+02  0.51100000000E-03 0.  1.
        -12    1    3    3    0    0  0.64628356766E+01  0.75781521250E+01 -0.42301297150E+01  0.10820842482E+02  0.00000000000E+00 0.  1.
</event>
<event>
 7    1  0.5664398E-009  0.4614232E+02  0.7816164E-02  0.1320468E+00
        -11   -1    0    0    0    0  0.00000000000E+00  0.00000000000E+00  0.45593999997E+02  0.45594000000E+02  0.51100000000E-03 0. -1.
         11   -1    0    0    0    0 -0.00000000000E+00 -0.00000000000E+00 -0.45593999997E+02  0.45594000000E+02  0.51100000000E-03 0.  1.
    9900012    2    1    2    0    0 -0.13214092867E+02 -0.11020464412E+02 -0.41629924607E+02  0.46142317533E+02  0.99999979158E+01 0.  0.
         12    1    1    2    0    0  0.13214092867E+02  0.11020464412E+02  0.41629924607E+02  0.45045682467E+02  0.00000000000E+00 0. -1.
         11    1    3    3    0    0 -0.90400520551E+01 -0.42881532732E+01 -0.16866605938E+02  0.19611047800E+02  0.51100000000E-03 0.  1.
        -11    1    3    3    0    0  0.12035098743E+01 -0.16678148764E+01 -0.40935478084E+01  0.45811763119E+01  0.51100000000E-03 0. -1.
         12    1    3    3    0    0 -0.53775506862E+01 -0.50644962622E+01 -0.20669770860E+02  0.21950093421E+02  0.00000000000E+00 0. -1.
</event>
<event>
 7    1  0.5664398E-009  0.4614232E+02  0.7816164E-02  0.1320468E+00
        -11   -1    0    0    0    0  0.00000000000E+00  0.00000000000E+00  0.45593999997E+02  0.45594000000E+02  0.51100000000E-03 0. -1.
         11   -1    0    0    0    0 -0.00000000000E+00 -0.00000000000E+00 -0.45593999997E+02  0.45594000000E+02  0.51100000000E-03 0.  1.
    9900012    2    1    2    0    0  0.10348453324E+02  0.24049759920E+01 -0.43774870891E+02  0.46142315221E+02  0.99999768359E+01 0.  0.
         12    1    1    2    0    0 -0.10348453324E+02 -0.24049759920E+01  0.43774870891E+02  0.45045684779E+02  0.00000000000E+00 0. -1.
         11    1    3    3    0    0  0.42714727130E+01 -0.87295392023E+00 -0.14084858437E+02  0.14744177330E+02  0.51100000000E-03 0. -1.
        -11    1    3    3    0    0  0.51916116128E+00 -0.22332762996E+01 -0.86738277189E+01  0.89717522759E+01  0.51100000000E-03 0.  1.
        -12    1    3    3    0    0  0.55578194502E+01  0.55112062119E+01 -0.21016184735E+02  0.22426385615E+02  0.00000000000E+00 0.  1.
</event>
<event>
 7    1  0.5664398E-009  0.4614232E+02  0.7816164E-02  0.1320468E+00
        -11   -1    0    0    0    0  0.00000000000E+00  0.00000000000E+00  0.45593999997E+02  0.45594000000E+02  0.51100000000E-03 0. -1.
         11   -1    0    0    0    0 -0.00000000000E+00 -0.00000000000E+00 -0.45593999997E+02  0.45594000000E+02  0.51100000000E-03 0.  1.
    9900012    2    1    2    0    0  0.18459915573E+02 -0.39653491171E+02  0.10767806839E+02  0.46142317530E+02  0.99999978950E+01 0.  0.
        -12    1    1    2    0    0 -0.18459915573E+02  0.39653491171E+02 -0.10767806839E+02  0.45045682470E+02  0.00000000000E+00 0.  1.
         11    1    3    3    0    0  0.91743195432E-01  0.32565960237E-01 -0.20858329878E+00  0.23018385983E+00  0.51100000000E-03 0. -1.
        -11    1    3    3    0    0  0.13869274114E+02 -0.28284370050E+02  0.38561278062E+01  0.31736919754E+02  0.51100000000E-03 0.  1.
         12    1    3    3    0    0  0.44988982638E+01 -0.11401687081E+02  0.71202623320E+01  0.14175213916E+02  0.00000000000E+00 0. -1.
</event>
<event>
 7    1  0.5664398E-009  0.4614232E+02  0.7816164E-02  0.1320468E+00
        -11   -1    0    0    0    0  0.00000000000E+00  0.00000000000E+00  0.45593999997E+02  0.45594000000E+02  0.51100000000E-03 0. -1.
         11   -1    0    0    0    0 -0.00000000000E+00 -0.00000000000E+00 -0.45593999997E+02  0.45594000000E+02  0.51100000000E-03 0.  1.
    9900012    2    1    2    0    0 -0.20643235800E+02 -0.81728485867E+01  0.39194067972E+02  0.46142316494E+02  0.99999884489E+01 0.  0.
        -12    1    1    2    0    0  0.20643235800E+02  0.81728485867E+01 -0.39194067972E+02  0.45045683506E+02  0.00000000000E+00 0.  1.
         11    1    3    3    0    0 -0.15514640961E+01 -0.29785154298E+01  0.10073069325E+02  0.10618159958E+02  0.51100000000E-03 0. -1.
        -11    1    3    3    0    0 -0.17887382629E+01  0.82180368377E+00  0.20961252149E+01  0.28755324804E+01  0.51100000000E-03 0.  1.
         12    1    3    3    0    0 -0.17303033441E+02 -0.60161368407E+01  0.27024873432E+02  0.32648624056E+02  0.00000000000E+00 0. -1.
</event>
<event>
 7    1  0.5664398E-009  0.4614232E+02  0.7816164E-02  0.1320468E+00
        -11   -1    0    0    0    0  0.00000000000E+00  0.00000000000E+00  0.45593999997E+02  0.45594000000E+02  0.51100000000E-03 0. -1.
         11   -1    0    0    0    0 -0.00000000000E+00 -0.00000000000E+00 -0.45593999997E+02  0.45594000000E+02  0.51100000000E-03 0.  1.
    9900012    2    1    2    0    0 -0.43245396681E+02 -0.92207418820E+01  0.85980892925E+01  0.46142317027E+02  0.99999933099E+01 0.  0.
        -12    1    1    2    0    0  0.43245396681E+02  0.92207418820E+01 -0.85980892925E+01  0.45045682973E+02  0.00000000000E+00 0.  1.
         11    1    3    3    0    0 -0.24732324718E+02 -0.74796744903E+00  0.50796509676E+01  0.25259655490E+02  0.51100000000E-03 0. -1.
        -11    1    3    3    0    0 -0.58321154933E+00 -0.13924263896E+00 -0.40723485511E+00  0.72482046889E+00  0.51100000000E-03 0.  1.
         12    1    3    3    0    0 -0.17929860414E+02 -0.83335317940E+01  0.39256731800E+01  0.20157841069E+02  0.00000000000E+00 0. -1.
</event>
<event>
 7    1  0.5664398E-009  0.4614232E+02  0.7816164E-02  0.1320468E+00
        -11   -1    0    0    0    0  0.00000000000E+00  0.00000000000E+00  0.45593999997E+02  0.45594000000E+02  0.51100000000E-03 0. -1.
         11   -1    0    0    0    0 -0.00000000000E+00 -0.00000000000E+00 -0.45593999997E+02  0.45594000000E+02  0.51100000000E-03 0.  1.
    9900012    2    1    2    0    0 -0.28979780612E+01  0.68957545172E+00  0.44947072801E+02  0.46142321578E+02  0.10000034807E+02 0.  0.
        -12    1    1    2    0    0  0.28979780612E+01 -0.68957545172E+00 -0.44947072801E+02  0.45045678422E+02  0.00000000000E+00 0.  1.
         11    1    3    3    0    0  0.19180238189E+01 -0.18418633069E+01  0.17099445330E+02  0.17304979244E+02  0.51100000000E-03 0. -1.
        -11    1    3    3    0    0  0.78631598596E+00 -0.57588214616E+00  0.56621127102E+01  0.57453854249E+01  0.51100000000E-03 0.  1.
        -12    1    3    3    0    0 -0.56023178660E+01  0.31073209047E+01  0.22185514761E+02  0.23091956909E+02  0.00000000000E+00 0.  1.
</event>
<event>
 7    1  0.5664398E-009  0.4614232E+02  0.7816164E-02  0.1320468E+00
        -11   -1    0    0    0    0  0.00000000000E+00  0.00000000000E+00  0.45593999997E+02  0.45594000000E+02  0.51100000000E-03 0. -1.
         11   -1    0    0    0    0 -0.00000000000E+00 -0.00000000000E+00 -0.45593999997E+02  0.45594000000E+02  0.51100000000E-03 0.  1.
    9900012    2    1    2    0    0 -0.24594354194E+02  0.88888674740E+01 -0.36677231096E+02  0.46142317587E+02  0.99999984110E+01 0.  0.
         12    1    1    2    0    0  0.24594354194E+02 -0.88888674740E+01  0.36677231096E+02  0.45045682413E+02  0.00000000000E+00 0. -1.
         11    1    3    3    0    0 -0.16220268681E+02  0.56644051915E+01 -0.17841514120E+02  0.24768977141E+02  0.51100000000E-03 0. -1.
        -11    1    3    3    0    0 -0.74914518913E+01  0.10826224970E+01 -0.12335689192E+02  0.14472841843E+02  0.51100000000E-03 0.  1.
         12    1    3    3    0    0 -0.88263362208E+00  0.21418397856E+01 -0.65000277837E+01  0.69004986028E+01  0.00000000000E+00 0. -1.
</event>
<event>
 7    1  0.5664398E-009  0.4614232E+02  0.7816164E-02  0.1320468E+00
        -11   -1    0    0    0    0  0.00000000000E+00  0.00000000000E+00  0.45593999997E+02  0.45594000000E+02  0.51100000000E-03 0. -1.
         11   -1    0    0    0    0 -0.00000000000E+00 -0.00000000000E+00 -0.45593999997E+02  0.45594000000E+02  0.51100000000E-03 0.  1.
    9900012    2    1    2    0    0 -0.16308286381E+02  0.19045501711E+02  0.37422215268E+02  0.46142317236E+02  0.99999952112E+01 0.  0.
        -12    1    1    2    0    0  0.16308286381E+02 -0.19045501711E+02 -0.37422215268E+02  0.45045682764E+02  0.00000000000E+00 0.  1.
         11    1    3    3    0    0 -0.56511269724E+01  0.78031394841E+01  0.19421199653E+02  0.21679649861E+02  0.51100000000E-03 0. -1.
        -11    1    3    3    0    0 -0.76424297441E+01  0.89582503240E+01  0.16757920307E+02  0.20481329901E+02  0.51100000000E-03 0.  1.
         12    1    3    3    0    0 -0.30147296643E+01  0.22841119028E+01  0.12430953084E+01  0.39813374736E+01  0.00000000000E+00 0. -1.
</event>
<event>
 7    1  0.5664398E-009  0.4614232E+02  0.7816164E-02  0.1320468E+00
        -11   -1    0    0    0    0  0.00000000000E+00  0.00000000000E+00  0.45593999997E+02  0.45594000000E+02  0.51100000000E-03 0. -1.
         11   -1    0    0    0    0 -0.00000000000E+00 -0.00000000000E+00 -0.45593999997E+02  0.45594000000E+02  0.51100000000E-03 0.  1.
    9900012    2    1    2    0    0 -0.13314268553E+02  0.18267610245E+02 -0.38963292659E+02  0.46142317565E+02  0.99999982132E+01 0.  0.
         12    1    1    2    0    0  0.13314268553E+02 -0.18267610245E+02  0.38963292659E+02  0.45045682435E+02  0.00000000000E+00 0. -1.
         11    1    3    3    0    0 -0.76001230390E+01  0.93765870167E+01 -0.22176361129E+02  0.25248232561E+02  0.51100000000E-03 0. -1.
        -11    1    3    3    0    0 -0.24554799611E+01  0.19088795648E+01 -0.10495577821E+02  0.10946705308E+02  0.51100000000E-03 0.  1.
         12    1    3    3    0    0 -0.32586655531E+01  0.69821436636E+01 -0.62913537092E+01  0.99473796962E+01  0.00000000000E+00 0. -1.
</event>
<event>
 7    1  0.5664398E-009  0.4614232E+02  0.7816164E-02  0.1320468E+00
        -11   -1    0    0    0    0  0.00000000000E+00  0.00000000000E+00  0.45593999997E+02  0.45594000000E+02  0.51100000000E-03 0. -1.
         11   -1    0    0    0    0 -0.00000000000E+00 -0.00000000000E+00 -0.45593999997E+02  0.45594000000E+02  0.51100000000E-03 0.  1.
    9900012    2    1    2    0    0  0.53576779739E+01 -0.92599064516E+01 -0.43756860748E+02  0.46142318261E+02  0.10000004560E+02 0.  0.
         12    1    1    2    0    0 -0.53576779739E+01  0.92599064516E+01  0.43756860748E+02  0.45045681739E+02  0.00000000000E+00 0. -1.
         11    1    3    3    0    0  0.14582184781E+01  0.70429382492E+00 -0.60933726717E+01  0.63048887143E+01  0.51100000000E-03 0. -1.
        -11    1    3    3    0    0 -0.21850570502E+00  0.55695292758E+00 -0.91136665070E+01  0.91332830225E+01  0.51100000000E-03 0.  1.
        -12    1    3    3    0    0  0.41179652009E+01 -0.10521153204E+02 -0.28549821570E+02  0.30704146524E+02  0.00000000000E+00 0.  1.
</event>
<event>
 7    1  0.5664398E-009  0.4614232E+02  0.7816164E-02  0.1320468E+00
        -11   -1    0    0    0    0  0.00000000000E+00  0.00000000000E+00  0.45593999997E+02  0.45594000000E+02  0.51100000000E-03 0.  1.
         11   -1    0    0    0    0 -0.00000000000E+00 -0.00000000000E+00 -0.45593999997E+02  0.45594000000E+02  0.51100000000E-03 0. -1.
    9900012    2    1    2    0    0 -0.10811481716E+02  0.43537304098E+02 -0.40900450794E+01  0.46142318146E+02  0.10000003506E+02 0.  0.
         12    1    1    2    0    0  0.10811481716E+02 -0.43537304098E+02  0.40900450794E+01  0.45045681854E+02  0.00000000000E+00 0. -1.
         11    1    3    3    0    0 -0.68119853175E+01  0.28848385831E+02 -0.34658979979E+01  0.29843675347E+02  0.51100000000E-03 0. -1.
        -11    1    3    3    0    0 -0.53673426893E+01  0.12931500817E+02 -0.59891174468E-01  0.14001273805E+02  0.51100000000E-03 0.  1.
         12    1    3    3    0    0  0.13678462910E+01  0.17574174495E+01 -0.56425590698E+00  0.22973689944E+01  0.00000000000E+00 0. -1.
</event>
<event>
 7    1  0.5664398E-009  0.4614232E+02  0.7816164E-02  0.1320468E+00
        -11   -1    0    0    0    0  0.00000000000E+00  0.00000000000E+00  0.45593999997E+02  0.45594000000E+02  0.51100000000E-03 0. -1.
         11   -1    0    0    0    0 -0.00000000000E+00 -0.00000000000E+00 -0.45593999997E+02  0.45594000000E+02  0.51100000000E-03 0.  1.
    9900012    2    1    2    0    0 -0.35063431643E+01 -0.16060037096E+02 -0.41939174500E+02  0.46142316615E+02  0.99999895475E+01 0.  0.
         12    1    1    2    0    0  0.35063431643E+01  0.16060037096E+02  0.41939174500E+02  0.45045683385E+02  0.00000000000E+00 0. -1.
         11    1    3    3    0    0 -0.40385365730E+01 -0.80971156345E+01 -0.29930691550E+02  0.31268504220E+02  0.51100000000E-03 0. -1.
        -11    1    3    3    0    0  0.13057771269E+01 -0.74133197668E+00 -0.23618369643E+01  0.27987320543E+01  0.51100000000E-03 0.  1.
        -12    1    3    3    0    0 -0.77358371820E+00 -0.72215894846E+01 -0.96466459855E+01  0.12075080340E+02  0.00000000000E+00 0.  1.
</event>
<event>
 7    1  0.5664398E-009  0.4614232E+02  0.7816164E-02  0.1320468E+00
        -11   -1    0    0    0    0  0.00000000000E+00  0.00000000000E+00  0.45593999997E+02  0.45594000000E+02  0.51100000000E-03 0. -1.
         11   -1    0    0    0    0 -0.00000000000E+00 -0.00000000000E+00 -0.45593999997E+02  0.45594000000E+02  0.51100000000E-03 0.  1.
    9900012    2    1    2    0    0  0.98646417651E+01  0.59991186515E+01 -0.43540928602E+02  0.46142322680E+02  0.10000044850E+02 0.  0.
         12    1    1    2    0    0 -0.98646417651E+01 -0.59991186515E+01  0.43540928602E+02  0.45045677320E+02  0.00000000000E+00 0. -1.
         11    1    3    3    0    0 -0.45282825596E+00 -0.52372494168E+00 -0.27108927951E+01  0.27979065838E+01  0.51100000000E-03 0. -1.
        -11    1    3    3    0    0  0.51017359394E+01  0.35045325969E+00 -0.25574641098E+02  0.26080889453E+02  0.51100000000E-03 0.  1.
         12    1    3    3    0    0  0.52157340817E+01  0.61723903335E+01 -0.15255394708E+02  0.17263526643E+02  0.00000000000E+00 0. -1.
</event>
<event>
 7    1  0.6434662E-009  0.4614232E+02  0.7816164E-02  0.1320468E+00
        -11   -1    0    0    0    0  0.00000000000E+00  0.00000000000E+00  0.45593999997E+02  0.45594000000E+02  0.51100000000E-03 0. -1.
         11   -1    0    0    0    0 -0.00000000000E+00 -0.00000000000E+00 -0.45593999997E+02  0.45594000000E+02  0.51100000000E-03 0.  1.
    9900012    2    1    2    0    0 -0.71946364254E+01 -0.89176047209E+01  0.43564055836E+02  0.46142318430E+02  0.10000006097E+02 0.  0.
        -12    1    1    2    0    0  0.71946364254E+01  0.89176047209E+01 -0.43564055836E+02  0.45045681570E+02  0.00000000000E+00 0.  1.
         11    1    3    3    0    0  0.10915170822E+01 -0.20316363752E+00  0.32650105889E+01  0.34486199285E+01  0.51100000000E-03 0. -1.
        -11    1    3    3    0    0 -0.90807408176E+00  0.11478057015E+01  0.78602903836E+01  0.79953875229E+01  0.51100000000E-03 0.  1.
         12    1    3    3    0    0 -0.73780794258E+01 -0.98622467849E+01  0.32438754863E+02  0.34698310978E+02  0.00000000000E+00 0. -1.
</event>
<event>
 7    1  0.5664398E-009  0.4614232E+02  0.7816164E-02  0.1320468E+00
        -11   -1    0    0    0    0  0.00000000000E+00  0.00000000000E+00  0.45593999997E+02  0.45594000000E+02  0.51100000000E-03 0. -1.
         11   -1    0    0    0    0 -0.00000000000E+00 -0.00000000000E+00 -0.45593999997E+02  0.45594000000E+02  0.51100000000E-03 0.  1.
    9900012    2    1    2    0    0  0.35739816737E+02 -0.42937557994E+00 -0.27415225898E+02  0.46142317912E+02  0.10000001373E+02 0.  0.
         12    1    1    2    0    0 -0.35739816737E+02  0.42937557994E+00  0.27415225898E+02  0.45045682088E+02  0.00000000000E+00 0. -1.
         11    1    3    3    0    0  0.49710515122E+01  0.62315099908E+00 -0.67566746914E+01  0.84114400343E+01  0.51100000000E-03 0. -1.
        -11    1    3    3    0    0  0.61849733809E+01 -0.16318773735E+01 -0.74430740719E+01  0.98140853565E+01  0.51100000000E-03 0.  1.
        -12    1    3    3    0    0  0.24583791844E+02  0.57935079444E+00 -0.13215477135E+02  0.27916792521E+02  0.00000000000E+00 0.  1.
</event>
<event>
 7    1  0.5664398E-009  0.4614232E+02  0.7816164E-02  0.1320468E+00
        -11   -1    0    0    0    0  0.00000000000E+00  0.00000000000E+00  0.45593999997E+02  0.45594000000E+02  0.51100000000E-03 0. -1.
         11   -1    0    0    0    0 -0.00000000000E+00 -0.00000000000E+00 -0.45593999997E+02  0.45594000000E+02  0.51100000000E-03 0.  1.
    9900012    2    1    2    0    0 -0.19625565275E+01  0.87004696599E+01  0.44153863066E+02  0.46142318475E+02  0.10000006510E+02 0.  0.
        -12    1    1    2    0    0  0.19625565275E+01 -0.87004696599E+01 -0.44153863066E+02  0.45045681525E+02  0.00000000000E+00 0.  1.
         11    1    3    3    0    0  0.21385514968E+01  0.64969035255E+01  0.16857556034E+02  0.18192315785E+02  0.51100000000E-03 0. -1.
        -11    1    3    3    0    0 -0.22190702422E+01  0.21074727422E+01  0.80572866955E+01  0.86189084723E+01  0.51100000000E-03 0.  1.
        -12    1    3    3    0    0 -0.18820377821E+01  0.96093392093E-01  0.19239020337E+02  0.19331094218E+02  0.00000000000E+00 0.  1.
</event>
<event>
 7    1  0.5664398E-009  0.4614232E+02  0.7816164E-02  0.1320468E+00
        -11   -1    0    0    0    0  0.00000000000E+00  0.00000000000E+00  0.45593999997E+02  0.45594000000E+02  0.51100000000E-03 0. -1.
         11   -1    0    0    0    0 -0.00000000000E+00 -0.00000000000E+00 -0.45593999997E+02  0.45594000000E+02  0.51100000000E-03 0.  1.
    9900012    2    1    2    0    0  0.14758011241E+02 -0.18256080380E+02  0.38445153785E+02  0.46142320783E+02  0.10000027554E+02 0.  0.
        -12    1    1    2    0    0 -0.14758011241E+02  0.18256080380E+02 -0.38445153785E+02  0.45045679217E+02  0.00000000000E+00 0.  1.
         11    1    3    3    0    0  0.11070409763E+02 -0.17505728435E+02  0.31809381717E+02  0.37958414954E+02  0.51100000000E-03 0. -1.
        -11    1    3    3    0    0  0.39882218559E+01 -0.10425161907E+01  0.65749242002E+01  0.77603081176E+01  0.51100000000E-03 0.  1.
         12    1    3    3    0    0 -0.30062037748E+00  0.29216424582E+00  0.60847867435E-01  0.42359771112E+00  0.00000000000E+00 0. -1.
</event>
<event>
 7    1  0.5664398E-009  0.4614232E+02  0.7816164E-02  0.1320468E+00
        -11   -1    0    0    0    0  0.00000000000E+00  0.00000000000E+00  0.45593999997E+02  0.45594000000E+02  0.51100000000E-03 0. -1.
         11   -1    0    0    0    0 -0.00000000000E+00 -0.00000000000E+00 -0.45593999997E+02  0.45594000000E+02  0.51100000000E-03 0.  1.
    9900012    2    1    2    0    0 -0.25589210775E+02 -0.29727374283E+02  0.22149240782E+02  0.46142319218E+02  0.10000013288E+02 0.  0.
        -12    1    1    2    0    0  0.25589210775E+02  0.29727374283E+02 -0.22149240782E+02  0.45045680782E+02  0.00000000000E+00 0.  1.
         11    1    3    3    0    0 -0.86376061063E+01 -0.11866092797E+02  0.77715764785E+01  0.16607522354E+02  0.51100000000E-03 0. -1.
        -11    1    3    3    0    0 -0.88721505188E+01 -0.75928769519E+01  0.10992462978E+02  0.16037489761E+02  0.51100000000E-03 0.  1.
        -12    1    3    3    0    0 -0.80794541499E+01 -0.10268404534E+02  0.33852013258E+01  0.13497307104E+02  0.00000000000E+00 0.  1.
</event>
<event>
 7    1  0.5664398E-009  0.4614232E+02  0.7816164E-02  0.1320468E+00
        -11   -1    0    0    0    0  0.00000000000E+00  0.00000000000E+00  0.45593999997E+02  0.45594000000E+02  0.51100000000E-03 0. -1.
         11   -1    0    0    0    0 -0.00000000000E+00 -0.00000000000E+00 -0.45593999997E+02  0.45594000000E+02  0.51100000000E-03 0.  1.
    9900012    2    1    2    0    0 -0.38279857745E+02  0.87231088536E+01 -0.22083328207E+02  0.46142317390E+02  0.99999966198E+01 0.  0.
         12    1    1    2    0    0  0.38279857745E+02 -0.87231088536E+01  0.22083328207E+02  0.45045682610E+02  0.00000000000E+00 0. -1.
         11    1    3    3    0    0 -0.18174456775E+01  0.68507021891E+00 -0.44094416601E+01  0.48182575699E+01  0.51100000000E-03 0. -1.
        -11    1    3    3    0    0 -0.12752519871E+02  0.26219085818E+01 -0.56257614857E+01  0.14182748684E+02  0.51100000000E-03 0.  1.
         12    1    3    3    0    0 -0.23709892197E+02  0.54161300529E+01 -0.12048125061E+02  0.27141311137E+02  0.00000000000E+00 0. -1.
</event>
<event>
 7    1  0.5664398E-009  0.4614232E+02  0.7816164E-02  0.1320468E+00
        -11   -1    0    0    0    0  0.00000000000E+00  0.00000000000E+00  0.45593999997E+02  0.45594000000E+02  0.51100000000E-03 0.  1.
         11   -1    0    0    0    0 -0.00000000000E+00 -0.00000000000E+00 -0.45593999997E+02  0.45594000000E+02  0.51100000000E-03 0. -1.
    9900012    2    1    2    0    0 -0.28273387333E+02  0.32212457696E+02  0.13859530716E+02  0.46142318145E+02  0.10000003503E+02 0.  0.
        -12    1    1    2    0    0  0.28273387333E+02 -0.32212457696E+02 -0.13859530716E+02  0.45045681855E+02  0.00000000000E+00 0.  1.
         11    1    3    3    0    0 -0.36476060664E+01  0.44582236495E+01  0.28835704861E+01  0.64417208209E+01  0.51100000000E-03 0. -1.
        -11    1    3    3    0    0 -0.57935790878E+01  0.25268738958E+01  0.39223379965E+01  0.74387758369E+01  0.51100000000E-03 0.  1.
         12    1    3    3    0    0 -0.18832202179E+02  0.25227360151E+02  0.70536222329E+01  0.32261821487E+02  0.00000000000E+00 0. -1.
</event>
<event>
 7    1  0.5664398E-009  0.4614232E+02  0.7816164E-02  0.1320468E+00
        -11   -1    0    0    0    0  0.00000000000E+00  0.00000000000E+00  0.45593999997E+02  0.45594000000E+02  0.51100000000E-03 0. -1.
         11   -1    0    0    0    0 -0.00000000000E+00 -0.00000000000E+00 -0.45593999997E+02  0.45594000000E+02  0.51100000000E-03 0.  1.
    9900012    2    1    2    0    0  0.26034121169E+02 -0.12093379120E+02  0.34714382299E+02  0.46142316278E+02  0.99999864734E+01 0.  0.
        -12    1    1    2    0    0 -0.26034121169E+02  0.12093379120E+02 -0.34714382299E+02  0.45045683722E+02  0.00000000000E+00 0.  1.
         11    1    3    3    0    0  0.10529997171E+02 -0.39579360708E+01  0.13323528867E+02  0.17437388569E+02  0.51100000000E-03 0. -1.
        -11    1    3    3    0    0  0.51659072195E+01 -0.58635038290E+01  0.13123746647E+02  0.15274161216E+02  0.51100000000E-03 0.  1.
        -12    1    3    3    0    0  0.10338216778E+02 -0.22719392199E+01  0.82671067857E+01  0.13430766493E+02  0.00000000000E+00 0.  1.
</event>
<event>
 7    1  0.5664398E-009  0.4614232E+02  0.7816164E-02  0.1320468E+00
        -11   -1    0    0    0    0  0.00000000000E+00  0.00000000000E+00  0.45593999997E+02  0.45594000000E+02  0.51100000000E-03 0.  1.
         11   -1    0    0    0    0 -0.00000000000E+00 -0.00000000000E+00 -0.45593999997E+02  0.45594000000E+02  0.51100000000E-03 0. -1.
    9900012    2    1    2    0    0 -0.34799587148E+02 -0.36038257005E+01 -0.28374542005E+02  0.46142318083E+02  0.10000002938E+02 0.  0.
         12    1    1    2    0    0  0.34799587148E+02  0.36038257005E+01  0.28374542005E+02  0.45045681917E+02  0.00000000000E+00 0. -1.
         11    1    3    3    0    0 -0.29553880588E+01  0.82207281176E+00 -0.41182071603E+01  0.51351487576E+01  0.51100000000E-03 0. -1.
        -11    1    3    3    0    0 -0.30715285227E+02 -0.51756089863E+01 -0.21241287453E+02  0.37701564528E+02  0.51100000000E-03 0.  1.
         12    1    3    3    0    0 -0.11289138620E+01  0.74971047402E+00 -0.30150473919E+01  0.33056047976E+01  0.00000000000E+00 0. -1.
</event>
<event>
 7    1  0.5664398E-009  0.4614232E+02  0.7816164E-02  0.1320468E+00
        -11   -1    0    0    0    0  0.00000000000E+00  0.00000000000E+00  0.45593999997E+02  0.45594000000E+02  0.51100000000E-03 0. -1.
         11   -1    0    0    0    0 -0.00000000000E+00 -0.00000000000E+00 -0.45593999997E+02  0.45594000000E+02  0.51100000000E-03 0.  1.
    9900012    2    1    2    0    0  0.36392656592E+01  0.84934148927E+01  0.44087766476E+02  0.46142317589E+02  0.99999984276E+01 0.  0.
        -12    1    1    2    0    0 -0.36392656592E+01 -0.84934148927E+01 -0.44087766476E+02  0.45045682411E+02  0.00000000000E+00 0.  1.
         11    1    3    3    0    0  0.79757419782E-01 -0.14340854230E+01  0.19571478487E+01  0.24276305751E+01  0.51100000000E-03 0. -1.
        -11    1    3    3    0    0  0.20800161270E+01  0.65182844647E+01  0.17239186204E+02  0.18547345920E+02  0.51100000000E-03 0.  1.
         12    1    3    3    0    0  0.14794921124E+01  0.34092158510E+01  0.24891432423E+02  0.25167341094E+02  0.00000000000E+00 0. -1.
</event>
<event>
 7    1  0.5664398E-009  0.4614232E+02  0.7816164E-02  0.1320468E+00
        -11   -1    0    0    0    0  0.00000000000E+00  0.00000000000E+00  0.45593999997E+02  0.45594000000E+02  0.51100000000E-03 0. -1.
         11   -1    0    0    0    0 -0.00000000000E+00 -0.00000000000E+00 -0.45593999997E+02  0.45594000000E+02  0.51100000000E-03 0.  1.
    9900012    2    1    2    0    0  0.19226288778E+02 -0.22037809715E+02 -0.34260737863E+02  0.46142318785E+02  0.10000009334E+02 0.  0.
         12    1    1    2    0    0 -0.19226288778E+02  0.22037809715E+02  0.34260737863E+02  0.45045681215E+02  0.00000000000E+00 0. -1.
         11    1    3    3    0    0  0.15262111019E+02 -0.19334628470E+02 -0.27577701421E+02  0.36976878001E+02  0.51100000000E-03 0. -1.
        -11    1    3    3    0    0  0.29344466274E+01 -0.17219790618E+00 -0.53967821490E+01  0.61453955896E+01  0.51100000000E-03 0.  1.
         12    1    3    3    0    0  0.10297311316E+01 -0.25309833385E+01 -0.12862542939E+01  0.30200451937E+01  0.00000000000E+00 0. -1.
</event>
<event>
 7    1  0.5664398E-009  0.4614232E+02  0.7816164E-02  0.1320468E+00
        -11   -1    0    0    0    0  0.00000000000E+00  0.00000000000E+00  0.45593999997E+02  0.45594000000E+02  0.51100000000E-03 0. -1.
         11   -1    0    0    0    0 -0.00000000000E+00 -0.00000000000E+00 -0.45593999997E+02  0.45594000000E+02  0.51100000000E-03 0.  1.
    9900012    2    1    2    0    0  0.73406530821E+01 -0.40742105120E+02 -0.17756943658E+02  0.46142319127E+02  0.10000012456E+02 0.  0.
         12    1    1    2    0    0 -0.73406530821E+01  0.40742105120E+02  0.17756943658E+02  0.45045680873E+02  0.00000000000E+00 0. -1.
         11    1    3    3    0    0  0.46442373377E+01 -0.79688614979E+01 -0.33023207550E+01  0.97967860368E+01  0.51100000000E-03 0. -1.
        -11    1    3    3    0    0  0.33557960479E+01 -0.27961617574E+02 -0.10407935106E+02  0.30023966059E+02  0.51100000000E-03 0.  1.
        -12    1    3    3    0    0 -0.65938030352E+00 -0.48116260474E+01 -0.40466877967E+01  0.63215670311E+01  0.00000000000E+00 0.  1.
</event>
<event>
 7    1  0.5664398E-009  0.4614232E+02  0.7816164E-02  0.1320468E+00
        -11   -1    0    0    0    0  0.00000000000E+00  0.00000000000E+00  0.45593999997E+02  0.45594000000E+02  0.51100000000E-03 0. -1.
         11   -1    0    0    0    0 -0.00000000000E+00 -0.00000000000E+00 -0.45593999997E+02  0.45594000000E+02  0.51100000000E-03 0.  1.
    9900012    2    1    2    0    0  0.25313909920E+01  0.44922850907E+02 -0.21547443499E+01  0.46142318773E+02  0.10000009226E+02 0.  0.
         12    1    1    2    0    0 -0.25313909920E+01 -0.44922850907E+02  0.21547443499E+01  0.45045681227E+02  0.00000000000E+00 0. -1.
         11    1    3    3    0    0 -0.58062082983E-01  0.58181599794E+01 -0.36142324849E+01  0.68496009714E+01  0.51100000000E-03 0. -1.
        -11    1    3    3    0    0  0.65367778256E+00  0.58514094831E+01 -0.60752109686E+00  0.59190683158E+01  0.51100000000E-03 0.  1.
        -12    1    3    3    0    0  0.19357752924E+01  0.33253281445E+02  0.20670092319E+01  0.33373649486E+02  0.00000000000E+00 0.  1.
</event>
<event>
 7    1  0.5664398E-009  0.4614232E+02  0.7816164E-02  0.1320468E+00
        -11   -1    0    0    0    0  0.00000000000E+00  0.00000000000E+00  0.45593999997E+02  0.45594000000E+02  0.51100000000E-03 0. -1.
         11   -1    0    0    0    0 -0.00000000000E+00 -0.00000000000E+00 -0.45593999997E+02  0.45594000000E+02  0.51100000000E-03 0.  1.
    9900012    2    1    2    0    0 -0.16783012406E+02 -0.41013089861E+02 -0.80851991596E+01  0.46142317734E+02  0.99999997516E+01 0.  0.
         12    1    1    2    0    0  0.16783012406E+02  0.41013089861E+02  0.80851991596E+01  0.45045682266E+02  0.00000000000E+00 0. -1.
         11    1    3    3    0    0 -0.36757940804E+01 -0.34800429917E+01 -0.23600469643E+00  0.50673326142E+01  0.51100000000E-03 0. -1.
        -11    1    3    3    0    0 -0.10877303209E+02 -0.30374367013E+02 -0.89861544392E+01  0.33491325271E+02  0.51100000000E-03 0.  1.
        -12    1    3    3    0    0 -0.22299151170E+01 -0.71586798560E+01  0.11369599761E+01  0.75836598484E+01  0.00000000000E+00 0.  1.
</event>
<event>
 7    1  0.5664398E-009  0.4614232E+02  0.7816164E-02  0.1320468E+00
        -11   -1    0    0    0    0  0.00000000000E+00  0.00000000000E+00  0.45593999997E+02  0.45594000000E+02  0.51100000000E-03 0.  1.
         11   -1    0    0    0    0 -0.00000000000E+00 -0.00000000000E+00 -0.45593999997E+02  0.45594000000E+02  0.51100000000E-03 0. -1.
    9900012    2    1    2    0    0  0.44805969118E+02  0.28868570939E+00 -0.46319779517E+01  0.46142318434E+02  0.10000006136E+02 0.  0.
         12    1    1    2    0    0 -0.44805969118E+02 -0.28868570939E+00  0.46319779517E+01  0.45045681566E+02  0.00000000000E+00 0. -1.
         11    1    3    3    0    0  0.13081494351E+01 -0.14356593117E+01  0.40058833308E+00  0.19831399037E+01  0.51100000000E-03 0. -1.
        -11    1    3    3    0    0  0.19521808506E+02  0.26576679018E+01 -0.30802178620E+00  0.19704290998E+02  0.51100000000E-03 0.  1.
        -12    1    3    3    0    0  0.23976011176E+02 -0.93332288066E+00 -0.47245444986E+01  0.24454887533E+02  0.00000000000E+00 0.  1.
</event>
<event>
 7    1  0.5664398E-009  0.4614232E+02  0.7816164E-02  0.1320468E+00
        -11   -1    0    0    0    0  0.00000000000E+00  0.00000000000E+00  0.45593999997E+02  0.45594000000E+02  0.51100000000E-03 0. -1.
         11   -1    0    0    0    0 -0.00000000000E+00 -0.00000000000E+00 -0.45593999997E+02  0.45594000000E+02  0.51100000000E-03 0.  1.
    9900012    2    1    2    0    0  0.12143243552E+02  0.72726764807E+01  0.42764040982E+02  0.46142318873E+02  0.10000010137E+02 0.  0.
        -12    1    1    2    0    0 -0.12143243552E+02 -0.72726764807E+01 -0.42764040982E+02  0.45045681127E+02  0.00000000000E+00 0.  1.
         11    1    3    3    0    0  0.69332006697E+01  0.37867218555E+01  0.28362154426E+02  0.29441812748E+02  0.51100000000E-03 0. -1.
        -11    1    3    3    0    0 -0.11048874030E+01  0.12592214703E+01  0.39126324806E+01  0.42561846852E+01  0.51100000000E-03 0.  1.
        -12    1    3    3    0    0  0.63149302849E+01  0.22267331549E+01  0.10489254074E+02  0.12444321439E+02  0.00000000000E+00 0.  1.
</event>
<event>
 7    1  0.5664398E-009  0.4614232E+02  0.7816164E-02  0.1320468E+00
        -11   -1    0    0    0    0  0.00000000000E+00  0.00000000000E+00  0.45593999997E+02  0.45594000000E+02  0.51100000000E-03 0. -1.
         11   -1    0    0    0    0 -0.00000000000E+00 -0.00000000000E+00 -0.45593999997E+02  0.45594000000E+02  0.51100000000E-03 0.  1.
    9900012    2    1    2    0    0  0.36972045073E+01 -0.38622207852E+02  0.22886005429E+02  0.46142317576E+02  0.99999983147E+01 0.  0.
        -12    1    1    2    0    0 -0.36972045073E+01  0.38622207852E+02 -0.22886005429E+02  0.45045682424E+02  0.00000000000E+00 0.  1.
         11    1    3    3    0    0  0.40170982099E+01 -0.19726621053E+02  0.10139087556E+02  0.22540580137E+02  0.51100000000E-03 0.  1.
        -11    1    3    3    0    0 -0.27739583212E+00 -0.18098588579E+02  0.98713344426E+01  0.20617446519E+02  0.51100000000E-03 0. -1.
        -12    1    3    3    0    0 -0.42497870436E-01 -0.79699821957E+00  0.28755834308E+01  0.29842909205E+01  0.00000000000E+00 0.  1.
</event>
<event>
 7    1  0.5664398E-009  0.4614232E+02  0.7816164E-02  0.1320468E+00
        -11   -1    0    0    0    0  0.00000000000E+00  0.00000000000E+00  0.45593999997E+02  0.45594000000E+02  0.51100000000E-03 0. -1.
         11   -1    0    0    0    0 -0.00000000000E+00 -0.00000000000E+00 -0.45593999997E+02  0.45594000000E+02  0.51100000000E-03 0.  1.
    9900012    2    1    2    0    0 -0.27467391428E+02  0.26775848654E+02 -0.23615882068E+02  0.46142317090E+02  0.99999938771E+01 0.  0.
         12    1    1    2    0    0  0.27467391428E+02 -0.26775848654E+02  0.23615882068E+02  0.45045682910E+02  0.00000000000E+00 0. -1.
         11    1    3    3    0    0 -0.30513506603E+01  0.66409579455E+01 -0.63695385251E+01  0.96945389044E+01  0.51100000000E-03 0. -1.
        -11    1    3    3    0    0 -0.19305452890E+02  0.18111826711E+02 -0.15524601201E+02  0.30687978441E+02  0.51100000000E-03 0.  1.
        -12    1    3    3    0    0 -0.51105878783E+01  0.20230639972E+01 -0.17217423415E+01  0.57597997439E+01  0.00000000000E+00 0.  1.
</event>
<event>
 7    1  0.5664398E-009  0.4614232E+02  0.7816164E-02  0.1320468E+00
        -11   -1    0    0    0    0  0.00000000000E+00  0.00000000000E+00  0.45593999997E+02  0.45594000000E+02  0.51100000000E-03 0.  1.
         11   -1    0    0    0    0 -0.00000000000E+00 -0.00000000000E+00 -0.45593999997E+02  0.45594000000E+02  0.51100000000E-03 0. -1.
    9900012    2    1    2    0    0  0.28872031297E+01 -0.36129626094E+02 -0.26747478612E+02  0.46142318345E+02  0.10000005326E+02 0.  0.
         12    1    1    2    0    0 -0.28872031297E+01  0.36129626094E+02  0.26747478612E+02  0.45045681655E+02  0.00000000000E+00 0. -1.
         11    1    3    3    0    0  0.31072038135E+01 -0.16535792124E+02 -0.13780172034E+02  0.21748109763E+02  0.51100000000E-03 0. -1.
        -11    1    3    3    0    0 -0.21094368030E+01 -0.89128351969E+01 -0.90104026614E+01  0.12848179297E+02  0.51100000000E-03 0.  1.
        -12    1    3    3    0    0  0.18894361193E+01 -0.10680998773E+02 -0.39569039173E+01  0.11546029285E+02  0.00000000000E+00 0.  1.
</event>
<event>
 7    1  0.5766394E-009  0.4614231E+02  0.7816164E-02  0.1320468E+00
        -11   -1    0    0    0    0  0.00000000000E+00  0.00000000000E+00  0.45593999997E+02  0.45594000000E+02  0.51100000000E-03 0. -1.
         11   -1    0    0    0    0 -0.00000000000E+00 -0.00000000000E+00 -0.45593999997E+02  0.45594000000E+02  0.51100000000E-03 0.  1.
    9900012    2    1    2    0    0  0.19971863960E+02 -0.11425791179E+02  0.38725827146E+02  0.46142314943E+02  0.99999743017E+01 0.  0.
        -12    1    1    2    0    0 -0.19971863960E+02  0.11425791179E+02 -0.38725827146E+02  0.45045685057E+02  0.00000000000E+00 0.  1.
         11    1    3    3    0    0  0.11160694011E+02 -0.45622946796E+01  0.21936674548E+02  0.25031845997E+02  0.51100000000E-03 0. -1.
        -11    1    3    3    0    0  0.57451832241E+01 -0.16659304562E+01  0.11993458822E+02  0.13402444155E+02  0.51100000000E-03 0.  1.
        -12    1    3    3    0    0  0.30659867248E+01 -0.51975660435E+01  0.47956937768E+01  0.77080247907E+01  0.00000000000E+00 0.  1.
</event>
<event>
 7    1  0.5664398E-009  0.4614232E+02  0.7816164E-02  0.1320468E+00
        -11   -1    0    0    0    0  0.00000000000E+00  0.00000000000E+00  0.45593999997E+02  0.45594000000E+02  0.51100000000E-03 0. -1.
         11   -1    0    0    0    0 -0.00000000000E+00 -0.00000000000E+00 -0.45593999997E+02  0.45594000000E+02  0.51100000000E-03 0.  1.
    9900012    2    1    2    0    0 -0.38337723140E+01 -0.29057719029E+02 -0.34206207125E+02  0.46142318174E+02  0.10000003764E+02 0.  0.
         12    1    1    2    0    0  0.38337723140E+01  0.29057719029E+02  0.34206207125E+02  0.45045681826E+02  0.00000000000E+00 0. -1.
         11    1    3    3    0    0 -0.19935114545E+01 -0.48134900056E+00 -0.19320980331E+01  0.28175854646E+01  0.51100000000E-03 0. -1.
        -11    1    3    3    0    0 -0.21161328095E+01 -0.17497762865E+02 -0.22219929848E+02  0.28361505709E+02  0.51100000000E-03 0.  1.
        -12    1    3    3    0    0  0.27587194997E+00 -0.11078607163E+02 -0.10054179244E+02  0.14963227001E+02  0.00000000000E+00 0.  1.
</event>
<event>
 7    1  0.5664398E-009  0.4614232E+02  0.7816164E-02  0.1320468E+00
        -11   -1    0    0    0    0  0.00000000000E+00  0.00000000000E+00  0.45593999997E+02  0.45594000000E+02  0.51100000000E-03 0. -1.
         11   -1    0    0    0    0 -0.00000000000E+00 -0.00000000000E+00 -0.45593999997E+02  0.45594000000E+02  0.51100000000E-03 0.  1.
    9900012    2    1    2    0    0 -0.10117173923E+02  0.30224802398E+02 -0.31831078127E+02  0.46142318487E+02  0.10000006621E+02 0.  0.
         12    1    1    2    0    0  0.10117173923E+02 -0.30224802398E+02  0.31831078127E+02  0.45045681513E+02  0.00000000000E+00 0. -1.
         11    1    3    3    0    0 -0.48682718031E+01  0.78113666542E+01 -0.12813138553E+02  0.15776375984E+02  0.51100000000E-03 0. -1.
        -11    1    3    3    0    0  0.72211868528E+00  0.48396939084E+00 -0.29077303618E+00  0.91664114385E+00  0.51100000000E-03 0.  1.
        -12    1    3    3    0    0 -0.59710208055E+01  0.21929466353E+02 -0.18727166539E+02  0.29449301359E+02  0.00000000000E+00 0.  1.
</event>
<event>
 7    1  0.5664398E-009  0.4614232E+02  0.7816164E-02  0.1320468E+00
        -11   -1    0    0    0    0  0.00000000000E+00  0.00000000000E+00  0.45593999997E+02  0.45594000000E+02  0.51100000000E-03 0. -1.
         11   -1    0    0    0    0 -0.00000000000E+00 -0.00000000000E+00 -0.45593999997E+02  0.45594000000E+02  0.51100000000E-03 0.  1.
    9900012    2    1    2    0    0 -0.15074524798E+02  0.24912834775E+02 -0.34368921893E+02  0.46142318448E+02  0.10000006263E+02 0.  0.
         12    1    1    2    0    0  0.15074524798E+02 -0.24912834775E+02  0.34368921893E+02  0.45045681552E+02  0.00000000000E+00 0. -1.
         11    1    3    3    0    0 -0.51934968415E+00  0.57356272574E+01 -0.85393098278E+01  0.10299852267E+02  0.51100000000E-03 0. -1.
        -11    1    3    3    0    0 -0.80311943822E+01  0.99144633749E+01 -0.92411797381E+01  0.15754239760E+02  0.51100000000E-03 0.  1.
         12    1    3    3    0    0 -0.65239807317E+01  0.92627441422E+01 -0.16588432327E+02  0.20088226420E+02  0.00000000000E+00 0. -1.
</event>
<event>
 7    1  0.5664398E-009  0.4614232E+02  0.7816164E-02  0.1320468E+00
        -11   -1    0    0    0    0  0.00000000000E+00  0.00000000000E+00  0.45593999997E+02  0.45594000000E+02  0.51100000000E-03 0. -1.
         11   -1    0    0    0    0 -0.00000000000E+00 -0.00000000000E+00 -0.45593999997E+02  0.45594000000E+02  0.51100000000E-03 0.  1.
    9900012    2    1    2    0    0 -0.12177627155E+02  0.39902888834E+01 -0.43184447150E+02  0.46142317808E+02  0.10000000429E+02 0.  0.
         12    1    1    2    0    0  0.12177627155E+02 -0.39902888834E+01  0.43184447150E+02  0.45045682192E+02  0.00000000000E+00 0. -1.
         11    1    3    3    0    0  0.35948098937E+00 -0.44089217259E+00  0.13044749546E+00  0.58363456012E+00  0.51100000000E-03 0. -1.
        -11    1    3    3    0    0 -0.41883909939E+01  0.29693563022E+01 -0.10815516088E+02  0.11972263131E+02  0.51100000000E-03 0.  1.
         12    1    3    3    0    0 -0.83487171506E+01  0.14618247538E+01 -0.32499378558E+02  0.33586420117E+02  0.00000000000E+00 0. -1.
</event>
<event>
 7    1  0.5664398E-009  0.4614232E+02  0.7816164E-02  0.1320468E+00
        -11   -1    0    0    0    0  0.00000000000E+00  0.00000000000E+00  0.45593999997E+02  0.45594000000E+02  0.51100000000E-03 0. -1.
         11   -1    0    0    0    0 -0.00000000000E+00 -0.00000000000E+00 -0.45593999997E+02  0.45594000000E+02  0.51100000000E-03 0.  1.
    9900012    2    1    2    0    0 -0.87622541656E+01 -0.19930805131E+02 -0.39434746353E+02  0.46142319728E+02  0.10000017933E+02 0.  0.
         12    1    1    2    0    0  0.87622541656E+01  0.19930805131E+02  0.39434746353E+02  0.45045680272E+02  0.00000000000E+00 0. -1.
         11    1    3    3    0    0 -0.21252254913E+01 -0.13080565467E+01 -0.79324781898E+01  0.83157564786E+01  0.51100000000E-03 0. -1.
        -11    1    3    3    0    0 -0.29617002659E+01 -0.14569634963E+01 -0.38331590081E+01  0.50584107522E+01  0.51100000000E-03 0.  1.
        -12    1    3    3    0    0 -0.36753284084E+01 -0.17165785088E+02 -0.27669109155E+02  0.32768152497E+02  0.00000000000E+00 0.  1.
</event>
<event>
 7    1  0.5664398E-009  0.4614232E+02  0.7816164E-02  0.1320468E+00
        -11   -1    0    0    0    0  0.00000000000E+00  0.00000000000E+00  0.45593999997E+02  0.45594000000E+02  0.51100000000E-03 0. -1.
         11   -1    0    0    0    0 -0.00000000000E+00 -0.00000000000E+00 -0.45593999997E+02  0.45594000000E+02  0.51100000000E-03 0.  1.
    9900012    2    1    2    0    0  0.17568216603E+02 -0.15910569508E+01  0.41448037731E+02  0.46142317315E+02  0.99999959310E+01 0.  0.
        -12    1    1    2    0    0 -0.17568216603E+02  0.15910569508E+01 -0.41448037731E+02  0.45045682685E+02  0.00000000000E+00 0.  1.
         11    1    3    3    0    0  0.28322721482E+01 -0.12367473662E+01  0.13487393368E+02  0.13836946545E+02  0.51100000000E-03 0. -1.
        -11    1    3    3    0    0  0.13038998991E+02  0.37064916023E+00  0.18318442156E+02  0.22488179090E+02  0.51100000000E-03 0.  1.
        -12    1    3    3    0    0  0.16969454644E+01 -0.72495874476E+00  0.96422022062E+01  0.98171916797E+01  0.00000000000E+00 0.  1.
</event>
<event>
 7    1  0.5664398E-009  0.4614233E+02  0.7816164E-02  0.1320468E+00
        -11   -1    0    0    0    0  0.00000000000E+00  0.00000000000E+00  0.45593999997E+02  0.45594000000E+02  0.51100000000E-03 0. -1.
         11   -1    0    0    0    0 -0.00000000000E+00 -0.00000000000E+00 -0.45593999997E+02  0.45594000000E+02  0.51100000000E-03 0.  1.
    9900012    2    1    2    0    0 -0.22836702937E+02  0.51453597957E+01  0.38485358122E+02  0.46142328529E+02  0.10000098194E+02 0.  0.
        -12    1    1    2    0    0  0.22836702937E+02 -0.51453597957E+01 -0.38485358122E+02  0.45045671471E+02  0.00000000000E+00 0.  1.
         11    1    3    3    0    0 -0.10868871433E+02  0.37005704870E+01  0.15747278230E+02  0.19488544329E+02  0.51100000000E-03 0. -1.
        -11    1    3    3    0    0 -0.81492918467E+01  0.42253826954E+01  0.15303158114E+02  0.17845208462E+02  0.51100000000E-03 0.  1.
        -12    1    3    3    0    0 -0.38185396572E+01 -0.27805933867E+01  0.74349217779E+01  0.88085757384E+01  0.00000000000E+00 0.  1.
</event>
<event>
 7    1  0.5664398E-009  0.4614232E+02  0.7816164E-02  0.1320468E+00
        -11   -1    0    0    0    0  0.00000000000E+00  0.00000000000E+00  0.45593999997E+02  0.45594000000E+02  0.51100000000E-03 0. -1.
         11   -1    0    0    0    0 -0.00000000000E+00 -0.00000000000E+00 -0.45593999997E+02  0.45594000000E+02  0.51100000000E-03 0.  1.
    9900012    2    1    2    0    0 -0.18955274407E+02 -0.37741053612E+01 -0.40688660777E+02  0.46142318576E+02  0.10000007434E+02 0.  0.
         12    1    1    2    0    0  0.18955274407E+02  0.37741053612E+01  0.40688660777E+02  0.45045681424E+02  0.00000000000E+00 0. -1.
         11    1    3    3    0    0 -0.34161872019E+00  0.12796995502E+01 -0.32312341080E+01  0.34921638579E+01  0.51100000000E-03 0. -1.
        -11    1    3    3    0    0 -0.14611776556E+02 -0.12357508836E+01 -0.24365608422E+02  0.28437896694E+02  0.51100000000E-03 0.  1.
         12    1    3    3    0    0 -0.40018791312E+01 -0.38180540277E+01 -0.13091818247E+02  0.14212258024E+02  0.00000000000E+00 0. -1.
</event>
<event>
 7    1  0.5664398E-009  0.4614232E+02  0.7816164E-02  0.1320468E+00
        -11   -1    0    0    0    0  0.00000000000E+00  0.00000000000E+00  0.45593999997E+02  0.45594000000E+02  0.51100000000E-03 0. -1.
         11   -1    0    0    0    0 -0.00000000000E+00 -0.00000000000E+00 -0.45593999997E+02  0.45594000000E+02  0.51100000000E-03 0.  1.
    9900012    2    1    2    0    0  0.61279091465E+01 -0.37973109454E+02  0.23443660174E+02  0.46142317472E+02  0.99999973594E+01 0.  0.
        -12    1    1    2    0    0 -0.61279091465E+01  0.37973109454E+02 -0.23443660174E+02  0.45045682528E+02  0.00000000000E+00 0.  1.
         11    1    3    3    0    0  0.12809823987E+00 -0.14474399008E+02  0.10176063808E+02  0.17693979504E+02  0.51100000000E-03 0. -1.
        -11    1    3    3    0    0  0.13536880784E+01 -0.21241091315E+01  0.39233923023E+01  0.46623297218E+01  0.51100000000E-03 0.  1.
         12    1    3    3    0    0  0.46461228283E+01 -0.21374601315E+02  0.93442040642E+01  0.23786008246E+02  0.00000000000E+00 0. -1.
</event>
<event>
 7    1  0.5664398E-009  0.4614232E+02  0.7816164E-02  0.1320468E+00
        -11   -1    0    0    0    0  0.00000000000E+00  0.00000000000E+00  0.45593999997E+02  0.45594000000E+02  0.51100000000E-03 0. -1.
         11   -1    0    0    0    0 -0.00000000000E+00 -0.00000000000E+00 -0.45593999997E+02  0.45594000000E+02  0.51100000000E-03 0.  1.
    9900012    2    1    2    0    0 -0.13296206297E+01 -0.10910734118E+02  0.43684111125E+02  0.46142316802E+02  0.99999912543E+01 0.  0.
        -12    1    1    2    0    0  0.13296206297E+01  0.10910734118E+02 -0.43684111125E+02  0.45045683198E+02  0.00000000000E+00 0.  1.
         11    1    3    3    0    0 -0.19439868729E+01 -0.54613943785E+01  0.34298815547E+02  0.34785265009E+02  0.51100000000E-03 0. -1.
        -11    1    3    3    0    0  0.12437277396E+00  0.17547395548E+00 -0.15920422809E+00  0.26759286858E+00  0.51100000000E-03 0.  1.
         12    1    3    3    0    0  0.48999346925E+00 -0.56248136953E+01  0.95444998057E+01  0.11089458925E+02  0.00000000000E+00 0. -1.
</event>
<event>
 7    1  0.5664398E-009  0.4614232E+02  0.7816164E-02  0.1320468E+00
        -11   -1    0    0    0    0  0.00000000000E+00  0.00000000000E+00  0.45593999997E+02  0.45594000000E+02  0.51100000000E-03 0. -1.
         11   -1    0    0    0    0 -0.00000000000E+00 -0.00000000000E+00 -0.45593999997E+02  0.45594000000E+02  0.51100000000E-03 0.  1.
    9900012    2    1    2    0    0  0.16243317491E+02  0.15618322405E+02  0.39004309168E+02  0.46142317726E+02  0.99999996777E+01 0.  0.
        -12    1    1    2    0    0 -0.16243317491E+02 -0.15618322405E+02 -0.39004309168E+02  0.45045682274E+02  0.00000000000E+00 0.  1.
         11    1    3    3    0    0  0.99828830005E+01  0.11843934967E+02  0.20965978794E+02  0.26067393724E+02  0.51100000000E-03 0.  1.
        -11    1    3    3    0    0  0.62808986312E+01  0.46234863388E+01  0.14826065747E+02  0.16752269677E+02  0.51100000000E-03 0. -1.
         12    1    3    3    0    0 -0.20464141143E-01 -0.84909890104E+00  0.32122646272E+01  0.33226543245E+01  0.00000000000E+00 0. -1.
</event>
<event>
 7    1  0.5664398E-009  0.4614232E+02  0.7816164E-02  0.1320468E+00
        -11   -1    0    0    0    0  0.00000000000E+00  0.00000000000E+00  0.45593999997E+02  0.45594000000E+02  0.51100000000E-03 0. -1.
         11   -1    0    0    0    0 -0.00000000000E+00 -0.00000000000E+00 -0.45593999997E+02  0.45594000000E+02  0.51100000000E-03 0.  1.
    9900012    2    1    2    0    0 -0.37506882408E+02 -0.18946919544E+01  0.24874827730E+02  0.46142321625E+02  0.10000035239E+02 0.  0.
        -12    1    1    2    0    0  0.37506882408E+02  0.18946919544E+01 -0.24874827730E+02  0.45045678375E+02  0.00000000000E+00 0.  1.
         11    1    3    3    0    0 -0.21566399006E+02 -0.43878271718E+01  0.10924256933E+02  0.24570347640E+02  0.51100000000E-03 0. -1.
        -11    1    3    3    0    0 -0.14587450380E+02  0.17603782461E+01  0.11416119455E+02  0.18606999323E+02  0.51100000000E-03 0.  1.
         12    1    3    3    0    0 -0.13530330233E+01  0.73275697128E+00  0.25344513417E+01  0.29649746617E+01  0.00000000000E+00 0. -1.
</event>
<event>
 7    1  0.5664398E-009  0.4614232E+02  0.7816164E-02  0.1320468E+00
        -11   -1    0    0    0    0  0.00000000000E+00  0.00000000000E+00  0.45593999997E+02  0.45594000000E+02  0.51100000000E-03 0. -1.
         11   -1    0    0    0    0 -0.00000000000E+00 -0.00000000000E+00 -0.45593999997E+02  0.45594000000E+02  0.51100000000E-03 0.  1.
    9900012    2    1    2    0    0 -0.16385919869E+02  0.16944854808E+02  0.38386023946E+02  0.46142319755E+02  0.10000018177E+02 0.  0.
        -12    1    1    2    0    0  0.16385919869E+02 -0.16944854808E+02 -0.38386023946E+02  0.45045680245E+02  0.00000000000E+00 0.  1.
         11    1    3    3    0    0 -0.32685292893E+01  0.30586957371E+01  0.57449944679E+01  0.72831219284E+01  0.51100000000E-03 0. -1.
        -11    1    3    3    0    0 -0.25099246246E+01 -0.97838315610E+00  0.58010764994E+01  0.63960490957E+01  0.51100000000E-03 0.  1.
         12    1    3    3    0    0 -0.10607465955E+02  0.14864542227E+02  0.26839952978E+02  0.32463148730E+02  0.00000000000E+00 0. -1.
</event>
<event>
 7    1  0.5664398E-009  0.4614232E+02  0.7816164E-02  0.1320468E+00
        -11   -1    0    0    0    0  0.00000000000E+00  0.00000000000E+00  0.45593999997E+02  0.45594000000E+02  0.51100000000E-03 0. -1.
         11   -1    0    0    0    0 -0.00000000000E+00 -0.00000000000E+00 -0.45593999997E+02  0.45594000000E+02  0.51100000000E-03 0.  1.
    9900012    2    1    2    0    0 -0.35052885162E+02  0.83431786989E+01  0.27033315041E+02  0.46142317509E+02  0.99999976985E+01 0.  0.
        -12    1    1    2    0    0  0.35052885162E+02 -0.83431786989E+01 -0.27033315041E+02  0.45045682491E+02  0.00000000000E+00 0.  1.
         11    1    3    3    0    0 -0.14359488574E+02 -0.69143695717E+00  0.10619545911E+02  0.17873101375E+02  0.51100000000E-03 0. -1.
        -11    1    3    3    0    0 -0.47395984366E+01  0.37713978454E+01  0.29340115741E+01  0.67302049914E+01  0.51100000000E-03 0.  1.
        -12    1    3    3    0    0 -0.15953798151E+02  0.52632178107E+01  0.13479757557E+02  0.21539011142E+02  0.00000000000E+00 0.  1.
</event>
<event>
 7    1  0.5664398E-009  0.4614232E+02  0.7816164E-02  0.1320468E+00
        -11   -1    0    0    0    0  0.00000000000E+00  0.00000000000E+00  0.45593999997E+02  0.45594000000E+02  0.51100000000E-03 0. -1.
         11   -1    0    0    0    0 -0.00000000000E+00 -0.00000000000E+00 -0.45593999997E+02  0.45594000000E+02  0.51100000000E-03 0.  1.
    9900012    2    1    2    0    0 -0.16367205212E+02 -0.22175996959E+02 -0.35629382943E+02  0.46142321223E+02  0.10000031566E+02 0.  0.
         12    1    1    2    0    0  0.16367205212E+02  0.22175996959E+02  0.35629382943E+02  0.45045678777E+02  0.00000000000E+00 0. -1.
         11    1    3    3    0    0 -0.20523395101E+01 -0.42551997879E+01 -0.10034094048E+02  0.11090620647E+02  0.51100000000E-03 0. -1.
        -11    1    3    3    0    0 -0.17540594862E+01 -0.72709677936E+01 -0.80927055375E+01  0.11019781328E+02  0.51100000000E-03 0.  1.
         12    1    3    3    0    0 -0.12560806215E+02 -0.10649829378E+02 -0.17502583358E+02  0.24031919248E+02  0.00000000000E+00 0. -1.
</event>
<event>
 7    1  0.5664398E-009  0.4614231E+02  0.7816164E-02  0.1320468E+00
        -11   -1    0    0    0    0  0.00000000000E+00  0.00000000000E+00  0.45593999997E+02  0.45594000000E+02  0.51100000000E-03 0. -1.
         11   -1    0    0    0    0 -0.00000000000E+00 -0.00000000000E+00 -0.45593999997E+02  0.45594000000E+02  0.51100000000E-03 0.  1.
    9900012    2    1    2    0    0  0.44246573537E+01  0.36243267184E+02 -0.26381094817E+02  0.46142310166E+02  0.99999307398E+01 0.  0.
         12    1    1    2    0    0 -0.44246573537E+01 -0.36243267184E+02  0.26381094817E+02  0.45045689834E+02  0.00000000000E+00 0. -1.
         11    1    3    3    0    0  0.13404360450E+01  0.40131816354E+00 -0.55316913994E+00  0.15046000856E+01  0.51100000000E-03 0. -1.
        -11    1    3    3    0    0  0.27522212940E+01  0.21805570880E+02 -0.18870402810E+02  0.28968081502E+02  0.51100000000E-03 0.  1.
         12    1    3    3    0    0  0.33200001470E+00  0.14036378141E+02 -0.69575228672E+01  0.15669628578E+02  0.00000000000E+00 0. -1.
</event>
<event>
 7    1  0.5664398E-009  0.4614232E+02  0.7816164E-02  0.1320468E+00
        -11   -1    0    0    0    0  0.00000000000E+00  0.00000000000E+00  0.45593999997E+02  0.45594000000E+02  0.51100000000E-03 0. -1.
         11   -1    0    0    0    0 -0.00000000000E+00 -0.00000000000E+00 -0.45593999997E+02  0.45594000000E+02  0.51100000000E-03 0.  1.
    9900012    2    1    2    0    0 -0.10099844893E+01 -0.85437572121E+00 -0.45026251476E+02  0.46142319313E+02  0.10000014152E+02 0.  0.
         12    1    1    2    0    0  0.10099844893E+01  0.85437572121E+00  0.45026251476E+02  0.45045680687E+02  0.00000000000E+00 0. -1.
         11    1    3    3    0    0  0.51275167413E+00 -0.56243643521E+00 -0.80759322507E+01  0.81117156633E+01  0.51100000000E-03 0. -1.
        -11    1    3    3    0    0  0.21254390462E+01  0.11193188614E+01 -0.29660527007E+02  0.29757641514E+02  0.51100000000E-03 0.  1.
        -12    1    3    3    0    0 -0.36481752096E+01 -0.14112581474E+01 -0.72897922185E+01  0.82729621362E+01  0.00000000000E+00 0.  1.
</event>
<event>
 7    1  0.5664398E-009  0.4614232E+02  0.7816164E-02  0.1320468E+00
        -11   -1    0    0    0    0  0.00000000000E+00  0.00000000000E+00  0.45593999997E+02  0.45594000000E+02  0.51100000000E-03 0. -1.
         11   -1    0    0    0    0 -0.00000000000E+00 -0.00000000000E+00 -0.45593999997E+02  0.45594000000E+02  0.51100000000E-03 0.  1.
    9900012    2    1    2    0    0  0.20384330043E+02  0.23747614208E+02  0.32398201196E+02  0.46142317270E+02  0.99999955222E+01 0.  0.
        -12    1    1    2    0    0 -0.20384330043E+02 -0.23747614208E+02 -0.32398201196E+02  0.45045682730E+02  0.00000000000E+00 0.  1.
         11    1    3    3    0    0  0.74227315840E+01  0.37195764974E+01  0.78736872211E+01  0.11442339979E+02  0.51100000000E-03 0. -1.
        -11    1    3    3    0    0  0.98165729027E+00  0.26684574784E+01  0.59524967238E+01  0.65967062885E+01  0.51100000000E-03 0.  1.
        -12    1    3    3    0    0  0.11979941169E+02  0.17359580232E+02  0.18572017251E+02  0.28103271002E+02  0.00000000000E+00 0.  1.
</event>
<event>
 7    1  0.5664398E-009  0.4614232E+02  0.7816164E-02  0.1320468E+00
        -11   -1    0    0    0    0  0.00000000000E+00  0.00000000000E+00  0.45593999997E+02  0.45594000000E+02  0.51100000000E-03 0. -1.
         11   -1    0    0    0    0 -0.00000000000E+00 -0.00000000000E+00 -0.45593999997E+02  0.45594000000E+02  0.51100000000E-03 0.  1.
    9900012    2    1    2    0    0  0.30626460840E+02 -0.87290087239E+01  0.31858089071E+02  0.46142317231E+02  0.99999951639E+01 0.  0.
        -12    1    1    2    0    0 -0.30626460840E+02  0.87290087239E+01 -0.31858089071E+02  0.45045682769E+02  0.00000000000E+00 0.  1.
         11    1    3    3    0    0  0.19919407709E+02 -0.70020834263E+01  0.20496168443E+02  0.29426262027E+02  0.51100000000E-03 0. -1.
        -11    1    3    3    0    0 -0.32287442681E+00  0.71210595584E+00  0.14226399838E+00  0.79472139407E+00  0.51100000000E-03 0.  1.
        -12    1    3    3    0    0  0.11029927558E+02 -0.24390312534E+01  0.11219656630E+02  0.15921333810E+02  0.00000000000E+00 0.  1.
</event>
<event>
 7    1  0.5664398E-009  0.4614232E+02  0.7816164E-02  0.1320468E+00
        -11   -1    0    0    0    0  0.00000000000E+00  0.00000000000E+00  0.45593999997E+02  0.45594000000E+02  0.51100000000E-03 0.  1.
         11   -1    0    0    0    0 -0.00000000000E+00 -0.00000000000E+00 -0.45593999997E+02  0.45594000000E+02  0.51100000000E-03 0. -1.
    9900012    2    1    2    0    0 -0.36765466392E+02  0.27087776735E+01  0.25885835499E+02  0.46142317909E+02  0.10000001351E+02 0.  0.
        -12    1    1    2    0    0  0.36765466392E+02 -0.27087776735E+01 -0.25885835499E+02  0.45045682091E+02  0.00000000000E+00 0.  1.
         11    1    3    3    0    0 -0.72753570608E+01  0.59468455630E+00  0.34081613992E+01  0.80560557637E+01  0.51100000000E-03 0. -1.
        -11    1    3    3    0    0 -0.43951927618E+01  0.23382882864E+01  0.10522400412E+01  0.50884694054E+01  0.51100000000E-03 0.  1.
        -12    1    3    3    0    0 -0.25094916570E+02 -0.22419516930E+00  0.21425434059E+02  0.32997792740E+02  0.00000000000E+00 0.  1.
</event>
<event>
 7    1  0.5664398E-009  0.4614232E+02  0.7816164E-02  0.1320468E+00
        -11   -1    0    0    0    0  0.00000000000E+00  0.00000000000E+00  0.45593999997E+02  0.45594000000E+02  0.51100000000E-03 0. -1.
         11   -1    0    0    0    0 -0.00000000000E+00 -0.00000000000E+00 -0.45593999997E+02  0.45594000000E+02  0.51100000000E-03 0.  1.
    9900012    2    1    2    0    0 -0.18329585938E+02 -0.62167125010E+01 -0.40675450275E+02  0.46142317742E+02  0.99999998269E+01 0.  0.
         12    1    1    2    0    0  0.18329585938E+02  0.62167125010E+01  0.40675450275E+02  0.45045682258E+02  0.00000000000E+00 0. -1.
         11    1    3    3    0    0 -0.39108051348E+01  0.15511473036E+01 -0.77804473217E+01  0.88451012174E+01  0.51100000000E-03 0. -1.
        -11    1    3    3    0    0 -0.55621020679E+01 -0.34129463180E+01 -0.20132970390E+02  0.21164160247E+02  0.51100000000E-03 0.  1.
        -12    1    3    3    0    0 -0.88566787358E+01 -0.43549134865E+01 -0.12762032564E+02  0.16133056278E+02  0.00000000000E+00 0.  1.
</event>
<event>
 7    1  0.5664398E-009  0.4614232E+02  0.7816164E-02  0.1320468E+00
        -11   -1    0    0    0    0  0.00000000000E+00  0.00000000000E+00  0.45593999997E+02  0.45594000000E+02  0.51100000000E-03 0. -1.
         11   -1    0    0    0    0 -0.00000000000E+00 -0.00000000000E+00 -0.45593999997E+02  0.45594000000E+02  0.51100000000E-03 0.  1.
    9900012    2    1    2    0    0  0.12879677703E+02  0.41038944758E+01  0.42969587013E+02  0.46142318124E+02  0.10000003313E+02 0.  0.
        -12    1    1    2    0    0 -0.12879677703E+02 -0.41038944758E+01 -0.42969587013E+02  0.45045681876E+02  0.00000000000E+00 0.  1.
         11    1    3    3    0    0  0.25280473130E+01 -0.63477224094E+00  0.36154212300E+01  0.44570427355E+01  0.51100000000E-03 0. -1.
        -11    1    3    3    0    0  0.76455136213E+01  0.14265052826E+01  0.14389282167E+02  0.16356657281E+02  0.51100000000E-03 0.  1.
         12    1    3    3    0    0  0.27061167682E+01  0.33121614341E+01  0.24964883616E+02  0.25328618108E+02  0.00000000000E+00 0. -1.
</event>
<event>
 7    1  0.5664398E-009  0.4614232E+02  0.7816164E-02  0.1320468E+00
        -11   -1    0    0    0    0  0.00000000000E+00  0.00000000000E+00  0.45593999997E+02  0.45594000000E+02  0.51100000000E-03 0. -1.
         11   -1    0    0    0    0 -0.00000000000E+00 -0.00000000000E+00 -0.45593999997E+02  0.45594000000E+02  0.51100000000E-03 0.  1.
    9900012    2    1    2    0    0 -0.28727406994E+02 -0.17992947437E+02  0.29666536101E+02  0.46142318362E+02  0.10000005476E+02 0.  0.
        -12    1    1    2    0    0  0.28727406994E+02  0.17992947437E+02 -0.29666536101E+02  0.45045681638E+02  0.00000000000E+00 0.  1.
         11    1    3    3    0    0 -0.17226356660E+02 -0.14330841060E+02  0.21831242113E+02  0.31284556921E+02  0.51100000000E-03 0. -1.
        -11    1    3    3    0    0 -0.16158629569E+01 -0.19240003032E+01  0.94933894625E+00  0.26858955598E+01  0.51100000000E-03 0.  1.
         12    1    3    3    0    0 -0.98851873768E+01 -0.17381060740E+01  0.68859550414E+01  0.12171865881E+02  0.00000000000E+00 0. -1.
</event>
<event>
 7    1  0.5664398E-009  0.4614232E+02  0.7816164E-02  0.1320468E+00
        -11   -1    0    0    0    0  0.00000000000E+00  0.00000000000E+00  0.45593999997E+02  0.45594000000E+02  0.51100000000E-03 0. -1.
         11   -1    0    0    0    0 -0.00000000000E+00 -0.00000000000E+00 -0.45593999997E+02  0.45594000000E+02  0.51100000000E-03 0.  1.
    9900012    2    1    2    0    0  0.15550472924E+02 -0.33007441824E+02 -0.26415999719E+02  0.46142318020E+02  0.10000002361E+02 0.  0.
         12    1    1    2    0    0 -0.15550472924E+02  0.33007441824E+02  0.26415999719E+02  0.45045681980E+02  0.00000000000E+00 0. -1.
         11    1    3    3    0    0  0.79296666074E+00 -0.84861435526E+01 -0.44263339758E+01  0.96039502938E+01  0.51100000000E-03 0. -1.
        -11    1    3    3    0    0  0.44884280861E+01 -0.12765855553E+02 -0.92647817333E+01  0.16399671811E+02  0.51100000000E-03 0.  1.
        -12    1    3    3    0    0  0.10269078177E+02 -0.11755442718E+02 -0.12724884009E+02  0.20138695915E+02  0.00000000000E+00 0.  1.
</event>
<event>
 7    1  0.5664398E-009  0.4614232E+02  0.7816164E-02  0.1320468E+00
        -11   -1    0    0    0    0  0.00000000000E+00  0.00000000000E+00  0.45593999997E+02  0.45594000000E+02  0.51100000000E-03 0. -1.
         11   -1    0    0    0    0 -0.00000000000E+00 -0.00000000000E+00 -0.45593999997E+02  0.45594000000E+02  0.51100000000E-03 0.  1.
    9900012    2    1    2    0    0  0.10565328507E+02 -0.36130191919E+02 -0.24740585940E+02  0.46142317330E+02  0.99999960645E+01 0.  0.
         12    1    1    2    0    0 -0.10565328507E+02  0.36130191919E+02  0.24740585940E+02  0.45045682670E+02  0.00000000000E+00 0. -1.
         11    1    3    3    0    0  0.89724850220E+01 -0.21684936672E+02 -0.12998538000E+02  0.26827298715E+02  0.51100000000E-03 0. -1.
        -11    1    3    3    0    0  0.31752957397E+01 -0.78216015706E+01 -0.54859764936E+01  0.10067566365E+02  0.51100000000E-03 0.  1.
        -12    1    3    3    0    0 -0.15824522544E+01 -0.66236536767E+01 -0.62560714466E+01  0.92474522498E+01  0.00000000000E+00 0.  1.
</event>
<event>
 7    1  0.5664398E-009  0.4614232E+02  0.7816164E-02  0.1320468E+00
        -11   -1    0    0    0    0  0.00000000000E+00  0.00000000000E+00  0.45593999997E+02  0.45594000000E+02  0.51100000000E-03 0. -1.
         11   -1    0    0    0    0 -0.00000000000E+00 -0.00000000000E+00 -0.45593999997E+02  0.45594000000E+02  0.51100000000E-03 0.  1.
    9900012    2    1    2    0    0 -0.60711147120E+01 -0.37427014537E+02 -0.24320230809E+02  0.46142317880E+02  0.10000001086E+02 0.  0.
         12    1    1    2    0    0  0.60711147120E+01  0.37427014537E+02  0.24320230809E+02  0.45045682120E+02  0.00000000000E+00 0. -1.
         11    1    3    3    0    0 -0.59085071005E+01 -0.29841605771E+02 -0.20279212169E+02  0.36560611833E+02  0.51100000000E-03 0.  1.
        -11    1    3    3    0    0 -0.13440996171E+01 -0.29089482814E+01  0.12695043680E+00  0.32069768566E+01  0.51100000000E-03 0. -1.
         12    1    3    3    0    0  0.11814920056E+01 -0.46764604854E+01 -0.41679690768E+01  0.63747291908E+01  0.00000000000E+00 0. -1.
</event>
<event>
 7    1  0.5664398E-009  0.4614232E+02  0.7816164E-02  0.1320468E+00
        -11   -1    0    0    0    0  0.00000000000E+00  0.00000000000E+00  0.45593999997E+02  0.45594000000E+02  0.51100000000E-03 0. -1.
         11   -1    0    0    0    0 -0.00000000000E+00 -0.00000000000E+00 -0.45593999997E+02  0.45594000000E+02  0.51100000000E-03 0.  1.
    9900012    2    1    2    0    0 -0.17919133986E+02 -0.29680559625E+02  0.28759043000E+02  0.46142317224E+02  0.99999951044E+01 0.  0.
        -12    1    1    2    0    0  0.17919133986E+02  0.29680559625E+02 -0.28759043000E+02  0.45045682776E+02  0.00000000000E+00 0.  1.
         11    1    3    3    0    0  0.79600148546E+00 -0.12087320732E+00  0.66174241755E+00  0.10421765615E+01  0.51100000000E-03 0.  1.
        -11    1    3    3    0    0 -0.51793928922E+01 -0.11710977471E+02  0.11625388036E+02  0.17295165547E+02  0.51100000000E-03 0. -1.
         12    1    3    3    0    0 -0.13535742579E+02 -0.17848708947E+02  0.16471912546E+02  0.27804975116E+02  0.00000000000E+00 0. -1.
</event>
<event>
 7    1  0.5664398E-009  0.4614232E+02  0.7816164E-02  0.1320468E+00
        -11   -1    0    0    0    0  0.00000000000E+00  0.00000000000E+00  0.45593999997E+02  0.45594000000E+02  0.51100000000E-03 0. -1.
         11   -1    0    0    0    0 -0.00000000000E+00 -0.00000000000E+00 -0.45593999997E+02  0.45594000000E+02  0.51100000000E-03 0.  1.
    9900012    2    1    2    0    0 -0.12733992571E+01  0.17825245561E+02  0.41349155527E+02  0.46142316658E+02  0.99999899401E+01 0.  0.
        -12    1    1    2    0    0  0.12733992571E+01 -0.17825245561E+02 -0.41349155527E+02  0.45045683342E+02  0.00000000000E+00 0.  1.
         11    1    3    3    0    0 -0.38492387375E+00  0.44093927287E+01  0.11229179302E+02  0.12070019830E+02  0.51100000000E-03 0. -1.
        -11    1    3    3    0    0 -0.15046949020E+01 -0.61040004817E+00  0.15785786361E+01  0.22646425189E+01  0.51100000000E-03 0.  1.
        -12    1    3    3    0    0  0.61621951863E+00  0.14026252881E+02  0.28541397588E+02  0.31807654309E+02  0.00000000000E+00 0.  1.
</event>
<event>
 7    1  0.5664398E-009  0.4614232E+02  0.7816164E-02  0.1320468E+00
        -11   -1    0    0    0    0  0.00000000000E+00  0.00000000000E+00  0.45593999997E+02  0.45594000000E+02  0.51100000000E-03 0. -1.
         11   -1    0    0    0    0 -0.00000000000E+00 -0.00000000000E+00 -0.45593999997E+02  0.45594000000E+02  0.51100000000E-03 0.  1.
    9900012    2    1    2    0    0  0.37685324578E+02  0.88361338911E+01 -0.23040235422E+02  0.46142318753E+02  0.10000009046E+02 0.  0.
         12    1    1    2    0    0 -0.37685324578E+02 -0.88361338911E+01  0.23040235422E+02  0.45045681247E+02  0.00000000000E+00 0. -1.
         11    1    3    3    0    0  0.13022615790E+02  0.36496900123E+00 -0.84947176641E+01  0.15552554544E+02  0.51100000000E-03 0. -1.
        -11    1    3    3    0    0  0.19406935712E+02  0.56405296165E+01 -0.14020550253E+02  0.24597165645E+02  0.51100000000E-03 0.  1.
        -12    1    3    3    0    0  0.52557730755E+01  0.28306352734E+01 -0.52496750485E+00  0.59925985643E+01  0.00000000000E+00 0.  1.
</event>
<event>
 7    1  0.5664398E-009  0.4614232E+02  0.7816164E-02  0.1320468E+00
        -11   -1    0    0    0    0  0.00000000000E+00  0.00000000000E+00  0.45593999997E+02  0.45594000000E+02  0.51100000000E-03 0. -1.
         11   -1    0    0    0    0 -0.00000000000E+00 -0.00000000000E+00 -0.45593999997E+02  0.45594000000E+02  0.51100000000E-03 0.  1.
    9900012    2    1    2    0    0 -0.26640060169E+02  0.20734021842E+02  0.29824838204E+02  0.46142318282E+02  0.10000004748E+02 0.  0.
        -12    1    1    2    0    0  0.26640060169E+02 -0.20734021842E+02 -0.29824838204E+02  0.45045681718E+02  0.00000000000E+00 0.  1.
         11    1    3    3    0    0 -0.46477529922E+01  0.55731779772E+01  0.39863010469E+01  0.82796447351E+01  0.51100000000E-03 0. -1.
        -11    1    3    3    0    0 -0.24211610898E+01  0.51424617165E+01  0.50026842111E+01  0.75719074945E+01  0.51100000000E-03 0.  1.
         12    1    3    3    0    0 -0.19571146087E+02  0.10018382148E+02  0.20835852946E+02  0.30290766052E+02  0.00000000000E+00 0. -1.
</event>
<event>
 7    1  0.5664398E-009  0.4614232E+02  0.7816164E-02  0.1320468E+00
        -11   -1    0    0    0    0  0.00000000000E+00  0.00000000000E+00  0.45593999997E+02  0.45594000000E+02  0.51100000000E-03 0. -1.
         11   -1    0    0    0    0 -0.00000000000E+00 -0.00000000000E+00 -0.45593999997E+02  0.45594000000E+02  0.51100000000E-03 0.  1.
    9900012    2    1    2    0    0  0.12013733789E+02 -0.32032196758E+02  0.29303958424E+02  0.46142318653E+02  0.10000008134E+02 0.  0.
        -12    1    1    2    0    0 -0.12013733789E+02  0.32032196758E+02 -0.29303958424E+02  0.45045681347E+02  0.00000000000E+00 0.  1.
         11    1    3    3    0    0  0.39884307631E+01 -0.18553869536E+02  0.14851925453E+02  0.24098409587E+02  0.51100000000E-03 0. -1.
        -11    1    3    3    0    0 -0.19729942076E+00 -0.10155646585E+01  0.31564877157E+01  0.33217034181E+01  0.51100000000E-03 0.  1.
        -12    1    3    3    0    0  0.82226024463E+01 -0.12462762564E+02  0.11295545255E+02  0.18722205648E+02  0.00000000000E+00 0.  1.
</event>
<event>
 7    1  0.5664398E-009  0.4614232E+02  0.7816164E-02  0.1320468E+00
        -11   -1    0    0    0    0  0.00000000000E+00  0.00000000000E+00  0.45593999997E+02  0.45594000000E+02  0.51100000000E-03 0. -1.
         11   -1    0    0    0    0 -0.00000000000E+00 -0.00000000000E+00 -0.45593999997E+02  0.45594000000E+02  0.51100000000E-03 0.  1.
    9900012    2    1    2    0    0 -0.28554304892E+02  0.86072128737E+00 -0.34828498930E+02  0.46142317558E+02  0.99999981446E+01 0.  0.
         12    1    1    2    0    0  0.28554304892E+02 -0.86072128737E+00  0.34828498930E+02  0.45045682442E+02  0.00000000000E+00 0. -1.
         11    1    3    3    0    0 -0.50203040470E+01 -0.27349279586E+01 -0.10479502357E+02  0.11937472662E+02  0.51100000000E-03 0. -1.
        -11    1    3    3    0    0 -0.10845094415E+02  0.29885569604E+01 -0.12742946485E+02  0.16997947845E+02  0.51100000000E-03 0.  1.
         12    1    3    3    0    0 -0.12688906430E+02  0.60709228551E+00 -0.11606050088E+02  0.17206897050E+02  0.00000000000E+00 0. -1.
</event>
<event>
 7    1  0.5664398E-009  0.4614232E+02  0.7816164E-02  0.1320468E+00
        -11   -1    0    0    0    0  0.00000000000E+00  0.00000000000E+00  0.45593999997E+02  0.45594000000E+02  0.51100000000E-03 0. -1.
         11   -1    0    0    0    0 -0.00000000000E+00 -0.00000000000E+00 -0.45593999997E+02  0.45594000000E+02  0.51100000000E-03 0.  1.
    9900012    2    1    2    0    0  0.12952805864E+02 -0.24995661466E+02  0.35164686576E+02  0.46142318144E+02  0.10000003496E+02 0.  0.
        -12    1    1    2    0    0 -0.12952805864E+02  0.24995661466E+02 -0.35164686576E+02  0.45045681856E+02  0.00000000000E+00 0.  1.
         11    1    3    3    0    0  0.55021242982E+01 -0.55901297812E+01  0.72345934015E+01  0.10670626257E+02  0.51100000000E-03 0. -1.
        -11    1    3    3    0    0  0.47505087656E+01 -0.52711610660E+01  0.12494386811E+02  0.14368791687E+02  0.51100000000E-03 0.  1.
        -12    1    3    3    0    0  0.27001728005E+01 -0.14134370619E+02  0.15435706363E+02  0.21102900200E+02  0.00000000000E+00 0.  1.
</event>
<event>
 7    1  0.5664398E-009  0.4614232E+02  0.7816164E-02  0.1320468E+00
        -11   -1    0    0    0    0  0.00000000000E+00  0.00000000000E+00  0.45593999997E+02  0.45594000000E+02  0.51100000000E-03 0. -1.
         11   -1    0    0    0    0 -0.00000000000E+00 -0.00000000000E+00 -0.45593999997E+02  0.45594000000E+02  0.51100000000E-03 0.  1.
    9900012    2    1    2    0    0  0.29599055837E+01 -0.25180563691E+02  0.37232938440E+02  0.46142317258E+02  0.99999954080E+01 0.  0.
        -12    1    1    2    0    0 -0.29599055837E+01  0.25180563691E+02 -0.37232938440E+02  0.45045682742E+02  0.00000000000E+00 0.  1.
         11    1    3    3    0    0  0.21252805567E+01 -0.20961091672E+02  0.33634691901E+02  0.39688495576E+02  0.51100000000E-03 0. -1.
        -11    1    3    3    0    0 -0.89368227465E+00 -0.15550600206E+00  0.90393053375E+00  0.12806017319E+01  0.51100000000E-03 0.  1.
         12    1    3    3    0    0  0.17283073016E+01 -0.40639660166E+01  0.26943160053E+01  0.51732199499E+01  0.00000000000E+00 0. -1.
</event>
<event>
 7    1  0.5664398E-009  0.4614232E+02  0.7816164E-02  0.1320468E+00
        -11   -1    0    0    0    0  0.00000000000E+00  0.00000000000E+00  0.45593999997E+02  0.45594000000E+02  0.51100000000E-03 0. -1.
         11   -1    0    0    0    0 -0.00000000000E+00 -0.00000000000E+00 -0.45593999997E+02  0.45594000000E+02  0.51100000000E-03 0.  1.
    9900012    2    1    2    0    0  0.36202846438E+02 -0.10144330880E+02 -0.24810479286E+02  0.46142318502E+02  0.10000006755E+02 0.  0.
         12    1    1    2    0    0 -0.36202846438E+02  0.10144330880E+02  0.24810479286E+02  0.45045681498E+02  0.00000000000E+00 0. -1.
         11    1    3    3    0    0  0.83355519588E+01 -0.38882842125E+01 -0.99467184390E+01  0.13547597150E+02  0.51100000000E-03 0. -1.
        -11    1    3    3    0    0  0.17894820230E+02 -0.22129402910E+01 -0.73574186427E+01  0.19474426953E+02  0.51100000000E-03 0.  1.
         12    1    3    3    0    0  0.99724742491E+01 -0.40431063767E+01 -0.75063422041E+01  0.13120294399E+02  0.00000000000E+00 0. -1.
</event>
<event>
 7    1  0.5664398E-009  0.4614232E+02  0.7816164E-02  0.1320468E+00
        -11   -1    0    0    0    0  0.00000000000E+00  0.00000000000E+00  0.45593999997E+02  0.45594000000E+02  0.51100000000E-03 0. -1.
         11   -1    0    0    0    0 -0.00000000000E+00 -0.00000000000E+00 -0.45593999997E+02  0.45594000000E+02  0.51100000000E-03 0.  1.
    9900012    2    1    2    0    0 -0.94652770647E+01 -0.64757197853E+00 -0.44035244100E+02  0.46142317162E+02  0.99999945360E+01 0.  0.
         12    1    1    2    0    0  0.94652770647E+01  0.64757197853E+00  0.44035244100E+02  0.45045682838E+02  0.00000000000E+00 0. -1.
         11    1    3    3    0    0 -0.77151311075E+00 -0.12934384101E+01 -0.20493920557E+01  0.25432702294E+01  0.51100000000E-03 0. -1.
        -11    1    3    3    0    0 -0.56730351357E+01  0.38970545888E+01 -0.30913834059E+02  0.31670735682E+02  0.51100000000E-03 0.  1.
        -12    1    3    3    0    0 -0.30207288182E+01 -0.32511881572E+01 -0.11072017985E+02  0.11928311251E+02  0.00000000000E+00 0.  1.
</event>
<event>
 7    1  0.5664398E-009  0.4614232E+02  0.7816164E-02  0.1320468E+00
        -11   -1    0    0    0    0  0.00000000000E+00  0.00000000000E+00  0.45593999997E+02  0.45594000000E+02  0.51100000000E-03 0. -1.
         11   -1    0    0    0    0 -0.00000000000E+00 -0.00000000000E+00 -0.45593999997E+02  0.45594000000E+02  0.51100000000E-03 0.  1.
    9900012    2    1    2    0    0 -0.34020697853E+02  0.88165379626E+01 -0.28177549210E+02  0.46142317593E+02  0.99999984697E+01 0.  0.
         12    1    1    2    0    0  0.34020697853E+02 -0.88165379626E+01  0.28177549210E+02  0.45045682407E+02  0.00000000000E+00 0. -1.
         11    1    3    3    0    0 -0.26652140992E+01  0.21513271258E+01 -0.17819411211E+01  0.38609440578E+01  0.51100000000E-03 0. -1.
        -11    1    3    3    0    0 -0.17559150945E+02  0.77084600516E+01 -0.14647706638E+02  0.24130881631E+02  0.51100000000E-03 0.  1.
        -12    1    3    3    0    0 -0.13796332809E+02 -0.10432492148E+01 -0.11747901450E+02  0.18150491905E+02  0.00000000000E+00 0.  1.
</event>
<event>
 7    1  0.5664398E-009  0.4614231E+02  0.7816164E-02  0.1320468E+00
        -11   -1    0    0    0    0  0.00000000000E+00  0.00000000000E+00  0.45593999997E+02  0.45594000000E+02  0.51100000000E-03 0.  1.
         11   -1    0    0    0    0 -0.00000000000E+00 -0.00000000000E+00 -0.45593999997E+02  0.45594000000E+02  0.51100000000E-03 0. -1.
    9900012    2    1    2    0    0 -0.35065413604E+02  0.47804542843E+01  0.27868943700E+02  0.46142312112E+02  0.99999484874E+01 0.  0.
        -12    1    1    2    0    0  0.35065413604E+02 -0.47804542843E+01 -0.27868943700E+02  0.45045687888E+02  0.00000000000E+00 0.  1.
         11    1    3    3    0    0 -0.63855575719E+01  0.64027031386E+00  0.45332962627E+01  0.78572302273E+01  0.51100000000E-03 0. -1.
        -11    1    3    3    0    0 -0.22005390622E+02  0.57357692307E+01  0.14021731396E+02  0.26716010494E+02  0.51100000000E-03 0.  1.
        -12    1    3    3    0    0 -0.66744654095E+01 -0.15955852602E+01  0.93139160415E+01  0.11569071391E+02  0.00000000000E+00 0.  1.
</event>
<event>
 7    1  0.5664398E-009  0.4614232E+02  0.7816164E-02  0.1320468E+00
        -11   -1    0    0    0    0  0.00000000000E+00  0.00000000000E+00  0.45593999997E+02  0.45594000000E+02  0.51100000000E-03 0. -1.
         11   -1    0    0    0    0 -0.00000000000E+00 -0.00000000000E+00 -0.45593999997E+02  0.45594000000E+02  0.51100000000E-03 0.  1.
    9900012    2    1    2    0    0 -0.17403279212E+02  0.33653042103E+02 -0.24366212618E+02  0.46142315551E+02  0.99999798455E+01 0.  0.
         12    1    1    2    0    0  0.17403279212E+02 -0.33653042103E+02  0.24366212618E+02  0.45045684449E+02  0.00000000000E+00 0. -1.
         11    1    3    3    0    0 -0.11570578310E+02  0.18221194961E+02 -0.11175148955E+02  0.24305846677E+02  0.51100000000E-03 0. -1.
        -11    1    3    3    0    0 -0.57253353127E+01  0.73995289743E+01 -0.66755534189E+01  0.11493280959E+02  0.51100000000E-03 0.  1.
         12    1    3    3    0    0 -0.10736558954E+00  0.80323181677E+01 -0.65155102440E+01  0.10343187916E+02  0.00000000000E+00 0. -1.
</event>
<event>
 7    1  0.5664398E-009  0.4614232E+02  0.7816164E-02  0.1320468E+00
        -11   -1    0    0    0    0  0.00000000000E+00  0.00000000000E+00  0.45593999997E+02  0.45594000000E+02  0.51100000000E-03 0. -1.
         11   -1    0    0    0    0 -0.00000000000E+00 -0.00000000000E+00 -0.45593999997E+02  0.45594000000E+02  0.51100000000E-03 0.  1.
    9900012    2    1    2    0    0  0.12753596199E+02 -0.15619476221E+02  0.40280157114E+02  0.46142319735E+02  0.10000017996E+02 0.  0.
        -12    1    1    2    0    0 -0.12753596199E+02  0.15619476221E+02 -0.40280157114E+02  0.45045680265E+02  0.00000000000E+00 0.  1.
         11    1    3    3    0    0  0.13654622675E+01 -0.21122981307E+01  0.62099271338E+01  0.66999616316E+01  0.51100000000E-03 0. -1.
        -11    1    3    3    0    0  0.82515456106E+01 -0.40689955295E+01  0.11139226425E+02  0.14447390602E+02  0.51100000000E-03 0.  1.
         12    1    3    3    0    0  0.31365883213E+01 -0.94381825608E+01  0.22931003555E+02  0.24994967501E+02  0.00000000000E+00 0. -1.
</event>
<event>
 7    1  0.5664398E-009  0.4614232E+02  0.7816164E-02  0.1320468E+00
        -11   -1    0    0    0    0  0.00000000000E+00  0.00000000000E+00  0.45593999997E+02  0.45594000000E+02  0.51100000000E-03 0. -1.
         11   -1    0    0    0    0 -0.00000000000E+00 -0.00000000000E+00 -0.45593999997E+02  0.45594000000E+02  0.51100000000E-03 0.  1.
    9900012    2    1    2    0    0  0.21165188838E+01 -0.28447136509E+02  0.34862505316E+02  0.46142317580E+02  0.99999983486E+01 0.  0.
        -12    1    1    2    0    0 -0.21165188838E+01  0.28447136509E+02 -0.34862505316E+02  0.45045682420E+02  0.00000000000E+00 0.  1.
         11    1    3    3    0    0 -0.14560847604E+01 -0.15812163655E+02  0.15847595035E+02  0.22434147431E+02  0.51100000000E-03 0. -1.
        -11    1    3    3    0    0  0.60780191320E+00 -0.92724435252E+01  0.15230708117E+02  0.17841583509E+02  0.51100000000E-03 0.  1.
        -12    1    3    3    0    0  0.29648017310E+01 -0.33625293291E+01  0.37842021639E+01  0.58665866406E+01  0.00000000000E+00 0.  1.
</event>
<event>
 7    1  0.5664398E-009  0.4614232E+02  0.7816164E-02  0.1320468E+00
        -11   -1    0    0    0    0  0.00000000000E+00  0.00000000000E+00  0.45593999997E+02  0.45594000000E+02  0.51100000000E-03 0. -1.
         11   -1    0    0    0    0 -0.00000000000E+00 -0.00000000000E+00 -0.45593999997E+02  0.45594000000E+02  0.51100000000E-03 0.  1.
    9900012    2    1    2    0    0  0.18878532098E+02 -0.18835515017E+02 -0.36303415066E+02  0.46142317126E+02  0.99999942097E+01 0.  0.
         12    1    1    2    0    0 -0.18878532098E+02  0.18835515017E+02  0.36303415066E+02  0.45045682874E+02  0.00000000000E+00 0. -1.
         11    1    3    3    0    0  0.14781139069E+01  0.70060911965E+00 -0.18063167917E+01  0.24368944321E+01  0.51100000000E-03 0. -1.
        -11    1    3    3    0    0  0.13477372582E+02 -0.15784294372E+02 -0.30789100912E+02  0.37131553371E+02  0.51100000000E-03 0.  1.
        -12    1    3    3    0    0  0.39230456093E+01 -0.37518297642E+01 -0.37079973622E+01  0.65738693226E+01  0.00000000000E+00 0.  1.
</event>
<event>
 7    1  0.5664398E-009  0.4614232E+02  0.7816164E-02  0.1320468E+00
        -11   -1    0    0    0    0  0.00000000000E+00  0.00000000000E+00  0.45593999997E+02  0.45594000000E+02  0.51100000000E-03 0. -1.
         11   -1    0    0    0    0 -0.00000000000E+00 -0.00000000000E+00 -0.45593999997E+02  0.45594000000E+02  0.51100000000E-03 0.  1.
    9900012    2    1    2    0    0  0.28507879654E+02  0.33588430521E+02  0.93931696723E+01  0.46142317590E+02  0.99999984438E+01 0.  0.
        -12    1    1    2    0    0 -0.28507879654E+02 -0.33588430521E+02 -0.93931696723E+01  0.45045682410E+02  0.00000000000E+00 0.  1.
         11    1    3    3    0    0  0.11445368013E+02  0.12580480184E+02  0.33249238976E+01  0.17329744654E+02  0.51100000000E-03 0. -1.
        -11    1    3    3    0    0  0.88554268536E+01  0.88746073891E+01 -0.94359447318E+00  0.12572494258E+02  0.51100000000E-03 0.  1.
         12    1    3    3    0    0  0.82070847878E+01  0.12133342948E+02  0.70118402479E+01  0.16240078678E+02  0.00000000000E+00 0. -1.
</event>
<event>
 7    1  0.5664398E-009  0.4614232E+02  0.7816164E-02  0.1320468E+00
        -11   -1    0    0    0    0  0.00000000000E+00  0.00000000000E+00  0.45593999997E+02  0.45594000000E+02  0.51100000000E-03 0.  1.
         11   -1    0    0    0    0 -0.00000000000E+00 -0.00000000000E+00 -0.45593999997E+02  0.45594000000E+02  0.51100000000E-03 0. -1.
    9900012    2    1    2    0    0  0.32108335295E+02  0.31102112130E+02  0.55521970459E+01  0.46142318005E+02  0.10000002223E+02 0.  0.
         12    1    1    2    0    0 -0.32108335295E+02 -0.31102112130E+02 -0.55521970459E+01  0.45045681995E+02  0.00000000000E+00 0. -1.
         11    1    3    3    0    0  0.50283512429E+01  0.42643697318E+01  0.33347523130E+01  0.73884869007E+01  0.51100000000E-03 0. -1.
        -11    1    3    3    0    0  0.20753046105E+02  0.16262575318E+02  0.13735184163E+01  0.26401644489E+02  0.51100000000E-03 0.  1.
        -12    1    3    3    0    0  0.63269379476E+01  0.10575167080E+02  0.84392631664E+00  0.12352186615E+02  0.00000000000E+00 0.  1.
</event>
<event>
 7    1  0.5664398E-009  0.4614232E+02  0.7816164E-02  0.1320468E+00
        -11   -1    0    0    0    0  0.00000000000E+00  0.00000000000E+00  0.45593999997E+02  0.45594000000E+02  0.51100000000E-03 0. -1.
         11   -1    0    0    0    0 -0.00000000000E+00 -0.00000000000E+00 -0.45593999997E+02  0.45594000000E+02  0.51100000000E-03 0.  1.
    9900012    2    1    2    0    0  0.23809999542E+02  0.34186218074E+02  0.17131840145E+02  0.46142317286E+02  0.99999956681E+01 0.  0.
        -12    1    1    2    0    0 -0.23809999542E+02 -0.34186218074E+02 -0.17131840145E+02  0.45045682714E+02  0.00000000000E+00 0.  1.
         11    1    3    3    0    0  0.15625060743E+02  0.15947354772E+02  0.59031297731E+01  0.23093453376E+02  0.51100000000E-03 0.  1.
        -11    1    3    3    0    0  0.65791414442E+01  0.12388119517E+02  0.72080194661E+01  0.15770420166E+02  0.51100000000E-03 0. -1.
         12    1    3    3    0    0  0.16057973551E+01  0.58507437846E+01  0.40206909060E+01  0.72784437444E+01  0.00000000000E+00 0. -1.
</event>
<event>
 7    1  0.7494995E-009  0.4614232E+02  0.7816164E-02  0.1320468E+00
        -11   -1    0    0    0    0  0.00000000000E+00  0.00000000000E+00  0.45593999997E+02  0.45594000000E+02  0.51100000000E-03 0. -1.
         11   -1    0    0    0    0 -0.00000000000E+00 -0.00000000000E+00 -0.45593999997E+02  0.45594000000E+02  0.51100000000E-03 0.  1.
    9900012    2    1    2    0    0  0.47537207898E+01 -0.16272389940E+02  0.41733979349E+02  0.46142316877E+02  0.99999919364E+01 0.  0.
        -12    1    1    2    0    0 -0.47537207898E+01  0.16272389940E+02 -0.41733979349E+02  0.45045683123E+02  0.00000000000E+00 0.  1.
         11    1    3    3    0    0 -0.72971436568E+00 -0.13221282635E+01  0.70975898064E+00  0.16686114803E+01  0.51100000000E-03 0. -1.
        -11    1    3    3    0    0 -0.23317646325E+00  0.52594843296E+00  0.25005213874E+01  0.25658527797E+01  0.51100000000E-03 0.  1.
         12    1    3    3    0    0  0.57166116187E+01 -0.15476210110E+02  0.38523698981E+02  0.41907852617E+02  0.00000000000E+00 0. -1.
</event>
<event>
 7    1  0.5664398E-009  0.4614232E+02  0.7816164E-02  0.1320468E+00
        -11   -1    0    0    0    0  0.00000000000E+00  0.00000000000E+00  0.45593999997E+02  0.45594000000E+02  0.51100000000E-03 0. -1.
         11   -1    0    0    0    0 -0.00000000000E+00 -0.00000000000E+00 -0.45593999997E+02  0.45594000000E+02  0.51100000000E-03 0.  1.
    9900012    2    1    2    0    0 -0.17358742216E+01 -0.27728166249E+02  0.35457709922E+02  0.46142315903E+02  0.99999830548E+01 0.  0.
        -12    1    1    2    0    0  0.17358742216E+01  0.27728166249E+02 -0.35457709922E+02  0.45045684097E+02  0.00000000000E+00 0.  1.
         11    1    3    3    0    0  0.22289644889E+01 -0.15178775433E+02  0.15798326988E+02  0.22021594907E+02  0.51100000000E-03 0. -1.
        -11    1    3    3    0    0 -0.44736617369E+01 -0.12388932324E+02  0.17539623505E+02  0.21934850955E+02  0.51100000000E-03 0.  1.
         12    1    3    3    0    0  0.50882302631E+00 -0.16045849218E+00  0.21197594295E+01  0.21858700416E+01  0.00000000000E+00 0. -1.
</event>
<event>
 7    1  0.5664398E-009  0.4614232E+02  0.7816164E-02  0.1320468E+00
        -11   -1    0    0    0    0  0.00000000000E+00  0.00000000000E+00  0.45593999997E+02  0.45594000000E+02  0.51100000000E-03 0.  1.
         11   -1    0    0    0    0 -0.00000000000E+00 -0.00000000000E+00 -0.45593999997E+02  0.45594000000E+02  0.51100000000E-03 0. -1.
    9900012    2    1    2    0    0  0.34446482771E+02 -0.75356375480E+01  0.28031544431E+02  0.46142317723E+02  0.99999996547E+01 0.  0.
        -12    1    1    2    0    0 -0.34446482771E+02  0.75356375480E+01 -0.28031544431E+02  0.45045682277E+02  0.00000000000E+00 0.  1.
         11    1    3    3    0    0  0.18415856069E+02 -0.32281738960E+01  0.14519374654E+02  0.23672285527E+02  0.51100000000E-03 0. -1.
        -11    1    3    3    0    0  0.16595439593E+02 -0.35574286482E+01  0.12429983084E+02  0.21037309562E+02  0.51100000000E-03 0.  1.
        -12    1    3    3    0    0 -0.56481289067E+00 -0.75003500372E+00  0.10821866936E+01  0.14327226347E+01  0.00000000000E+00 0.  1.
</event>
<event>
 7    1  0.5664398E-009  0.4614232E+02  0.7816164E-02  0.1320468E+00
        -11   -1    0    0    0    0  0.00000000000E+00  0.00000000000E+00  0.45593999997E+02  0.45594000000E+02  0.51100000000E-03 0.  1.
         11   -1    0    0    0    0 -0.00000000000E+00 -0.00000000000E+00 -0.45593999997E+02  0.45594000000E+02  0.51100000000E-03 0. -1.
    9900012    2    1    2    0    0 -0.39332416609E+02 -0.18707196897E+02  0.11494142147E+02  0.46142317457E+02  0.99999972268E+01 0.  0.
        -12    1    1    2    0    0  0.39332416609E+02  0.18707196897E+02 -0.11494142147E+02  0.45045682543E+02  0.00000000000E+00 0.  1.
         11    1    3    3    0    0 -0.61850448986E+01 -0.60112518183E+01  0.40621315524E+01  0.95336688546E+01  0.51100000000E-03 0. -1.
        -11    1    3    3    0    0 -0.69325184987E+01 -0.46482866611E+01  0.27604031329E+01  0.87912574377E+01  0.51100000000E-03 0.  1.
        -12    1    3    3    0    0 -0.26214853212E+02 -0.80476584181E+01  0.46716074615E+01  0.27817391165E+02  0.00000000000E+00 0.  1.
</event>
<event>
 7    1  0.5664398E-009  0.4614232E+02  0.7816164E-02  0.1320468E+00
        -11   -1    0    0    0    0  0.00000000000E+00  0.00000000000E+00  0.45593999997E+02  0.45594000000E+02  0.51100000000E-03 0. -1.
         11   -1    0    0    0    0 -0.00000000000E+00 -0.00000000000E+00 -0.45593999997E+02  0.45594000000E+02  0.51100000000E-03 0.  1.
    9900012    2    1    2    0    0 -0.17120965511E+01 -0.13703367258E+02  0.42876566765E+02  0.46142317340E+02  0.99999961563E+01 0.  0.
        -12    1    1    2    0    0  0.17120965511E+01  0.13703367258E+02 -0.42876566765E+02  0.45045682660E+02  0.00000000000E+00 0.  1.
         11    1    3    3    0    0 -0.96107785968E+00 -0.48440296905E+01  0.80632064508E+01  0.94553473137E+01  0.51100000000E-03 0. -1.
        -11    1    3    3    0    0 -0.99825142103E+00 -0.45778164797E+01  0.29447107710E+02  0.29817529447E+02  0.51100000000E-03 0.  1.
        -12    1    3    3    0    0  0.24723272957E+00 -0.42815210877E+01  0.53662526044E+01  0.68694405785E+01  0.00000000000E+00 0.  1.
</event>
<event>
 7    1  0.5664398E-009  0.4614231E+02  0.7816164E-02  0.1320468E+00
        -11   -1    0    0    0    0  0.00000000000E+00  0.00000000000E+00  0.45593999997E+02  0.45594000000E+02  0.51100000000E-03 0. -1.
         11   -1    0    0    0    0 -0.00000000000E+00 -0.00000000000E+00 -0.45593999997E+02  0.45594000000E+02  0.51100000000E-03 0.  1.
    9900012    2    1    2    0    0  0.21526846734E+02  0.11315198845E+01  0.39552858415E+02  0.46142311234E+02  0.99999404831E+01 0.  0.
        -12    1    1    2    0    0 -0.21526846734E+02 -0.11315198845E+01 -0.39552858415E+02  0.45045688766E+02  0.00000000000E+00 0.  1.
         11    1    3    3    0    0  0.35519224074E+01 -0.65125580321E+00  0.63133999038E+01  0.72731908758E+01  0.51100000000E-03 0. -1.
        -11    1    3    3    0    0  0.36824717445E+01  0.24411348137E+01  0.27888394319E+01  0.52246878343E+01  0.51100000000E-03 0.  1.
        -12    1    3    3    0    0  0.14292452583E+02 -0.65835912592E+00  0.30450619079E+02  0.33644432524E+02  0.00000000000E+00 0.  1.
</event>
<event>
 7    1  0.5664398E-009  0.4614232E+02  0.7816164E-02  0.1320468E+00
        -11   -1    0    0    0    0  0.00000000000E+00  0.00000000000E+00  0.45593999997E+02  0.45594000000E+02  0.51100000000E-03 0. -1.
         11   -1    0    0    0    0 -0.00000000000E+00 -0.00000000000E+00 -0.45593999997E+02  0.45594000000E+02  0.51100000000E-03 0.  1.
    9900012    2    1    2    0    0 -0.37478857701E+02 -0.24866969290E+02 -0.24662825600E+01  0.46142317788E+02  0.10000000248E+02 0.  0.
         12    1    1    2    0    0  0.37478857701E+02  0.24866969290E+02  0.24662825600E+01  0.45045682212E+02  0.00000000000E+00 0. -1.
         11    1    3    3    0    0 -0.27796118522E+02 -0.15000917247E+02 -0.28853223327E+00  0.31586943098E+02  0.51100000000E-03 0.  1.
        -11    1    3    3    0    0 -0.56267382150E+00  0.22421485859E+00  0.38120191474E+00  0.71567401317E+00  0.51100000000E-03 0. -1.
         12    1    3    3    0    0 -0.91200653577E+01 -0.10090266901E+02 -0.25589522414E+01  0.13839700677E+02  0.00000000000E+00 0. -1.
</event>
<event>
 7    1  0.5664398E-009  0.4614232E+02  0.7816164E-02  0.1320468E+00
        -11   -1    0    0    0    0  0.00000000000E+00  0.00000000000E+00  0.45593999997E+02  0.45594000000E+02  0.51100000000E-03 0.  1.
         11   -1    0    0    0    0 -0.00000000000E+00 -0.00000000000E+00 -0.45593999997E+02  0.45594000000E+02  0.51100000000E-03 0. -1.
    9900012    2    1    2    0    0 -0.10321375485E+02 -0.39136091076E+02 -0.19772434661E+02  0.46142316644E+02  0.99999898120E+01 0.  0.
         12    1    1    2    0    0  0.10321375485E+02  0.39136091076E+02  0.19772434661E+02  0.45045683356E+02  0.00000000000E+00 0. -1.
         11    1    3    3    0    0 -0.12488124270E+01 -0.12381978982E+02 -0.54251949906E+01  0.13575922692E+02  0.51100000000E-03 0. -1.
        -11    1    3    3    0    0 -0.48502921939E+01 -0.12023236770E+02 -0.25161338362E+01  0.13206607685E+02  0.51100000000E-03 0.  1.
         12    1    3    3    0    0 -0.42222708643E+01 -0.14730875324E+02 -0.11831105834E+02  0.19359786267E+02  0.00000000000E+00 0. -1.
</event>
<event>
 7    1  0.5664398E-009  0.4614232E+02  0.7816164E-02  0.1320468E+00
        -11   -1    0    0    0    0  0.00000000000E+00  0.00000000000E+00  0.45593999997E+02  0.45594000000E+02  0.51100000000E-03 0. -1.
         11   -1    0    0    0    0 -0.00000000000E+00 -0.00000000000E+00 -0.45593999997E+02  0.45594000000E+02  0.51100000000E-03 0.  1.
    9900012    2    1    2    0    0 -0.20297588591E+02 -0.12929262410E+02  0.38078282123E+02  0.46142317648E+02  0.99999989716E+01 0.  0.
        -12    1    1    2    0    0  0.20297588591E+02  0.12929262410E+02 -0.38078282123E+02  0.45045682352E+02  0.00000000000E+00 0.  1.
         11    1    3    3    0    0 -0.11598284072E+02 -0.51126072821E+01  0.15151998958E+02  0.19754544270E+02  0.51100000000E-03 0. -1.
        -11    1    3    3    0    0 -0.39481594321E+01 -0.13634516563E+01  0.12859517406E+02  0.13520878355E+02  0.51100000000E-03 0.  1.
        -12    1    3    3    0    0 -0.47511450874E+01 -0.64532034718E+01  0.10066765759E+02  0.12866895023E+02  0.00000000000E+00 0.  1.
</event>
<event>
 7    1  0.5664398E-009  0.4614232E+02  0.7816164E-02  0.1320468E+00
        -11   -1    0    0    0    0  0.00000000000E+00  0.00000000000E+00  0.45593999997E+02  0.45594000000E+02  0.51100000000E-03 0. -1.
         11   -1    0    0    0    0 -0.00000000000E+00 -0.00000000000E+00 -0.45593999997E+02  0.45594000000E+02  0.51100000000E-03 0.  1.
    9900012    2    1    2    0    0 -0.32146221463E+02 -0.74299757103E+01  0.30668049189E+02  0.46142319469E+02  0.10000015577E+02 0.  0.
        -12    1    1    2    0    0  0.32146221463E+02  0.74299757103E+01 -0.30668049189E+02  0.45045680531E+02  0.00000000000E+00 0.  1.
         11    1    3    3    0    0 -0.15057950419E+02 -0.99502248758E+00  0.85122690765E+01  0.17326011245E+02  0.51100000000E-03 0. -1.
        -11    1    3    3    0    0 -0.73468299481E+01 -0.37453252969E+01  0.11240917853E+02  0.13941363144E+02  0.51100000000E-03 0.  1.
        -12    1    3    3    0    0 -0.97414410958E+01 -0.26896279258E+01  0.10914862260E+02  0.14874945081E+02  0.00000000000E+00 0.  1.
</event>
<event>
 7    1  0.5827132E-009  0.4614232E+02  0.7816164E-02  0.1320468E+00
        -11   -1    0    0    0    0  0.00000000000E+00  0.00000000000E+00  0.45593999997E+02  0.45594000000E+02  0.51100000000E-03 0. -1.
         11   -1    0    0    0    0 -0.00000000000E+00 -0.00000000000E+00 -0.45593999997E+02  0.45594000000E+02  0.51100000000E-03 0.  1.
    9900012    2    1    2    0    0 -0.72766587679E+01  0.85171750536E+01  0.43630509601E+02  0.46142318722E+02  0.10000008763E+02 0.  0.
        -12    1    1    2    0    0  0.72766587679E+01 -0.85171750536E+01 -0.43630509601E+02  0.45045681278E+02  0.00000000000E+00 0.  1.
         11    1    3    3    0    0 -0.26133518662E+01  0.38097103331E+01  0.11600939538E+02  0.12487005215E+02  0.51100000000E-03 0. -1.
        -11    1    3    3    0    0 -0.36315332106E+01  0.41201641443E+01  0.86542871205E+01  0.10249901066E+02  0.51100000000E-03 0.  1.
         12    1    3    3    0    0 -0.10317736910E+01  0.58730057613E+00  0.23375282943E+02  0.23405412442E+02  0.00000000000E+00 0. -1.
</event>
<event>
 7    1  0.5664398E-009  0.4614232E+02  0.7816164E-02  0.1320468E+00
        -11   -1    0    0    0    0  0.00000000000E+00  0.00000000000E+00  0.45593999997E+02  0.45594000000E+02  0.51100000000E-03 0. -1.
         11   -1    0    0    0    0 -0.00000000000E+00 -0.00000000000E+00 -0.45593999997E+02  0.45594000000E+02  0.51100000000E-03 0.  1.
    9900012    2    1    2    0    0  0.19054749035E+02  0.19752414268E+02  0.35719352247E+02  0.46142318130E+02  0.10000003365E+02 0.  0.
        -12    1    1    2    0    0 -0.19054749035E+02 -0.19752414268E+02 -0.35719352247E+02  0.45045681870E+02  0.00000000000E+00 0.  1.
         11    1    3    3    0    0  0.34326461729E+01  0.13442791348E+01  0.60754225724E+01  0.71063989358E+01  0.51100000000E-03 0. -1.
        -11    1    3    3    0    0  0.72304517774E+01  0.10581257102E+02  0.21261198764E+02  0.24825007712E+02  0.51100000000E-03 0.  1.
        -12    1    3    3    0    0  0.83916510842E+01  0.78268780315E+01  0.83827309100E+01  0.14210911482E+02  0.00000000000E+00 0.  1.
</event>
<event>
 7    1  0.5664398E-009  0.4614232E+02  0.7816164E-02  0.1320468E+00
        -11   -1    0    0    0    0  0.00000000000E+00  0.00000000000E+00  0.45593999997E+02  0.45594000000E+02  0.51100000000E-03 0. -1.
         11   -1    0    0    0    0 -0.00000000000E+00 -0.00000000000E+00 -0.45593999997E+02  0.45594000000E+02  0.51100000000E-03 0.  1.
    9900012    2    1    2    0    0  0.14596451383E+02  0.36432893094E+02  0.22106585548E+02  0.46142320776E+02  0.10000027488E+02 0.  0.
        -12    1    1    2    0    0 -0.14596451383E+02 -0.36432893094E+02 -0.22106585548E+02  0.45045679224E+02  0.00000000000E+00 0.  1.
         11    1    3    3    0    0  0.95909570465E+01  0.29056870656E+02  0.17993647685E+02  0.35497317457E+02  0.51100000000E-03 0. -1.
        -11    1    3    3    0    0 -0.16783982583E-03  0.16486694461E+01 -0.53201405186E+00  0.17323828051E+01  0.51100000000E-03 0.  1.
         12    1    3    3    0    0  0.50056621766E+01  0.57273529924E+01  0.46449519149E+01  0.89126205135E+01  0.00000000000E+00 0. -1.
</event>
<event>
 7    1  0.5664398E-009  0.4614232E+02  0.7816164E-02  0.1320468E+00
        -11   -1    0    0    0    0  0.00000000000E+00  0.00000000000E+00  0.45593999997E+02  0.45594000000E+02  0.51100000000E-03 0. -1.
         11   -1    0    0    0    0 -0.00000000000E+00 -0.00000000000E+00 -0.45593999997E+02  0.45594000000E+02  0.51100000000E-03 0.  1.
    9900012    2    1    2    0    0 -0.28674475902E+01 -0.40942334556E+01  0.44767493901E+02  0.46142317483E+02  0.99999974646E+01 0.  0.
        -12    1    1    2    0    0  0.28674475902E+01  0.40942334556E+01 -0.44767493901E+02  0.45045682517E+02  0.00000000000E+00 0.  1.
         11    1    3    3    0    0 -0.13596241837E+00 -0.26371215131E+01  0.23553714124E+02  0.23701273067E+02  0.51100000000E-03 0. -1.
        -11    1    3    3    0    0 -0.36275651253E+01  0.97247791399E-01  0.52813493296E+01  0.64079120526E+01  0.51100000000E-03 0.  1.
        -12    1    3    3    0    0  0.89607995352E+00 -0.15543597340E+01  0.15932430447E+02  0.16033132364E+02  0.00000000000E+00 0.  1.
</event>
<event>
 7    1  0.5664398E-009  0.4614232E+02  0.7816164E-02  0.1320468E+00
        -11   -1    0    0    0    0  0.00000000000E+00  0.00000000000E+00  0.45593999997E+02  0.45594000000E+02  0.51100000000E-03 0. -1.
         11   -1    0    0    0    0 -0.00000000000E+00 -0.00000000000E+00 -0.45593999997E+02  0.45594000000E+02  0.51100000000E-03 0.  1.
    9900012    2    1    2    0    0 -0.21264597086E+02  0.23122496225E+01  0.39643208359E+02  0.46142317005E+02  0.99999931030E+01 0.  0.
        -12    1    1    2    0    0  0.21264597086E+02 -0.23122496225E+01 -0.39643208359E+02  0.45045682995E+02  0.00000000000E+00 0.  1.
         11    1    3    3    0    0 -0.15558475651E+02  0.10464454540E+01  0.27429499847E+02  0.31552158005E+02  0.51100000000E-03 0. -1.
        -11    1    3    3    0    0 -0.34479995875E+01 -0.11499055260E+01  0.27278910926E+01  0.45444883044E+01  0.51100000000E-03 0.  1.
         12    1    3    3    0    0 -0.22581218470E+01  0.24157096945E+01  0.94858174196E+01  0.10045670695E+02  0.00000000000E+00 0. -1.
</event>
<event>
 7    1  0.5664398E-009  0.4614232E+02  0.7816164E-02  0.1320468E+00
        -11   -1    0    0    0    0  0.00000000000E+00  0.00000000000E+00  0.45593999997E+02  0.45594000000E+02  0.51100000000E-03 0. -1.
         11   -1    0    0    0    0 -0.00000000000E+00 -0.00000000000E+00 -0.45593999997E+02  0.45594000000E+02  0.51100000000E-03 0.  1.
    9900012    2    1    2    0    0 -0.44960117532E+02 -0.25281207254E-01  0.27750075932E+01  0.46142317912E+02  0.10000001379E+02 0.  0.
        -12    1    1    2    0    0  0.44960117532E+02  0.25281207254E-01 -0.27750075932E+01  0.45045682088E+02  0.00000000000E+00 0.  1.
         11    1    3    3    0    0 -0.94987480492E+01  0.34113892158E+01  0.26496199848E+01  0.10434762921E+02  0.51100000000E-03 0. -1.
        -11    1    3    3    0    0 -0.84072164637E+01 -0.17725710349E+01  0.39152545762E+00  0.86009644335E+01  0.51100000000E-03 0.  1.
         12    1    3    3    0    0 -0.27054153019E+02 -0.16640993882E+01 -0.26613784925E+00  0.27106590558E+02  0.00000000000E+00 0. -1.
</event>
<event>
 7    1  0.5664398E-009  0.4614232E+02  0.7816164E-02  0.1320468E+00
        -11   -1    0    0    0    0  0.00000000000E+00  0.00000000000E+00  0.45593999997E+02  0.45594000000E+02  0.51100000000E-03 0.  1.
         11   -1    0    0    0    0 -0.00000000000E+00 -0.00000000000E+00 -0.45593999997E+02  0.45594000000E+02  0.51100000000E-03 0. -1.
    9900012    2    1    2    0    0  0.28862455934E+02  0.29929636805E+02  0.17328847576E+02  0.46142317853E+02  0.10000000838E+02 0.  0.
         12    1    1    2    0    0 -0.28862455934E+02 -0.29929636805E+02 -0.17328847576E+02  0.45045682147E+02  0.00000000000E+00 0. -1.
         11    1    3    3    0    0  0.69290316524E+01  0.12198353166E+02  0.60013871990E+01  0.15258700737E+02  0.51100000000E-03 0. -1.
        -11    1    3    3    0    0  0.50624256314E+01  0.16982856794E+01  0.10533045943E+01  0.54425893058E+01  0.51100000000E-03 0.  1.
         12    1    3    3    0    0  0.16870998650E+02  0.16032997960E+02  0.10274155782E+02  0.25441027810E+02  0.00000000000E+00 0. -1.
</event>
<event>
 7    1  0.5664398E-009  0.4614232E+02  0.7816164E-02  0.1320468E+00
        -11   -1    0    0    0    0  0.00000000000E+00  0.00000000000E+00  0.45593999997E+02  0.45594000000E+02  0.51100000000E-03 0. -1.
         11   -1    0    0    0    0 -0.00000000000E+00 -0.00000000000E+00 -0.45593999997E+02  0.45594000000E+02  0.51100000000E-03 0.  1.
    9900012    2    1    2    0    0  0.25173334659E+02 -0.12740044815E+02 -0.35115638727E+02  0.46142316489E+02  0.99999884040E+01 0.  0.
         12    1    1    2    0    0 -0.25173334659E+02  0.12740044815E+02  0.35115638727E+02  0.45045683511E+02  0.00000000000E+00 0. -1.
         11    1    3    3    0    0  0.30235546449E+00 -0.27281364047E+01 -0.17344130317E+01  0.32468963481E+01  0.51100000000E-03 0. -1.
        -11    1    3    3    0    0  0.18014491795E+02 -0.74743841470E+01 -0.26046392364E+02  0.32539251504E+02  0.51100000000E-03 0.  1.
        -12    1    3    3    0    0  0.68564873998E+01 -0.25375242635E+01 -0.73348333309E+01  0.10356168637E+02  0.00000000000E+00 0.  1.
</event>
<event>
 7    1  0.5664398E-009  0.4614232E+02  0.7816164E-02  0.1320468E+00
        -11   -1    0    0    0    0  0.00000000000E+00  0.00000000000E+00  0.45593999997E+02  0.45594000000E+02  0.51100000000E-03 0. -1.
         11   -1    0    0    0    0 -0.00000000000E+00 -0.00000000000E+00 -0.45593999997E+02  0.45594000000E+02  0.51100000000E-03 0.  1.
    9900012    2    1    2    0    0 -0.14953103541E+02 -0.24649009120E+02 -0.34611333397E+02  0.46142319234E+02  0.10000013434E+02 0.  0.
         12    1    1    2    0    0  0.14953103541E+02  0.24649009120E+02  0.34611333397E+02  0.45045680766E+02  0.00000000000E+00 0. -1.
         11    1    3    3    0    0 -0.75884180069E+01 -0.11572968595E+02 -0.18538301260E+02  0.23134093970E+02  0.51100000000E-03 0. -1.
        -11    1    3    3    0    0 -0.63555482428E+01 -0.78358748033E+01 -0.14058474343E+02  0.17304179510E+02  0.51100000000E-03 0.  1.
         12    1    3    3    0    0 -0.10091372914E+01 -0.52401657219E+01 -0.20145577951E+01  0.57040457551E+01  0.00000000000E+00 0. -1.
</event>
<event>
 7    1  0.5664398E-009  0.4614232E+02  0.7816164E-02  0.1320468E+00
        -11   -1    0    0    0    0  0.00000000000E+00  0.00000000000E+00  0.45593999997E+02  0.45594000000E+02  0.51100000000E-03 0. -1.
         11   -1    0    0    0    0 -0.00000000000E+00 -0.00000000000E+00 -0.45593999997E+02  0.45594000000E+02  0.51100000000E-03 0.  1.
    9900012    2    1    2    0    0 -0.77635378644E+01 -0.12089360582E+02 -0.42692954528E+02  0.46142317346E+02  0.99999962161E+01 0.  0.
         12    1    1    2    0    0  0.77635378644E+01  0.12089360582E+02  0.42692954528E+02  0.45045682654E+02  0.00000000000E+00 0. -1.
         11    1    3    3    0    0 -0.45943501323E+00 -0.43053925110E+01 -0.40668941440E+01  0.59402957371E+01  0.51100000000E-03 0. -1.
        -11    1    3    3    0    0 -0.38031765433E+01 -0.18045114102E+01 -0.13896934878E+02  0.14520510064E+02  0.51100000000E-03 0.  1.
         12    1    3    3    0    0 -0.35009263079E+01 -0.59794566611E+01 -0.24729125506E+02  0.25681511545E+02  0.00000000000E+00 0. -1.
</event>
