<event>
 7    1  0.2031146E-008  0.4614232E+02  0.7816164E-02  0.1320468E+00
        -11   -1    0    0    0    0  0.00000000000E+00  0.00000000000E+00  0.45593999997E+02  0.45594000000E+02  0.51100000000E-03 0.  1.
         11   -1    0    0    0    0 -0.00000000000E+00 -0.00000000000E+00 -0.45593999997E+02  0.45594000000E+02  0.51100000000E-03 0. -1.
    9900012    2    1    2    0    0  0.12374412119E+02 -0.41944770308E+02 -0.10799243649E+02  0.46142317689E+02  0.99999993389E+01 0.  0.
        -12    1    1    2    0    0 -0.12374412119E+02  0.41944770308E+02  0.10799243649E+02  0.45045682311E+02  0.00000000000E+00 0.  1.
         11    1    3    3    0    0  0.66635527550E+01 -0.12276762680E+02 -0.23713275178E+01  0.14168451986E+02  0.51100000000E-03 0. -1.
        -11    1    3    3    0    0  0.12203505115E+01 -0.45695389582E+01 -0.37846234834E+01  0.60575008735E+01  0.51100000000E-03 0.  1.
         12    1    3    3    0    0  0.44905088525E+01 -0.25098468670E+02 -0.46432926477E+01  0.25916364829E+02  0.00000000000E+00 0. -1.
</event>
<event>
 7    1  0.2031146E-008  0.4614232E+02  0.7816164E-02  0.1320468E+00
        -11   -1    0    0    0    0  0.00000000000E+00  0.00000000000E+00  0.45593999997E+02  0.45594000000E+02  0.51100000000E-03 0. -1.
         11   -1    0    0    0    0 -0.00000000000E+00 -0.00000000000E+00 -0.45593999997E+02  0.45594000000E+02  0.51100000000E-03 0.  1.
    9900012    2    1    2    0    0  0.28119957136E+02 -0.73075867390E+01  0.34423549747E+02  0.46142316627E+02  0.99999896627E+01 0.  0.
        -12    1    1    2    0    0 -0.28119957136E+02  0.73075867390E+01 -0.34423549747E+02  0.45045683373E+02  0.00000000000E+00 0.  1.
         11    1    3    3    0    0  0.11423263778E+01 -0.15168649800E+01  0.48842127949E+01  0.52403553132E+01  0.51100000000E-03 0.  1.
        -11    1    3    3    0    0  0.12541170679E+02 -0.25168538023E+01  0.18245584810E+02  0.22282658737E+02  0.51100000000E-03 0. -1.
        -12    1    3    3    0    0  0.14436460079E+02 -0.32738679567E+01  0.11293752143E+02  0.18619302578E+02  0.00000000000E+00 0.  1.
</event>
<event>
 7    1  0.2031146E-008  0.4614232E+02  0.7816164E-02  0.1320468E+00
        -11   -1    0    0    0    0  0.00000000000E+00  0.00000000000E+00  0.45593999997E+02  0.45594000000E+02  0.51100000000E-03 0.  1.
         11   -1    0    0    0    0 -0.00000000000E+00 -0.00000000000E+00 -0.45593999997E+02  0.45594000000E+02  0.51100000000E-03 0. -1.
    9900012    2    1    2    0    0  0.29551992029E+02 -0.33288493153E+02 -0.69043082934E+01  0.46142317829E+02  0.10000000619E+02 0.  0.
        -12    1    1    2    0    0 -0.29551992029E+02  0.33288493153E+02  0.69043082934E+01  0.45045682171E+02  0.00000000000E+00 0.  1.
         11    1    3    3    0    0  0.39981995148E+01 -0.32756216216E+01 -0.28908420709E+01  0.59221840995E+01  0.51100000000E-03 0.  1.
        -11    1    3    3    0    0  0.58285885152E+01 -0.57275131716E+01 -0.36027613262E+01  0.89306629455E+01  0.51100000000E-03 0. -1.
         12    1    3    3    0    0  0.19725203999E+02 -0.24285358359E+02 -0.41070489626E+00  0.31289470784E+02  0.00000000000E+00 0. -1.
</event>
<event>
 7    1  0.2031146E-008  0.4614232E+02  0.7816164E-02  0.1320468E+00
        -11   -1    0    0    0    0  0.00000000000E+00  0.00000000000E+00  0.45593999997E+02  0.45594000000E+02  0.51100000000E-03 0. -1.
         11   -1    0    0    0    0 -0.00000000000E+00 -0.00000000000E+00 -0.45593999997E+02  0.45594000000E+02  0.51100000000E-03 0.  1.
    9900012    2    1    2    0    0 -0.37452250785E+02 -0.24863626004E+02  0.28710057382E+01  0.46142315846E+02  0.99999825354E+01 0.  0.
        -12    1    1    2    0    0  0.37452250785E+02  0.24863626004E+02 -0.28710057382E+01  0.45045684154E+02  0.00000000000E+00 0.  1.
         11    1    3    3    0    0 -0.17443829998E+02 -0.96732364938E+01 -0.17434087249E+01  0.20022441996E+02  0.51100000000E-03 0. -1.
        -11    1    3    3    0    0 -0.46349482653E+00  0.37886670378E+00  0.53121487302E+00  0.80034800924E+00  0.51100000000E-03 0.  1.
         12    1    3    3    0    0 -0.19544925961E+02 -0.15569256214E+02  0.40831995900E+01  0.25319525840E+02  0.00000000000E+00 0. -1.
</event>
<event>
 7    1  0.2031146E-008  0.4614232E+02  0.7816164E-02  0.1320468E+00
        -11   -1    0    0    0    0  0.00000000000E+00  0.00000000000E+00  0.45593999997E+02  0.45594000000E+02  0.51100000000E-03 0.  1.
         11   -1    0    0    0    0 -0.00000000000E+00 -0.00000000000E+00 -0.45593999997E+02  0.45594000000E+02  0.51100000000E-03 0. -1.
    9900012    2    1    2    0    0  0.47186583890E+00  0.88789568732E+01 -0.44159419960E+02  0.46142324251E+02  0.10000059177E+02 0.  0.
        -12    1    1    2    0    0 -0.47186583890E+00 -0.88789568732E+01  0.44159419960E+02  0.45045675749E+02  0.00000000000E+00 0.  1.
         11    1    3    3    0    0  0.19649480482E+01  0.78979175107E+01 -0.34327122839E+02  0.35278739837E+02  0.51100000000E-03 0. -1.
        -11    1    3    3    0    0 -0.66446943526E+00 -0.14162945606E+01 -0.64432285163E+01  0.66304301435E+01  0.51100000000E-03 0.  1.
        -12    1    3    3    0    0 -0.82861277401E+00  0.23973339231E+01 -0.33890686047E+01  0.42331542702E+01  0.00000000000E+00 0.  1.
</event>
<event>
 7    1  0.2031146E-008  0.4614232E+02  0.7816164E-02  0.1320468E+00
        -11   -1    0    0    0    0  0.00000000000E+00  0.00000000000E+00  0.45593999997E+02  0.45594000000E+02  0.51100000000E-03 0.  1.
         11   -1    0    0    0    0 -0.00000000000E+00 -0.00000000000E+00 -0.45593999997E+02  0.45594000000E+02  0.51100000000E-03 0. -1.
    9900012    2    1    2    0    0  0.15650380781E+02 -0.25219967062E+02 -0.33884098304E+02  0.46142320129E+02  0.10000021593E+02 0.  0.
        -12    1    1    2    0    0 -0.15650380781E+02  0.25219967062E+02  0.33884098304E+02  0.45045679871E+02  0.00000000000E+00 0.  1.
         11    1    3    3    0    0  0.81841101316E+01 -0.10982930370E+02 -0.17617932550E+02  0.22315823215E+02  0.51100000000E-03 0. -1.
        -11    1    3    3    0    0 -0.10465773585E+01 -0.14539252620E+01 -0.31768401911E+01  0.36471271839E+01  0.51100000000E-03 0.  1.
         12    1    3    3    0    0  0.85128480078E+01 -0.12783111430E+02 -0.13089325563E+02  0.20179369730E+02  0.00000000000E+00 0. -1.
</event>
<event>
 7    1  0.2031146E-008  0.4614232E+02  0.7816164E-02  0.1320468E+00
        -11   -1    0    0    0    0  0.00000000000E+00  0.00000000000E+00  0.45593999997E+02  0.45594000000E+02  0.51100000000E-03 0.  1.
         11   -1    0    0    0    0 -0.00000000000E+00 -0.00000000000E+00 -0.45593999997E+02  0.45594000000E+02  0.51100000000E-03 0. -1.
    9900012    2    1    2    0    0 -0.28740341705E+02  0.33023035170E+02  0.10610620212E+02  0.46142319248E+02  0.10000013559E+02 0.  0.
        -12    1    1    2    0    0  0.28740341705E+02 -0.33023035170E+02 -0.10610620212E+02  0.45045680752E+02  0.00000000000E+00 0.  1.
         11    1    3    3    0    0 -0.25874043222E+01  0.26639172517E+01  0.24439888973E+01  0.44456943486E+01  0.51100000000E-03 0. -1.
        -11    1    3    3    0    0 -0.36784724545E+01  0.95663764204E+01  0.26457979310E+01  0.10585223870E+02  0.51100000000E-03 0.  1.
         12    1    3    3    0    0 -0.22474464928E+02  0.20792741498E+02  0.55208333834E+01  0.31111401030E+02  0.00000000000E+00 0. -1.
</event>
<event>
 7    1  0.2031146E-008  0.4614232E+02  0.7816164E-02  0.1320468E+00
        -11   -1    0    0    0    0  0.00000000000E+00  0.00000000000E+00  0.45593999997E+02  0.45594000000E+02  0.51100000000E-03 0.  1.
         11   -1    0    0    0    0 -0.00000000000E+00 -0.00000000000E+00 -0.45593999997E+02  0.45594000000E+02  0.51100000000E-03 0. -1.
    9900012    2    1    2    0    0 -0.15878005238E+02  0.40056912669E+02 -0.13131874236E+02  0.46142318477E+02  0.10000006532E+02 0.  0.
        -12    1    1    2    0    0  0.15878005238E+02 -0.40056912669E+02  0.13131874236E+02  0.45045681523E+02  0.00000000000E+00 0.  1.
         11    1    3    3    0    0 -0.80316450093E+01  0.24674728743E+02 -0.11801550950E+02  0.28506598625E+02  0.51100000000E-03 0. -1.
        -11    1    3    3    0    0 -0.74183751079E+01  0.11619764091E+02 -0.13207019777E+01  0.13849023819E+02  0.51100000000E-03 0.  1.
         12    1    3    3    0    0 -0.42798512056E+00  0.37624198354E+01 -0.96213090427E-02  0.37866960336E+01  0.00000000000E+00 0. -1.
</event>
<event>
 7    1  0.2031146E-008  0.4614232E+02  0.7816164E-02  0.1320468E+00
        -11   -1    0    0    0    0  0.00000000000E+00  0.00000000000E+00  0.45593999997E+02  0.45594000000E+02  0.51100000000E-03 0.  1.
         11   -1    0    0    0    0 -0.00000000000E+00 -0.00000000000E+00 -0.45593999997E+02  0.45594000000E+02  0.51100000000E-03 0. -1.
    9900012    2    1    2    0    0 -0.84983596105E+00 -0.39846666509E+02 -0.20991298824E+02  0.46142315641E+02  0.99999806685E+01 0.  0.
        -12    1    1    2    0    0  0.84983596105E+00  0.39846666509E+02  0.20991298824E+02  0.45045684359E+02  0.00000000000E+00 0.  1.
         11    1    3    3    0    0 -0.85181643325E+00 -0.10929479402E+02 -0.82425791475E+01  0.13715656109E+02  0.51100000000E-03 0. -1.
        -11    1    3    3    0    0  0.11147805850E+00 -0.26353785658E+02 -0.89296633275E+01  0.27825767433E+02  0.51100000000E-03 0.  1.
        -12    1    3    3    0    0 -0.10949758630E+00 -0.25634014497E+01 -0.38190563485E+01  0.46008920991E+01  0.00000000000E+00 0.  1.
</event>
<event>
 7    1  0.2031146E-008  0.4614232E+02  0.7816164E-02  0.1320468E+00
        -11   -1    0    0    0    0  0.00000000000E+00  0.00000000000E+00  0.45593999997E+02  0.45594000000E+02  0.51100000000E-03 0. -1.
         11   -1    0    0    0    0 -0.00000000000E+00 -0.00000000000E+00 -0.45593999997E+02  0.45594000000E+02  0.51100000000E-03 0.  1.
    9900012    2    1    2    0    0 -0.20570143181E+02  0.39643165702E+02  0.58653246929E+01  0.46142318618E+02  0.10000007816E+02 0.  0.
        -12    1    1    2    0    0  0.20570143181E+02 -0.39643165702E+02 -0.58653246929E+01  0.45045681382E+02  0.00000000000E+00 0.  1.
         11    1    3    3    0    0 -0.17792977528E+02  0.34502397763E+02  0.74954031421E+01  0.39537154288E+02  0.51100000000E-03 0. -1.
        -11    1    3    3    0    0 -0.31133004302E+01  0.51970066797E+01 -0.15068693046E+01  0.62427696866E+01  0.51100000000E-03 0.  1.
         12    1    3    3    0    0  0.33613477675E+00 -0.56238740467E-01 -0.12320914461E+00  0.36239464316E+00  0.00000000000E+00 0. -1.
</event>
<event>
 7    1  0.2031146E-008  0.4614232E+02  0.7816164E-02  0.1320468E+00
        -11   -1    0    0    0    0  0.00000000000E+00  0.00000000000E+00  0.45593999997E+02  0.45594000000E+02  0.51100000000E-03 0.  1.
         11   -1    0    0    0    0 -0.00000000000E+00 -0.00000000000E+00 -0.45593999997E+02  0.45594000000E+02  0.51100000000E-03 0. -1.
    9900012    2    1    2    0    0  0.53696045795E+01  0.87607828652E+01 -0.43858061114E+02  0.46142317693E+02  0.99999993833E+01 0.  0.
        -12    1    1    2    0    0 -0.53696045795E+01 -0.87607828652E+01  0.43858061114E+02  0.45045682307E+02  0.00000000000E+00 0.  1.
         11    1    3    3    0    0  0.33202129268E+01  0.23460383078E+01 -0.88695415421E+01  0.97568681988E+01  0.51100000000E-03 0.  1.
        -11    1    3    3    0    0 -0.84893230417E-01  0.32934036606E+01 -0.29711208387E+02  0.29893303909E+02  0.51100000000E-03 0. -1.
         12    1    3    3    0    0  0.21342848831E+01  0.31213408968E+01 -0.52773111851E+01  0.64921455853E+01  0.00000000000E+00 0. -1.
</event>
<event>
 7    1  0.2031146E-008  0.4614232E+02  0.7816164E-02  0.1320468E+00
        -11   -1    0    0    0    0  0.00000000000E+00  0.00000000000E+00  0.45593999997E+02  0.45594000000E+02  0.51100000000E-03 0. -1.
         11   -1    0    0    0    0 -0.00000000000E+00 -0.00000000000E+00 -0.45593999997E+02  0.45594000000E+02  0.51100000000E-03 0.  1.
    9900012    2    1    2    0    0  0.23168917317E+01 -0.38534674945E+02 -0.23212589877E+02  0.46142317752E+02  0.99999999142E+01 0.  0.
        -12    1    1    2    0    0 -0.23168917317E+01  0.38534674945E+02  0.23212589877E+02  0.45045682248E+02  0.00000000000E+00 0.  1.
         11    1    3    3    0    0  0.19777529564E+01 -0.89364208720E+01 -0.72723428594E+01  0.11690085358E+02  0.51100000000E-03 0.  1.
        -11    1    3    3    0    0  0.24854140268E+01 -0.32002180397E+01 -0.23430708585E+01  0.46806687231E+01  0.51100000000E-03 0. -1.
         12    1    3    3    0    0 -0.21462752516E+01 -0.26398036034E+02 -0.13597176159E+02  0.29771563670E+02  0.00000000000E+00 0. -1.
</event>
<event>
 7    1  0.2031146E-008  0.4614232E+02  0.7816164E-02  0.1320468E+00
        -11   -1    0    0    0    0  0.00000000000E+00  0.00000000000E+00  0.45593999997E+02  0.45594000000E+02  0.51100000000E-03 0.  1.
         11   -1    0    0    0    0 -0.00000000000E+00 -0.00000000000E+00 -0.45593999997E+02  0.45594000000E+02  0.51100000000E-03 0. -1.
    9900012    2    1    2    0    0  0.23421910334E+02 -0.82815533668E+01 -0.37575837062E+02  0.46142317179E+02  0.99999946942E+01 0.  0.
        -12    1    1    2    0    0 -0.23421910334E+02  0.82815533668E+01  0.37575837062E+02  0.45045682821E+02  0.00000000000E+00 0.  1.
         11    1    3    3    0    0  0.18650974583E+02 -0.29405820535E+01 -0.22807744213E+02  0.29609104547E+02  0.51100000000E-03 0. -1.
        -11    1    3    3    0    0  0.77135888157E+00 -0.71843950393E+00 -0.41457242784E+01  0.42776371864E+01  0.51100000000E-03 0.  1.
        -12    1    3    3    0    0  0.39995768694E+01 -0.46225318094E+01 -0.10622368570E+02  0.12255575446E+02  0.00000000000E+00 0.  1.
</event>
<event>
 7    1  0.2031146E-008  0.4614232E+02  0.7816164E-02  0.1320468E+00
        -11   -1    0    0    0    0  0.00000000000E+00  0.00000000000E+00  0.45593999997E+02  0.45594000000E+02  0.51100000000E-03 0.  1.
         11   -1    0    0    0    0 -0.00000000000E+00 -0.00000000000E+00 -0.45593999997E+02  0.45594000000E+02  0.51100000000E-03 0. -1.
    9900012    2    1    2    0    0  0.92545793980E+01  0.14149862071E+02 -0.41752217153E+02  0.46142317924E+02  0.10000001486E+02 0.  0.
        -12    1    1    2    0    0 -0.92545793980E+01 -0.14149862071E+02  0.41752217153E+02  0.45045682076E+02  0.00000000000E+00 0.  1.
         11    1    3    3    0    0  0.25529481620E+01 -0.40094241403E+00 -0.29619509483E+01  0.39308336035E+01  0.51100000000E-03 0. -1.
        -11    1    3    3    0    0  0.61285311557E+01  0.87361581330E+01 -0.22429615385E+02  0.24838820416E+02  0.51100000000E-03 0.  1.
         12    1    3    3    0    0  0.57310008036E+00  0.58146463519E+01 -0.16360650820E+02  0.17372663905E+02  0.00000000000E+00 0. -1.
</event>
<event>
 7    1  0.2031146E-008  0.4614232E+02  0.7816164E-02  0.1320468E+00
        -11   -1    0    0    0    0  0.00000000000E+00  0.00000000000E+00  0.45593999997E+02  0.45594000000E+02  0.51100000000E-03 0.  1.
         11   -1    0    0    0    0 -0.00000000000E+00 -0.00000000000E+00 -0.45593999997E+02  0.45594000000E+02  0.51100000000E-03 0. -1.
    9900012    2    1    2    0    0 -0.21535589488E+02  0.15134166845E+02 -0.36555283277E+02  0.46142319229E+02  0.10000013386E+02 0.  0.
        -12    1    1    2    0    0  0.21535589488E+02 -0.15134166845E+02  0.36555283277E+02  0.45045680771E+02  0.00000000000E+00 0.  1.
         11    1    3    3    0    0 -0.12910465001E+02  0.94355035222E+01 -0.21463376788E+02  0.26765376453E+02  0.51100000000E-03 0. -1.
        -11    1    3    3    0    0 -0.38769955467E+01  0.60844087547E+01 -0.10649397126E+02  0.12863156058E+02  0.51100000000E-03 0.  1.
        -12    1    3    3    0    0 -0.47481289402E+01 -0.38574543235E+00 -0.44425093626E+01  0.65137867181E+01  0.00000000000E+00 0.  1.
</event>
<event>
 7    1  0.2031146E-008  0.4614232E+02  0.7816164E-02  0.1320468E+00
        -11   -1    0    0    0    0  0.00000000000E+00  0.00000000000E+00  0.45593999997E+02  0.45594000000E+02  0.51100000000E-03 0.  1.
         11   -1    0    0    0    0 -0.00000000000E+00 -0.00000000000E+00 -0.45593999997E+02  0.45594000000E+02  0.51100000000E-03 0. -1.
    9900012    2    1    2    0    0 -0.27061428563E+02  0.35984979250E+02  0.13688934397E+01  0.46142317446E+02  0.99999971253E+01 0.  0.
        -12    1    1    2    0    0  0.27061428563E+02 -0.35984979250E+02 -0.13688934397E+01  0.45045682554E+02  0.00000000000E+00 0.  1.
         11    1    3    3    0    0 -0.61950102532E+01  0.29814197159E+01 -0.11252546631E+01  0.69665783479E+01  0.51100000000E-03 0. -1.
        -11    1    3    3    0    0 -0.71090584885E+01  0.11125722031E+02  0.17755434012E+01  0.13321897685E+02  0.51100000000E-03 0.  1.
         12    1    3    3    0    0 -0.13757359821E+02  0.21877837503E+02  0.71860470164E+00  0.25853841413E+02  0.00000000000E+00 0. -1.
</event>
<event>
 7    1  0.2031146E-008  0.4614232E+02  0.7816164E-02  0.1320468E+00
        -11   -1    0    0    0    0  0.00000000000E+00  0.00000000000E+00  0.45593999997E+02  0.45594000000E+02  0.51100000000E-03 0.  1.
         11   -1    0    0    0    0 -0.00000000000E+00 -0.00000000000E+00 -0.45593999997E+02  0.45594000000E+02  0.51100000000E-03 0. -1.
    9900012    2    1    2    0    0 -0.21554901094E+02  0.46426926400E+01 -0.39280339865E+02  0.46142318120E+02  0.10000003270E+02 0.  0.
        -12    1    1    2    0    0  0.21554901094E+02 -0.46426926400E+01  0.39280339865E+02  0.45045681880E+02  0.00000000000E+00 0.  1.
         11    1    3    3    0    0 -0.81238645843E+01 -0.12948188011E+01 -0.16569603566E+02  0.18499337667E+02  0.51100000000E-03 0. -1.
        -11    1    3    3    0    0 -0.79173065433E+01  0.58530464623E+01 -0.11425789168E+02  0.15082789999E+02  0.51100000000E-03 0.  1.
        -12    1    3    3    0    0 -0.55137299665E+01  0.84464978736E-01 -0.11284947132E+02  0.12560190454E+02  0.00000000000E+00 0.  1.
</event>
<event>
 7    1  0.2031146E-008  0.4614232E+02  0.7816164E-02  0.1320468E+00
        -11   -1    0    0    0    0  0.00000000000E+00  0.00000000000E+00  0.45593999997E+02  0.45594000000E+02  0.51100000000E-03 0.  1.
         11   -1    0    0    0    0 -0.00000000000E+00 -0.00000000000E+00 -0.45593999997E+02  0.45594000000E+02  0.51100000000E-03 0. -1.
    9900012    2    1    2    0    0 -0.33154095111E+00 -0.15285571962E+02 -0.42371628996E+02  0.46142316817E+02  0.99999913944E+01 0.  0.
        -12    1    1    2    0    0  0.33154095111E+00  0.15285571962E+02  0.42371628996E+02  0.45045683183E+02  0.00000000000E+00 0.  1.
         11    1    3    3    0    0 -0.22489081396E+01 -0.57521296504E+00 -0.58280218447E+01  0.62733003004E+01  0.51100000000E-03 0. -1.
        -11    1    3    3    0    0 -0.20211692757E-01 -0.31138718151E+01 -0.29974725172E+01  0.43222040611E+01  0.51100000000E-03 0.  1.
         12    1    3    3    0    0  0.19375788812E+01 -0.11596487182E+02 -0.33546134634E+02  0.35546812456E+02  0.00000000000E+00 0. -1.
</event>
<event>
 7    1  0.2031146E-008  0.4614232E+02  0.7816164E-02  0.1320468E+00
        -11   -1    0    0    0    0  0.00000000000E+00  0.00000000000E+00  0.45593999997E+02  0.45594000000E+02  0.51100000000E-03 0.  1.
         11   -1    0    0    0    0 -0.00000000000E+00 -0.00000000000E+00 -0.45593999997E+02  0.45594000000E+02  0.51100000000E-03 0. -1.
    9900012    2    1    2    0    0 -0.34551758975E+02  0.18950036646E+01 -0.28839181213E+02  0.46142318074E+02  0.10000002852E+02 0.  0.
        -12    1    1    2    0    0  0.34551758975E+02 -0.18950036646E+01  0.28839181213E+02  0.45045681926E+02  0.00000000000E+00 0.  1.
         11    1    3    3    0    0 -0.55758574855E+01  0.83525489097E+00 -0.86671057286E+01  0.10339562825E+02  0.51100000000E-03 0. -1.
        -11    1    3    3    0    0 -0.83621680820E+01  0.26554233235E+01 -0.45103973823E+01  0.98651311632E+01  0.51100000000E-03 0.  1.
         12    1    3    3    0    0 -0.20613733407E+02 -0.15956745498E+01 -0.15661678102E+02  0.25937624086E+02  0.00000000000E+00 0. -1.
</event>
<event>
 7    1  0.2031146E-008  0.4614232E+02  0.7816164E-02  0.1320468E+00
        -11   -1    0    0    0    0  0.00000000000E+00  0.00000000000E+00  0.45593999997E+02  0.45594000000E+02  0.51100000000E-03 0.  1.
         11   -1    0    0    0    0 -0.00000000000E+00 -0.00000000000E+00 -0.45593999997E+02  0.45594000000E+02  0.51100000000E-03 0. -1.
    9900012    2    1    2    0    0 -0.12463801352E+02  0.31772590154E+02 -0.29398463905E+02  0.46142317530E+02  0.99999978920E+01 0.  0.
        -12    1    1    2    0    0  0.12463801352E+02 -0.31772590154E+02  0.29398463905E+02  0.45045682470E+02  0.00000000000E+00 0.  1.
         11    1    3    3    0    0 -0.75378444639E+01  0.99922483926E+01 -0.12180071972E+02  0.17464772561E+02  0.51100000000E-03 0. -1.
        -11    1    3    3    0    0 -0.47814970781E+01  0.11620860631E+02 -0.11413497991E+02  0.16975719507E+02  0.51100000000E-03 0.  1.
        -12    1    3    3    0    0 -0.14445980950E+00  0.10159481131E+02 -0.58048939419E+01  0.11701825463E+02  0.00000000000E+00 0.  1.
</event>
<event>
 7    1  0.2031146E-008  0.4614232E+02  0.7816164E-02  0.1320468E+00
        -11   -1    0    0    0    0  0.00000000000E+00  0.00000000000E+00  0.45593999997E+02  0.45594000000E+02  0.51100000000E-03 0.  1.
         11   -1    0    0    0    0 -0.00000000000E+00 -0.00000000000E+00 -0.45593999997E+02  0.45594000000E+02  0.51100000000E-03 0. -1.
    9900012    2    1    2    0    0 -0.18092046648E+02  0.37364989288E+02 -0.17482816842E+02  0.46142318064E+02  0.10000002759E+02 0.  0.
        -12    1    1    2    0    0  0.18092046648E+02 -0.37364989288E+02  0.17482816842E+02  0.45045681936E+02  0.00000000000E+00 0.  1.
         11    1    3    3    0    0 -0.10554438687E+01  0.67794397249E+00 -0.40544990622E+00  0.13183169867E+01  0.51100000000E-03 0. -1.
        -11    1    3    3    0    0 -0.18089305601E+02  0.33401365469E+02 -0.15896175044E+02  0.41177209396E+02  0.51100000000E-03 0.  1.
        -12    1    3    3    0    0  0.10527028218E+01  0.32856798459E+01 -0.11811918913E+01  0.36467916810E+01  0.00000000000E+00 0.  1.
</event>
<event>
 7    1  0.2031146E-008  0.4614232E+02  0.7816164E-02  0.1320468E+00
        -11   -1    0    0    0    0  0.00000000000E+00  0.00000000000E+00  0.45593999997E+02  0.45594000000E+02  0.51100000000E-03 0.  1.
         11   -1    0    0    0    0 -0.00000000000E+00 -0.00000000000E+00 -0.45593999997E+02  0.45594000000E+02  0.51100000000E-03 0. -1.
    9900012    2    1    2    0    0 -0.35206248295E+02 -0.24925318836E+01 -0.27989655272E+02  0.46142318337E+02  0.10000005254E+02 0.  0.
        -12    1    1    2    0    0  0.35206248295E+02  0.24925318836E+01  0.27989655272E+02  0.45045681663E+02  0.00000000000E+00 0.  1.
         11    1    3    3    0    0 -0.15003681695E+01  0.43238541543E+00 -0.32561026226E+01  0.36111308951E+01  0.51100000000E-03 0. -1.
        -11    1    3    3    0    0 -0.52124128295E+01 -0.30593428257E+01 -0.53270278377E+01  0.80564292261E+01  0.51100000000E-03 0.  1.
         12    1    3    3    0    0 -0.28493467296E+02  0.13442552664E+00 -0.19406524812E+02  0.34474758216E+02  0.00000000000E+00 0. -1.
</event>
<event>
 7    1  0.2031146E-008  0.4614232E+02  0.7816164E-02  0.1320468E+00
        -11   -1    0    0    0    0  0.00000000000E+00  0.00000000000E+00  0.45593999997E+02  0.45594000000E+02  0.51100000000E-03 0.  1.
         11   -1    0    0    0    0 -0.00000000000E+00 -0.00000000000E+00 -0.45593999997E+02  0.45594000000E+02  0.51100000000E-03 0. -1.
    9900012    2    1    2    0    0  0.41784930744E+02 -0.12942235371E+02 -0.10753213800E+02  0.46142317624E+02  0.99999987512E+01 0.  0.
        -12    1    1    2    0    0 -0.41784930744E+02  0.12942235371E+02  0.10753213800E+02  0.45045682376E+02  0.00000000000E+00 0.  1.
         11    1    3    3    0    0  0.20824002699E+02 -0.50990876320E+01 -0.22322863496E+01  0.21555112750E+02  0.51100000000E-03 0. -1.
        -11    1    3    3    0    0  0.21473708445E+01  0.34488057211E+00  0.40390426800E+00  0.22120766424E+01  0.51100000000E-03 0.  1.
        -12    1    3    3    0    0  0.18813557201E+02 -0.81880283115E+01 -0.89248317182E+01  0.22375128231E+02  0.00000000000E+00 0.  1.
</event>
<event>
 7    1  0.2031146E-008  0.4614232E+02  0.7816164E-02  0.1320468E+00
        -11   -1    0    0    0    0  0.00000000000E+00  0.00000000000E+00  0.45593999997E+02  0.45594000000E+02  0.51100000000E-03 0.  1.
         11   -1    0    0    0    0 -0.00000000000E+00 -0.00000000000E+00 -0.45593999997E+02  0.45594000000E+02  0.51100000000E-03 0. -1.
    9900012    2    1    2    0    0  0.23710097952E+02  0.15707132467E+02 -0.34931793077E+02  0.46142324039E+02  0.10000057243E+02 0.  0.
        -12    1    1    2    0    0 -0.23710097952E+02 -0.15707132467E+02  0.34931793077E+02  0.45045675961E+02  0.00000000000E+00 0.  1.
         11    1    3    3    0    0  0.13764449105E+02  0.12103488077E+02 -0.23972885552E+02  0.30177039695E+02  0.51100000000E-03 0. -1.
        -11    1    3    3    0    0  0.52739565405E+01  0.21357092349E+01 -0.90897675385E+01  0.10723793438E+02  0.51100000000E-03 0.  1.
        -12    1    3    3    0    0  0.46716923064E+01  0.14679351552E+01 -0.18691399862E+01  0.52414909056E+01  0.00000000000E+00 0.  1.
</event>
<event>
 7    1  0.2031146E-008  0.4614232E+02  0.7816164E-02  0.1320468E+00
        -11   -1    0    0    0    0  0.00000000000E+00  0.00000000000E+00  0.45593999997E+02  0.45594000000E+02  0.51100000000E-03 0.  1.
         11   -1    0    0    0    0 -0.00000000000E+00 -0.00000000000E+00 -0.45593999997E+02  0.45594000000E+02  0.51100000000E-03 0. -1.
    9900012    2    1    2    0    0 -0.38451051728E+02  0.21098681881E+02 -0.10270134448E+02  0.46142318546E+02  0.10000007157E+02 0.  0.
        -12    1    1    2    0    0  0.38451051728E+02 -0.21098681881E+02  0.10270134448E+02  0.45045681454E+02  0.00000000000E+00 0.  1.
         11    1    3    3    0    0 -0.79756234851E+01  0.11317653099E+01 -0.21479359187E+01  0.83369713724E+01  0.51100000000E-03 0. -1.
        -11    1    3    3    0    0 -0.72821861354E+01  0.22503147753E+01 -0.48712032696E+00  0.76375020768E+01  0.51100000000E-03 0.  1.
         12    1    3    3    0    0 -0.23193242107E+02  0.17716601795E+02 -0.76350782027E+01  0.30167845097E+02  0.00000000000E+00 0. -1.
</event>
<event>
 7    1  0.2031146E-008  0.4614231E+02  0.7816164E-02  0.1320468E+00
        -11   -1    0    0    0    0  0.00000000000E+00  0.00000000000E+00  0.45593999997E+02  0.45594000000E+02  0.51100000000E-03 0.  1.
         11   -1    0    0    0    0 -0.00000000000E+00 -0.00000000000E+00 -0.45593999997E+02  0.45594000000E+02  0.51100000000E-03 0. -1.
    9900012    2    1    2    0    0  0.14688216199E+02 -0.41614457257E+02 -0.90336716317E+01  0.46142312403E+02  0.99999511408E+01 0.  0.
        -12    1    1    2    0    0 -0.14688216199E+02  0.41614457257E+02  0.90336716317E+01  0.45045687597E+02  0.00000000000E+00 0.  1.
         11    1    3    3    0    0  0.97470396996E+01 -0.20025439379E+02 -0.60122185581E+01  0.23068805289E+02  0.51100000000E-03 0. -1.
        -11    1    3    3    0    0  0.46742229935E+01 -0.21939527994E+02 -0.30080491015E+01  0.22632711036E+02  0.51100000000E-03 0.  1.
         12    1    3    3    0    0  0.26695350607E+00  0.35051011555E+00 -0.13403972031E-01  0.44079607754E+00  0.00000000000E+00 0. -1.
</event>
<event>
 7    1  0.2031146E-008  0.4614232E+02  0.7816164E-02  0.1320468E+00
        -11   -1    0    0    0    0  0.00000000000E+00  0.00000000000E+00  0.45593999997E+02  0.45594000000E+02  0.51100000000E-03 0. -1.
         11   -1    0    0    0    0 -0.00000000000E+00 -0.00000000000E+00 -0.45593999997E+02  0.45594000000E+02  0.51100000000E-03 0.  1.
    9900012    2    1    2    0    0 -0.35473775960E+02 -0.16328071761E+02  0.22452590644E+02  0.46142317244E+02  0.99999952853E+01 0.  0.
        -12    1    1    2    0    0  0.35473775960E+02  0.16328071761E+02 -0.22452590644E+02  0.45045682756E+02  0.00000000000E+00 0.  1.
         11    1    3    3    0    0 -0.23451509624E+02 -0.77186553745E+01  0.16675829774E+02  0.29793191225E+02  0.51100000000E-03 0. -1.
        -11    1    3    3    0    0 -0.24241376341E+01 -0.31002142551E+01  0.29742212615E+01  0.49329265219E+01  0.51100000000E-03 0.  1.
        -12    1    3    3    0    0 -0.95981287018E+01 -0.55092021318E+01  0.28025396084E+01  0.11416199497E+02  0.00000000000E+00 0.  1.
</event>
<event>
 7    1  0.2031146E-008  0.4614232E+02  0.7816164E-02  0.1320468E+00
        -11   -1    0    0    0    0  0.00000000000E+00  0.00000000000E+00  0.45593999997E+02  0.45594000000E+02  0.51100000000E-03 0. -1.
         11   -1    0    0    0    0 -0.00000000000E+00 -0.00000000000E+00 -0.45593999997E+02  0.45594000000E+02  0.51100000000E-03 0.  1.
    9900012    2    1    2    0    0 -0.10899972332E+02  0.46522582246E+00  0.43704549522E+02  0.46142317845E+02  0.10000000762E+02 0.  0.
        -12    1    1    2    0    0  0.10899972332E+02 -0.46522582246E+00 -0.43704549522E+02  0.45045682155E+02  0.00000000000E+00 0.  1.
         11    1    3    3    0    0 -0.69988164698E+01 -0.14697733609E+01  0.27799086515E+02  0.28704230995E+02  0.51100000000E-03 0. -1.
        -11    1    3    3    0    0  0.14792999441E+01  0.51883772434E+00  0.30154165960E+01  0.33985671123E+01  0.51100000000E-03 0.  1.
        -12    1    3    3    0    0 -0.53804558059E+01  0.14161614591E+01  0.12890046412E+02  0.14039519737E+02  0.00000000000E+00 0.  1.
</event>
<event>
 7    1  0.2031146E-008  0.4614232E+02  0.7816164E-02  0.1320468E+00
        -11   -1    0    0    0    0  0.00000000000E+00  0.00000000000E+00  0.45593999997E+02  0.45594000000E+02  0.51100000000E-03 0.  1.
         11   -1    0    0    0    0 -0.00000000000E+00 -0.00000000000E+00 -0.45593999997E+02  0.45594000000E+02  0.51100000000E-03 0. -1.
    9900012    2    1    2    0    0 -0.16629878573E+02 -0.31556220392E+02 -0.27509372357E+02  0.46142317918E+02  0.10000001426E+02 0.  0.
        -12    1    1    2    0    0  0.16629878573E+02  0.31556220392E+02  0.27509372357E+02  0.45045682082E+02  0.00000000000E+00 0.  1.
         11    1    3    3    0    0 -0.72733656772E+01 -0.19653353504E+02 -0.19801810891E+02  0.28831716339E+02  0.51100000000E-03 0. -1.
        -11    1    3    3    0    0 -0.67522159309E+01 -0.62724888130E+01 -0.54625758286E+01  0.10713368790E+02  0.51100000000E-03 0.  1.
        -12    1    3    3    0    0 -0.26042969653E+01 -0.56303780752E+01 -0.22449856369E+01  0.65972327883E+01  0.00000000000E+00 0.  1.
</event>
<event>
 7    1  0.2031146E-008  0.4614232E+02  0.7816164E-02  0.1320468E+00
        -11   -1    0    0    0    0  0.00000000000E+00  0.00000000000E+00  0.45593999997E+02  0.45594000000E+02  0.51100000000E-03 0.  1.
         11   -1    0    0    0    0 -0.00000000000E+00 -0.00000000000E+00 -0.45593999997E+02  0.45594000000E+02  0.51100000000E-03 0. -1.
    9900012    2    1    2    0    0 -0.25917315130E+02 -0.32507424170E+02 -0.17339942985E+02  0.46142317938E+02  0.10000001617E+02 0.  0.
        -12    1    1    2    0    0  0.25917315130E+02  0.32507424170E+02  0.17339942985E+02  0.45045682062E+02  0.00000000000E+00 0.  1.
         11    1    3    3    0    0 -0.66986584775E+01 -0.12568222426E+02 -0.42756249954E+01  0.14869875914E+02  0.51100000000E-03 0. -1.
        -11    1    3    3    0    0 -0.72900304255E+01 -0.39429525096E+01 -0.23063402763E+01  0.86029427424E+01  0.51100000000E-03 0.  1.
        -12    1    3    3    0    0 -0.11928626227E+02 -0.15996249234E+02 -0.10757977713E+02  0.22669499282E+02  0.00000000000E+00 0.  1.
</event>
<event>
 7    1  0.2031146E-008  0.4614232E+02  0.7816164E-02  0.1320468E+00
        -11   -1    0    0    0    0  0.00000000000E+00  0.00000000000E+00  0.45593999997E+02  0.45594000000E+02  0.51100000000E-03 0.  1.
         11   -1    0    0    0    0 -0.00000000000E+00 -0.00000000000E+00 -0.45593999997E+02  0.45594000000E+02  0.51100000000E-03 0. -1.
    9900012    2    1    2    0    0 -0.21270869232E+02  0.65636128779E+01 -0.39160983508E+02  0.46142317397E+02  0.99999966798E+01 0.  0.
        -12    1    1    2    0    0  0.21270869232E+02 -0.65636128779E+01  0.39160983508E+02  0.45045682603E+02  0.00000000000E+00 0.  1.
         11    1    3    3    0    0  0.34503270558E+00 -0.61705336936E+00 -0.35758404614E+01  0.36450566107E+01  0.51100000000E-03 0. -1.
        -11    1    3    3    0    0 -0.97753087802E+01  0.56321498722E+01 -0.17865254349E+02  0.21129247198E+02  0.51100000000E-03 0.  1.
         12    1    3    3    0    0 -0.11840593157E+02  0.15485163750E+01 -0.17719888697E+02  0.21368013588E+02  0.00000000000E+00 0. -1.
</event>
<event>
 7    1  0.2031146E-008  0.4614232E+02  0.7816164E-02  0.1320468E+00
        -11   -1    0    0    0    0  0.00000000000E+00  0.00000000000E+00  0.45593999997E+02  0.45594000000E+02  0.51100000000E-03 0. -1.
         11   -1    0    0    0    0 -0.00000000000E+00 -0.00000000000E+00 -0.45593999997E+02  0.45594000000E+02  0.51100000000E-03 0.  1.
    9900012    2    1    2    0    0  0.92110984794E+01  0.40760033843E+02  0.16819302520E+02  0.46142316174E+02  0.99999855258E+01 0.  0.
        -12    1    1    2    0    0 -0.92110984794E+01 -0.40760033843E+02 -0.16819302520E+02  0.45045683826E+02  0.00000000000E+00 0.  1.
         11    1    3    3    0    0  0.29880923560E+01  0.13554518474E+02  0.62658730369E+01  0.15228750184E+02  0.51100000000E-03 0. -1.
        -11    1    3    3    0    0  0.27650054515E+01  0.21436264449E+01  0.27127176139E+01  0.44271013763E+01  0.51100000000E-03 0.  1.
        -12    1    3    3    0    0  0.34580006719E+01  0.25061888924E+02  0.78407118690E+01  0.26486464613E+02  0.00000000000E+00 0.  1.
</event>
<event>
 7    1  0.2031146E-008  0.4614232E+02  0.7816164E-02  0.1320468E+00
        -11   -1    0    0    0    0  0.00000000000E+00  0.00000000000E+00  0.45593999997E+02  0.45594000000E+02  0.51100000000E-03 0. -1.
         11   -1    0    0    0    0 -0.00000000000E+00 -0.00000000000E+00 -0.45593999997E+02  0.45594000000E+02  0.51100000000E-03 0.  1.
    9900012    2    1    2    0    0 -0.27963588662E+00 -0.18899434889E+02  0.40888221248E+02  0.46142317941E+02  0.10000001640E+02 0.  0.
        -12    1    1    2    0    0  0.27963588662E+00  0.18899434889E+02 -0.40888221248E+02  0.45045682059E+02  0.00000000000E+00 0.  1.
         11    1    3    3    0    0  0.26111373065E+01 -0.12633820374E+02  0.27446653519E+02  0.30327384407E+02  0.51100000000E-03 0. -1.
        -11    1    3    3    0    0 -0.76255471758E+00  0.48868545469E+00  0.34588677090E+01  0.35754816823E+01  0.51100000000E-03 0.  1.
        -12    1    3    3    0    0 -0.21282184756E+01 -0.67542999699E+01  0.99827000194E+01  0.12239451852E+02  0.00000000000E+00 0.  1.
</event>
<event>
 7    1  0.2031146E-008  0.4614231E+02  0.7816164E-02  0.1320468E+00
        -11   -1    0    0    0    0  0.00000000000E+00  0.00000000000E+00  0.45593999997E+02  0.45594000000E+02  0.51100000000E-03 0. -1.
         11   -1    0    0    0    0 -0.00000000000E+00 -0.00000000000E+00 -0.45593999997E+02  0.45594000000E+02  0.51100000000E-03 0.  1.
    9900012    2    1    2    0    0 -0.95519964861E+01 -0.71987922793E+01  0.43428688077E+02  0.46142309914E+02  0.99999284478E+01 0.  0.
        -12    1    1    2    0    0  0.95519964861E+01  0.71987922793E+01 -0.43428688077E+02  0.45045690086E+02  0.00000000000E+00 0.  1.
         11    1    3    3    0    0 -0.56596274794E+01 -0.49230496785E+01  0.21618719979E+02  0.22883112881E+02  0.51100000000E-03 0. -1.
        -11    1    3    3    0    0  0.13114085141E+01  0.15340999666E+00  0.10420374564E+02  0.10503691410E+02  0.51100000000E-03 0.  1.
        -12    1    3    3    0    0 -0.52037775208E+01 -0.24291525974E+01  0.11389593534E+02  0.12755505623E+02  0.00000000000E+00 0.  1.
</event>
<event>
 7    1  0.2031146E-008  0.4614232E+02  0.7816164E-02  0.1320468E+00
        -11   -1    0    0    0    0  0.00000000000E+00  0.00000000000E+00  0.45593999997E+02  0.45594000000E+02  0.51100000000E-03 0. -1.
         11   -1    0    0    0    0 -0.00000000000E+00 -0.00000000000E+00 -0.45593999997E+02  0.45594000000E+02  0.51100000000E-03 0.  1.
    9900012    2    1    2    0    0  0.19482337300E+02  0.36625912286E+02  0.17552623040E+02  0.46142317709E+02  0.99999995239E+01 0.  0.
        -12    1    1    2    0    0 -0.19482337300E+02 -0.36625912286E+02 -0.17552623040E+02  0.45045682291E+02  0.00000000000E+00 0.  1.
         11    1    3    3    0    0  0.99895198590E+01  0.20601889743E+02  0.77824625770E+01  0.24182536923E+02  0.51100000000E-03 0. -1.
        -11    1    3    3    0    0 -0.91877006272E-01  0.30859395831E+01  0.35343703422E+01  0.46928923354E+01  0.51100000000E-03 0.  1.
        -12    1    3    3    0    0  0.95846944476E+01  0.12938082960E+02  0.62357901208E+01  0.17266888450E+02  0.00000000000E+00 0.  1.
</event>
<event>
 7    1  0.2031146E-008  0.4614232E+02  0.7816164E-02  0.1320468E+00
        -11   -1    0    0    0    0  0.00000000000E+00  0.00000000000E+00  0.45593999997E+02  0.45594000000E+02  0.51100000000E-03 0.  1.
         11   -1    0    0    0    0 -0.00000000000E+00 -0.00000000000E+00 -0.45593999997E+02  0.45594000000E+02  0.51100000000E-03 0. -1.
    9900012    2    1    2    0    0  0.23498089605E+02  0.19777613664E+02 -0.32951466992E+02  0.46142318806E+02  0.10000009529E+02 0.  0.
        -12    1    1    2    0    0 -0.23498089605E+02 -0.19777613664E+02  0.32951466992E+02  0.45045681194E+02  0.00000000000E+00 0.  1.
         11    1    3    3    0    0  0.22806969148E+01  0.17664430108E+01 -0.53282969473E+01  0.60590962979E+01  0.51100000000E-03 0.  1.
        -11    1    3    3    0    0  0.82363779222E+01  0.85620473541E+01 -0.17329588331E+02  0.21010978277E+02  0.51100000000E-03 0. -1.
         12    1    3    3    0    0  0.12981014768E+02  0.94491232987E+01 -0.10293581713E+02  0.19072244231E+02  0.00000000000E+00 0. -1.
</event>
<event>
 7    1  0.2031146E-008  0.4614232E+02  0.7816164E-02  0.1320468E+00
        -11   -1    0    0    0    0  0.00000000000E+00  0.00000000000E+00  0.45593999997E+02  0.45594000000E+02  0.51100000000E-03 0.  1.
         11   -1    0    0    0    0 -0.00000000000E+00 -0.00000000000E+00 -0.45593999997E+02  0.45594000000E+02  0.51100000000E-03 0. -1.
    9900012    2    1    2    0    0  0.20961863265E+02  0.83737099306E+01 -0.38981979592E+02  0.46142318049E+02  0.10000002624E+02 0.  0.
        -12    1    1    2    0    0 -0.20961863265E+02 -0.83737099306E+01  0.38981979592E+02  0.45045681951E+02  0.00000000000E+00 0.  1.
         11    1    3    3    0    0  0.49208716883E+01  0.50449498040E+00 -0.11403529248E+02  0.12430204059E+02  0.51100000000E-03 0. -1.
        -11    1    3    3    0    0  0.77643775374E+01  0.30252213823E+01 -0.19379508941E+02  0.21095091609E+02  0.51100000000E-03 0.  1.
         12    1    3    3    0    0  0.82766140389E+01  0.48439935679E+01 -0.81989414029E+01  0.12617022381E+02  0.00000000000E+00 0. -1.
</event>
<event>
 7    1  0.2031146E-008  0.4614232E+02  0.7816164E-02  0.1320468E+00
        -11   -1    0    0    0    0  0.00000000000E+00  0.00000000000E+00  0.45593999997E+02  0.45594000000E+02  0.51100000000E-03 0. -1.
         11   -1    0    0    0    0 -0.00000000000E+00 -0.00000000000E+00 -0.45593999997E+02  0.45594000000E+02  0.51100000000E-03 0.  1.
    9900012    2    1    2    0    0 -0.25275113020E+02 -0.16335900692E+02  0.33517466104E+02  0.46142317369E+02  0.99999964286E+01 0.  0.
        -12    1    1    2    0    0  0.25275113020E+02  0.16335900692E+02 -0.33517466104E+02  0.45045682631E+02  0.00000000000E+00 0.  1.
         11    1    3    3    0    0  0.22436190998E+00 -0.15352715338E+01  0.12217699419E+01  0.19748718949E+01  0.51100000000E-03 0.  1.
        -11    1    3    3    0    0 -0.11509923677E+02 -0.39657624380E+01  0.16061859263E+02  0.20154129552E+02  0.51100000000E-03 0. -1.
         12    1    3    3    0    0 -0.13989551253E+02 -0.10834866720E+02  0.16233836900E+02  0.24013315922E+02  0.00000000000E+00 0. -1.
</event>
<event>
 7    1  0.2031146E-008  0.4614232E+02  0.7816164E-02  0.1320468E+00
        -11   -1    0    0    0    0  0.00000000000E+00  0.00000000000E+00  0.45593999997E+02  0.45594000000E+02  0.51100000000E-03 0. -1.
         11   -1    0    0    0    0 -0.00000000000E+00 -0.00000000000E+00 -0.45593999997E+02  0.45594000000E+02  0.51100000000E-03 0.  1.
    9900012    2    1    2    0    0  0.22483987975E+02 -0.38648706816E+02 -0.54645354525E+01  0.46142318725E+02  0.10000008790E+02 0.  0.
        -12    1    1    2    0    0 -0.22483987975E+02  0.38648706816E+02  0.54645354525E+01  0.45045681275E+02  0.00000000000E+00 0.  1.
         11    1    3    3    0    0  0.46456566493E+01 -0.14850845206E+02 -0.18802171063E+01  0.15673702360E+02  0.51100000000E-03 0. -1.
        -11    1    3    3    0    0  0.20094570723E+01 -0.73768437734E+00 -0.10492085804E+01  0.23838907006E+01  0.51100000000E-03 0.  1.
         12    1    3    3    0    0  0.15828874253E+02 -0.23060177233E+02 -0.25351097658E+01  0.28084725665E+02  0.00000000000E+00 0. -1.
</event>
<event>
 7    1  0.2031146E-008  0.4614232E+02  0.7816164E-02  0.1320468E+00
        -11   -1    0    0    0    0  0.00000000000E+00  0.00000000000E+00  0.45593999997E+02  0.45594000000E+02  0.51100000000E-03 0. -1.
         11   -1    0    0    0    0 -0.00000000000E+00 -0.00000000000E+00 -0.45593999997E+02  0.45594000000E+02  0.51100000000E-03 0.  1.
    9900012    2    1    2    0    0 -0.43098598096E+02  0.11916594322E+02 -0.54423271838E+01  0.46142319816E+02  0.10000018736E+02 0.  0.
        -12    1    1    2    0    0  0.43098598096E+02 -0.11916594322E+02  0.54423271838E+01  0.45045680184E+02  0.00000000000E+00 0.  1.
         11    1    3    3    0    0 -0.27310354901E+02  0.68341168221E+01 -0.31938002567E+01  0.28333037216E+02  0.51100000000E-03 0.  1.
        -11    1    3    3    0    0 -0.15642002400E+02  0.40003198340E+01 -0.10376472997E+01  0.16178736355E+02  0.51100000000E-03 0. -1.
        -12    1    3    3    0    0 -0.14624079504E+00  0.10821576662E+01 -0.12108796274E+01  0.16305462449E+01  0.00000000000E+00 0.  1.
</event>
<event>
 7    1  0.2152576E-008  0.4614232E+02  0.7816164E-02  0.1320468E+00
        -11   -1    0    0    0    0  0.00000000000E+00  0.00000000000E+00  0.45593999997E+02  0.45594000000E+02  0.51100000000E-03 0. -1.
         11   -1    0    0    0    0 -0.00000000000E+00 -0.00000000000E+00 -0.45593999997E+02  0.45594000000E+02  0.51100000000E-03 0.  1.
    9900012    2    1    2    0    0  0.32099306455E+02 -0.28494877967E+02 -0.13667110902E+02  0.46142318013E+02  0.10000002298E+02 0.  0.
        -12    1    1    2    0    0 -0.32099306455E+02  0.28494877967E+02  0.13667110902E+02  0.45045681987E+02  0.00000000000E+00 0.  1.
         11    1    3    3    0    0  0.12009023685E+02 -0.12974345879E+02 -0.59850888734E+01  0.18664715104E+02  0.51100000000E-03 0. -1.
        -11    1    3    3    0    0  0.20453704150E+02 -0.14579072757E+02 -0.80909015498E+01  0.26388748816E+02  0.51100000000E-03 0.  1.
        -12    1    3    3    0    0 -0.36342138001E+00 -0.94145933207E+00  0.40887952123E+00  0.10888540932E+01  0.00000000000E+00 0.  1.
</event>
<event>
 7    1  0.2031146E-008  0.4614232E+02  0.7816164E-02  0.1320468E+00
        -11   -1    0    0    0    0  0.00000000000E+00  0.00000000000E+00  0.45593999997E+02  0.45594000000E+02  0.51100000000E-03 0. -1.
         11   -1    0    0    0    0 -0.00000000000E+00 -0.00000000000E+00 -0.45593999997E+02  0.45594000000E+02  0.51100000000E-03 0.  1.
    9900012    2    1    2    0    0  0.37030157824E+02 -0.25213522099E+02  0.47073668893E+01  0.46142316654E+02  0.99999899028E+01 0.  0.
        -12    1    1    2    0    0 -0.37030157824E+02  0.25213522099E+02 -0.47073668893E+01  0.45045683346E+02  0.00000000000E+00 0.  1.
         11    1    3    3    0    0  0.16841302705E+02 -0.14092108711E+02  0.30558152683E+01  0.22171039938E+02  0.51100000000E-03 0. -1.
        -11    1    3    3    0    0  0.88634951085E+01 -0.23698196007E+01  0.28530714385E+01  0.96082052108E+01  0.51100000000E-03 0.  1.
         12    1    3    3    0    0  0.11325360010E+02 -0.87515937874E+01 -0.12015198175E+01  0.14363071505E+02  0.00000000000E+00 0. -1.
</event>
<event>
 7    1  0.2031146E-008  0.4614232E+02  0.7816164E-02  0.1320468E+00
        -11   -1    0    0    0    0  0.00000000000E+00  0.00000000000E+00  0.45593999997E+02  0.45594000000E+02  0.51100000000E-03 0.  1.
         11   -1    0    0    0    0 -0.00000000000E+00 -0.00000000000E+00 -0.45593999997E+02  0.45594000000E+02  0.51100000000E-03 0. -1.
    9900012    2    1    2    0    0 -0.12965878273E+02  0.25203684729E+02 -0.35011044064E+02  0.46142323962E+02  0.10000056541E+02 0.  0.
        -12    1    1    2    0    0  0.12965878273E+02 -0.25203684729E+02  0.35011044064E+02  0.45045676038E+02  0.00000000000E+00 0.  1.
         11    1    3    3    0    0  0.13153768287E+01  0.17343184772E+01 -0.38039439620E+01  0.43827008464E+01  0.51100000000E-03 0. -1.
        -11    1    3    3    0    0 -0.42196782771E+01  0.84743306370E+01 -0.13328768880E+02  0.16348579284E+02  0.51100000000E-03 0.  1.
         12    1    3    3    0    0 -0.10061576824E+02  0.14995035615E+02 -0.17878331222E+02  0.25411043831E+02  0.00000000000E+00 0. -1.
</event>
<event>
 7    1  0.2031146E-008  0.4614232E+02  0.7816164E-02  0.1320468E+00
        -11   -1    0    0    0    0  0.00000000000E+00  0.00000000000E+00  0.45593999997E+02  0.45594000000E+02  0.51100000000E-03 0.  1.
         11   -1    0    0    0    0 -0.00000000000E+00 -0.00000000000E+00 -0.45593999997E+02  0.45594000000E+02  0.51100000000E-03 0. -1.
    9900012    2    1    2    0    0  0.13246035242E+02 -0.38012458350E+02 -0.20216551833E+02  0.46142318659E+02  0.10000008189E+02 0.  0.
        -12    1    1    2    0    0 -0.13246035242E+02  0.38012458350E+02  0.20216551833E+02  0.45045681341E+02  0.00000000000E+00 0.  1.
         11    1    3    3    0    0  0.74409212036E+01 -0.25106963853E+02 -0.13674749924E+02  0.29541931691E+02  0.51100000000E-03 0. -1.
        -11    1    3    3    0    0  0.16105615641E+01 -0.25147333085E+01  0.93532973951E+00  0.31293184796E+01  0.51100000000E-03 0.  1.
        -12    1    3    3    0    0  0.41945524744E+01 -0.10390761189E+02 -0.74771316483E+01  0.13471068489E+02  0.00000000000E+00 0.  1.
</event>
<event>
 7    1  0.2031146E-008  0.4614232E+02  0.7816164E-02  0.1320468E+00
        -11   -1    0    0    0    0  0.00000000000E+00  0.00000000000E+00  0.45593999997E+02  0.45594000000E+02  0.51100000000E-03 0. -1.
         11   -1    0    0    0    0 -0.00000000000E+00 -0.00000000000E+00 -0.45593999997E+02  0.45594000000E+02  0.51100000000E-03 0.  1.
    9900012    2    1    2    0    0 -0.63014453538E+01 -0.72254496530E+01  0.44013612863E+02  0.46142318149E+02  0.10000003533E+02 0.  0.
        -12    1    1    2    0    0  0.63014453538E+01  0.72254496530E+01 -0.44013612863E+02  0.45045681851E+02  0.00000000000E+00 0.  1.
         11    1    3    3    0    0 -0.27707427325E+01  0.10151448130E+01  0.10486600473E+02  0.10893866349E+02  0.51100000000E-03 0. -1.
        -11    1    3    3    0    0 -0.47533762688E+01 -0.36184266886E+01  0.15923870557E+02  0.17007564536E+02  0.51100000000E-03 0.  1.
         12    1    3    3    0    0  0.12226736476E+01 -0.46221677774E+01  0.17603141832E+02  0.18240887264E+02  0.00000000000E+00 0. -1.
</event>
<event>
 7    1  0.2031146E-008  0.4614232E+02  0.7816164E-02  0.1320468E+00
        -11   -1    0    0    0    0  0.00000000000E+00  0.00000000000E+00  0.45593999997E+02  0.45594000000E+02  0.51100000000E-03 0.  1.
         11   -1    0    0    0    0 -0.00000000000E+00 -0.00000000000E+00 -0.45593999997E+02  0.45594000000E+02  0.51100000000E-03 0. -1.
    9900012    2    1    2    0    0 -0.61304400821E+01 -0.34699307532E+02  0.28062242431E+02  0.46142315534E+02  0.99999796898E+01 0.  0.
        -12    1    1    2    0    0  0.61304400821E+01  0.34699307532E+02 -0.28062242431E+02  0.45045684466E+02  0.00000000000E+00 0.  1.
         11    1    3    3    0    0  0.14268802060E+01 -0.30286587567E+01  0.22371610013E+01  0.40266177611E+01  0.51100000000E-03 0. -1.
        -11    1    3    3    0    0 -0.53491700007E+01 -0.92298407073E+01  0.72141862750E+01  0.12878201080E+02  0.51100000000E-03 0.  1.
         12    1    3    3    0    0 -0.22081502874E+01 -0.22440808068E+02  0.18610895154E+02  0.29237496693E+02  0.00000000000E+00 0. -1.
</event>
<event>
 7    1  0.2031146E-008  0.4614232E+02  0.7816164E-02  0.1320468E+00
        -11   -1    0    0    0    0  0.00000000000E+00  0.00000000000E+00  0.45593999997E+02  0.45594000000E+02  0.51100000000E-03 0.  1.
         11   -1    0    0    0    0 -0.00000000000E+00 -0.00000000000E+00 -0.45593999997E+02  0.45594000000E+02  0.51100000000E-03 0. -1.
    9900012    2    1    2    0    0  0.55005832297E+00  0.41665096740E+02 -0.17112295035E+02  0.46142317722E+02  0.99999996465E+01 0.  0.
        -12    1    1    2    0    0 -0.55005832297E+00 -0.41665096740E+02  0.17112295035E+02  0.45045682278E+02  0.00000000000E+00 0.  1.
         11    1    3    3    0    0  0.33470614803E+01  0.20636349646E+02 -0.55890787165E+01  0.21640229861E+02  0.51100000000E-03 0. -1.
        -11    1    3    3    0    0 -0.56885194620E-01  0.12718254343E+02 -0.53748763382E+01  0.13807480776E+02  0.51100000000E-03 0.  1.
        -12    1    3    3    0    0 -0.27401179627E+01  0.83104927508E+01 -0.61483399800E+01  0.10694607086E+02  0.00000000000E+00 0.  1.
</event>
<event>
 7    1  0.2031146E-008  0.4614232E+02  0.7816164E-02  0.1320468E+00
        -11   -1    0    0    0    0  0.00000000000E+00  0.00000000000E+00  0.45593999997E+02  0.45594000000E+02  0.51100000000E-03 0.  1.
         11   -1    0    0    0    0 -0.00000000000E+00 -0.00000000000E+00 -0.45593999997E+02  0.45594000000E+02  0.51100000000E-03 0. -1.
    9900012    2    1    2    0    0 -0.34784314591E+01 -0.44869948801E+02 -0.19239689950E+01  0.46142318215E+02  0.10000004140E+02 0.  0.
        -12    1    1    2    0    0  0.34784314591E+01  0.44869948801E+02  0.19239689950E+01  0.45045681785E+02  0.00000000000E+00 0.  1.
         11    1    3    3    0    0 -0.16263512759E+01 -0.21669839248E+02 -0.42533510062E+01  0.22143124137E+02  0.51100000000E-03 0. -1.
        -11    1    3    3    0    0 -0.26761247755E+01 -0.98927279933E+01 -0.87836615174E+00  0.10285875671E+02  0.51100000000E-03 0.  1.
        -12    1    3    3    0    0  0.82404459227E+00 -0.13307381560E+02  0.32077481629E+01  0.13713318407E+02  0.00000000000E+00 0.  1.
</event>
<event>
 7    1  0.2031146E-008  0.4614232E+02  0.7816164E-02  0.1320468E+00
        -11   -1    0    0    0    0  0.00000000000E+00  0.00000000000E+00  0.45593999997E+02  0.45594000000E+02  0.51100000000E-03 0.  1.
         11   -1    0    0    0    0 -0.00000000000E+00 -0.00000000000E+00 -0.45593999997E+02  0.45594000000E+02  0.51100000000E-03 0. -1.
    9900012    2    1    2    0    0  0.37106825677E+02  0.58786478859E+01 -0.24852333794E+02  0.46142317545E+02  0.99999980317E+01 0.  0.
        -12    1    1    2    0    0 -0.37106825677E+02 -0.58786478859E+01  0.24852333794E+02  0.45045682455E+02  0.00000000000E+00 0.  1.
         11    1    3    3    0    0  0.13110444858E+02  0.23180978209E+01 -0.10927835119E+02  0.17224253903E+02  0.51100000000E-03 0.  1.
        -11    1    3    3    0    0  0.89736262907E+01  0.48543028493E+01 -0.46180885412E+01  0.11198971694E+02  0.51100000000E-03 0. -1.
        -12    1    3    3    0    0  0.15022754529E+02 -0.12937527842E+01 -0.93064101338E+01  0.17719091948E+02  0.00000000000E+00 0.  1.
</event>
<event>
 7    1  0.2031146E-008  0.4614231E+02  0.7816164E-02  0.1320468E+00
        -11   -1    0    0    0    0  0.00000000000E+00  0.00000000000E+00  0.45593999997E+02  0.45594000000E+02  0.51100000000E-03 0.  1.
         11   -1    0    0    0    0 -0.00000000000E+00 -0.00000000000E+00 -0.45593999997E+02  0.45594000000E+02  0.51100000000E-03 0. -1.
    9900012    2    1    2    0    0 -0.50422057673E+00 -0.22271057093E+01 -0.44987778486E+02  0.46142307072E+02  0.99999025307E+01 0.  0.
        -12    1    1    2    0    0  0.50422057673E+00  0.22271057093E+01  0.44987778486E+02  0.45045692928E+02  0.00000000000E+00 0.  1.
         11    1    3    3    0    0  0.25513470381E+01  0.89863353614E+00 -0.21960796824E+02  0.22126760074E+02  0.51100000000E-03 0. -1.
        -11    1    3    3    0    0 -0.25889333206E+01 -0.52697828446E+00 -0.39214133460E+01  0.47283998078E+01  0.51100000000E-03 0.  1.
        -12    1    3    3    0    0 -0.46663429428E+00 -0.25987609610E+01 -0.19105568316E+02  0.19287147191E+02  0.00000000000E+00 0.  1.
</event>
<event>
 7    1  0.2031146E-008  0.4614232E+02  0.7816164E-02  0.1320468E+00
        -11   -1    0    0    0    0  0.00000000000E+00  0.00000000000E+00  0.45593999997E+02  0.45594000000E+02  0.51100000000E-03 0. -1.
         11   -1    0    0    0    0 -0.00000000000E+00 -0.00000000000E+00 -0.45593999997E+02  0.45594000000E+02  0.51100000000E-03 0.  1.
    9900012    2    1    2    0    0  0.29292244120E+02  0.33916647399E+02 -0.45540037823E+01  0.46142317778E+02  0.10000000158E+02 0.  0.
        -12    1    1    2    0    0 -0.29292244120E+02 -0.33916647399E+02  0.45540037823E+01  0.45045682222E+02  0.00000000000E+00 0.  1.
         11    1    3    3    0    0  0.19959524068E+02  0.17586613006E+02 -0.30785998879E+01  0.26779644052E+02  0.51100000000E-03 0. -1.
        -11    1    3    3    0    0  0.50413338787E+01  0.56319885726E+01  0.84159839236E+00  0.76054342857E+01  0.51100000000E-03 0.  1.
        -12    1    3    3    0    0  0.42913861734E+01  0.10698045821E+02 -0.23170022868E+01  0.11757239441E+02  0.00000000000E+00 0.  1.
</event>
<event>
 7    1  0.2031146E-008  0.4614232E+02  0.7816164E-02  0.1320468E+00
        -11   -1    0    0    0    0  0.00000000000E+00  0.00000000000E+00  0.45593999997E+02  0.45594000000E+02  0.51100000000E-03 0.  1.
         11   -1    0    0    0    0 -0.00000000000E+00 -0.00000000000E+00 -0.45593999997E+02  0.45594000000E+02  0.51100000000E-03 0. -1.
    9900012    2    1    2    0    0 -0.39017507115E+02 -0.22294901843E+02 -0.31120776303E+01  0.46142317223E+02  0.99999950976E+01 0.  0.
        -12    1    1    2    0    0  0.39017507115E+02  0.22294901843E+02  0.31120776303E+01  0.45045682777E+02  0.00000000000E+00 0.  1.
         11    1    3    3    0    0 -0.12629893484E+02 -0.56515838565E+01  0.19392479209E+01  0.13971946617E+02  0.51100000000E-03 0. -1.
        -11    1    3    3    0    0 -0.13011700724E+02 -0.51031452339E+01 -0.36695328661E+01  0.14450325904E+02  0.51100000000E-03 0.  1.
        -12    1    3    3    0    0 -0.13375912906E+02 -0.11540172753E+02 -0.13817926851E+01  0.17720044702E+02  0.00000000000E+00 0.  1.
</event>
<event>
 7    1  0.2031146E-008  0.4614232E+02  0.7816164E-02  0.1320468E+00
        -11   -1    0    0    0    0  0.00000000000E+00  0.00000000000E+00  0.45593999997E+02  0.45594000000E+02  0.51100000000E-03 0.  1.
         11   -1    0    0    0    0 -0.00000000000E+00 -0.00000000000E+00 -0.45593999997E+02  0.45594000000E+02  0.51100000000E-03 0. -1.
    9900012    2    1    2    0    0  0.43743583879E+02 -0.20931041613E+01 -0.10546629241E+02  0.46142316478E+02  0.99999883014E+01 0.  0.
        -12    1    1    2    0    0 -0.43743583879E+02  0.20931041613E+01  0.10546629241E+02  0.45045683522E+02  0.00000000000E+00 0.  1.
         11    1    3    3    0    0  0.84473531811E+01  0.67941137704E+00 -0.43136761269E+01  0.95093205632E+01  0.51100000000E-03 0. -1.
        -11    1    3    3    0    0  0.11103546986E+02  0.11104089102E+01 -0.46204751372E+01  0.12077688288E+02  0.51100000000E-03 0.  1.
         12    1    3    3    0    0  0.24192683712E+02 -0.38829244485E+01 -0.16124779772E+01  0.24555307627E+02  0.00000000000E+00 0. -1.
</event>
<event>
 7    1  0.2031146E-008  0.4614232E+02  0.7816164E-02  0.1320468E+00
        -11   -1    0    0    0    0  0.00000000000E+00  0.00000000000E+00  0.45593999997E+02  0.45594000000E+02  0.51100000000E-03 0.  1.
         11   -1    0    0    0    0 -0.00000000000E+00 -0.00000000000E+00 -0.45593999997E+02  0.45594000000E+02  0.51100000000E-03 0. -1.
    9900012    2    1    2    0    0 -0.34489129877E+01  0.35359769893E+02  0.27693053516E+02  0.46142317180E+02  0.99999947016E+01 0.  0.
        -12    1    1    2    0    0  0.34489129877E+01 -0.35359769893E+02 -0.27693053516E+02  0.45045682820E+02  0.00000000000E+00 0.  1.
         11    1    3    3    0    0 -0.17475130687E+01  0.14225197438E+02  0.76732674330E+01  0.16256970118E+02  0.51100000000E-03 0. -1.
        -11    1    3    3    0    0 -0.15908403332E+01  0.43449293144E+01  0.14462524603E+01  0.48477654804E+01  0.51100000000E-03 0.  1.
         12    1    3    3    0    0 -0.11055958591E+00  0.16789643141E+02  0.18573533622E+02  0.25037581581E+02  0.00000000000E+00 0. -1.
</event>
<event>
 7    1  0.2031146E-008  0.4614232E+02  0.7816164E-02  0.1320468E+00
        -11   -1    0    0    0    0  0.00000000000E+00  0.00000000000E+00  0.45593999997E+02  0.45594000000E+02  0.51100000000E-03 0.  1.
         11   -1    0    0    0    0 -0.00000000000E+00 -0.00000000000E+00 -0.45593999997E+02  0.45594000000E+02  0.51100000000E-03 0. -1.
    9900012    2    1    2    0    0 -0.15927315188E+02 -0.27396260103E+02 -0.32013731079E+02  0.46142318583E+02  0.10000007492E+02 0.  0.
        -12    1    1    2    0    0  0.15927315188E+02  0.27396260103E+02  0.32013731079E+02  0.45045681417E+02  0.00000000000E+00 0.  1.
         11    1    3    3    0    0 -0.14974082025E+01 -0.40766967723E+01 -0.37810634525E+01  0.57583095602E+01  0.51100000000E-03 0. -1.
        -11    1    3    3    0    0 -0.10717735729E+02 -0.18839255385E+02 -0.26655760353E+02  0.34355741338E+02  0.51100000000E-03 0.  1.
        -12    1    3    3    0    0 -0.37121712567E+01 -0.44803079460E+01 -0.15769072736E+01  0.60282676848E+01  0.00000000000E+00 0.  1.
</event>
<event>
 7    1  0.2031146E-008  0.4614232E+02  0.7816164E-02  0.1320468E+00
        -11   -1    0    0    0    0  0.00000000000E+00  0.00000000000E+00  0.45593999997E+02  0.45594000000E+02  0.51100000000E-03 0.  1.
         11   -1    0    0    0    0 -0.00000000000E+00 -0.00000000000E+00 -0.45593999997E+02  0.45594000000E+02  0.51100000000E-03 0. -1.
    9900012    2    1    2    0    0 -0.23392659768E+01  0.43479109626E+02 -0.11541592861E+02  0.46142317577E+02  0.99999983238E+01 0.  0.
        -12    1    1    2    0    0  0.23392659768E+01 -0.43479109626E+02  0.11541592861E+02  0.45045682423E+02  0.00000000000E+00 0.  1.
         11    1    3    3    0    0 -0.83337755076E+00  0.14272652436E+02 -0.44224122858E+01  0.14965321793E+02  0.51100000000E-03 0. -1.
        -11    1    3    3    0    0 -0.67444228435E+00  0.14974380488E+02 -0.78134549936E+01  0.16903757647E+02  0.51100000000E-03 0.  1.
        -12    1    3    3    0    0 -0.83144614167E+00  0.14232076702E+02  0.69427441879E+00  0.14273238136E+02  0.00000000000E+00 0.  1.
</event>
<event>
 7    1  0.2031146E-008  0.4614232E+02  0.7816164E-02  0.1320468E+00
        -11   -1    0    0    0    0  0.00000000000E+00  0.00000000000E+00  0.45593999997E+02  0.45594000000E+02  0.51100000000E-03 0.  1.
         11   -1    0    0    0    0 -0.00000000000E+00 -0.00000000000E+00 -0.45593999997E+02  0.45594000000E+02  0.51100000000E-03 0. -1.
    9900012    2    1    2    0    0  0.18742849447E+02  0.31115082699E+02 -0.26639644398E+02  0.46142318404E+02  0.10000005865E+02 0.  0.
        -12    1    1    2    0    0 -0.18742849447E+02 -0.31115082699E+02  0.26639644398E+02  0.45045681596E+02  0.00000000000E+00 0.  1.
         11    1    3    3    0    0  0.64997416555E+01  0.13820422860E+02 -0.83968341580E+01  0.17428641764E+02  0.51100000000E-03 0. -1.
        -11    1    3    3    0    0  0.10432615590E+02  0.17358753121E+02 -0.17461354647E+02  0.26740693415E+02  0.51100000000E-03 0.  1.
        -12    1    3    3    0    0  0.18104922015E+01 -0.64093281700E-01 -0.78145559279E+00  0.19729832245E+01  0.00000000000E+00 0.  1.
</event>
<event>
 7    1  0.2031146E-008  0.4614232E+02  0.7816164E-02  0.1320468E+00
        -11   -1    0    0    0    0  0.00000000000E+00  0.00000000000E+00  0.45593999997E+02  0.45594000000E+02  0.51100000000E-03 0.  1.
         11   -1    0    0    0    0 -0.00000000000E+00 -0.00000000000E+00 -0.45593999997E+02  0.45594000000E+02  0.51100000000E-03 0. -1.
    9900012    2    1    2    0    0  0.21495312057E+02 -0.25625492136E+02 -0.30172821641E+02  0.46142318149E+02  0.10000003533E+02 0.  0.
        -12    1    1    2    0    0 -0.21495312057E+02  0.25625492136E+02  0.30172821641E+02  0.45045681851E+02  0.00000000000E+00 0.  1.
         11    1    3    3    0    0  0.79187303164E+01 -0.80823375324E+01 -0.13421903885E+02  0.17554998547E+02  0.51100000000E-03 0. -1.
        -11    1    3    3    0    0  0.12961844650E+02 -0.13567402504E+02 -0.11632472342E+02  0.22077097647E+02  0.51100000000E-03 0.  1.
         12    1    3    3    0    0  0.61473709063E+00 -0.39757520994E+01 -0.51184454140E+01  0.65102219549E+01  0.00000000000E+00 0. -1.
</event>
<event>
 7    1  0.2031146E-008  0.4614232E+02  0.7816164E-02  0.1320468E+00
        -11   -1    0    0    0    0  0.00000000000E+00  0.00000000000E+00  0.45593999997E+02  0.45594000000E+02  0.51100000000E-03 0.  1.
         11   -1    0    0    0    0 -0.00000000000E+00 -0.00000000000E+00 -0.45593999997E+02  0.45594000000E+02  0.51100000000E-03 0. -1.
    9900012    2    1    2    0    0 -0.14057317563E+02  0.18792689865E+02 -0.38449188365E+02  0.46142318127E+02  0.10000003340E+02 0.  0.
        -12    1    1    2    0    0  0.14057317563E+02 -0.18792689865E+02  0.38449188365E+02  0.45045681873E+02  0.00000000000E+00 0.  1.
         11    1    3    3    0    0 -0.10528592009E+02  0.75628219160E+01 -0.21960970593E+02  0.25501602982E+02  0.51100000000E-03 0. -1.
        -11    1    3    3    0    0  0.47204998120E+00  0.15237882622E+00 -0.18756269824E+00  0.53031171807E+00  0.51100000000E-03 0.  1.
        -12    1    3    3    0    0 -0.40007755350E+01  0.11077489123E+02 -0.16300655074E+02  0.20110403427E+02  0.00000000000E+00 0.  1.
</event>
<event>
 7    1  0.2031146E-008  0.4614232E+02  0.7816164E-02  0.1320468E+00
        -11   -1    0    0    0    0  0.00000000000E+00  0.00000000000E+00  0.45593999997E+02  0.45594000000E+02  0.51100000000E-03 0.  1.
         11   -1    0    0    0    0 -0.00000000000E+00 -0.00000000000E+00 -0.45593999997E+02  0.45594000000E+02  0.51100000000E-03 0. -1.
    9900012    2    1    2    0    0  0.96867888343E+01  0.43692269130E+02 -0.51249643824E+01  0.46142317415E+02  0.99999968415E+01 0.  0.
        -12    1    1    2    0    0 -0.96867888343E+01 -0.43692269130E+02  0.51249643824E+01  0.45045682585E+02  0.00000000000E+00 0.  1.
         11    1    3    3    0    0  0.12368911807E+01  0.56110871771E+01 -0.14579715994E+01  0.59278900587E+01  0.51100000000E-03 0.  1.
        -11    1    3    3    0    0  0.35359302113E+01  0.19575220435E+02  0.26145825051E+01  0.20063102938E+02  0.51100000000E-03 0. -1.
         12    1    3    3    0    0  0.49139674423E+01  0.18505961518E+02 -0.62815752881E+01  0.20151324418E+02  0.00000000000E+00 0. -1.
</event>
<event>
 7    1  0.2031146E-008  0.4614232E+02  0.7816164E-02  0.1320468E+00
        -11   -1    0    0    0    0  0.00000000000E+00  0.00000000000E+00  0.45593999997E+02  0.45594000000E+02  0.51100000000E-03 0.  1.
         11   -1    0    0    0    0 -0.00000000000E+00 -0.00000000000E+00 -0.45593999997E+02  0.45594000000E+02  0.51100000000E-03 0. -1.
    9900012    2    1    2    0    0 -0.10130486886E+02 -0.10776512148E+02 -0.42548248960E+02  0.46142317985E+02  0.10000002041E+02 0.  0.
        -12    1    1    2    0    0  0.10130486886E+02  0.10776512148E+02  0.42548248960E+02  0.45045682015E+02  0.00000000000E+00 0.  1.
         11    1    3    3    0    0 -0.55157750866E+00 -0.20707826415E+01 -0.37125068203E+01  0.42866170401E+01  0.51100000000E-03 0. -1.
        -11    1    3    3    0    0 -0.87327842432E+01 -0.52849822446E+01 -0.35727022936E+02  0.37156597343E+02  0.51100000000E-03 0.  1.
        -12    1    3    3    0    0 -0.84612513393E+00 -0.34207472623E+01 -0.31087192039E+01  0.46991036021E+01  0.00000000000E+00 0.  1.
</event>
<event>
 7    1  0.2031146E-008  0.4614232E+02  0.7816164E-02  0.1320468E+00
        -11   -1    0    0    0    0  0.00000000000E+00  0.00000000000E+00  0.45593999997E+02  0.45594000000E+02  0.51100000000E-03 0.  1.
         11   -1    0    0    0    0 -0.00000000000E+00 -0.00000000000E+00 -0.45593999997E+02  0.45594000000E+02  0.51100000000E-03 0. -1.
    9900012    2    1    2    0    0  0.21992506204E+02 -0.14541483041E+02 -0.36523806546E+02  0.46142317601E+02  0.99999985411E+01 0.  0.
        -12    1    1    2    0    0 -0.21992506204E+02  0.14541483041E+02  0.36523806546E+02  0.45045682399E+02  0.00000000000E+00 0.  1.
         11    1    3    3    0    0  0.82461827922E+00 -0.16846488970E+01 -0.49016991986E+01  0.52483037743E+01  0.51100000000E-03 0. -1.
        -11    1    3    3    0    0  0.33007252248E+01 -0.57078145236E+00 -0.87875458310E+01  0.94043362588E+01  0.51100000000E-03 0.  1.
         12    1    3    3    0    0  0.17867162700E+02 -0.12286052691E+02 -0.22834561517E+02  0.31489677568E+02  0.00000000000E+00 0. -1.
</event>
<event>
 7    1  0.2031146E-008  0.4614232E+02  0.7816164E-02  0.1320468E+00
        -11   -1    0    0    0    0  0.00000000000E+00  0.00000000000E+00  0.45593999997E+02  0.45594000000E+02  0.51100000000E-03 0.  1.
         11   -1    0    0    0    0 -0.00000000000E+00 -0.00000000000E+00 -0.45593999997E+02  0.45594000000E+02  0.51100000000E-03 0. -1.
    9900012    2    1    2    0    0 -0.72877692814E+01  0.43428005269E+02  0.94873766609E+01  0.46142317203E+02  0.99999949071E+01 0.  0.
        -12    1    1    2    0    0  0.72877692814E+01 -0.43428005269E+02 -0.94873766609E+01  0.45045682797E+02  0.00000000000E+00 0.  1.
         11    1    3    3    0    0  0.36571026621E+00  0.21673880152E+01 -0.43066116927E+00  0.22398178745E+01  0.51100000000E-03 0. -1.
        -11    1    3    3    0    0 -0.89838763125E+00  0.18471680814E+02  0.10168716295E+01  0.18521450284E+02  0.51100000000E-03 0.  1.
         12    1    3    3    0    0 -0.67550919164E+01  0.22788936440E+02  0.89011662007E+01  0.25381049045E+02  0.00000000000E+00 0. -1.
</event>
<event>
 7    1  0.2031146E-008  0.4614232E+02  0.7816164E-02  0.1320468E+00
        -11   -1    0    0    0    0  0.00000000000E+00  0.00000000000E+00  0.45593999997E+02  0.45594000000E+02  0.51100000000E-03 0. -1.
         11   -1    0    0    0    0 -0.00000000000E+00 -0.00000000000E+00 -0.45593999997E+02  0.45594000000E+02  0.51100000000E-03 0.  1.
    9900012    2    1    2    0    0  0.25654831015E+02 -0.30558959676E+02  0.20906769020E+02  0.46142319167E+02  0.10000012820E+02 0.  0.
        -12    1    1    2    0    0 -0.25654831015E+02  0.30558959676E+02 -0.20906769020E+02  0.45045680833E+02  0.00000000000E+00 0.  1.
         11    1    3    3    0    0  0.78867042601E+01 -0.11013625026E+02  0.35825909971E+01  0.14011959136E+02  0.51100000000E-03 0.  1.
        -11    1    3    3    0    0  0.13031239009E+02 -0.12989272441E+02  0.14931376502E+02  0.23695577502E+02  0.51100000000E-03 0. -1.
         12    1    3    3    0    0  0.47368877456E+01 -0.65560622087E+01  0.23928015210E+01  0.84347825294E+01  0.00000000000E+00 0. -1.
</event>
<event>
 7    1  0.2031146E-008  0.4614232E+02  0.7816164E-02  0.1320468E+00
        -11   -1    0    0    0    0  0.00000000000E+00  0.00000000000E+00  0.45593999997E+02  0.45594000000E+02  0.51100000000E-03 0. -1.
         11   -1    0    0    0    0 -0.00000000000E+00 -0.00000000000E+00 -0.45593999997E+02  0.45594000000E+02  0.51100000000E-03 0.  1.
    9900012    2    1    2    0    0 -0.29345867107E+02  0.25820872699E+02  0.22387856024E+02  0.46142317848E+02  0.10000000793E+02 0.  0.
        -12    1    1    2    0    0  0.29345867107E+02 -0.25820872699E+02 -0.22387856024E+02  0.45045682152E+02  0.00000000000E+00 0.  1.
         11    1    3    3    0    0 -0.14297618679E+02  0.10022814474E+02  0.12895560630E+02  0.21706547263E+02  0.51100000000E-03 0. -1.
        -11    1    3    3    0    0 -0.12290250239E+02  0.91720779781E+01  0.66849809034E+01  0.16729203069E+02  0.51100000000E-03 0.  1.
         12    1    3    3    0    0 -0.27579981899E+01  0.66259802462E+01  0.28073144902E+01  0.77065675165E+01  0.00000000000E+00 0. -1.
</event>
<event>
 7    1  0.2031146E-008  0.4614232E+02  0.7816164E-02  0.1320468E+00
        -11   -1    0    0    0    0  0.00000000000E+00  0.00000000000E+00  0.45593999997E+02  0.45594000000E+02  0.51100000000E-03 0.  1.
         11   -1    0    0    0    0 -0.00000000000E+00 -0.00000000000E+00 -0.45593999997E+02  0.45594000000E+02  0.51100000000E-03 0. -1.
    9900012    2    1    2    0    0 -0.11557288881E+02 -0.21541043747E+02 -0.37835510265E+02  0.46142319530E+02  0.10000016131E+02 0.  0.
        -12    1    1    2    0    0  0.11557288881E+02  0.21541043747E+02  0.37835510265E+02  0.45045680470E+02  0.00000000000E+00 0.  1.
         11    1    3    3    0    0 -0.62174850922E+01 -0.95332454920E+01 -0.10951382261E+02  0.15794703675E+02  0.51100000000E-03 0. -1.
        -11    1    3    3    0    0 -0.53418850050E+01 -0.12421468185E+02 -0.26618863657E+02  0.29856197178E+02  0.51100000000E-03 0.  1.
        -12    1    3    3    0    0  0.20812166453E-02  0.41366993020E+00 -0.26526434692E+00  0.49141867726E+00  0.00000000000E+00 0.  1.
</event>
<event>
 7    1  0.2031146E-008  0.4614232E+02  0.7816164E-02  0.1320468E+00
        -11   -1    0    0    0    0  0.00000000000E+00  0.00000000000E+00  0.45593999997E+02  0.45594000000E+02  0.51100000000E-03 0.  1.
         11   -1    0    0    0    0 -0.00000000000E+00 -0.00000000000E+00 -0.45593999997E+02  0.45594000000E+02  0.51100000000E-03 0. -1.
    9900012    2    1    2    0    0  0.50899382767E+01 -0.44742064441E+02 -0.11632759052E+01  0.46142323038E+02  0.10000048119E+02 0.  0.
        -12    1    1    2    0    0 -0.50899382767E+01  0.44742064441E+02  0.11632759052E+01  0.45045676962E+02  0.00000000000E+00 0.  1.
         11    1    3    3    0    0  0.50669270117E+01 -0.18768978796E+02  0.78606576070E+00  0.19456778100E+02  0.51100000000E-03 0. -1.
        -11    1    3    3    0    0  0.20309039372E+01 -0.10542280269E+02 -0.28200464200E+01  0.11100311083E+02  0.51100000000E-03 0.  1.
        -12    1    3    3    0    0 -0.20078926722E+01 -0.15430805376E+02  0.87070475406E+00  0.15585233855E+02  0.00000000000E+00 0.  1.
</event>
<event>
 7    1  0.2031146E-008  0.4614232E+02  0.7816164E-02  0.1320468E+00
        -11   -1    0    0    0    0  0.00000000000E+00  0.00000000000E+00  0.45593999997E+02  0.45594000000E+02  0.51100000000E-03 0.  1.
         11   -1    0    0    0    0 -0.00000000000E+00 -0.00000000000E+00 -0.45593999997E+02  0.45594000000E+02  0.51100000000E-03 0. -1.
    9900012    2    1    2    0    0  0.41530826706E+02  0.16484881995E+02 -0.57054864769E+01  0.46142317885E+02  0.10000001130E+02 0.  0.
        -12    1    1    2    0    0 -0.41530826706E+02 -0.16484881995E+02  0.57054864769E+01  0.45045682115E+02  0.00000000000E+00 0.  1.
         11    1    3    3    0    0  0.11061923328E+02  0.28312956312E+01 -0.27143887628E+01  0.11736706918E+02  0.51100000000E-03 0. -1.
        -11    1    3    3    0    0  0.12239544555E+02  0.14406857719E+01 -0.14544623478E+01  0.12409572410E+02  0.51100000000E-03 0.  1.
         12    1    3    3    0    0  0.18229358823E+02  0.12212900592E+02 -0.15366353663E+01  0.21996038557E+02  0.00000000000E+00 0. -1.
</event>
<event>
 7    1  0.2031146E-008  0.4614232E+02  0.7816164E-02  0.1320468E+00
        -11   -1    0    0    0    0  0.00000000000E+00  0.00000000000E+00  0.45593999997E+02  0.45594000000E+02  0.51100000000E-03 0.  1.
         11   -1    0    0    0    0 -0.00000000000E+00 -0.00000000000E+00 -0.45593999997E+02  0.45594000000E+02  0.51100000000E-03 0. -1.
    9900012    2    1    2    0    0 -0.19158728508E+01 -0.33423451226E+02 -0.30138279703E+02  0.46142316921E+02  0.99999923381E+01 0.  0.
        -12    1    1    2    0    0  0.19158728508E+01  0.33423451226E+02  0.30138279703E+02  0.45045683079E+02  0.00000000000E+00 0.  1.
         11    1    3    3    0    0 -0.98773207559E+00 -0.93017037101E+01 -0.79581491798E+01  0.12281263990E+02  0.51100000000E-03 0. -1.
        -11    1    3    3    0    0 -0.18971887159E+01 -0.16429445017E+02 -0.19697900196E+02  0.25720288898E+02  0.51100000000E-03 0.  1.
         12    1    3    3    0    0  0.96904794066E+00 -0.76923024990E+01 -0.24822303266E+01  0.81407640331E+01  0.00000000000E+00 0. -1.
</event>
<event>
 7    1  0.2031146E-008  0.4614232E+02  0.7816164E-02  0.1320468E+00
        -11   -1    0    0    0    0  0.00000000000E+00  0.00000000000E+00  0.45593999997E+02  0.45594000000E+02  0.51100000000E-03 0. -1.
         11   -1    0    0    0    0 -0.00000000000E+00 -0.00000000000E+00 -0.45593999997E+02  0.45594000000E+02  0.51100000000E-03 0.  1.
    9900012    2    1    2    0    0  0.53612243967E+01 -0.38415600459E+02  0.22904419140E+02  0.46142317612E+02  0.99999986421E+01 0.  0.
        -12    1    1    2    0    0 -0.53612243967E+01  0.38415600459E+02 -0.22904419140E+02  0.45045682388E+02  0.00000000000E+00 0.  1.
         11    1    3    3    0    0  0.38634849023E+01 -0.16274162104E+02  0.13790206351E+02  0.21678207012E+02  0.51100000000E-03 0. -1.
        -11    1    3    3    0    0  0.90865552971E+00 -0.71437621659E+01  0.64466509786E+00  0.72301166038E+01  0.51100000000E-03 0.  1.
        -12    1    3    3    0    0  0.58908396475E+00 -0.14997676189E+02  0.84695476905E+01  0.17233993996E+02  0.00000000000E+00 0.  1.
</event>
<event>
 7    1  0.2031146E-008  0.4614232E+02  0.7816164E-02  0.1320468E+00
        -11   -1    0    0    0    0  0.00000000000E+00  0.00000000000E+00  0.45593999997E+02  0.45594000000E+02  0.51100000000E-03 0. -1.
         11   -1    0    0    0    0 -0.00000000000E+00 -0.00000000000E+00 -0.45593999997E+02  0.45594000000E+02  0.51100000000E-03 0.  1.
    9900012    2    1    2    0    0  0.14789378523E+02  0.51500148274E+01  0.42235827437E+02  0.46142317753E+02  0.99999999267E+01 0.  0.
        -12    1    1    2    0    0 -0.14789378523E+02 -0.51500148274E+01 -0.42235827437E+02  0.45045682247E+02  0.00000000000E+00 0.  1.
         11    1    3    3    0    0 -0.17392106334E+00 -0.61816407087E-01  0.62029874502E+01  0.62057331052E+01  0.51100000000E-03 0.  1.
        -11    1    3    3    0    0  0.24212722515E+01 -0.16423967618E+01  0.63848696376E+01  0.70232889012E+01  0.51100000000E-03 0. -1.
         12    1    3    3    0    0  0.12542027335E+02  0.68542279963E+01  0.29647970349E+02  0.32913295747E+02  0.00000000000E+00 0. -1.
</event>
<event>
 7    1  0.2031146E-008  0.4614232E+02  0.7816164E-02  0.1320468E+00
        -11   -1    0    0    0    0  0.00000000000E+00  0.00000000000E+00  0.45593999997E+02  0.45594000000E+02  0.51100000000E-03 0.  1.
         11   -1    0    0    0    0 -0.00000000000E+00 -0.00000000000E+00 -0.45593999997E+02  0.45594000000E+02  0.51100000000E-03 0. -1.
    9900012    2    1    2    0    0 -0.32653699030E+01 -0.44727786629E+02 -0.42279905681E+01  0.46142318281E+02  0.10000004738E+02 0.  0.
        -12    1    1    2    0    0  0.32653699030E+01  0.44727786629E+02  0.42279905681E+01  0.45045681719E+02  0.00000000000E+00 0.  1.
         11    1    3    3    0    0 -0.98452910900E+00 -0.28114710869E+01  0.74678440969E+00  0.30710510342E+01  0.51100000000E-03 0. -1.
        -11    1    3    3    0    0 -0.14597604320E+01 -0.72769606125E+01 -0.39487327278E+01  0.84069939153E+01  0.51100000000E-03 0.  1.
        -12    1    3    3    0    0 -0.82108036199E+00 -0.34639354929E+02 -0.10260422500E+01  0.34664273331E+02  0.00000000000E+00 0.  1.
</event>
<event>
 7    1  0.2031146E-008  0.4614232E+02  0.7816164E-02  0.1320468E+00
        -11   -1    0    0    0    0  0.00000000000E+00  0.00000000000E+00  0.45593999997E+02  0.45594000000E+02  0.51100000000E-03 0. -1.
         11   -1    0    0    0    0 -0.00000000000E+00 -0.00000000000E+00 -0.45593999997E+02  0.45594000000E+02  0.51100000000E-03 0.  1.
    9900012    2    1    2    0    0  0.12388045122E+02  0.31711428788E+02  0.29496353170E+02  0.46142320651E+02  0.10000026349E+02 0.  0.
        -12    1    1    2    0    0 -0.12388045122E+02 -0.31711428788E+02 -0.29496353170E+02  0.45045679349E+02  0.00000000000E+00 0.  1.
         11    1    3    3    0    0  0.49368718489E+01  0.19941161400E+02  0.15421785810E+02  0.25687625415E+02  0.51100000000E-03 0. -1.
        -11    1    3    3    0    0  0.17281774703E+01  0.55966251363E+01  0.31118006914E+01  0.66326551312E+01  0.51100000000E-03 0.  1.
        -12    1    3    3    0    0  0.57229958032E+01  0.61736422510E+01  0.10962766669E+02  0.13822040105E+02  0.00000000000E+00 0.  1.
</event>
<event>
 7    1  0.2031146E-008  0.4614232E+02  0.7816164E-02  0.1320468E+00
        -11   -1    0    0    0    0  0.00000000000E+00  0.00000000000E+00  0.45593999997E+02  0.45594000000E+02  0.51100000000E-03 0.  1.
         11   -1    0    0    0    0 -0.00000000000E+00 -0.00000000000E+00 -0.45593999997E+02  0.45594000000E+02  0.51100000000E-03 0. -1.
    9900012    2    1    2    0    0  0.31648087912E+02 -0.49694921639E+01 -0.31667270537E+02  0.46142319362E+02  0.10000014600E+02 0.  0.
        -12    1    1    2    0    0 -0.31648087912E+02  0.49694921639E+01  0.31667270537E+02  0.45045680638E+02  0.00000000000E+00 0.  1.
         11    1    3    3    0    0  0.87791843857E+01  0.27129159854E+00 -0.70781723250E+01  0.11280434448E+02  0.51100000000E-03 0. -1.
        -11    1    3    3    0    0  0.23485231037E+02 -0.49422583969E+01 -0.24157470120E+02  0.34052391366E+02  0.51100000000E-03 0.  1.
        -12    1    3    3    0    0 -0.61632751065E+00 -0.29852536555E+00 -0.43162809253E+00  0.80949354817E+00  0.00000000000E+00 0.  1.
</event>
<event>
 7    1  0.2031146E-008  0.4614232E+02  0.7816164E-02  0.1320468E+00
        -11   -1    0    0    0    0  0.00000000000E+00  0.00000000000E+00  0.45593999997E+02  0.45594000000E+02  0.51100000000E-03 0.  1.
         11   -1    0    0    0    0 -0.00000000000E+00 -0.00000000000E+00 -0.45593999997E+02  0.45594000000E+02  0.51100000000E-03 0. -1.
    9900012    2    1    2    0    0 -0.77303378187E+01 -0.20497199273E+02 -0.39360134584E+02  0.46142317684E+02  0.99999992969E+01 0.  0.
        -12    1    1    2    0    0  0.77303378187E+01  0.20497199273E+02  0.39360134584E+02  0.45045682316E+02  0.00000000000E+00 0.  1.
         11    1    3    3    0    0  0.98412484509E-01 -0.95757231161E+01 -0.12906288548E+02  0.16070981382E+02  0.51100000000E-03 0. -1.
        -11    1    3    3    0    0 -0.38965319507E+01 -0.85892824422E+01 -0.14766917189E+02  0.17522002672E+02  0.51100000000E-03 0.  1.
        -12    1    3    3    0    0 -0.39322183525E+01 -0.23321937149E+01 -0.11686928847E+02  0.12549333630E+02  0.00000000000E+00 0.  1.
</event>
<event>
 7    1  0.2031146E-008  0.4614232E+02  0.7816164E-02  0.1320468E+00
        -11   -1    0    0    0    0  0.00000000000E+00  0.00000000000E+00  0.45593999997E+02  0.45594000000E+02  0.51100000000E-03 0. -1.
         11   -1    0    0    0    0 -0.00000000000E+00 -0.00000000000E+00 -0.45593999997E+02  0.45594000000E+02  0.51100000000E-03 0.  1.
    9900012    2    1    2    0    0 -0.40747945057E+02  0.17684927036E+02  0.74807613012E+01  0.46142318073E+02  0.10000002840E+02 0.  0.
        -12    1    1    2    0    0  0.40747945057E+02 -0.17684927036E+02 -0.74807613012E+01  0.45045681927E+02  0.00000000000E+00 0.  1.
         11    1    3    3    0    0 -0.18758827365E+02  0.12170440194E+02  0.37356499357E+01  0.22670868958E+02  0.51100000000E-03 0. -1.
        -11    1    3    3    0    0 -0.30582851034E+00 -0.48479187073E+00  0.45999853073E+00  0.73495111746E+00  0.51100000000E-03 0.  1.
        -12    1    3    3    0    0 -0.21683289182E+02  0.59992787131E+01  0.32851128348E+01  0.22736497997E+02  0.00000000000E+00 0.  1.
</event>
<event>
 7    1  0.2031146E-008  0.4614232E+02  0.7816164E-02  0.1320468E+00
        -11   -1    0    0    0    0  0.00000000000E+00  0.00000000000E+00  0.45593999997E+02  0.45594000000E+02  0.51100000000E-03 0.  1.
         11   -1    0    0    0    0 -0.00000000000E+00 -0.00000000000E+00 -0.45593999997E+02  0.45594000000E+02  0.51100000000E-03 0. -1.
    9900012    2    1    2    0    0 -0.29103000347E+02  0.34380125707E+02 -0.36850831983E+00  0.46142317952E+02  0.10000001738E+02 0.  0.
        -12    1    1    2    0    0  0.29103000347E+02 -0.34380125707E+02  0.36850831983E+00  0.45045682048E+02  0.00000000000E+00 0.  1.
         11    1    3    3    0    0 -0.16394745303E+02  0.18489548115E+02 -0.10610043804E+01  0.24734122050E+02  0.51100000000E-03 0. -1.
        -11    1    3    3    0    0 -0.11869589927E+02  0.16387530825E+02  0.39075833875E-01  0.20234620302E+02  0.51100000000E-03 0.  1.
        -12    1    3    3    0    0 -0.83866511756E+00 -0.49695323342E+00  0.65342022675E+00  0.11735755998E+01  0.00000000000E+00 0.  1.
</event>
<event>
 7    1  0.2031146E-008  0.4614232E+02  0.7816164E-02  0.1320468E+00
        -11   -1    0    0    0    0  0.00000000000E+00  0.00000000000E+00  0.45593999997E+02  0.45594000000E+02  0.51100000000E-03 0.  1.
         11   -1    0    0    0    0 -0.00000000000E+00 -0.00000000000E+00 -0.45593999997E+02  0.45594000000E+02  0.51100000000E-03 0. -1.
    9900012    2    1    2    0    0  0.19974910931E+02  0.12224836302E+02 -0.38479471049E+02  0.46142318947E+02  0.10000010814E+02 0.  0.
        -12    1    1    2    0    0 -0.19974910931E+02 -0.12224836302E+02  0.38479471049E+02  0.45045681053E+02  0.00000000000E+00 0.  1.
         11    1    3    3    0    0  0.77242745786E+00  0.18328205451E+01 -0.22929480877E+01  0.30353725508E+01  0.51100000000E-03 0. -1.
        -11    1    3    3    0    0  0.79597284106E+01 -0.12400632078E+00 -0.10787198481E+02  0.13406576940E+02  0.51100000000E-03 0.  1.
         12    1    3    3    0    0  0.11242755062E+02  0.10516022077E+02 -0.25399324481E+02  0.29700369456E+02  0.00000000000E+00 0. -1.
</event>
<event>
 7    1  0.2031146E-008  0.4614232E+02  0.7816164E-02  0.1320468E+00
        -11   -1    0    0    0    0  0.00000000000E+00  0.00000000000E+00  0.45593999997E+02  0.45594000000E+02  0.51100000000E-03 0. -1.
         11   -1    0    0    0    0 -0.00000000000E+00 -0.00000000000E+00 -0.45593999997E+02  0.45594000000E+02  0.51100000000E-03 0.  1.
    9900012    2    1    2    0    0  0.92693747894E+01 -0.43310544148E+02  0.82090779547E+01  0.46142317585E+02  0.99999983954E+01 0.  0.
        -12    1    1    2    0    0 -0.92693747894E+01  0.43310544148E+02 -0.82090779547E+01  0.45045682415E+02  0.00000000000E+00 0.  1.
         11    1    3    3    0    0  0.64343802268E+01 -0.21498409478E+02  0.60803474915E+01  0.23249806126E+02  0.51100000000E-03 0. -1.
        -11    1    3    3    0    0 -0.97387916240E+00 -0.12064098453E+02  0.27375657232E+01  0.12409076454E+02  0.51100000000E-03 0.  1.
         12    1    3    3    0    0  0.38088737250E+01 -0.97480362167E+01 -0.60883526005E+00  0.10483435005E+02  0.00000000000E+00 0. -1.
</event>
<event>
 7    1  0.2031146E-008  0.4614232E+02  0.7816164E-02  0.1320468E+00
        -11   -1    0    0    0    0  0.00000000000E+00  0.00000000000E+00  0.45593999997E+02  0.45594000000E+02  0.51100000000E-03 0.  1.
         11   -1    0    0    0    0 -0.00000000000E+00 -0.00000000000E+00 -0.45593999997E+02  0.45594000000E+02  0.51100000000E-03 0. -1.
    9900012    2    1    2    0    0  0.13687161755E+01 -0.62329909272E+01 -0.44591366366E+02  0.46142317474E+02  0.99999973834E+01 0.  0.
        -12    1    1    2    0    0 -0.13687161755E+01  0.62329909272E+01  0.44591366366E+02  0.45045682526E+02  0.00000000000E+00 0.  1.
         11    1    3    3    0    0  0.28872915201E+00 -0.31581842727E+01 -0.15843696848E+02  0.16157977055E+02  0.51100000000E-03 0. -1.
        -11    1    3    3    0    0 -0.11468357113E+01 -0.50489068676E+01 -0.22142243724E+02  0.22739517367E+02  0.51100000000E-03 0.  1.
        -12    1    3    3    0    0  0.22268227348E+01  0.19741002131E+01 -0.66054257937E+01  0.72448230523E+01  0.00000000000E+00 0.  1.
</event>
<event>
 7    1  0.2031146E-008  0.4614232E+02  0.7816164E-02  0.1320468E+00
        -11   -1    0    0    0    0  0.00000000000E+00  0.00000000000E+00  0.45593999997E+02  0.45594000000E+02  0.51100000000E-03 0. -1.
         11   -1    0    0    0    0 -0.00000000000E+00 -0.00000000000E+00 -0.45593999997E+02  0.45594000000E+02  0.51100000000E-03 0.  1.
    9900012    2    1    2    0    0 -0.35271214059E+02  0.19618912586E+02  0.20003831319E+02  0.46142317191E+02  0.99999948028E+01 0.  0.
        -12    1    1    2    0    0  0.35271214059E+02 -0.19618912586E+02 -0.20003831319E+02  0.45045682809E+02  0.00000000000E+00 0.  1.
         11    1    3    3    0    0 -0.57625900993E+01  0.45940732796E+01  0.44197690284E+01  0.85934459024E+01  0.51100000000E-03 0. -1.
        -11    1    3    3    0    0 -0.72790328253E+01  0.11122817227E+01  0.64207892390E+01  0.97697504684E+01  0.51100000000E-03 0.  1.
         12    1    3    3    0    0 -0.22229591135E+02  0.13912557583E+02  0.91632730516E+01  0.27779120820E+02  0.00000000000E+00 0. -1.
</event>
<event>
 7    1  0.2031146E-008  0.4614232E+02  0.7816164E-02  0.1320468E+00
        -11   -1    0    0    0    0  0.00000000000E+00  0.00000000000E+00  0.45593999997E+02  0.45594000000E+02  0.51100000000E-03 0.  1.
         11   -1    0    0    0    0 -0.00000000000E+00 -0.00000000000E+00 -0.45593999997E+02  0.45594000000E+02  0.51100000000E-03 0. -1.
    9900012    2    1    2    0    0 -0.37919767075E+02  0.42673553876E+01 -0.23937302140E+02  0.46142317735E+02  0.99999997582E+01 0.  0.
        -12    1    1    2    0    0  0.37919767075E+02 -0.42673553876E+01  0.23937302140E+02  0.45045682265E+02  0.00000000000E+00 0.  1.
         11    1    3    3    0    0 -0.19228359427E+02  0.10369635042E+01 -0.12752177498E+02  0.23095954857E+02  0.51100000000E-03 0. -1.
        -11    1    3    3    0    0 -0.11308038837E+02 -0.95897159636E+00 -0.83746665039E+01  0.14104127346E+02  0.51100000000E-03 0.  1.
         12    1    3    3    0    0 -0.73833688107E+01  0.41893634798E+01 -0.28104581375E+01  0.89422355317E+01  0.00000000000E+00 0. -1.
</event>
<event>
 7    1  0.2031146E-008  0.4614232E+02  0.7816164E-02  0.1320468E+00
        -11   -1    0    0    0    0  0.00000000000E+00  0.00000000000E+00  0.45593999997E+02  0.45594000000E+02  0.51100000000E-03 0.  1.
         11   -1    0    0    0    0 -0.00000000000E+00 -0.00000000000E+00 -0.45593999997E+02  0.45594000000E+02  0.51100000000E-03 0. -1.
    9900012    2    1    2    0    0 -0.89031723871E+00 -0.26248522122E+02 -0.36596937832E+02  0.46142318330E+02  0.10000005190E+02 0.  0.
        -12    1    1    2    0    0  0.89031723871E+00  0.26248522122E+02  0.36596937832E+02  0.45045681670E+02  0.00000000000E+00 0.  1.
         11    1    3    3    0    0 -0.25657935412E+01 -0.16581408197E+01 -0.34879170779E+01  0.46366252035E+01  0.51100000000E-03 0. -1.
        -11    1    3    3    0    0 -0.36522262510E+00 -0.10735376203E+00 -0.17865379656E+00  0.42051139848E+00  0.51100000000E-03 0.  1.
         12    1    3    3    0    0  0.20406989276E+01 -0.24483027541E+02 -0.32930366958E+02  0.41085181728E+02  0.00000000000E+00 0. -1.
</event>
<event>
 7    1  0.2031146E-008  0.4614232E+02  0.7816164E-02  0.1320468E+00
        -11   -1    0    0    0    0  0.00000000000E+00  0.00000000000E+00  0.45593999997E+02  0.45594000000E+02  0.51100000000E-03 0. -1.
         11   -1    0    0    0    0 -0.00000000000E+00 -0.00000000000E+00 -0.45593999997E+02  0.45594000000E+02  0.51100000000E-03 0.  1.
    9900012    2    1    2    0    0 -0.90594538119E+01 -0.42393603223E+02  0.12240185111E+02  0.46142318418E+02  0.10000005992E+02 0.  0.
        -12    1    1    2    0    0  0.90594538119E+01  0.42393603223E+02 -0.12240185111E+02  0.45045681582E+02  0.00000000000E+00 0.  1.
         11    1    3    3    0    0 -0.91471442928E+01 -0.31534070576E+02  0.84620419830E+01  0.33906843123E+02  0.51100000000E-03 0. -1.
        -11    1    3    3    0    0 -0.16624615988E+00 -0.11080574029E+02  0.40541607509E+01  0.11800126196E+02  0.51100000000E-03 0.  1.
        -12    1    3    3    0    0  0.25393664079E+00  0.22104138124E+00 -0.27601762305E+00  0.43534909899E+00  0.00000000000E+00 0.  1.
</event>
<event>
 7    1  0.2031146E-008  0.4614232E+02  0.7816164E-02  0.1320468E+00
        -11   -1    0    0    0    0  0.00000000000E+00  0.00000000000E+00  0.45593999997E+02  0.45594000000E+02  0.51100000000E-03 0. -1.
         11   -1    0    0    0    0 -0.00000000000E+00 -0.00000000000E+00 -0.45593999997E+02  0.45594000000E+02  0.51100000000E-03 0.  1.
    9900012    2    1    2    0    0  0.17764296391E+02  0.35572486147E+02  0.21169354492E+02  0.46142316894E+02  0.99999920893E+01 0.  0.
        -12    1    1    2    0    0 -0.17764296391E+02 -0.35572486147E+02 -0.21169354492E+02  0.45045683106E+02  0.00000000000E+00 0.  1.
         11    1    3    3    0    0  0.10829063974E+02  0.16460946741E+02  0.12672754567E+02  0.23427123228E+02  0.51100000000E-03 0. -1.
        -11    1    3    3    0    0  0.53453008101E+01  0.97496213424E+01  0.22366247396E+01  0.11341509933E+02  0.51100000000E-03 0.  1.
         12    1    3    3    0    0  0.15899316075E+01  0.93619180628E+01  0.62599751853E+01  0.11373683733E+02  0.00000000000E+00 0. -1.
</event>
<event>
 7    1  0.2031146E-008  0.4614232E+02  0.7816164E-02  0.1320468E+00
        -11   -1    0    0    0    0  0.00000000000E+00  0.00000000000E+00  0.45593999997E+02  0.45594000000E+02  0.51100000000E-03 0.  1.
         11   -1    0    0    0    0 -0.00000000000E+00 -0.00000000000E+00 -0.45593999997E+02  0.45594000000E+02  0.51100000000E-03 0. -1.
    9900012    2    1    2    0    0  0.19458887392E+01 -0.11898653352E+02 -0.43402178065E+02  0.46142317683E+02  0.99999992887E+01 0.  0.
        -12    1    1    2    0    0 -0.19458887392E+01  0.11898653352E+02  0.43402178065E+02  0.45045682317E+02  0.00000000000E+00 0.  1.
         11    1    3    3    0    0 -0.20943478003E+01 -0.47272504396E+01 -0.15545391155E+02  0.16382685245E+02  0.51100000000E-03 0. -1.
        -11    1    3    3    0    0 -0.92890268736E+00 -0.50356805026E-01 -0.84216261783E+01  0.84728498015E+01  0.51100000000E-03 0.  1.
         12    1    3    3    0    0  0.49691392269E+01 -0.71210461072E+01 -0.19435160732E+02  0.21286782636E+02  0.00000000000E+00 0. -1.
</event>
<event>
 7    1  0.2031146E-008  0.4614232E+02  0.7816164E-02  0.1320468E+00
        -11   -1    0    0    0    0  0.00000000000E+00  0.00000000000E+00  0.45593999997E+02  0.45594000000E+02  0.51100000000E-03 0.  1.
         11   -1    0    0    0    0 -0.00000000000E+00 -0.00000000000E+00 -0.45593999997E+02  0.45594000000E+02  0.51100000000E-03 0. -1.
    9900012    2    1    2    0    0 -0.22541368086E+02  0.41236772648E+01 -0.38781380498E+02  0.46142318046E+02  0.10000002596E+02 0.  0.
        -12    1    1    2    0    0  0.22541368086E+02 -0.41236772648E+01  0.38781380498E+02  0.45045681954E+02  0.00000000000E+00 0.  1.
         11    1    3    3    0    0 -0.17591680645E+02  0.16901760080E+01 -0.32470501478E+02  0.36968329545E+02  0.51100000000E-03 0. -1.
        -11    1    3    3    0    0  0.39106378317E+00  0.50975391608E+00 -0.18374657227E+01  0.19465509191E+01  0.51100000000E-03 0.  1.
        -12    1    3    3    0    0 -0.53407512238E+01  0.19237473407E+01 -0.44734132979E+01  0.72274375818E+01  0.00000000000E+00 0.  1.
</event>
<event>
 7    1  0.2031146E-008  0.4614232E+02  0.7816164E-02  0.1320468E+00
        -11   -1    0    0    0    0  0.00000000000E+00  0.00000000000E+00  0.45593999997E+02  0.45594000000E+02  0.51100000000E-03 0.  1.
         11   -1    0    0    0    0 -0.00000000000E+00 -0.00000000000E+00 -0.45593999997E+02  0.45594000000E+02  0.51100000000E-03 0. -1.
    9900012    2    1    2    0    0  0.25918716096E+02 -0.28763892192E+02 -0.23021123078E+02  0.46142318233E+02  0.10000004299E+02 0.  0.
        -12    1    1    2    0    0 -0.25918716096E+02  0.28763892192E+02  0.23021123078E+02  0.45045681767E+02  0.00000000000E+00 0.  1.
         11    1    3    3    0    0  0.74159491389E+01 -0.11563401372E+02 -0.11248368462E+02  0.17754840079E+02  0.51100000000E-03 0. -1.
        -11    1    3    3    0    0  0.34528117566E+01 -0.17626008837E+01 -0.37199089801E+01  0.53727454791E+01  0.51100000000E-03 0.  1.
         12    1    3    3    0    0  0.15049955201E+02 -0.15437889936E+02 -0.80528456362E+01  0.23014732674E+02  0.00000000000E+00 0. -1.
</event>
<event>
 7    1  0.2031146E-008  0.4614232E+02  0.7816164E-02  0.1320468E+00
        -11   -1    0    0    0    0  0.00000000000E+00  0.00000000000E+00  0.45593999997E+02  0.45594000000E+02  0.51100000000E-03 0.  1.
         11   -1    0    0    0    0 -0.00000000000E+00 -0.00000000000E+00 -0.45593999997E+02  0.45594000000E+02  0.51100000000E-03 0. -1.
    9900012    2    1    2    0    0  0.25871117986E+02  0.26368520634E+02 -0.25777895281E+02  0.46142317505E+02  0.99999976674E+01 0.  0.
        -12    1    1    2    0    0 -0.25871117986E+02 -0.26368520634E+02  0.25777895281E+02  0.45045682495E+02  0.00000000000E+00 0.  1.
         11    1    3    3    0    0  0.70487779850E+01  0.55699394019E+01 -0.30011072033E+01  0.94718604682E+01  0.51100000000E-03 0. -1.
        -11    1    3    3    0    0  0.28292500291E+01  0.45966635403E+01 -0.17343015705E+01  0.56693715374E+01  0.51100000000E-03 0.  1.
        -12    1    3    3    0    0  0.15993089972E+02  0.16201917692E+02 -0.21042486507E+02  0.31001085500E+02  0.00000000000E+00 0.  1.
</event>
<event>
 7    1  0.2031146E-008  0.4614232E+02  0.7816164E-02  0.1320468E+00
        -11   -1    0    0    0    0  0.00000000000E+00  0.00000000000E+00  0.45593999997E+02  0.45594000000E+02  0.51100000000E-03 0.  1.
         11   -1    0    0    0    0 -0.00000000000E+00 -0.00000000000E+00 -0.45593999997E+02  0.45594000000E+02  0.51100000000E-03 0. -1.
    9900012    2    1    2    0    0 -0.25293096983E+01  0.42174837986E+02 -0.15620472198E+02  0.46142317428E+02  0.99999969604E+01 0.  0.
        -12    1    1    2    0    0  0.25293096983E+01 -0.42174837986E+02  0.15620472198E+02  0.45045682572E+02  0.00000000000E+00 0.  1.
         11    1    3    3    0    0 -0.30192595148E+01  0.23452282466E+02 -0.49512466299E+01  0.24158649059E+02  0.51100000000E-03 0.  1.
        -11    1    3    3    0    0 -0.29441112794E+00  0.78015331511E+01 -0.21132740742E+01  0.80880482809E+01  0.51100000000E-03 0. -1.
        -12    1    3    3    0    0  0.78436094439E+00  0.10921022369E+02 -0.85559514936E+01  0.13895620088E+02  0.00000000000E+00 0.  1.
</event>
<event>
 7    1  0.2031146E-008  0.4614232E+02  0.7816164E-02  0.1320468E+00
        -11   -1    0    0    0    0  0.00000000000E+00  0.00000000000E+00  0.45593999997E+02  0.45594000000E+02  0.51100000000E-03 0. -1.
         11   -1    0    0    0    0 -0.00000000000E+00 -0.00000000000E+00 -0.45593999997E+02  0.45594000000E+02  0.51100000000E-03 0.  1.
    9900012    2    1    2    0    0  0.39523211214E+02 -0.11791606262E+02 -0.18110416460E+02  0.46142318884E+02  0.10000010238E+02 0.  0.
        -12    1    1    2    0    0 -0.39523211214E+02  0.11791606262E+02  0.18110416460E+02  0.45045681116E+02  0.00000000000E+00 0.  1.
         11    1    3    3    0    0  0.31824699280E+02 -0.98380022392E+01 -0.18640463658E+02  0.38171516318E+02  0.51100000000E-03 0. -1.
        -11    1    3    3    0    0  0.40554857473E+01 -0.12255066356E+01  0.20567036237E+00  0.42415954214E+01  0.51100000000E-03 0.  1.
         12    1    3    3    0    0  0.36430261859E+01 -0.72809738697E+00  0.32437683589E+00  0.37292071446E+01  0.00000000000E+00 0. -1.
</event>
<event>
 7    1  0.2031146E-008  0.4614232E+02  0.7816164E-02  0.1320468E+00
        -11   -1    0    0    0    0  0.00000000000E+00  0.00000000000E+00  0.45593999997E+02  0.45594000000E+02  0.51100000000E-03 0.  1.
         11   -1    0    0    0    0 -0.00000000000E+00 -0.00000000000E+00 -0.45593999997E+02  0.45594000000E+02  0.51100000000E-03 0. -1.
    9900012    2    1    2    0    0  0.40784603567E+02 -0.92870472574E+01 -0.16717656120E+02  0.46142321395E+02  0.10000033137E+02 0.  0.
        -12    1    1    2    0    0 -0.40784603567E+02  0.92870472574E+01  0.16717656120E+02  0.45045678605E+02  0.00000000000E+00 0.  1.
         11    1    3    3    0    0  0.50578892899E+01 -0.15063520891E+01 -0.81778523065E+00  0.53404226078E+01  0.51100000000E-03 0. -1.
        -11    1    3    3    0    0  0.49676750282E+01 -0.28045363949E+01 -0.55760343830E+01  0.79771786540E+01  0.51100000000E-03 0.  1.
        -12    1    3    3    0    0  0.30759039248E+02 -0.49761587734E+01 -0.10323836506E+02  0.32824720133E+02  0.00000000000E+00 0.  1.
</event>
<event>
 7    1  0.2031146E-008  0.4614232E+02  0.7816164E-02  0.1320468E+00
        -11   -1    0    0    0    0  0.00000000000E+00  0.00000000000E+00  0.45593999997E+02  0.45594000000E+02  0.51100000000E-03 0. -1.
         11   -1    0    0    0    0 -0.00000000000E+00 -0.00000000000E+00 -0.45593999997E+02  0.45594000000E+02  0.51100000000E-03 0.  1.
    9900012    2    1    2    0    0  0.13793560645E+02  0.19425723838E+01  0.42837806760E+02  0.46142316625E+02  0.99999896400E+01 0.  0.
        -12    1    1    2    0    0 -0.13793560645E+02 -0.19425723838E+01 -0.42837806760E+02  0.45045683375E+02  0.00000000000E+00 0.  1.
         11    1    3    3    0    0  0.71357159586E+00  0.20703455054E+01  0.10812774770E+02  0.11032298646E+02  0.51100000000E-03 0. -1.
        -11    1    3    3    0    0  0.13483986372E+02  0.18513549038E-01  0.28167309718E+02  0.31228441656E+02  0.51100000000E-03 0.  1.
        -12    1    3    3    0    0 -0.40399732235E+00 -0.14628667059E+00  0.38577222719E+01  0.38815763233E+01  0.00000000000E+00 0.  1.
</event>
<event>
 7    1  0.2031146E-008  0.4614232E+02  0.7816164E-02  0.1320468E+00
        -11   -1    0    0    0    0  0.00000000000E+00  0.00000000000E+00  0.45593999997E+02  0.45594000000E+02  0.51100000000E-03 0. -1.
         11   -1    0    0    0    0 -0.00000000000E+00 -0.00000000000E+00 -0.45593999997E+02  0.45594000000E+02  0.51100000000E-03 0.  1.
    9900012    2    1    2    0    0 -0.31072853570E+02  0.29210209127E+02 -0.14503620597E+02  0.46142317003E+02  0.99999930912E+01 0.  0.
        -12    1    1    2    0    0  0.31072853570E+02 -0.29210209127E+02  0.14503620597E+02  0.45045682997E+02  0.00000000000E+00 0.  1.
         11    1    3    3    0    0 -0.46375608069E+01  0.38553728852E+01 -0.19201629982E+01  0.63291307873E+01  0.51100000000E-03 0. -1.
        -11    1    3    3    0    0 -0.16012473829E+02  0.13013177980E+02 -0.25343886050E+01  0.20788584490E+02  0.51100000000E-03 0.  1.
        -12    1    3    3    0    0 -0.10422818934E+02  0.12341658262E+02 -0.10049068994E+02  0.19024601726E+02  0.00000000000E+00 0.  1.
</event>
<event>
 7    1  0.2031146E-008  0.4614232E+02  0.7816164E-02  0.1320468E+00
        -11   -1    0    0    0    0  0.00000000000E+00  0.00000000000E+00  0.45593999997E+02  0.45594000000E+02  0.51100000000E-03 0.  1.
         11   -1    0    0    0    0 -0.00000000000E+00 -0.00000000000E+00 -0.45593999997E+02  0.45594000000E+02  0.51100000000E-03 0. -1.
    9900012    2    1    2    0    0 -0.90927325555E+01  0.32374027150E+02 -0.29972622445E+02  0.46142317461E+02  0.99999972594E+01 0.  0.
        -12    1    1    2    0    0  0.90927325555E+01 -0.32374027150E+02  0.29972622445E+02  0.45045682539E+02  0.00000000000E+00 0.  1.
         11    1    3    3    0    0 -0.62541502068E+00  0.99575650077E+01 -0.93969241564E+01  0.13705707887E+02  0.51100000000E-03 0. -1.
        -11    1    3    3    0    0  0.88795586401E+00  0.14019996481E+01 -0.32141931394E+01  0.36173341604E+01  0.51100000000E-03 0.  1.
         12    1    3    3    0    0 -0.93552733988E+01  0.21014462494E+02 -0.17361505149E+02  0.28819275413E+02  0.00000000000E+00 0. -1.
</event>
<event>
 7    1  0.2031146E-008  0.4614232E+02  0.7816164E-02  0.1320468E+00
        -11   -1    0    0    0    0  0.00000000000E+00  0.00000000000E+00  0.45593999997E+02  0.45594000000E+02  0.51100000000E-03 0.  1.
         11   -1    0    0    0    0 -0.00000000000E+00 -0.00000000000E+00 -0.45593999997E+02  0.45594000000E+02  0.51100000000E-03 0. -1.
    9900012    2    1    2    0    0  0.18789685245E+02 -0.40087514539E+02 -0.83097717440E+01  0.46142318742E+02  0.10000008947E+02 0.  0.
        -12    1    1    2    0    0 -0.18789685245E+02  0.40087514539E+02  0.83097717440E+01  0.45045681258E+02  0.00000000000E+00 0.  1.
         11    1    3    3    0    0  0.40800269624E+01 -0.16470740945E+02 -0.27633105992E+01  0.17192085767E+02  0.51100000000E-03 0. -1.
        -11    1    3    3    0    0  0.21564956131E+01 -0.84139910421E+01 -0.20906734640E+01  0.89340155799E+01  0.51100000000E-03 0.  1.
        -12    1    3    3    0    0  0.12553162669E+02 -0.15202782552E+02 -0.34557876807E+01  0.20016217396E+02  0.00000000000E+00 0.  1.
</event>
<event>
 7    1  0.2031146E-008  0.4614232E+02  0.7816164E-02  0.1320468E+00
        -11   -1    0    0    0    0  0.00000000000E+00  0.00000000000E+00  0.45593999997E+02  0.45594000000E+02  0.51100000000E-03 0. -1.
         11   -1    0    0    0    0 -0.00000000000E+00 -0.00000000000E+00 -0.45593999997E+02  0.45594000000E+02  0.51100000000E-03 0.  1.
    9900012    2    1    2    0    0 -0.14873819866E+02 -0.32625809865E+02  0.27266087332E+02  0.46142317575E+02  0.99999983008E+01 0.  0.
        -12    1    1    2    0    0  0.14873819866E+02  0.32625809865E+02 -0.27266087332E+02  0.45045682425E+02  0.00000000000E+00 0.  1.
         11    1    3    3    0    0 -0.56191796787E+01 -0.12273195001E+02  0.10938731245E+02  0.17374185947E+02  0.51100000000E-03 0. -1.
        -11    1    3    3    0    0 -0.10886609024E+01 -0.17995050378E+00  0.31243723195E+01  0.33134977586E+01  0.51100000000E-03 0.  1.
        -12    1    3    3    0    0 -0.81659792852E+01 -0.20172664360E+02  0.13202983768E+02  0.25454633869E+02  0.00000000000E+00 0.  1.
</event>
<event>
 7    1  0.2031146E-008  0.4614232E+02  0.7816164E-02  0.1320468E+00
        -11   -1    0    0    0    0  0.00000000000E+00  0.00000000000E+00  0.45593999997E+02  0.45594000000E+02  0.51100000000E-03 0.  1.
         11   -1    0    0    0    0 -0.00000000000E+00 -0.00000000000E+00 -0.45593999997E+02  0.45594000000E+02  0.51100000000E-03 0. -1.
    9900012    2    1    2    0    0  0.31283982573E+02 -0.19536585604E+02 -0.25860157785E+02  0.46142317595E+02  0.99999984864E+01 0.  0.
        -12    1    1    2    0    0 -0.31283982573E+02  0.19536585604E+02  0.25860157785E+02  0.45045682405E+02  0.00000000000E+00 0.  1.
         11    1    3    3    0    0  0.12116932633E+02 -0.29377889370E+01 -0.68549528043E+01  0.14228177623E+02  0.51100000000E-03 0. -1.
        -11    1    3    3    0    0  0.95658002586E+01 -0.67575686931E+01 -0.10620076862E+02  0.15809974764E+02  0.51100000000E-03 0.  1.
         12    1    3    3    0    0  0.96012496815E+01 -0.98412279737E+01 -0.83851281183E+01  0.16104165208E+02  0.00000000000E+00 0. -1.
</event>
<event>
 7    1  0.2031146E-008  0.4614232E+02  0.7816164E-02  0.1320468E+00
        -11   -1    0    0    0    0  0.00000000000E+00  0.00000000000E+00  0.45593999997E+02  0.45594000000E+02  0.51100000000E-03 0. -1.
         11   -1    0    0    0    0 -0.00000000000E+00 -0.00000000000E+00 -0.45593999997E+02  0.45594000000E+02  0.51100000000E-03 0.  1.
    9900012    2    1    2    0    0  0.11067556522E+02  0.25606238536E+02  0.35368676422E+02  0.46142317286E+02  0.99999956709E+01 0.  0.
        -12    1    1    2    0    0 -0.11067556522E+02 -0.25606238536E+02 -0.35368676422E+02  0.45045682714E+02  0.00000000000E+00 0.  1.
         11    1    3    3    0    0  0.31914964067E+01  0.59327086775E+01  0.45080787433E+01  0.81058901906E+01  0.51100000000E-03 0. -1.
        -11    1    3    3    0    0 -0.52430738506E+00  0.50885969303E+01  0.10000056396E+02  0.11232535117E+02  0.51100000000E-03 0.  1.
        -12    1    3    3    0    0  0.84003675000E+01  0.14584932928E+02  0.20860541282E+02  0.26803891979E+02  0.00000000000E+00 0.  1.
</event>
<event>
 7    1  0.2031146E-008  0.4614232E+02  0.7816164E-02  0.1320468E+00
        -11   -1    0    0    0    0  0.00000000000E+00  0.00000000000E+00  0.45593999997E+02  0.45594000000E+02  0.51100000000E-03 0.  1.
         11   -1    0    0    0    0 -0.00000000000E+00 -0.00000000000E+00 -0.45593999997E+02  0.45594000000E+02  0.51100000000E-03 0. -1.
    9900012    2    1    2    0    0 -0.36877464170E+01  0.27895779307E+02 -0.35175829569E+02  0.46142323596E+02  0.10000053211E+02 0.  0.
        -12    1    1    2    0    0  0.36877464170E+01 -0.27895779307E+02  0.35175829569E+02  0.45045676404E+02  0.00000000000E+00 0.  1.
         11    1    3    3    0    0 -0.36584068705E+00  0.52804551165E+01 -0.31840267913E+01  0.61769792387E+01  0.51100000000E-03 0. -1.
        -11    1    3    3    0    0  0.89334208623E+00  0.44252205002E+01 -0.27989359858E+01  0.53117491914E+01  0.51100000000E-03 0.  1.
         12    1    3    3    0    0 -0.42152478162E+01  0.18190103690E+02 -0.29192866792E+02  0.34653595166E+02  0.00000000000E+00 0. -1.
</event>
<event>
 7    1  0.2031146E-008  0.4614232E+02  0.7816164E-02  0.1320468E+00
        -11   -1    0    0    0    0  0.00000000000E+00  0.00000000000E+00  0.45593999997E+02  0.45594000000E+02  0.51100000000E-03 0.  1.
         11   -1    0    0    0    0 -0.00000000000E+00 -0.00000000000E+00 -0.45593999997E+02  0.45594000000E+02  0.51100000000E-03 0. -1.
    9900012    2    1    2    0    0 -0.26291478579E+02 -0.19951314014E+02 -0.30656430551E+02  0.46142317511E+02  0.99999977214E+01 0.  0.
        -12    1    1    2    0    0  0.26291478579E+02  0.19951314014E+02  0.30656430551E+02  0.45045682489E+02  0.00000000000E+00 0.  1.
         11    1    3    3    0    0 -0.11637468286E+02 -0.10178070591E+02 -0.10752408146E+02  0.18831836614E+02  0.51100000000E-03 0. -1.
        -11    1    3    3    0    0 -0.49421417963E+01 -0.32834649104E+01 -0.27073246419E+01  0.65219256612E+01  0.51100000000E-03 0.  1.
         12    1    3    3    0    0 -0.97118684964E+01 -0.64897785132E+01 -0.17196697764E+02  0.20788555236E+02  0.00000000000E+00 0. -1.
</event>
<event>
 7    1  0.2031146E-008  0.4614232E+02  0.7816164E-02  0.1320468E+00
        -11   -1    0    0    0    0  0.00000000000E+00  0.00000000000E+00  0.45593999997E+02  0.45594000000E+02  0.51100000000E-03 0.  1.
         11   -1    0    0    0    0 -0.00000000000E+00 -0.00000000000E+00 -0.45593999997E+02  0.45594000000E+02  0.51100000000E-03 0. -1.
    9900012    2    1    2    0    0  0.10026417990E+02 -0.43458504682E+02 -0.63200333705E+01  0.46142317535E+02  0.99999979418E+01 0.  0.
        -12    1    1    2    0    0 -0.10026417990E+02  0.43458504682E+02  0.63200333705E+01  0.45045682465E+02  0.00000000000E+00 0.  1.
         11    1    3    3    0    0  0.41266151513E+01 -0.17584910266E+02 -0.23959580316E+01  0.18220829751E+02  0.51100000000E-03 0. -1.
        -11    1    3    3    0    0  0.45159759023E+01 -0.23535571125E+02 -0.10814078336E+01  0.23989301568E+02  0.51100000000E-03 0.  1.
        -12    1    3    3    0    0  0.13838269358E+01 -0.23380232908E+01 -0.28426675052E+01  0.39321862166E+01  0.00000000000E+00 0.  1.
</event>
<event>
 7    1  0.2031146E-008  0.4614232E+02  0.7816164E-02  0.1320468E+00
        -11   -1    0    0    0    0  0.00000000000E+00  0.00000000000E+00  0.45593999997E+02  0.45594000000E+02  0.51100000000E-03 0.  1.
         11   -1    0    0    0    0 -0.00000000000E+00 -0.00000000000E+00 -0.45593999997E+02  0.45594000000E+02  0.51100000000E-03 0. -1.
    9900012    2    1    2    0    0  0.27568211856E+02 -0.75844556059E+01 -0.34807802966E+02  0.46142318530E+02  0.10000007007E+02 0.  0.
        -12    1    1    2    0    0 -0.27568211856E+02  0.75844556059E+01  0.34807802966E+02  0.45045681470E+02  0.00000000000E+00 0.  1.
         11    1    3    3    0    0  0.99417324281E+01 -0.54819383156E+01 -0.18121717267E+02  0.21384254215E+02  0.51100000000E-03 0.  1.
        -11    1    3    3    0    0  0.40451905859E+01 -0.61227376198E+00 -0.66406676985E+01  0.77998021628E+01  0.51100000000E-03 0. -1.
        -12    1    3    3    0    0  0.13581288842E+02 -0.14902435283E+01 -0.10045418001E+02  0.16958262152E+02  0.00000000000E+00 0.  1.
</event>
<event>
 7    1  0.2031146E-008  0.4614232E+02  0.7816164E-02  0.1320468E+00
        -11   -1    0    0    0    0  0.00000000000E+00  0.00000000000E+00  0.45593999997E+02  0.45594000000E+02  0.51100000000E-03 0. -1.
         11   -1    0    0    0    0 -0.00000000000E+00 -0.00000000000E+00 -0.45593999997E+02  0.45594000000E+02  0.51100000000E-03 0.  1.
    9900012    2    1    2    0    0 -0.72104210850E+01  0.22844583960E+02  0.38147717395E+02  0.46142317288E+02  0.99999956826E+01 0.  0.
        -12    1    1    2    0    0  0.72104210850E+01 -0.22844583960E+02 -0.38147717395E+02  0.45045682712E+02  0.00000000000E+00 0.  1.
         11    1    3    3    0    0 -0.54384728843E+00  0.30245254403E+01  0.33229505631E+01  0.45260937593E+01  0.51100000000E-03 0. -1.
        -11    1    3    3    0    0 -0.28214526053E+01  0.17097625851E+02  0.22346586679E+02  0.28278248549E+02  0.51100000000E-03 0.  1.
        -12    1    3    3    0    0 -0.38451211913E+01  0.27224326695E+01  0.12478180153E+02  0.13337974979E+02  0.00000000000E+00 0.  1.
</event>
<event>
 7    1  0.2031146E-008  0.4614232E+02  0.7816164E-02  0.1320468E+00
        -11   -1    0    0    0    0  0.00000000000E+00  0.00000000000E+00  0.45593999997E+02  0.45594000000E+02  0.51100000000E-03 0.  1.
         11   -1    0    0    0    0 -0.00000000000E+00 -0.00000000000E+00 -0.45593999997E+02  0.45594000000E+02  0.51100000000E-03 0. -1.
    9900012    2    1    2    0    0 -0.35926943430E+02  0.21410554786E+02 -0.16731893589E+02  0.46142318924E+02  0.10000010609E+02 0.  0.
        -12    1    1    2    0    0  0.35926943430E+02 -0.21410554786E+02  0.16731893589E+02  0.45045681076E+02  0.00000000000E+00 0.  1.
         11    1    3    3    0    0 -0.88443527197E+01  0.80479773654E+01 -0.13511256799E+01  0.12034037376E+02  0.51100000000E-03 0. -1.
        -11    1    3    3    0    0 -0.43842691050E+00  0.94542806496E+00 -0.40776748247E+00  0.11190741543E+01  0.51100000000E-03 0.  1.
         12    1    3    3    0    0 -0.26644163800E+02  0.12417149356E+02 -0.14973000426E+02  0.32989207394E+02  0.00000000000E+00 0. -1.
</event>
<event>
 7    1  0.2031146E-008  0.4614232E+02  0.7816164E-02  0.1320468E+00
        -11   -1    0    0    0    0  0.00000000000E+00  0.00000000000E+00  0.45593999997E+02  0.45594000000E+02  0.51100000000E-03 0.  1.
         11   -1    0    0    0    0 -0.00000000000E+00 -0.00000000000E+00 -0.45593999997E+02  0.45594000000E+02  0.51100000000E-03 0. -1.
    9900012    2    1    2    0    0  0.23832540514E+02  0.34374410870E+02 -0.16718951719E+02  0.46142318114E+02  0.10000003215E+02 0.  0.
        -12    1    1    2    0    0 -0.23832540514E+02 -0.34374410870E+02  0.16718951719E+02  0.45045681886E+02  0.00000000000E+00 0.  1.
         11    1    3    3    0    0  0.75094381862E+00  0.55656590047E+01 -0.15916461186E+01  0.58372779960E+01  0.51100000000E-03 0. -1.
        -11    1    3    3    0    0  0.34375361499E+01  0.16690529264E+01 -0.10361163555E+01  0.39592840030E+01  0.51100000000E-03 0.  1.
        -12    1    3    3    0    0  0.19644060545E+02  0.27139698939E+02 -0.14091189245E+02  0.36345756115E+02  0.00000000000E+00 0.  1.
</event>
<event>
 7    1  0.2031146E-008  0.4614232E+02  0.7816164E-02  0.1320468E+00
        -11   -1    0    0    0    0  0.00000000000E+00  0.00000000000E+00  0.45593999997E+02  0.45594000000E+02  0.51100000000E-03 0.  1.
         11   -1    0    0    0    0 -0.00000000000E+00 -0.00000000000E+00 -0.45593999997E+02  0.45594000000E+02  0.51100000000E-03 0. -1.
    9900012    2    1    2    0    0 -0.15212892087E+02 -0.37451752688E+02 -0.19875803897E+02  0.46142318236E+02  0.10000004329E+02 0.  0.
        -12    1    1    2    0    0  0.15212892087E+02  0.37451752688E+02  0.19875803897E+02  0.45045681764E+02  0.00000000000E+00 0.  1.
         11    1    3    3    0    0 -0.12681719787E+02 -0.25147784705E+02 -0.15855053540E+02  0.32320578821E+02  0.51100000000E-03 0. -1.
        -11    1    3    3    0    0 -0.15210344114E+00  0.15268571041E+00 -0.67133241849E+00  0.70507861988E+00  0.51100000000E-03 0.  1.
        -12    1    3    3    0    0 -0.23790688587E+01 -0.12456653694E+02 -0.33494179381E+01  0.13116660795E+02  0.00000000000E+00 0.  1.
</event>
<event>
 7    1  0.2031146E-008  0.4614232E+02  0.7816164E-02  0.1320468E+00
        -11   -1    0    0    0    0  0.00000000000E+00  0.00000000000E+00  0.45593999997E+02  0.45594000000E+02  0.51100000000E-03 0. -1.
         11   -1    0    0    0    0 -0.00000000000E+00 -0.00000000000E+00 -0.45593999997E+02  0.45594000000E+02  0.51100000000E-03 0.  1.
    9900012    2    1    2    0    0 -0.98196438269E+01  0.32240403914E+02  0.29887195706E+02  0.46142317448E+02  0.99999971454E+01 0.  0.
        -12    1    1    2    0    0  0.98196438269E+01 -0.32240403914E+02 -0.29887195706E+02  0.45045682552E+02  0.00000000000E+00 0.  1.
         11    1    3    3    0    0 -0.21362969646E+01  0.77915313004E+01  0.71077457235E+01  0.10760658635E+02  0.51100000000E-03 0. -1.
        -11    1    3    3    0    0  0.74091526042E+00  0.90159953138E+01  0.10886884618E+02  0.14154906706E+02  0.51100000000E-03 0.  1.
         12    1    3    3    0    0 -0.84242621226E+01  0.15432877299E+02  0.11892565365E+02  0.21226752107E+02  0.00000000000E+00 0. -1.
</event>
<event>
 7    1  0.2031146E-008  0.4614232E+02  0.7816164E-02  0.1320468E+00
        -11   -1    0    0    0    0  0.00000000000E+00  0.00000000000E+00  0.45593999997E+02  0.45594000000E+02  0.51100000000E-03 0. -1.
         11   -1    0    0    0    0 -0.00000000000E+00 -0.00000000000E+00 -0.45593999997E+02  0.45594000000E+02  0.51100000000E-03 0.  1.
    9900012    2    1    2    0    0 -0.44408161875E+02 -0.68306559450E+01  0.32203568778E+01  0.46142318740E+02  0.10000008927E+02 0.  0.
        -12    1    1    2    0    0  0.44408161875E+02  0.68306559450E+01 -0.32203568778E+01  0.45045681260E+02  0.00000000000E+00 0.  1.
         11    1    3    3    0    0 -0.23607576363E+02 -0.52381384543E+01  0.48101126369E+01  0.24655484989E+02  0.51100000000E-03 0. -1.
        -11    1    3    3    0    0 -0.22161600019E+01  0.21292657918E+00  0.13219441855E+01  0.25892546365E+01  0.51100000000E-03 0.  1.
        -12    1    3    3    0    0 -0.18584425510E+02 -0.18054440699E+01 -0.29116999445E+01  0.18897579115E+02  0.00000000000E+00 0.  1.
</event>
<event>
 7    1  0.2031146E-008  0.4614232E+02  0.7816164E-02  0.1320468E+00
        -11   -1    0    0    0    0  0.00000000000E+00  0.00000000000E+00  0.45593999997E+02  0.45594000000E+02  0.51100000000E-03 0.  1.
         11   -1    0    0    0    0 -0.00000000000E+00 -0.00000000000E+00 -0.45593999997E+02  0.45594000000E+02  0.51100000000E-03 0. -1.
    9900012    2    1    2    0    0 -0.66118784329E+00  0.62134204461E+01 -0.44610196732E+02  0.46142318570E+02  0.10000007380E+02 0.  0.
        -12    1    1    2    0    0  0.66118784329E+00 -0.62134204461E+01  0.44610196732E+02  0.45045681430E+02  0.00000000000E+00 0.  1.
         11    1    3    3    0    0  0.32781717796E+00 -0.19170154086E+01 -0.81027460692E+01  0.83328810325E+01  0.51100000000E-03 0. -1.
        -11    1    3    3    0    0 -0.30166983948E+01  0.53288772156E+01 -0.18956491030E+02  0.19920992796E+02  0.51100000000E-03 0.  1.
         12    1    3    3    0    0  0.20276933735E+01  0.28015586391E+01 -0.17550959633E+02  0.17888444741E+02  0.00000000000E+00 0. -1.
</event>
<event>
 7    1  0.2031146E-008  0.4614232E+02  0.7816164E-02  0.1320468E+00
        -11   -1    0    0    0    0  0.00000000000E+00  0.00000000000E+00  0.45593999997E+02  0.45594000000E+02  0.51100000000E-03 0.  1.
         11   -1    0    0    0    0 -0.00000000000E+00 -0.00000000000E+00 -0.45593999997E+02  0.45594000000E+02  0.51100000000E-03 0. -1.
    9900012    2    1    2    0    0 -0.25096547744E+02 -0.20359281682E+02 -0.31381144251E+02  0.46142320143E+02  0.10000021723E+02 0.  0.
        -12    1    1    2    0    0  0.25096547744E+02  0.20359281682E+02  0.31381144251E+02  0.45045679857E+02  0.00000000000E+00 0.  1.
         11    1    3    3    0    0 -0.98381531108E+00 -0.14631846998E+01 -0.27711363970E+01  0.32845089776E+01  0.51100000000E-03 0. -1.
        -11    1    3    3    0    0 -0.71281665991E+01 -0.85167851260E+01 -0.15326950020E+02  0.18927804551E+02  0.51100000000E-03 0.  1.
         12    1    3    3    0    0 -0.16984565834E+02 -0.10379311856E+02 -0.13283057834E+02  0.23930006615E+02  0.00000000000E+00 0. -1.
</event>
<event>
 7    1  0.2031146E-008  0.4614232E+02  0.7816164E-02  0.1320468E+00
        -11   -1    0    0    0    0  0.00000000000E+00  0.00000000000E+00  0.45593999997E+02  0.45594000000E+02  0.51100000000E-03 0.  1.
         11   -1    0    0    0    0 -0.00000000000E+00 -0.00000000000E+00 -0.45593999997E+02  0.45594000000E+02  0.51100000000E-03 0. -1.
    9900012    2    1    2    0    0 -0.19486590762E+02  0.11049769009E+01 -0.40597601847E+02  0.46142317974E+02  0.10000001941E+02 0.  0.
        -12    1    1    2    0    0  0.19486590762E+02 -0.11049769009E+01  0.40597601847E+02  0.45045682026E+02  0.00000000000E+00 0.  1.
         11    1    3    3    0    0 -0.99266186392E+01  0.36927672930E+01 -0.16210478712E+02  0.19363726609E+02  0.51100000000E-03 0.  1.
        -11    1    3    3    0    0 -0.64413793165E+00  0.10445290870E+01 -0.47854107658E+01  0.49402541581E+01  0.51100000000E-03 0. -1.
        -12    1    3    3    0    0 -0.89158341908E+01 -0.36323194792E+01 -0.19601712370E+02  0.21838337206E+02  0.00000000000E+00 0.  1.
</event>
<event>
 7    1  0.2031146E-008  0.4614232E+02  0.7816164E-02  0.1320468E+00
        -11   -1    0    0    0    0  0.00000000000E+00  0.00000000000E+00  0.45593999997E+02  0.45594000000E+02  0.51100000000E-03 0. -1.
         11   -1    0    0    0    0 -0.00000000000E+00 -0.00000000000E+00 -0.45593999997E+02  0.45594000000E+02  0.51100000000E-03 0.  1.
    9900012    2    1    2    0    0  0.37062598950E+02  0.63241674939E+01  0.24808914038E+02  0.46142317064E+02  0.99999936421E+01 0.  0.
        -12    1    1    2    0    0 -0.37062598950E+02 -0.63241674939E+01 -0.24808914038E+02  0.45045682936E+02  0.00000000000E+00 0.  1.
         11    1    3    3    0    0  0.23755537384E+02  0.21744504479E+01  0.14751114946E+02  0.28047266954E+02  0.51100000000E-03 0. -1.
        -11    1    3    3    0    0  0.97774879975E+01  0.48790359804E+01  0.94362830854E+01  0.14437718046E+02  0.51100000000E-03 0.  1.
         12    1    3    3    0    0  0.35295735680E+01 -0.72931893442E+00  0.62151600668E+00  0.36573320640E+01  0.00000000000E+00 0. -1.
</event>
<event>
 7    1  0.2031146E-008  0.4614232E+02  0.7816164E-02  0.1320468E+00
        -11   -1    0    0    0    0  0.00000000000E+00  0.00000000000E+00  0.45593999997E+02  0.45594000000E+02  0.51100000000E-03 0. -1.
         11   -1    0    0    0    0 -0.00000000000E+00 -0.00000000000E+00 -0.45593999997E+02  0.45594000000E+02  0.51100000000E-03 0.  1.
    9900012    2    1    2    0    0 -0.15835356905E+02  0.68089476058E+01  0.41617221738E+02  0.46142318287E+02  0.10000004798E+02 0.  0.
        -12    1    1    2    0    0  0.15835356905E+02 -0.68089476058E+01 -0.41617221738E+02  0.45045681713E+02  0.00000000000E+00 0.  1.
         11    1    3    3    0    0 -0.11939644364E+02  0.35009029454E+00  0.25908888686E+02  0.28529777145E+02  0.51100000000E-03 0. -1.
        -11    1    3    3    0    0 -0.15743089930E+01  0.19019883431E+01  0.28283607926E+01  0.37544152004E+01  0.51100000000E-03 0.  1.
         12    1    3    3    0    0 -0.23214035486E+01  0.45568689681E+01  0.12879972259E+02  0.13858125942E+02  0.00000000000E+00 0. -1.
</event>
<event>
 7    1  0.2031146E-008  0.4614232E+02  0.7816164E-02  0.1320468E+00
        -11   -1    0    0    0    0  0.00000000000E+00  0.00000000000E+00  0.45593999997E+02  0.45594000000E+02  0.51100000000E-03 0.  1.
         11   -1    0    0    0    0 -0.00000000000E+00 -0.00000000000E+00 -0.45593999997E+02  0.45594000000E+02  0.51100000000E-03 0. -1.
    9900012    2    1    2    0    0  0.16380272237E+02  0.38444275885E+02 -0.16817781341E+02  0.46142318341E+02  0.10000005292E+02 0.  0.
        -12    1    1    2    0    0 -0.16380272237E+02 -0.38444275885E+02  0.16817781341E+02  0.45045681659E+02  0.00000000000E+00 0.  1.
         11    1    3    3    0    0  0.11885325093E+01  0.97911683165E+01 -0.42027454739E+01  0.10721131298E+02  0.51100000000E-03 0. -1.
        -11    1    3    3    0    0  0.11523449343E+01  0.30501807218E+01  0.69064391479E+00  0.33329402277E+01  0.51100000000E-03 0.  1.
         12    1    3    3    0    0  0.14039394793E+02  0.25602926847E+02 -0.13305679781E+02  0.32088246816E+02  0.00000000000E+00 0. -1.
</event>
<event>
 7    1  0.2031146E-008  0.4614232E+02  0.7816164E-02  0.1320468E+00
        -11   -1    0    0    0    0  0.00000000000E+00  0.00000000000E+00  0.45593999997E+02  0.45594000000E+02  0.51100000000E-03 0.  1.
         11   -1    0    0    0    0 -0.00000000000E+00 -0.00000000000E+00 -0.45593999997E+02  0.45594000000E+02  0.51100000000E-03 0. -1.
    9900012    2    1    2    0    0 -0.44699440355E+02 -0.48281911198E+01 -0.27860681107E+01  0.46142316821E+02  0.99999914299E+01 0.  0.
        -12    1    1    2    0    0  0.44699440355E+02  0.48281911198E+01  0.27860681107E+01  0.45045683179E+02  0.00000000000E+00 0.  1.
         11    1    3    3    0    0 -0.28650122560E+02 -0.50695073731E+01 -0.15303754700E+01  0.29135399037E+02  0.51100000000E-03 0. -1.
        -11    1    3    3    0    0 -0.15478447544E+02 -0.10835465123E+01 -0.10846249131E+01  0.15554189882E+02  0.51100000000E-03 0.  1.
        -12    1    3    3    0    0 -0.57087025060E+00  0.13248627655E+01 -0.17106772762E+00  0.14527279022E+01  0.00000000000E+00 0.  1.
</event>
<event>
 7    1  0.2031146E-008  0.4614231E+02  0.7816164E-02  0.1320468E+00
        -11   -1    0    0    0    0  0.00000000000E+00  0.00000000000E+00  0.45593999997E+02  0.45594000000E+02  0.51100000000E-03 0. -1.
         11   -1    0    0    0    0 -0.00000000000E+00 -0.00000000000E+00 -0.45593999997E+02  0.45594000000E+02  0.51100000000E-03 0.  1.
    9900012    2    1    2    0    0 -0.30159398680E+02 -0.27135655469E+02  0.19575005138E+02  0.46142312608E+02  0.99999530080E+01 0.  0.
        -12    1    1    2    0    0  0.30159398680E+02  0.27135655469E+02 -0.19575005138E+02  0.45045687392E+02  0.00000000000E+00 0.  1.
         11    1    3    3    0    0 -0.12580092868E+02 -0.83274684765E+01  0.10706895827E+02  0.18499813142E+02  0.51100000000E-03 0. -1.
        -11    1    3    3    0    0 -0.96378688760E+01 -0.11518934302E+02  0.74648581201E+01  0.16771954893E+02  0.51100000000E-03 0.  1.
         12    1    3    3    0    0 -0.79414369364E+01 -0.72892526900E+01  0.14032511918E+01  0.10870544572E+02  0.00000000000E+00 0. -1.
</event>
<event>
 7    1  0.2031146E-008  0.4614232E+02  0.7816164E-02  0.1320468E+00
        -11   -1    0    0    0    0  0.00000000000E+00  0.00000000000E+00  0.45593999997E+02  0.45594000000E+02  0.51100000000E-03 0.  1.
         11   -1    0    0    0    0 -0.00000000000E+00 -0.00000000000E+00 -0.45593999997E+02  0.45594000000E+02  0.51100000000E-03 0. -1.
    9900012    2    1    2    0    0 -0.54885030760E+01 -0.21290119315E+02 -0.39315653442E+02  0.46142318165E+02  0.10000003680E+02 0.  0.
        -12    1    1    2    0    0  0.54885030760E+01  0.21290119315E+02  0.39315653442E+02  0.45045681835E+02  0.00000000000E+00 0.  1.
         11    1    3    3    0    0 -0.39596006927E+01 -0.15144421299E+02 -0.32742600746E+02  0.36292007908E+02  0.51100000000E-03 0. -1.
        -11    1    3    3    0    0 -0.38034655434E+00 -0.42266380411E+01 -0.63016937998E+01  0.75973993998E+01  0.51100000000E-03 0.  1.
         12    1    3    3    0    0 -0.11485558290E+01 -0.19190599742E+01 -0.27135889571E+00  0.22529108565E+01  0.00000000000E+00 0. -1.
</event>
<event>
 7    1  0.2031146E-008  0.4614232E+02  0.7816164E-02  0.1320468E+00
        -11   -1    0    0    0    0  0.00000000000E+00  0.00000000000E+00  0.45593999997E+02  0.45594000000E+02  0.51100000000E-03 0.  1.
         11   -1    0    0    0    0 -0.00000000000E+00 -0.00000000000E+00 -0.45593999997E+02  0.45594000000E+02  0.51100000000E-03 0. -1.
    9900012    2    1    2    0    0 -0.16623974050E+02 -0.12254805628E+02 -0.40032195283E+02  0.46142318371E+02  0.10000005563E+02 0.  0.
        -12    1    1    2    0    0  0.16623974050E+02  0.12254805628E+02  0.40032195283E+02  0.45045681629E+02  0.00000000000E+00 0.  1.
         11    1    3    3    0    0 -0.29290913949E+01 -0.30384754161E+01 -0.10392267764E+02  0.11216556459E+02  0.51100000000E-03 0. -1.
        -11    1    3    3    0    0  0.38279582041E+00 -0.18958710124E-01 -0.54598060719E+01  0.54732416972E+01  0.51100000000E-03 0.  1.
        -12    1    3    3    0    0 -0.14077678475E+02 -0.91973715022E+01 -0.24180121447E+02  0.29452520215E+02  0.00000000000E+00 0.  1.
</event>
<event>
 7    1  0.2031146E-008  0.4614232E+02  0.7816164E-02  0.1320468E+00
        -11   -1    0    0    0    0  0.00000000000E+00  0.00000000000E+00  0.45593999997E+02  0.45594000000E+02  0.51100000000E-03 0.  1.
         11   -1    0    0    0    0 -0.00000000000E+00 -0.00000000000E+00 -0.45593999997E+02  0.45594000000E+02  0.51100000000E-03 0. -1.
    9900012    2    1    2    0    0  0.24773058229E+02 -0.26709645705E+02 -0.26495357019E+02  0.46142317285E+02  0.99999956611E+01 0.  0.
        -12    1    1    2    0    0 -0.24773058229E+02  0.26709645705E+02  0.26495357019E+02  0.45045682715E+02  0.00000000000E+00 0.  1.
         11    1    3    3    0    0  0.10307363663E+02 -0.11493446228E+02 -0.98655574079E+01  0.18321306589E+02  0.51100000000E-03 0. -1.
        -11    1    3    3    0    0  0.83366313368E+00 -0.53297536276E+01 -0.31192463674E+01  0.62314497601E+01  0.51100000000E-03 0.  1.
        -12    1    3    3    0    0  0.13632031432E+02 -0.98864458488E+01 -0.13510553244E+02  0.21589560936E+02  0.00000000000E+00 0.  1.
</event>
<event>
 7    1  0.2031146E-008  0.4614232E+02  0.7816164E-02  0.1320468E+00
        -11   -1    0    0    0    0  0.00000000000E+00  0.00000000000E+00  0.45593999997E+02  0.45594000000E+02  0.51100000000E-03 0.  1.
         11   -1    0    0    0    0 -0.00000000000E+00 -0.00000000000E+00 -0.45593999997E+02  0.45594000000E+02  0.51100000000E-03 0. -1.
    9900012    2    1    2    0    0 -0.51377949723E+00  0.14650340072E+02 -0.42593627534E+02  0.46142317187E+02  0.99999947622E+01 0.  0.
        -12    1    1    2    0    0  0.51377949723E+00 -0.14650340072E+02  0.42593627534E+02  0.45045682813E+02  0.00000000000E+00 0.  1.
         11    1    3    3    0    0 -0.17844233752E+01  0.58767957668E+01 -0.98951104730E+01  0.11646205683E+02  0.51100000000E-03 0.  1.
        -11    1    3    3    0    0 -0.25022981136E+01  0.33706847117E+01 -0.16074034843E+02  0.16613175725E+02  0.51100000000E-03 0. -1.
         12    1    3    3    0    0  0.37729419916E+01  0.54028595931E+01 -0.16624482218E+02  0.17882935779E+02  0.00000000000E+00 0. -1.
</event>
<event>
 7    1  0.2031146E-008  0.4614232E+02  0.7816164E-02  0.1320468E+00
        -11   -1    0    0    0    0  0.00000000000E+00  0.00000000000E+00  0.45593999997E+02  0.45594000000E+02  0.51100000000E-03 0.  1.
         11   -1    0    0    0    0 -0.00000000000E+00 -0.00000000000E+00 -0.45593999997E+02  0.45594000000E+02  0.51100000000E-03 0. -1.
    9900012    2    1    2    0    0  0.15564305214E+02 -0.19642111300E+02 -0.37430647707E+02  0.46142317400E+02  0.99999967059E+01 0.  0.
        -12    1    1    2    0    0 -0.15564305214E+02  0.19642111300E+02  0.37430647707E+02  0.45045682600E+02  0.00000000000E+00 0.  1.
         11    1    3    3    0    0  0.12890100447E+02 -0.13936669077E+02 -0.24275451650E+02  0.30816926965E+02  0.51100000000E-03 0. -1.
        -11    1    3    3    0    0  0.25477635806E+00 -0.34843771963E+01 -0.28475284322E+01  0.45071292274E+01  0.51100000000E-03 0.  1.
        -12    1    3    3    0    0  0.24194284095E+01 -0.22210650261E+01 -0.10307667626E+02  0.10818261208E+02  0.00000000000E+00 0.  1.
</event>
<event>
 7    1  0.2031146E-008  0.4614232E+02  0.7816164E-02  0.1320468E+00
        -11   -1    0    0    0    0  0.00000000000E+00  0.00000000000E+00  0.45593999997E+02  0.45594000000E+02  0.51100000000E-03 0. -1.
         11   -1    0    0    0    0 -0.00000000000E+00 -0.00000000000E+00 -0.45593999997E+02  0.45594000000E+02  0.51100000000E-03 0.  1.
    9900012    2    1    2    0    0 -0.28954774535E+02  0.33470759908E+02  0.83930000402E+01  0.46142321108E+02  0.10000030516E+02 0.  0.
        -12    1    1    2    0    0  0.28954774535E+02 -0.33470759908E+02 -0.83930000402E+01  0.45045678892E+02  0.00000000000E+00 0.  1.
         11    1    3    3    0    0 -0.10312140064E+02  0.13902908356E+02  0.70797370874E+00  0.17324327418E+02  0.51100000000E-03 0. -1.
        -11    1    3    3    0    0 -0.43591187599E+01  0.12451967038E+01  0.15222028824E+01  0.47822100613E+01  0.51100000000E-03 0.  1.
        -12    1    3    3    0    0 -0.14283515712E+02  0.18322654848E+02  0.61628234491E+01  0.24035783628E+02  0.00000000000E+00 0.  1.
</event>
<event>
 7    1  0.2031146E-008  0.4614232E+02  0.7816164E-02  0.1320468E+00
        -11   -1    0    0    0    0  0.00000000000E+00  0.00000000000E+00  0.45593999997E+02  0.45594000000E+02  0.51100000000E-03 0.  1.
         11   -1    0    0    0    0 -0.00000000000E+00 -0.00000000000E+00 -0.45593999997E+02  0.45594000000E+02  0.51100000000E-03 0. -1.
    9900012    2    1    2    0    0  0.38064158425E+02 -0.11906195685E+02 -0.20939815637E+02  0.46142317285E+02  0.99999956618E+01 0.  0.
        -12    1    1    2    0    0 -0.38064158425E+02  0.11906195685E+02  0.20939815637E+02  0.45045682715E+02  0.00000000000E+00 0.  1.
         11    1    3    3    0    0  0.75628623325E+01 -0.52433664310E+01 -0.20827773783E+01  0.94354512376E+01  0.51100000000E-03 0. -1.
        -11    1    3    3    0    0  0.46243798504E+01  0.33468131676E+00 -0.20665098354E+01  0.50761563949E+01  0.51100000000E-03 0.  1.
         12    1    3    3    0    0  0.25876916242E+02 -0.69975105710E+01 -0.16790528424E+02  0.31630709653E+02  0.00000000000E+00 0. -1.
</event>
<event>
 7    1  0.2031146E-008  0.4614232E+02  0.7816164E-02  0.1320468E+00
        -11   -1    0    0    0    0  0.00000000000E+00  0.00000000000E+00  0.45593999997E+02  0.45594000000E+02  0.51100000000E-03 0.  1.
         11   -1    0    0    0    0 -0.00000000000E+00 -0.00000000000E+00 -0.45593999997E+02  0.45594000000E+02  0.51100000000E-03 0. -1.
    9900012    2    1    2    0    0 -0.32556282267E+02  0.16551731978E+02 -0.26367445566E+02  0.46142317274E+02  0.99999955607E+01 0.  0.
        -12    1    1    2    0    0  0.32556282267E+02 -0.16551731978E+02  0.26367445566E+02  0.45045682726E+02  0.00000000000E+00 0.  1.
         11    1    3    3    0    0 -0.14419149563E+02  0.67611566130E+01 -0.95790848087E+01  0.18584509111E+02  0.51100000000E-03 0. -1.
        -11    1    3    3    0    0 -0.83198837459E+00  0.30819136802E+01 -0.15759070146E+01  0.35600392930E+01  0.51100000000E-03 0.  1.
        -12    1    3    3    0    0 -0.17305144330E+02  0.67086616852E+01 -0.15212453743E+02  0.23997768870E+02  0.00000000000E+00 0.  1.
</event>
<event>
 7    1  0.2031146E-008  0.4614232E+02  0.7816164E-02  0.1320468E+00
        -11   -1    0    0    0    0  0.00000000000E+00  0.00000000000E+00  0.45593999997E+02  0.45594000000E+02  0.51100000000E-03 0. -1.
         11   -1    0    0    0    0 -0.00000000000E+00 -0.00000000000E+00 -0.45593999997E+02  0.45594000000E+02  0.51100000000E-03 0.  1.
    9900012    2    1    2    0    0  0.14071279918E+02 -0.35882091795E+02  0.23314972884E+02  0.46142318845E+02  0.10000009884E+02 0.  0.
        -12    1    1    2    0    0 -0.14071279918E+02  0.35882091795E+02 -0.23314972884E+02  0.45045681155E+02  0.00000000000E+00 0.  1.
         11    1    3    3    0    0  0.42780600425E+01 -0.13459079384E+02  0.10315047452E+02  0.17488533952E+02  0.51100000000E-03 0. -1.
        -11    1    3    3    0    0  0.30157723587E+01 -0.15699027372E+02  0.79652299579E+01  0.17860549596E+02  0.51100000000E-03 0.  1.
         12    1    3    3    0    0  0.67774475167E+01 -0.67239850392E+01  0.50346954740E+01  0.10793235296E+02  0.00000000000E+00 0. -1.
</event>
<event>
 7    1  0.2031146E-008  0.4614231E+02  0.7816164E-02  0.1320468E+00
        -11   -1    0    0    0    0  0.00000000000E+00  0.00000000000E+00  0.45593999997E+02  0.45594000000E+02  0.51100000000E-03 0.  1.
         11   -1    0    0    0    0 -0.00000000000E+00 -0.00000000000E+00 -0.45593999997E+02  0.45594000000E+02  0.51100000000E-03 0. -1.
    9900012    2    1    2    0    0  0.20656820600E+02  0.22881391760E+02 -0.32845874913E+02  0.46142314024E+02  0.99999659224E+01 0.  0.
        -12    1    1    2    0    0 -0.20656820600E+02 -0.22881391760E+02  0.32845874913E+02  0.45045685976E+02  0.00000000000E+00 0.  1.
         11    1    3    3    0    0  0.49490015724E+01  0.56178296730E+01 -0.12394897944E+02  0.14480542880E+02  0.51100000000E-03 0. -1.
        -11    1    3    3    0    0  0.60265146192E+01  0.10803526003E+02 -0.87080698465E+01  0.15128302392E+02  0.51100000000E-03 0.  1.
        -12    1    3    3    0    0  0.96813044089E+01  0.64600360841E+01 -0.11742907123E+02  0.16533468752E+02  0.00000000000E+00 0.  1.
</event>
<event>
 7    1  0.2031146E-008  0.4614232E+02  0.7816164E-02  0.1320468E+00
        -11   -1    0    0    0    0  0.00000000000E+00  0.00000000000E+00  0.45593999997E+02  0.45594000000E+02  0.51100000000E-03 0. -1.
         11   -1    0    0    0    0 -0.00000000000E+00 -0.00000000000E+00 -0.45593999997E+02  0.45594000000E+02  0.51100000000E-03 0.  1.
    9900012    2    1    2    0    0  0.40812168430E+02 -0.98191897736E+01  0.16342089065E+02  0.46142318134E+02  0.10000003404E+02 0.  0.
        -12    1    1    2    0    0 -0.40812168430E+02  0.98191897736E+01 -0.16342089065E+02  0.45045681866E+02  0.00000000000E+00 0.  1.
         11    1    3    3    0    0  0.15937237713E+02 -0.25766742030E+01  0.22475182464E+01  0.16299881423E+02  0.51100000000E-03 0. -1.
        -11    1    3    3    0    0  0.22662085211E+02 -0.65065240768E+01  0.11135759701E+02  0.26075085926E+02  0.51100000000E-03 0.  1.
         12    1    3    3    0    0  0.22128455053E+01 -0.73599149383E+00  0.29588111177E+01  0.37673507853E+01  0.00000000000E+00 0. -1.
</event>
<event>
 7    1  0.2031146E-008  0.4614232E+02  0.7816164E-02  0.1320468E+00
        -11   -1    0    0    0    0  0.00000000000E+00  0.00000000000E+00  0.45593999997E+02  0.45594000000E+02  0.51100000000E-03 0. -1.
         11   -1    0    0    0    0 -0.00000000000E+00 -0.00000000000E+00 -0.45593999997E+02  0.45594000000E+02  0.51100000000E-03 0.  1.
    9900012    2    1    2    0    0  0.26989798060E+02  0.47572029394E+01  0.35749591471E+02  0.46142317971E+02  0.10000001914E+02 0.  0.
        -12    1    1    2    0    0 -0.26989798060E+02 -0.47572029394E+01 -0.35749591471E+02  0.45045682029E+02  0.00000000000E+00 0.  1.
         11    1    3    3    0    0  0.58635024249E+00  0.13712115449E+01  0.32687329209E+01  0.35928599857E+01  0.51100000000E-03 0. -1.
        -11    1    3    3    0    0  0.14001387266E+02  0.42455241553E+01  0.13814780359E+02  0.20122412315E+02  0.51100000000E-03 0.  1.
         12    1    3    3    0    0  0.12402060552E+02 -0.85953276079E+00  0.18666078191E+02  0.22427045671E+02  0.00000000000E+00 0. -1.
</event>
<event>
 7    1  0.2031146E-008  0.4614232E+02  0.7816164E-02  0.1320468E+00
        -11   -1    0    0    0    0  0.00000000000E+00  0.00000000000E+00  0.45593999997E+02  0.45594000000E+02  0.51100000000E-03 0.  1.
         11   -1    0    0    0    0 -0.00000000000E+00 -0.00000000000E+00 -0.45593999997E+02  0.45594000000E+02  0.51100000000E-03 0. -1.
    9900012    2    1    2    0    0  0.61592427860E+01  0.12492650767E+02 -0.42838195508E+02  0.46142316641E+02  0.99999897861E+01 0.  0.
        -12    1    1    2    0    0 -0.61592427860E+01 -0.12492650767E+02  0.42838195508E+02  0.45045683359E+02  0.00000000000E+00 0.  1.
         11    1    3    3    0    0 -0.17809666004E+00  0.39834500040E+01 -0.50735279508E+01  0.64529279001E+01  0.51100000000E-03 0. -1.
        -11    1    3    3    0    0  0.58950722225E+00  0.33987516492E+00 -0.58941070639E-01  0.68301405823E+00  0.51100000000E-03 0.  1.
         12    1    3    3    0    0  0.57478322238E+01  0.81693255982E+01 -0.37705726487E+02  0.39006374683E+02  0.00000000000E+00 0. -1.
</event>
<event>
 7    1  0.2031146E-008  0.4614232E+02  0.7816164E-02  0.1320468E+00
        -11   -1    0    0    0    0  0.00000000000E+00  0.00000000000E+00  0.45593999997E+02  0.45594000000E+02  0.51100000000E-03 0.  1.
         11   -1    0    0    0    0 -0.00000000000E+00 -0.00000000000E+00 -0.45593999997E+02  0.45594000000E+02  0.51100000000E-03 0. -1.
    9900012    2    1    2    0    0  0.30759233249E+02 -0.23899803461E+01 -0.32821808105E+02  0.46142317372E+02  0.99999964552E+01 0.  0.
        -12    1    1    2    0    0 -0.30759233249E+02  0.23899803461E+01  0.32821808105E+02  0.45045682628E+02  0.00000000000E+00 0.  1.
         11    1    3    3    0    0  0.59163399340E+01  0.16723550613E+01 -0.86774357815E+01  0.10634742200E+02  0.51100000000E-03 0. -1.
        -11    1    3    3    0    0 -0.43673407893E+00 -0.75939901848E-01 -0.41516967125E+00  0.60734639329E+00  0.51100000000E-03 0.  1.
         12    1    3    3    0    0  0.25279627394E+02 -0.39863955056E+01 -0.23729202652E+02  0.34900228779E+02  0.00000000000E+00 0. -1.
</event>
<event>
 7    1  0.2031146E-008  0.4614232E+02  0.7816164E-02  0.1320468E+00
        -11   -1    0    0    0    0  0.00000000000E+00  0.00000000000E+00  0.45593999997E+02  0.45594000000E+02  0.51100000000E-03 0.  1.
         11   -1    0    0    0    0 -0.00000000000E+00 -0.00000000000E+00 -0.45593999997E+02  0.45594000000E+02  0.51100000000E-03 0. -1.
    9900012    2    1    2    0    0  0.97172777737E+01 -0.23884979838E+01 -0.43920190947E+02  0.46142316714E+02  0.99999904485E+01 0.  0.
        -12    1    1    2    0    0 -0.97172777737E+01  0.23884979838E+01  0.43920190947E+02  0.45045683286E+02  0.00000000000E+00 0.  1.
         11    1    3    3    0    0  0.69250792850E+00 -0.53009010063E+00 -0.90923912759E+01  0.91341196686E+01  0.51100000000E-03 0. -1.
        -11    1    3    3    0    0  0.74028461665E+01  0.94814313679E+00 -0.31462797488E+02  0.32335873776E+02  0.51100000000E-03 0.  1.
        -12    1    3    3    0    0  0.16219236788E+01 -0.28065510200E+01 -0.33650021822E+01  0.46723232694E+01  0.00000000000E+00 0.  1.
</event>
<event>
 7    1  0.2031146E-008  0.4614232E+02  0.7816164E-02  0.1320468E+00
        -11   -1    0    0    0    0  0.00000000000E+00  0.00000000000E+00  0.45593999997E+02  0.45594000000E+02  0.51100000000E-03 0.  1.
         11   -1    0    0    0    0 -0.00000000000E+00 -0.00000000000E+00 -0.45593999997E+02  0.45594000000E+02  0.51100000000E-03 0. -1.
    9900012    2    1    2    0    0 -0.40615061857E+02  0.96829409236E+01 -0.16904763944E+02  0.46142316094E+02  0.99999847987E+01 0.  0.
        -12    1    1    2    0    0  0.40615061857E+02 -0.96829409236E+01  0.16904763944E+02  0.45045683906E+02  0.00000000000E+00 0.  1.
         11    1    3    3    0    0 -0.62779316305E+01  0.41756417648E+01 -0.17119487053E+01  0.77316995762E+01  0.51100000000E-03 0. -1.
        -11    1    3    3    0    0 -0.46669437140E+01  0.12745164721E+01 -0.64510320571E-01  0.48382763160E+01  0.51100000000E-03 0.  1.
        -12    1    3    3    0    0 -0.29670186512E+02  0.42327826867E+01 -0.15128304918E+02  0.33572340202E+02  0.00000000000E+00 0.  1.
</event>
<event>
 7    1  0.2031146E-008  0.4614232E+02  0.7816164E-02  0.1320468E+00
        -11   -1    0    0    0    0  0.00000000000E+00  0.00000000000E+00  0.45593999997E+02  0.45594000000E+02  0.51100000000E-03 0.  1.
         11   -1    0    0    0    0 -0.00000000000E+00 -0.00000000000E+00 -0.45593999997E+02  0.45594000000E+02  0.51100000000E-03 0. -1.
    9900012    2    1    2    0    0  0.33797680445E-01  0.70428773635E+01 -0.44491688457E+02  0.46142316460E+02  0.99999881339E+01 0.  0.
        -12    1    1    2    0    0 -0.33797680445E-01 -0.70428773635E+01  0.44491688457E+02  0.45045683540E+02  0.00000000000E+00 0.  1.
         11    1    3    3    0    0  0.31101862876E+01  0.47479805258E+01 -0.26850743754E+02  0.27444107168E+02  0.51100000000E-03 0. -1.
        -11    1    3    3    0    0 -0.37217545871E+01  0.33027586514E+01 -0.14850157271E+02  0.15661636031E+02  0.51100000000E-03 0.  1.
        -12    1    3    3    0    0  0.64536597989E+00 -0.10078618138E+01 -0.27907874318E+01  0.30365732616E+01  0.00000000000E+00 0.  1.
</event>
<event>
 7    1  0.2031146E-008  0.4614232E+02  0.7816164E-02  0.1320468E+00
        -11   -1    0    0    0    0  0.00000000000E+00  0.00000000000E+00  0.45593999997E+02  0.45594000000E+02  0.51100000000E-03 0.  1.
         11   -1    0    0    0    0 -0.00000000000E+00 -0.00000000000E+00 -0.45593999997E+02  0.45594000000E+02  0.51100000000E-03 0. -1.
    9900012    2    1    2    0    0 -0.15234416223E+02 -0.26389176628E+02 -0.33175855953E+02  0.46142317643E+02  0.99999989268E+01 0.  0.
        -12    1    1    2    0    0  0.15234416223E+02  0.26389176628E+02  0.33175855953E+02  0.45045682357E+02  0.00000000000E+00 0.  1.
         11    1    3    3    0    0 -0.20020159396E+01 -0.62424926410E+01 -0.11144647646E+02  0.12929808723E+02  0.51100000000E-03 0. -1.
        -11    1    3    3    0    0 -0.37894825818E+01 -0.18762326323E+01 -0.29329119054E+01  0.51461052879E+01  0.51100000000E-03 0.  1.
        -12    1    3    3    0    0 -0.94429177011E+01 -0.18270451355E+02 -0.19098296401E+02  0.28066403632E+02  0.00000000000E+00 0.  1.
</event>
<event>
 7    1  0.2031146E-008  0.4614232E+02  0.7816164E-02  0.1320468E+00
        -11   -1    0    0    0    0  0.00000000000E+00  0.00000000000E+00  0.45593999997E+02  0.45594000000E+02  0.51100000000E-03 0.  1.
         11   -1    0    0    0    0 -0.00000000000E+00 -0.00000000000E+00 -0.45593999997E+02  0.45594000000E+02  0.51100000000E-03 0. -1.
    9900012    2    1    2    0    0  0.41036147613E+02 -0.16409020749E+02 -0.87116071504E+01  0.46142317943E+02  0.10000001655E+02 0.  0.
        -12    1    1    2    0    0 -0.41036147613E+02  0.16409020749E+02  0.87116071504E+01  0.45045682057E+02  0.00000000000E+00 0.  1.
         11    1    3    3    0    0  0.16647623676E+02 -0.63568544162E+01 -0.23548541687E+01  0.17974935620E+02  0.51100000000E-03 0. -1.
        -11    1    3    3    0    0  0.74721791117E+01 -0.19371196791E+01  0.14354072563E+01  0.78515149863E+01  0.51100000000E-03 0.  1.
         12    1    3    3    0    0  0.16916344825E+02 -0.81150466536E+01 -0.77921602379E+01  0.20315867336E+02  0.00000000000E+00 0. -1.
</event>
<event>
 7    1  0.2031146E-008  0.4614232E+02  0.7816164E-02  0.1320468E+00
        -11   -1    0    0    0    0  0.00000000000E+00  0.00000000000E+00  0.45593999997E+02  0.45594000000E+02  0.51100000000E-03 0.  1.
         11   -1    0    0    0    0 -0.00000000000E+00 -0.00000000000E+00 -0.45593999997E+02  0.45594000000E+02  0.51100000000E-03 0. -1.
    9900012    2    1    2    0    0  0.25515515994E+02 -0.40173148303E+01 -0.36904379089E+02  0.46142316846E+02  0.99999916544E+01 0.  0.
        -12    1    1    2    0    0 -0.25515515994E+02  0.40173148303E+01  0.36904379089E+02  0.45045683154E+02  0.00000000000E+00 0.  1.
         11    1    3    3    0    0  0.11218099182E+02 -0.29382727590E+01 -0.24180477380E+02  0.26817432439E+02  0.51100000000E-03 0. -1.
        -11    1    3    3    0    0  0.39903128915E+00  0.31815862465E+00 -0.15313034041E+00  0.53282271201E+00  0.51100000000E-03 0.  1.
         12    1    3    3    0    0  0.13898385523E+02 -0.13972006959E+01 -0.12570771369E+02  0.18792061695E+02  0.00000000000E+00 0. -1.
</event>
<event>
 7    1  0.2031146E-008  0.4614232E+02  0.7816164E-02  0.1320468E+00
        -11   -1    0    0    0    0  0.00000000000E+00  0.00000000000E+00  0.45593999997E+02  0.45594000000E+02  0.51100000000E-03 0. -1.
         11   -1    0    0    0    0 -0.00000000000E+00 -0.00000000000E+00 -0.45593999997E+02  0.45594000000E+02  0.51100000000E-03 0.  1.
    9900012    2    1    2    0    0  0.76225023305E+01 -0.36885187670E+02  0.24708173852E+02  0.46142318006E+02  0.10000002230E+02 0.  0.
        -12    1    1    2    0    0 -0.76225023305E+01  0.36885187670E+02 -0.24708173852E+02  0.45045681994E+02  0.00000000000E+00 0.  1.
         11    1    3    3    0    0 -0.50573778756E+00 -0.70243870189E+01  0.15137561433E+01  0.72034187455E+01  0.51100000000E-03 0. -1.
        -11    1    3    3    0    0 -0.23426469963E+00 -0.44723585676E+01  0.42688652235E+01  0.61870899188E+01  0.51100000000E-03 0.  1.
         12    1    3    3    0    0  0.83625048177E+01 -0.25388442084E+02  0.18925552485E+02  0.32751809341E+02  0.00000000000E+00 0. -1.
</event>
<event>
 7    1  0.2031146E-008  0.4614232E+02  0.7816164E-02  0.1320468E+00
        -11   -1    0    0    0    0  0.00000000000E+00  0.00000000000E+00  0.45593999997E+02  0.45594000000E+02  0.51100000000E-03 0.  1.
         11   -1    0    0    0    0 -0.00000000000E+00 -0.00000000000E+00 -0.45593999997E+02  0.45594000000E+02  0.51100000000E-03 0. -1.
    9900012    2    1    2    0    0  0.23976322064E+02 -0.33767155149E+02 -0.17720855826E+02  0.46142317434E+02  0.99999970213E+01 0.  0.
        -12    1    1    2    0    0 -0.23976322064E+02  0.33767155149E+02  0.17720855826E+02  0.45045682566E+02  0.00000000000E+00 0.  1.
         11    1    3    3    0    0  0.97154034566E+01 -0.12761589744E+02 -0.64498378504E+01  0.17287210465E+02  0.51100000000E-03 0. -1.
        -11    1    3    3    0    0  0.91425761609E+01 -0.91951580633E+01 -0.23091937418E+01  0.13170801292E+02  0.51100000000E-03 0.  1.
        -12    1    3    3    0    0  0.51183424465E+01 -0.11810407342E+02 -0.89618242340E+01  0.15684305677E+02  0.00000000000E+00 0.  1.
</event>
<event>
 7    1  0.2031146E-008  0.4614232E+02  0.7816164E-02  0.1320468E+00
        -11   -1    0    0    0    0  0.00000000000E+00  0.00000000000E+00  0.45593999997E+02  0.45594000000E+02  0.51100000000E-03 0. -1.
         11   -1    0    0    0    0 -0.00000000000E+00 -0.00000000000E+00 -0.45593999997E+02  0.45594000000E+02  0.51100000000E-03 0.  1.
    9900012    2    1    2    0    0 -0.30074822755E+02 -0.29929846963E+02  0.15126889279E+02  0.46142317830E+02  0.10000000627E+02 0.  0.
        -12    1    1    2    0    0  0.30074822755E+02  0.29929846963E+02 -0.15126889279E+02  0.45045682170E+02  0.00000000000E+00 0.  1.
         11    1    3    3    0    0 -0.15135711397E+01 -0.32541256219E+00 -0.81141593404E+00  0.17479093253E+01  0.51100000000E-03 0. -1.
        -11    1    3    3    0    0 -0.20752921309E+02 -0.21105273790E+02  0.90420533891E+01  0.30949556610E+02  0.51100000000E-03 0.  1.
         12    1    3    3    0    0 -0.78083303061E+01 -0.84991606102E+01  0.68962518238E+01  0.13444851894E+02  0.00000000000E+00 0. -1.
</event>
<event>
 7    1  0.2031146E-008  0.4614232E+02  0.7816164E-02  0.1320468E+00
        -11   -1    0    0    0    0  0.00000000000E+00  0.00000000000E+00  0.45593999997E+02  0.45594000000E+02  0.51100000000E-03 0. -1.
         11   -1    0    0    0    0 -0.00000000000E+00 -0.00000000000E+00 -0.45593999997E+02  0.45594000000E+02  0.51100000000E-03 0.  1.
    9900012    2    1    2    0    0 -0.10379659419E+02 -0.14874820839E+02  0.41232461379E+02  0.46142317676E+02  0.99999992235E+01 0.  0.
        -12    1    1    2    0    0  0.10379659419E+02  0.14874820839E+02 -0.41232461379E+02  0.45045682324E+02  0.00000000000E+00 0.  1.
         11    1    3    3    0    0 -0.42105121578E+01 -0.42398173598E+01  0.10329648766E+02  0.11933403025E+02  0.51100000000E-03 0. -1.
        -11    1    3    3    0    0  0.13083335643E+01  0.30588704905E+00  0.19578122330E+01  0.23745173411E+01  0.51100000000E-03 0.  1.
        -12    1    3    3    0    0 -0.74774808251E+01 -0.10940890528E+02  0.28945000381E+02  0.31834397310E+02  0.00000000000E+00 0.  1.
</event>
<event>
 7    1  0.2031146E-008  0.4614232E+02  0.7816164E-02  0.1320468E+00
        -11   -1    0    0    0    0  0.00000000000E+00  0.00000000000E+00  0.45593999997E+02  0.45594000000E+02  0.51100000000E-03 0.  1.
         11   -1    0    0    0    0 -0.00000000000E+00 -0.00000000000E+00 -0.45593999997E+02  0.45594000000E+02  0.51100000000E-03 0. -1.
    9900012    2    1    2    0    0 -0.37721640466E+02 -0.16684662311E+02 -0.18105617301E+02  0.46142317702E+02  0.99999994591E+01 0.  0.
        -12    1    1    2    0    0  0.37721640466E+02  0.16684662311E+02  0.18105617301E+02  0.45045682298E+02  0.00000000000E+00 0.  1.
         11    1    3    3    0    0 -0.49821485342E+01 -0.50601240897E+01 -0.13721918725E+01  0.72325355593E+01  0.51100000000E-03 0. -1.
        -11    1    3    3    0    0 -0.93801280503E+01 -0.16221568791E+01 -0.27649075361E+01  0.99127649586E+01  0.51100000000E-03 0.  1.
         12    1    3    3    0    0 -0.23359363881E+02 -0.10002381342E+02 -0.13968517893E+02  0.28997017184E+02  0.00000000000E+00 0. -1.
</event>
<event>
 7    1  0.2031146E-008  0.4614232E+02  0.7816164E-02  0.1320468E+00
        -11   -1    0    0    0    0  0.00000000000E+00  0.00000000000E+00  0.45593999997E+02  0.45594000000E+02  0.51100000000E-03 0. -1.
         11   -1    0    0    0    0 -0.00000000000E+00 -0.00000000000E+00 -0.45593999997E+02  0.45594000000E+02  0.51100000000E-03 0.  1.
    9900012    2    1    2    0    0  0.44928873923E+02 -0.15333901059E+01  0.28563247573E+01  0.46142316652E+02  0.99999898833E+01 0.  0.
        -12    1    1    2    0    0 -0.44928873923E+02  0.15333901059E+01 -0.28563247573E+01  0.45045683348E+02  0.00000000000E+00 0.  1.
         11    1    3    3    0    0  0.19970291223E+02 -0.37636170109E+01  0.27270640924E+01  0.20504005057E+02  0.51100000000E-03 0. -1.
        -11    1    3    3    0    0  0.49347491961E+01  0.25300295813E+01  0.78901050807E+00  0.56013692213E+01  0.51100000000E-03 0.  1.
        -12    1    3    3    0    0  0.20023833503E+02 -0.29980267635E+00 -0.65974984318E+00  0.20036942373E+02  0.00000000000E+00 0.  1.
</event>
<event>
 7    1  0.2031146E-008  0.4614232E+02  0.7816164E-02  0.1320468E+00
        -11   -1    0    0    0    0  0.00000000000E+00  0.00000000000E+00  0.45593999997E+02  0.45594000000E+02  0.51100000000E-03 0.  1.
         11   -1    0    0    0    0 -0.00000000000E+00 -0.00000000000E+00 -0.45593999997E+02  0.45594000000E+02  0.51100000000E-03 0. -1.
    9900012    2    1    2    0    0 -0.35515689681E+02  0.43033571652E+00 -0.27704945611E+02  0.46142318590E+02  0.10000007561E+02 0.  0.
        -12    1    1    2    0    0  0.35515689681E+02 -0.43033571652E+00  0.27704945611E+02  0.45045681410E+02  0.00000000000E+00 0.  1.
         11    1    3    3    0    0 -0.71151531171E+01 -0.11504194424E+01 -0.37920794254E+01  0.81442455392E+01  0.51100000000E-03 0. -1.
        -11    1    3    3    0    0 -0.22341444330E+02 -0.21000017552E+01 -0.18286013036E+02  0.28946993197E+02  0.51100000000E-03 0.  1.
        -12    1    3    3    0    0 -0.60590922339E+01  0.36807569141E+01 -0.56268531491E+01  0.90510798538E+01  0.00000000000E+00 0.  1.
</event>
<event>
 7    1  0.2031146E-008  0.4614231E+02  0.7816164E-02  0.1320468E+00
        -11   -1    0    0    0    0  0.00000000000E+00  0.00000000000E+00  0.45593999997E+02  0.45594000000E+02  0.51100000000E-03 0. -1.
         11   -1    0    0    0    0 -0.00000000000E+00 -0.00000000000E+00 -0.45593999997E+02  0.45594000000E+02  0.51100000000E-03 0.  1.
    9900012    2    1    2    0    0  0.41980918842E+02  0.14355055757E+02 -0.77877258639E+01  0.46142313783E+02  0.99999637270E+01 0.  0.
        -12    1    1    2    0    0 -0.41980918842E+02 -0.14355055757E+02  0.77877258639E+01  0.45045686217E+02  0.00000000000E+00 0.  1.
         11    1    3    3    0    0  0.25273032479E+02  0.67730605545E+01 -0.32744886107E+01  0.26368974115E+02  0.51100000000E-03 0. -1.
        -11    1    3    3    0    0  0.46395045928E+01  0.15228425181E+01 -0.39104485833E+01  0.62558501090E+01  0.51100000000E-03 0.  1.
         12    1    3    3    0    0  0.12068381770E+02  0.60591526846E+01 -0.60278866982E+00  0.13517489559E+02  0.00000000000E+00 0. -1.
</event>
<event>
 7    1  0.2232258E-008  0.4614232E+02  0.7816164E-02  0.1320468E+00
        -11   -1    0    0    0    0  0.00000000000E+00  0.00000000000E+00  0.45593999997E+02  0.45594000000E+02  0.51100000000E-03 0.  1.
         11   -1    0    0    0    0 -0.00000000000E+00 -0.00000000000E+00 -0.45593999997E+02  0.45594000000E+02  0.51100000000E-03 0. -1.
    9900012    2    1    2    0    0 -0.27636628143E+02 -0.23783292781E+02 -0.26451566016E+02  0.46142316795E+02  0.99999911947E+01 0.  0.
        -12    1    1    2    0    0  0.27636628143E+02  0.23783292781E+02  0.26451566016E+02  0.45045683205E+02  0.00000000000E+00 0.  1.
         11    1    3    3    0    0 -0.83507789734E+01 -0.82441659002E+01 -0.85394794565E+01  0.14512907720E+02  0.51100000000E-03 0. -1.
        -11    1    3    3    0    0 -0.16845775148E+02 -0.14887894785E+02 -0.12658994157E+02  0.25800769074E+02  0.51100000000E-03 0.  1.
        -12    1    3    3    0    0 -0.24400740225E+01 -0.65123209576E+00 -0.52530924025E+01  0.58286400015E+01  0.00000000000E+00 0.  1.
</event>
<event>
 7    1  0.2031146E-008  0.4614231E+02  0.7816164E-02  0.1320468E+00
        -11   -1    0    0    0    0  0.00000000000E+00  0.00000000000E+00  0.45593999997E+02  0.45594000000E+02  0.51100000000E-03 0.  1.
         11   -1    0    0    0    0 -0.00000000000E+00 -0.00000000000E+00 -0.45593999997E+02  0.45594000000E+02  0.51100000000E-03 0. -1.
    9900012    2    1    2    0    0  0.40503020540E+02 -0.10852910455E+02 -0.16457020823E+02  0.46142313496E+02  0.99999611082E+01 0.  0.
        -12    1    1    2    0    0 -0.40503020540E+02  0.10852910455E+02  0.16457020823E+02  0.45045686504E+02  0.00000000000E+00 0.  1.
         11    1    3    3    0    0  0.10044946534E+02 -0.19016014561E+01 -0.73352793898E+00  0.10249639138E+02  0.51100000000E-03 0. -1.
        -11    1    3    3    0    0  0.25915090842E+01  0.35808582267E+00 -0.10358243726E+00  0.26181815010E+01  0.51100000000E-03 0.  1.
         12    1    3    3    0    0  0.27866564922E+02 -0.93093948213E+01 -0.15619910447E+02  0.33274492857E+02  0.00000000000E+00 0. -1.
</event>
<event>
 7    1  0.2031146E-008  0.4614232E+02  0.7816164E-02  0.1320468E+00
        -11   -1    0    0    0    0  0.00000000000E+00  0.00000000000E+00  0.45593999997E+02  0.45594000000E+02  0.51100000000E-03 0.  1.
         11   -1    0    0    0    0 -0.00000000000E+00 -0.00000000000E+00 -0.45593999997E+02  0.45594000000E+02  0.51100000000E-03 0. -1.
    9900012    2    1    2    0    0  0.17154923011E+02 -0.63940711071E+01 -0.41157478856E+02  0.46142316581E+02  0.99999892432E+01 0.  0.
        -12    1    1    2    0    0 -0.17154923011E+02  0.63940711071E+01  0.41157478856E+02  0.45045683419E+02  0.00000000000E+00 0.  1.
         11    1    3    3    0    0  0.50590404966E+01 -0.10188065282E+01 -0.21162252419E+02  0.21782396223E+02  0.51100000000E-03 0. -1.
        -11    1    3    3    0    0  0.56213206407E+01 -0.48357717119E+01 -0.10462498741E+02  0.12823720753E+02  0.51100000000E-03 0.  1.
         12    1    3    3    0    0  0.64745618732E+01 -0.53949286696E+00 -0.95327276967E+01  0.11536199606E+02  0.00000000000E+00 0. -1.
</event>
<event>
 7    1  0.2031146E-008  0.4614232E+02  0.7816164E-02  0.1320468E+00
        -11   -1    0    0    0    0  0.00000000000E+00  0.00000000000E+00  0.45593999997E+02  0.45594000000E+02  0.51100000000E-03 0.  1.
         11   -1    0    0    0    0 -0.00000000000E+00 -0.00000000000E+00 -0.45593999997E+02  0.45594000000E+02  0.51100000000E-03 0. -1.
    9900012    2    1    2    0    0  0.30806649733E+02  0.97263892789E+01 -0.31392056471E+02  0.46142317347E+02  0.99999962249E+01 0.  0.
        -12    1    1    2    0    0 -0.30806649733E+02 -0.97263892789E+01  0.31392056471E+02  0.45045682653E+02  0.00000000000E+00 0.  1.
         11    1    3    3    0    0  0.84637114745E+01  0.84998920897E+00 -0.92393885778E+01  0.12558789557E+02  0.51100000000E-03 0. -1.
        -11    1    3    3    0    0  0.14053539392E+02  0.34393262843E+01 -0.17280086707E+02  0.22537354139E+02  0.51100000000E-03 0.  1.
        -12    1    3    3    0    0  0.82893988660E+01  0.54370737856E+01 -0.48725811868E+01  0.11046173651E+02  0.00000000000E+00 0.  1.
</event>
<event>
 7    1  0.2031146E-008  0.4614232E+02  0.7816164E-02  0.1320468E+00
        -11   -1    0    0    0    0  0.00000000000E+00  0.00000000000E+00  0.45593999997E+02  0.45594000000E+02  0.51100000000E-03 0.  1.
         11   -1    0    0    0    0 -0.00000000000E+00 -0.00000000000E+00 -0.45593999997E+02  0.45594000000E+02  0.51100000000E-03 0. -1.
    9900012    2    1    2    0    0 -0.20827567175E+01 -0.14200875705E+02 -0.42697900771E+02  0.46142317892E+02  0.10000001196E+02 0.  0.
        -12    1    1    2    0    0  0.20827567175E+01  0.14200875705E+02  0.42697900771E+02  0.45045682108E+02  0.00000000000E+00 0.  1.
         11    1    3    3    0    0 -0.35503402531E+01 -0.21431036045E+01 -0.15541331417E+02  0.16085110862E+02  0.51100000000E-03 0. -1.
        -11    1    3    3    0    0 -0.41034489830E+00 -0.50634807142E+01 -0.70767938486E+01  0.87113851548E+01  0.51100000000E-03 0.  1.
         12    1    3    3    0    0  0.18779284339E+01 -0.69942913858E+01 -0.20079775505E+02  0.21345821875E+02  0.00000000000E+00 0. -1.
</event>
<event>
 7    1  0.2031146E-008  0.4614232E+02  0.7816164E-02  0.1320468E+00
        -11   -1    0    0    0    0  0.00000000000E+00  0.00000000000E+00  0.45593999997E+02  0.45594000000E+02  0.51100000000E-03 0.  1.
         11   -1    0    0    0    0 -0.00000000000E+00 -0.00000000000E+00 -0.45593999997E+02  0.45594000000E+02  0.51100000000E-03 0. -1.
    9900012    2    1    2    0    0 -0.73119604351E+01  0.89011655193E+01 -0.43547881193E+02  0.46142317971E+02  0.10000001915E+02 0.  0.
        -12    1    1    2    0    0  0.73119604351E+01 -0.89011655193E+01  0.43547881193E+02  0.45045682029E+02  0.00000000000E+00 0.  1.
         11    1    3    3    0    0 -0.53018107575E+00  0.56300353927E+01 -0.12703008004E+02  0.13904848187E+02  0.51100000000E-03 0. -1.
        -11    1    3    3    0    0  0.79729005679E+00 -0.46397235443E+00 -0.31652509289E+01  0.32969312222E+01  0.51100000000E-03 0.  1.
        -12    1    3    3    0    0 -0.75790694162E+01  0.37351024810E+01 -0.27679622260E+02  0.28940538562E+02  0.00000000000E+00 0.  1.
</event>
<event>
 7    1  0.2031146E-008  0.4614232E+02  0.7816164E-02  0.1320468E+00
        -11   -1    0    0    0    0  0.00000000000E+00  0.00000000000E+00  0.45593999997E+02  0.45594000000E+02  0.51100000000E-03 0. -1.
         11   -1    0    0    0    0 -0.00000000000E+00 -0.00000000000E+00 -0.45593999997E+02  0.45594000000E+02  0.51100000000E-03 0.  1.
    9900012    2    1    2    0    0  0.31173025278E+02  0.32066310301E+02  0.53951740661E+01  0.46142315806E+02  0.99999821720E+01 0.  0.
        -12    1    1    2    0    0 -0.31173025278E+02 -0.32066310301E+02 -0.53951740661E+01  0.45045684194E+02  0.00000000000E+00 0.  1.
         11    1    3    3    0    0  0.83751876418E+01  0.50543779375E+01  0.35257041399E+00  0.97885039985E+01  0.51100000000E-03 0.  1.
        -11    1    3    3    0    0  0.31981262569E+01  0.80765709872E+01  0.30094502991E+00  0.86919260603E+01  0.51100000000E-03 0. -1.
         12    1    3    3    0    0  0.19599711379E+02  0.18935361376E+02  0.47416586222E+01  0.27661885747E+02  0.00000000000E+00 0. -1.
</event>
<event>
 7    1  0.2031146E-008  0.4614232E+02  0.7816164E-02  0.1320468E+00
        -11   -1    0    0    0    0  0.00000000000E+00  0.00000000000E+00  0.45593999997E+02  0.45594000000E+02  0.51100000000E-03 0. -1.
         11   -1    0    0    0    0 -0.00000000000E+00 -0.00000000000E+00 -0.45593999997E+02  0.45594000000E+02  0.51100000000E-03 0.  1.
    9900012    2    1    2    0    0  0.14982905279E+02  0.41676324832E+02  0.82285761862E+01  0.46142323535E+02  0.10000052652E+02 0.  0.
        -12    1    1    2    0    0 -0.14982905279E+02 -0.41676324832E+02 -0.82285761862E+01  0.45045676465E+02  0.00000000000E+00 0.  1.
         11    1    3    3    0    0  0.93759576185E+01  0.20485031822E+02  0.35410605215E+01  0.22805355070E+02  0.51100000000E-03 0. -1.
        -11    1    3    3    0    0  0.34387142524E+00 -0.42678230868E+00  0.39896736956E+00  0.67791291417E+00  0.51100000000E-03 0.  1.
         12    1    3    3    0    0  0.52630762351E+01  0.21618075319E+02  0.42885482951E+01  0.22659055551E+02  0.00000000000E+00 0. -1.
</event>
<event>
 7    1  0.2031146E-008  0.4614232E+02  0.7816164E-02  0.1320468E+00
        -11   -1    0    0    0    0  0.00000000000E+00  0.00000000000E+00  0.45593999997E+02  0.45594000000E+02  0.51100000000E-03 0.  1.
         11   -1    0    0    0    0 -0.00000000000E+00 -0.00000000000E+00 -0.45593999997E+02  0.45594000000E+02  0.51100000000E-03 0. -1.
    9900012    2    1    2    0    0 -0.22488164729E+02  0.18050366954E+02 -0.34606072368E+02  0.46142317135E+02  0.99999942872E+01 0.  0.
        -12    1    1    2    0    0  0.22488164729E+02 -0.18050366954E+02  0.34606072368E+02  0.45045682865E+02  0.00000000000E+00 0.  1.
         11    1    3    3    0    0 -0.14193415118E+02  0.15154897100E+02 -0.20931777948E+02  0.29483270971E+02  0.51100000000E-03 0. -1.
        -11    1    3    3    0    0 -0.58353301459E+01  0.14725012271E+01 -0.60989431368E+01  0.85683397122E+01  0.51100000000E-03 0.  1.
        -12    1    3    3    0    0 -0.24594194658E+01  0.14229686266E+01 -0.75753512831E+01  0.80907064514E+01  0.00000000000E+00 0.  1.
</event>
<event>
 7    1  0.2031146E-008  0.4614232E+02  0.7816164E-02  0.1320468E+00
        -11   -1    0    0    0    0  0.00000000000E+00  0.00000000000E+00  0.45593999997E+02  0.45594000000E+02  0.51100000000E-03 0.  1.
         11   -1    0    0    0    0 -0.00000000000E+00 -0.00000000000E+00 -0.45593999997E+02  0.45594000000E+02  0.51100000000E-03 0. -1.
    9900012    2    1    2    0    0 -0.31392780349E+02 -0.31398558432E+02 -0.75985174922E+01  0.46142316548E+02  0.99999889369E+01 0.  0.
        -12    1    1    2    0    0  0.31392780349E+02  0.31398558432E+02  0.75985174922E+01  0.45045683452E+02  0.00000000000E+00 0.  1.
         11    1    3    3    0    0 -0.85145057315E+01 -0.63325300189E+01  0.65509508741E+00  0.10631410731E+02  0.51100000000E-03 0. -1.
        -11    1    3    3    0    0 -0.38166859450E+01 -0.65971619562E+01  0.29344157667E+00  0.76273026490E+01  0.51100000000E-03 0.  1.
         12    1    3    3    0    0 -0.19061588672E+02 -0.18468866456E+02 -0.85470541563E+01  0.27883603168E+02  0.00000000000E+00 0. -1.
</event>
<event>
 7    1  0.2031146E-008  0.4614231E+02  0.7816164E-02  0.1320468E+00
        -11   -1    0    0    0    0  0.00000000000E+00  0.00000000000E+00  0.45593999997E+02  0.45594000000E+02  0.51100000000E-03 0.  1.
         11   -1    0    0    0    0 -0.00000000000E+00 -0.00000000000E+00 -0.45593999997E+02  0.45594000000E+02  0.51100000000E-03 0. -1.
    9900012    2    1    2    0    0 -0.19469708925E+02  0.93355874165E+01 -0.39533417459E+02  0.46142313702E+02  0.99999629865E+01 0.  0.
        -12    1    1    2    0    0  0.19469708925E+02 -0.93355874165E+01  0.39533417459E+02  0.45045686298E+02  0.00000000000E+00 0.  1.
         11    1    3    3    0    0 -0.10516949766E+02  0.44918798367E+01 -0.13663687657E+02  0.17817956603E+02  0.51100000000E-03 0.  1.
        -11    1    3    3    0    0 -0.54977432319E+01  0.44915536016E+01 -0.11288691255E+02  0.13335433435E+02  0.51100000000E-03 0. -1.
        -12    1    3    3    0    0 -0.34550159272E+01  0.35215397817E+00 -0.14581038548E+02  0.14988923664E+02  0.00000000000E+00 0.  1.
</event>
<event>
 7    1  0.2031146E-008  0.4614232E+02  0.7816164E-02  0.1320468E+00
        -11   -1    0    0    0    0  0.00000000000E+00  0.00000000000E+00  0.45593999997E+02  0.45594000000E+02  0.51100000000E-03 0.  1.
         11   -1    0    0    0    0 -0.00000000000E+00 -0.00000000000E+00 -0.45593999997E+02  0.45594000000E+02  0.51100000000E-03 0. -1.
    9900012    2    1    2    0    0  0.81032203784E+01 -0.16498752724E+02 -0.41124718511E+02  0.46142317692E+02  0.99999993722E+01 0.  0.
        -12    1    1    2    0    0 -0.81032203784E+01  0.16498752724E+02  0.41124718511E+02  0.45045682308E+02  0.00000000000E+00 0.  1.
         11    1    3    3    0    0 -0.38312371529E+00 -0.77846809442E+00 -0.26171026492E+01  0.27571766162E+01  0.51100000000E-03 0. -1.
        -11    1    3    3    0    0 -0.34067919422E+00  0.69612179983E+00 -0.48463930091E+01  0.49079703884E+01  0.51100000000E-03 0.  1.
         12    1    3    3    0    0  0.88270232879E+01 -0.16416406429E+02 -0.33661222853E+02  0.38477170688E+02  0.00000000000E+00 0. -1.
</event>
<event>
 7    1  0.2031146E-008  0.4614232E+02  0.7816164E-02  0.1320468E+00
        -11   -1    0    0    0    0  0.00000000000E+00  0.00000000000E+00  0.45593999997E+02  0.45594000000E+02  0.51100000000E-03 0. -1.
         11   -1    0    0    0    0 -0.00000000000E+00 -0.00000000000E+00 -0.45593999997E+02  0.45594000000E+02  0.51100000000E-03 0.  1.
    9900012    2    1    2    0    0 -0.15927174070E+02  0.33494484116E+02  0.25564782253E+02  0.46142318390E+02  0.10000005734E+02 0.  0.
        -12    1    1    2    0    0  0.15927174070E+02 -0.33494484116E+02 -0.25564782253E+02  0.45045681610E+02  0.00000000000E+00 0.  1.
         11    1    3    3    0    0 -0.13635357533E+01  0.34358732100E+01  0.25098697286E+01  0.44680981168E+01  0.51100000000E-03 0. -1.
        -11    1    3    3    0    0 -0.11156590631E+02  0.13625298654E+02  0.89637576599E+01  0.19760243661E+02  0.51100000000E-03 0.  1.
        -12    1    3    3    0    0 -0.34070476859E+01  0.16433312252E+02  0.14091154864E+02  0.21913976612E+02  0.00000000000E+00 0.  1.
</event>
<event>
 7    1  0.2031146E-008  0.4614232E+02  0.7816164E-02  0.1320468E+00
        -11   -1    0    0    0    0  0.00000000000E+00  0.00000000000E+00  0.45593999997E+02  0.45594000000E+02  0.51100000000E-03 0. -1.
         11   -1    0    0    0    0 -0.00000000000E+00 -0.00000000000E+00 -0.45593999997E+02  0.45594000000E+02  0.51100000000E-03 0.  1.
    9900012    2    1    2    0    0  0.10219189078E+02 -0.40441586396E+02  0.17004697982E+02  0.46142317753E+02  0.99999999261E+01 0.  0.
        -12    1    1    2    0    0 -0.10219189078E+02  0.40441586396E+02 -0.17004697982E+02  0.45045682247E+02  0.00000000000E+00 0.  1.
         11    1    3    3    0    0  0.40782693771E+01 -0.66296937370E+01  0.31273086160E+01  0.83883955319E+01  0.51100000000E-03 0. -1.
        -11    1    3    3    0    0  0.13963772499E+01 -0.11304172845E+01  0.19257793522E+01  0.26336930412E+01  0.51100000000E-03 0.  1.
         12    1    3    3    0    0  0.47445424512E+01 -0.32681475374E+02  0.11951610014E+02  0.35120229180E+02  0.00000000000E+00 0. -1.
</event>
<event>
 7    1  0.2031146E-008  0.4614232E+02  0.7816164E-02  0.1320468E+00
        -11   -1    0    0    0    0  0.00000000000E+00  0.00000000000E+00  0.45593999997E+02  0.45594000000E+02  0.51100000000E-03 0. -1.
         11   -1    0    0    0    0 -0.00000000000E+00 -0.00000000000E+00 -0.45593999997E+02  0.45594000000E+02  0.51100000000E-03 0.  1.
    9900012    2    1    2    0    0  0.29381787838E+02 -0.38974800131E+01  0.33920990742E+02  0.46142318521E+02  0.10000006927E+02 0.  0.
        -12    1    1    2    0    0 -0.29381787838E+02  0.38974800131E+01 -0.33920990742E+02  0.45045681479E+02  0.00000000000E+00 0.  1.
         11    1    3    3    0    0  0.47779332611E+01  0.23257437161E+01  0.65079527798E+01  0.84018557311E+01  0.51100000000E-03 0. -1.
        -11    1    3    3    0    0  0.17791073900E+02 -0.54628161620E+01  0.16604723422E+02  0.24941561923E+02  0.51100000000E-03 0.  1.
         12    1    3    3    0    0  0.68127806769E+01 -0.76040756725E+00  0.10808314539E+02  0.12798900867E+02  0.00000000000E+00 0. -1.
</event>
<event>
 7    1  0.2031146E-008  0.4614232E+02  0.7816164E-02  0.1320468E+00
        -11   -1    0    0    0    0  0.00000000000E+00  0.00000000000E+00  0.45593999997E+02  0.45594000000E+02  0.51100000000E-03 0.  1.
         11   -1    0    0    0    0 -0.00000000000E+00 -0.00000000000E+00 -0.45593999997E+02  0.45594000000E+02  0.51100000000E-03 0. -1.
    9900012    2    1    2    0    0  0.12176100472E+02 -0.22162247865E+02 -0.37278557163E+02  0.46142317883E+02  0.10000001115E+02 0.  0.
        -12    1    1    2    0    0 -0.12176100472E+02  0.22162247865E+02  0.37278557163E+02  0.45045682117E+02  0.00000000000E+00 0.  1.
         11    1    3    3    0    0  0.52814053201E+01 -0.13166439620E+02 -0.17468641356E+02  0.22503373203E+02  0.51100000000E-03 0.  1.
        -11    1    3    3    0    0 -0.94733331525E+00 -0.23358363650E+01 -0.28731337245E+01  0.38221027713E+01  0.51100000000E-03 0. -1.
        -12    1    3    3    0    0  0.78420284676E+01 -0.66599718805E+01 -0.16936782083E+02  0.19816841909E+02  0.00000000000E+00 0.  1.
</event>
<event>
 7    1  0.2031146E-008  0.4614232E+02  0.7816164E-02  0.1320468E+00
        -11   -1    0    0    0    0  0.00000000000E+00  0.00000000000E+00  0.45593999997E+02  0.45594000000E+02  0.51100000000E-03 0.  1.
         11   -1    0    0    0    0 -0.00000000000E+00 -0.00000000000E+00 -0.45593999997E+02  0.45594000000E+02  0.51100000000E-03 0. -1.
    9900012    2    1    2    0    0  0.16085098517E+02 -0.13105880832E+02 -0.39982733249E+02  0.46142318023E+02  0.10000002388E+02 0.  0.
        -12    1    1    2    0    0 -0.16085098517E+02  0.13105880832E+02  0.39982733249E+02  0.45045681977E+02  0.00000000000E+00 0.  1.
         11    1    3    3    0    0 -0.39857518343E+00  0.71886855478E+00 -0.15995821088E+01  0.17984152357E+01  0.51100000000E-03 0. -1.
        -11    1    3    3    0    0  0.39178970185E+00 -0.14514936280E+01 -0.54846805486E+01  0.56870074647E+01  0.51100000000E-03 0.  1.
         12    1    3    3    0    0  0.16091883998E+02 -0.12373255759E+02 -0.32898470592E+02  0.38656895323E+02  0.00000000000E+00 0. -1.
</event>
<event>
 7    1  0.2031146E-008  0.4614232E+02  0.7816164E-02  0.1320468E+00
        -11   -1    0    0    0    0  0.00000000000E+00  0.00000000000E+00  0.45593999997E+02  0.45594000000E+02  0.51100000000E-03 0.  1.
         11   -1    0    0    0    0 -0.00000000000E+00 -0.00000000000E+00 -0.45593999997E+02  0.45594000000E+02  0.51100000000E-03 0. -1.
    9900012    2    1    2    0    0  0.12163148879E+02 -0.26684962708E+00 -0.43371649759E+02  0.46142318717E+02  0.10000008718E+02 0.  0.
        -12    1    1    2    0    0 -0.12163148879E+02  0.26684962708E+00  0.43371649759E+02  0.45045681283E+02  0.00000000000E+00 0.  1.
         11    1    3    3    0    0  0.27057776797E+01 -0.96305571954E+00 -0.18462188863E+02  0.18684248100E+02  0.51100000000E-03 0. -1.
        -11    1    3    3    0    0  0.35496140051E+01  0.18206598768E+01 -0.17326813146E+02  0.17780129809E+02  0.51100000000E-03 0.  1.
        -12    1    3    3    0    0  0.59077571944E+01 -0.11244537844E+01 -0.75826477497E+01  0.96779408077E+01  0.00000000000E+00 0.  1.
</event>
<event>
 7    1  0.2031146E-008  0.4614232E+02  0.7816164E-02  0.1320468E+00
        -11   -1    0    0    0    0  0.00000000000E+00  0.00000000000E+00  0.45593999997E+02  0.45594000000E+02  0.51100000000E-03 0.  1.
         11   -1    0    0    0    0 -0.00000000000E+00 -0.00000000000E+00 -0.45593999997E+02  0.45594000000E+02  0.51100000000E-03 0. -1.
    9900012    2    1    2    0    0 -0.21109983487E+02 -0.21883708469E+02 -0.33235303730E+02  0.46142317485E+02  0.99999974861E+01 0.  0.
        -12    1    1    2    0    0  0.21109983487E+02  0.21883708469E+02  0.33235303730E+02  0.45045682515E+02  0.00000000000E+00 0.  1.
         11    1    3    3    0    0 -0.34306514944E+01 -0.22992237667E-01 -0.31972092277E+01  0.46895677227E+01  0.51100000000E-03 0. -1.
        -11    1    3    3    0    0 -0.33661110936E+01 -0.20380426895E+01 -0.59242974357E+01  0.71120758057E+01  0.51100000000E-03 0.  1.
        -12    1    3    3    0    0 -0.14313220899E+02 -0.19822673542E+02 -0.24113797067E+02  0.34340673957E+02  0.00000000000E+00 0.  1.
</event>
<event>
 7    1  0.2031146E-008  0.4614232E+02  0.7816164E-02  0.1320468E+00
        -11   -1    0    0    0    0  0.00000000000E+00  0.00000000000E+00  0.45593999997E+02  0.45594000000E+02  0.51100000000E-03 0.  1.
         11   -1    0    0    0    0 -0.00000000000E+00 -0.00000000000E+00 -0.45593999997E+02  0.45594000000E+02  0.51100000000E-03 0. -1.
    9900012    2    1    2    0    0  0.14597384249E+02  0.38979154681E+02  0.17223686657E+02  0.46142317536E+02  0.99999979512E+01 0.  0.
        -12    1    1    2    0    0 -0.14597384249E+02 -0.38979154681E+02 -0.17223686657E+02  0.45045682464E+02  0.00000000000E+00 0.  1.
         11    1    3    3    0    0  0.78903553131E+01  0.13534035773E+02  0.68344386476E+01  0.17092026889E+02  0.51100000000E-03 0. -1.
        -11    1    3    3    0    0  0.43085362318E+01  0.22627409067E+02  0.10574654747E+02  0.25345343731E+02  0.51100000000E-03 0.  1.
         12    1    3    3    0    0  0.23984927046E+01  0.28177098400E+01 -0.18540673758E+00  0.37049469166E+01  0.00000000000E+00 0. -1.
</event>
<event>
 7    1  0.2031146E-008  0.4614232E+02  0.7816164E-02  0.1320468E+00
        -11   -1    0    0    0    0  0.00000000000E+00  0.00000000000E+00  0.45593999997E+02  0.45594000000E+02  0.51100000000E-03 0. -1.
         11   -1    0    0    0    0 -0.00000000000E+00 -0.00000000000E+00 -0.45593999997E+02  0.45594000000E+02  0.51100000000E-03 0.  1.
    9900012    2    1    2    0    0 -0.28673091851E+02 -0.13267715719E+01  0.34716091153E+02  0.46142317587E+02  0.99999984130E+01 0.  0.
        -12    1    1    2    0    0  0.28673091851E+02  0.13267715719E+01 -0.34716091153E+02  0.45045682413E+02  0.00000000000E+00 0.  1.
         11    1    3    3    0    0 -0.32442158851E+01  0.12961640736E+01  0.26252556245E+01  0.43700051910E+01  0.51100000000E-03 0. -1.
        -11    1    3    3    0    0 -0.23363083789E+02 -0.38060884069E+00  0.25972172816E+02  0.34936117533E+02  0.51100000000E-03 0.  1.
        -12    1    3    3    0    0 -0.20657921769E+01 -0.22423268048E+01  0.61186627125E+01  0.68361948632E+01  0.00000000000E+00 0.  1.
</event>
<event>
 7    1  0.2031146E-008  0.4614232E+02  0.7816164E-02  0.1320468E+00
        -11   -1    0    0    0    0  0.00000000000E+00  0.00000000000E+00  0.45593999997E+02  0.45594000000E+02  0.51100000000E-03 0. -1.
         11   -1    0    0    0    0 -0.00000000000E+00 -0.00000000000E+00 -0.45593999997E+02  0.45594000000E+02  0.51100000000E-03 0.  1.
    9900012    2    1    2    0    0  0.76648166403E+01  0.36898207704E+02  0.24675621306E+02  0.46142318379E+02  0.10000005633E+02 0.  0.
        -12    1    1    2    0    0 -0.76648166403E+01 -0.36898207704E+02 -0.24675621306E+02  0.45045681621E+02  0.00000000000E+00 0.  1.
         11    1    3    3    0    0 -0.17847036616E+01  0.10909741752E+02  0.69567768268E+01  0.13061561022E+02  0.51100000000E-03 0. -1.
        -11    1    3    3    0    0  0.25264566334E+01  0.50035122590E+01  0.19532822642E+01  0.59357754263E+01  0.51100000000E-03 0.  1.
        -12    1    3    3    0    0  0.69230636686E+01  0.20984953692E+02  0.15765562215E+02  0.27144981930E+02  0.00000000000E+00 0.  1.
</event>
<event>
 7    1  0.2031146E-008  0.4614232E+02  0.7816164E-02  0.1320468E+00
        -11   -1    0    0    0    0  0.00000000000E+00  0.00000000000E+00  0.45593999997E+02  0.45594000000E+02  0.51100000000E-03 0.  1.
         11   -1    0    0    0    0 -0.00000000000E+00 -0.00000000000E+00 -0.45593999997E+02  0.45594000000E+02  0.51100000000E-03 0. -1.
    9900012    2    1    2    0    0  0.39567956494E+02 -0.14900492198E+02 -0.15539166355E+02  0.46142317189E+02  0.99999947869E+01 0.  0.
        -12    1    1    2    0    0 -0.39567956494E+02  0.14900492198E+02  0.15539166355E+02  0.45045682811E+02  0.00000000000E+00 0.  1.
         11    1    3    3    0    0  0.32382294745E+02 -0.96085013036E+01 -0.13687611306E+02  0.36445672085E+02  0.51100000000E-03 0. -1.
        -11    1    3    3    0    0  0.49352882838E+01 -0.35533132022E+01 -0.28052354760E+01  0.66971972865E+01  0.51100000000E-03 0.  1.
        -12    1    3    3    0    0  0.22503734657E+01 -0.17386776924E+01  0.95368042719E+00  0.29994478175E+01  0.00000000000E+00 0.  1.
</event>
<event>
 7    1  0.2031146E-008  0.4614232E+02  0.7816164E-02  0.1320468E+00
        -11   -1    0    0    0    0  0.00000000000E+00  0.00000000000E+00  0.45593999997E+02  0.45594000000E+02  0.51100000000E-03 0.  1.
         11   -1    0    0    0    0 -0.00000000000E+00 -0.00000000000E+00 -0.45593999997E+02  0.45594000000E+02  0.51100000000E-03 0. -1.
    9900012    2    1    2    0    0 -0.32473860391E+02  0.23587736732E+02  0.20449462298E+02  0.46142318286E+02  0.10000004783E+02 0.  0.
        -12    1    1    2    0    0  0.32473860391E+02 -0.23587736732E+02 -0.20449462298E+02  0.45045681714E+02  0.00000000000E+00 0.  1.
         11    1    3    3    0    0 -0.20983187153E+02  0.17020793603E+02  0.10341704579E+02  0.28930129828E+02  0.51100000000E-03 0. -1.
        -11    1    3    3    0    0 -0.11381067696E+02  0.69359730916E+01  0.91133986579E+01  0.16145911557E+02  0.51100000000E-03 0.  1.
         12    1    3    3    0    0 -0.10960554180E+00 -0.36902996287E+00  0.99435906078E+00  0.10662769012E+01  0.00000000000E+00 0. -1.
</event>
<event>
 7    1  0.2031146E-008  0.4614232E+02  0.7816164E-02  0.1320468E+00
        -11   -1    0    0    0    0  0.00000000000E+00  0.00000000000E+00  0.45593999997E+02  0.45594000000E+02  0.51100000000E-03 0.  1.
         11   -1    0    0    0    0 -0.00000000000E+00 -0.00000000000E+00 -0.45593999997E+02  0.45594000000E+02  0.51100000000E-03 0. -1.
    9900012    2    1    2    0    0 -0.19763532102E+02 -0.23762302938E+01 -0.40408783222E+02  0.46142318376E+02  0.10000005604E+02 0.  0.
        -12    1    1    2    0    0  0.19763532102E+02  0.23762302938E+01  0.40408783222E+02  0.45045681624E+02  0.00000000000E+00 0.  1.
         11    1    3    3    0    0 -0.38504378303E+01  0.19328726580E+01 -0.81118149929E+01  0.91849556851E+01  0.51100000000E-03 0. -1.
        -11    1    3    3    0    0 -0.27530417400E+01 -0.22463000189E+01 -0.13225261725E+02  0.13694256115E+02  0.51100000000E-03 0.  1.
         12    1    3    3    0    0 -0.13160052532E+02 -0.20628029329E+01 -0.19071706504E+02  0.23263106576E+02  0.00000000000E+00 0. -1.
</event>
<event>
 7    1  0.2031146E-008  0.4614233E+02  0.7816164E-02  0.1320468E+00
        -11   -1    0    0    0    0  0.00000000000E+00  0.00000000000E+00  0.45593999997E+02  0.45594000000E+02  0.51100000000E-03 0.  1.
         11   -1    0    0    0    0 -0.00000000000E+00 -0.00000000000E+00 -0.45593999997E+02  0.45594000000E+02  0.51100000000E-03 0. -1.
    9900012    2    1    2    0    0 -0.91726601635E+01  0.24245152046E+02 -0.36839477488E+02  0.46142332131E+02  0.10000131032E+02 0.  0.
        -12    1    1    2    0    0  0.91726601635E+01 -0.24245152046E+02  0.36839477488E+02  0.45045667869E+02  0.00000000000E+00 0.  1.
         11    1    3    3    0    0  0.61265015984E+00  0.28333498115E+00 -0.24850915818E+01  0.25751309405E+01  0.51100000000E-03 0. -1.
        -11    1    3    3    0    0 -0.23404137663E+00  0.92485037040E+01 -0.11793381296E+02  0.14989110674E+02  0.51100000000E-03 0.  1.
        -12    1    3    3    0    0 -0.95512689467E+01  0.14713313361E+02 -0.22561004610E+02  0.28578090516E+02  0.00000000000E+00 0.  1.
</event>
<event>
 7    1  0.2031146E-008  0.4614232E+02  0.7816164E-02  0.1320468E+00
        -11   -1    0    0    0    0  0.00000000000E+00  0.00000000000E+00  0.45593999997E+02  0.45594000000E+02  0.51100000000E-03 0.  1.
         11   -1    0    0    0    0 -0.00000000000E+00 -0.00000000000E+00 -0.45593999997E+02  0.45594000000E+02  0.51100000000E-03 0. -1.
    9900012    2    1    2    0    0 -0.41211056548E+01 -0.17406398292E+01 -0.44822987386E+02  0.46142317221E+02  0.99999950776E+01 0.  0.
        -12    1    1    2    0    0  0.41211056548E+01  0.17406398292E+01  0.44822987386E+02  0.45045682779E+02  0.00000000000E+00 0.  1.
         11    1    3    3    0    0 -0.24301809952E+01  0.35796255342E+01 -0.18418999706E+02  0.18920334275E+02  0.51100000000E-03 0. -1.
        -11    1    3    3    0    0 -0.17147393415E+01 -0.15093932307E+01 -0.52206933890E+01  0.56986172584E+01  0.51100000000E-03 0.  1.
         12    1    3    3    0    0  0.23814681978E-01 -0.38108721327E+01 -0.21183294291E+02  0.21523365688E+02  0.00000000000E+00 0. -1.
</event>
<event>
 7    1  0.2031146E-008  0.4614232E+02  0.7816164E-02  0.1320468E+00
        -11   -1    0    0    0    0  0.00000000000E+00  0.00000000000E+00  0.45593999997E+02  0.45594000000E+02  0.51100000000E-03 0.  1.
         11   -1    0    0    0    0 -0.00000000000E+00 -0.00000000000E+00 -0.45593999997E+02  0.45594000000E+02  0.51100000000E-03 0. -1.
    9900012    2    1    2    0    0 -0.24868952830E+00 -0.11047856244E+02 -0.43669171646E+02  0.46142317340E+02  0.99999961589E+01 0.  0.
        -12    1    1    2    0    0  0.24868952830E+00  0.11047856244E+02  0.43669171646E+02  0.45045682660E+02  0.00000000000E+00 0.  1.
         11    1    3    3    0    0  0.77862468114E+00 -0.51063120034E+01 -0.32413091910E+02  0.32822084122E+02  0.51100000000E-03 0. -1.
        -11    1    3    3    0    0 -0.15274492369E+01 -0.55284684947E+01 -0.11297689319E+02  0.12670234776E+02  0.51100000000E-03 0.  1.
        -12    1    3    3    0    0  0.50013502749E+00 -0.41307574565E+00  0.41609582973E-01  0.64999844213E+00  0.00000000000E+00 0.  1.
</event>
<event>
 7    1  0.2031146E-008  0.4614232E+02  0.7816164E-02  0.1320468E+00
        -11   -1    0    0    0    0  0.00000000000E+00  0.00000000000E+00  0.45593999997E+02  0.45594000000E+02  0.51100000000E-03 0.  1.
         11   -1    0    0    0    0 -0.00000000000E+00 -0.00000000000E+00 -0.45593999997E+02  0.45594000000E+02  0.51100000000E-03 0. -1.
    9900012    2    1    2    0    0 -0.44585035639E+01  0.42403993345E+02 -0.14530538033E+02  0.46142318285E+02  0.10000004778E+02 0.  0.
        -12    1    1    2    0    0  0.44585035639E+01 -0.42403993345E+02  0.14530538033E+02  0.45045681715E+02  0.00000000000E+00 0.  1.
         11    1    3    3    0    0 -0.17966114620E+01  0.19212951667E+02 -0.52281421020E+01  0.19992468447E+02  0.51100000000E-03 0. -1.
        -11    1    3    3    0    0  0.15022889386E+01  0.15583027424E+02 -0.47813389584E+01  0.16369142258E+02  0.51100000000E-03 0.  1.
         12    1    3    3    0    0 -0.41641810405E+01  0.76080142543E+01 -0.45210569726E+01  0.97807075808E+01  0.00000000000E+00 0. -1.
</event>
<event>
 7    1  0.2031146E-008  0.4614232E+02  0.7816164E-02  0.1320468E+00
        -11   -1    0    0    0    0  0.00000000000E+00  0.00000000000E+00  0.45593999997E+02  0.45594000000E+02  0.51100000000E-03 0. -1.
         11   -1    0    0    0    0 -0.00000000000E+00 -0.00000000000E+00 -0.45593999997E+02  0.45594000000E+02  0.51100000000E-03 0.  1.
    9900012    2    1    2    0    0  0.87369385977E+01  0.12319556419E+02  0.42438284688E+02  0.46142316814E+02  0.99999913666E+01 0.  0.
        -12    1    1    2    0    0 -0.87369385977E+01 -0.12319556419E+02 -0.42438284688E+02  0.45045683186E+02  0.00000000000E+00 0.  1.
         11    1    3    3    0    0  0.57898571359E+01  0.97397896728E+01  0.27873922603E+02  0.30088893467E+02  0.51100000000E-03 0. -1.
        -11    1    3    3    0    0  0.22802180714E+01 -0.13847410951E+01  0.47554773561E+01  0.54526569211E+01  0.51100000000E-03 0.  1.
        -12    1    3    3    0    0  0.66686339036E+00  0.39645078411E+01  0.98088847288E+01  0.10600766426E+02  0.00000000000E+00 0.  1.
</event>
<event>
 7    1  0.2031146E-008  0.4614232E+02  0.7816164E-02  0.1320468E+00
        -11   -1    0    0    0    0  0.00000000000E+00  0.00000000000E+00  0.45593999997E+02  0.45594000000E+02  0.51100000000E-03 0.  1.
         11   -1    0    0    0    0 -0.00000000000E+00 -0.00000000000E+00 -0.45593999997E+02  0.45594000000E+02  0.51100000000E-03 0. -1.
    9900012    2    1    2    0    0  0.24878357052E+01 -0.36432915338E+02 -0.26373600393E+02  0.46142318251E+02  0.10000004470E+02 0.  0.
        -12    1    1    2    0    0 -0.24878357052E+01  0.36432915338E+02  0.26373600393E+02  0.45045681749E+02  0.00000000000E+00 0.  1.
         11    1    3    3    0    0  0.22673953629E+01 -0.29441986882E+02 -0.16164894426E+02  0.33664157280E+02  0.51100000000E-03 0. -1.
        -11    1    3    3    0    0  0.62702162126E+00 -0.21014007171E+01 -0.40333894883E+01  0.45909990321E+01  0.51100000000E-03 0.  1.
         12    1    3    3    0    0 -0.40658127892E+00 -0.48895277385E+01 -0.61753164794E+01  0.78871619397E+01  0.00000000000E+00 0. -1.
</event>
<event>
 7    1  0.2031146E-008  0.4614232E+02  0.7816164E-02  0.1320468E+00
        -11   -1    0    0    0    0  0.00000000000E+00  0.00000000000E+00  0.45593999997E+02  0.45594000000E+02  0.51100000000E-03 0.  1.
         11   -1    0    0    0    0 -0.00000000000E+00 -0.00000000000E+00 -0.45593999997E+02  0.45594000000E+02  0.51100000000E-03 0. -1.
    9900012    2    1    2    0    0 -0.99558779965E+01 -0.40810626469E+02 -0.16263048427E+02  0.46142317814E+02  0.10000000479E+02 0.  0.
        -12    1    1    2    0    0  0.99558779965E+01  0.40810626469E+02  0.16263048427E+02  0.45045682186E+02  0.00000000000E+00 0.  1.
         11    1    3    3    0    0 -0.55857423499E+01 -0.87565513738E+01 -0.35680111370E+01  0.10982186180E+02  0.51100000000E-03 0.  1.
        -11    1    3    3    0    0 -0.39168227491E+01 -0.20912716340E+02 -0.58106270381E+01  0.22055534272E+02  0.51100000000E-03 0. -1.
        -12    1    3    3    0    0 -0.45331289758E+00 -0.11141358755E+02 -0.68844102523E+01  0.13104597362E+02  0.00000000000E+00 0.  1.
</event>
<event>
 7    1  0.2031146E-008  0.4614232E+02  0.7816164E-02  0.1320468E+00
        -11   -1    0    0    0    0  0.00000000000E+00  0.00000000000E+00  0.45593999997E+02  0.45594000000E+02  0.51100000000E-03 0.  1.
         11   -1    0    0    0    0 -0.00000000000E+00 -0.00000000000E+00 -0.45593999997E+02  0.45594000000E+02  0.51100000000E-03 0. -1.
    9900012    2    1    2    0    0  0.19433674887E+02  0.82456499633E+01 -0.39792647933E+02  0.46142319936E+02  0.10000019828E+02 0.  0.
        -12    1    1    2    0    0 -0.19433674887E+02 -0.82456499633E+01  0.39792647933E+02  0.45045680064E+02  0.00000000000E+00 0.  1.
         11    1    3    3    0    0  0.15222274480E+02  0.27588805890E+01 -0.28304050184E+02  0.32255981143E+02  0.51100000000E-03 0. -1.
        -11    1    3    3    0    0  0.12202216001E+01  0.33414193970E+01 -0.82469916746E+01  0.89814751729E+01  0.51100000000E-03 0.  1.
        -12    1    3    3    0    0  0.29911788069E+01  0.21453499772E+01 -0.32416060746E+01  0.49048636192E+01  0.00000000000E+00 0.  1.
</event>
<event>
 7    1  0.2031146E-008  0.4614232E+02  0.7816164E-02  0.1320468E+00
        -11   -1    0    0    0    0  0.00000000000E+00  0.00000000000E+00  0.45593999997E+02  0.45594000000E+02  0.51100000000E-03 0.  1.
         11   -1    0    0    0    0 -0.00000000000E+00 -0.00000000000E+00 -0.45593999997E+02  0.45594000000E+02  0.51100000000E-03 0. -1.
    9900012    2    1    2    0    0  0.34324019926E+02 -0.19907390949E+02 -0.21323013973E+02  0.46142317819E+02  0.10000000524E+02 0.  0.
        -12    1    1    2    0    0 -0.34324019926E+02  0.19907390949E+02  0.21323013973E+02  0.45045682181E+02  0.00000000000E+00 0.  1.
         11    1    3    3    0    0  0.37866103091E+01 -0.33447215646E+01 -0.10251787899E+01  0.51552470154E+01  0.51100000000E-03 0. -1.
        -11    1    3    3    0    0  0.23391478735E+02 -0.88108081917E+01 -0.13092727013E+02  0.28217213174E+02  0.51100000000E-03 0.  1.
         12    1    3    3    0    0  0.71459308817E+01 -0.77518611931E+01 -0.72051081707E+01  0.12769857629E+02  0.00000000000E+00 0. -1.
</event>
<event>
 7    1  0.2031146E-008  0.4614232E+02  0.7816164E-02  0.1320468E+00
        -11   -1    0    0    0    0  0.00000000000E+00  0.00000000000E+00  0.45593999997E+02  0.45594000000E+02  0.51100000000E-03 0.  1.
         11   -1    0    0    0    0 -0.00000000000E+00 -0.00000000000E+00 -0.45593999997E+02  0.45594000000E+02  0.51100000000E-03 0. -1.
    9900012    2    1    2    0    0 -0.28502082808E+02 -0.34869856160E+02  0.91533637353E+00  0.46142318368E+02  0.10000005539E+02 0.  0.
        -12    1    1    2    0    0  0.28502082808E+02  0.34869856160E+02 -0.91533637353E+00  0.45045681632E+02  0.00000000000E+00 0.  1.
         11    1    3    3    0    0 -0.15391628818E+02 -0.21530594510E+02  0.37135533089E+01  0.26725628450E+02  0.51100000000E-03 0. -1.
        -11    1    3    3    0    0 -0.10807726885E+02 -0.10520708972E+02 -0.45832234688E+00  0.15089809056E+02  0.51100000000E-03 0.  1.
        -12    1    3    3    0    0 -0.23027271051E+01 -0.28185526776E+01 -0.23398945885E+01  0.43268808630E+01  0.00000000000E+00 0.  1.
</event>
<event>
 7    1  0.2031146E-008  0.4614232E+02  0.7816164E-02  0.1320468E+00
        -11   -1    0    0    0    0  0.00000000000E+00  0.00000000000E+00  0.45593999997E+02  0.45594000000E+02  0.51100000000E-03 0.  1.
         11   -1    0    0    0    0 -0.00000000000E+00 -0.00000000000E+00 -0.45593999997E+02  0.45594000000E+02  0.51100000000E-03 0. -1.
    9900012    2    1    2    0    0  0.62873647986E+01 -0.46647929810E+01 -0.44360143283E+02  0.46142316947E+02  0.99999925729E+01 0.  0.
        -12    1    1    2    0    0 -0.62873647986E+01  0.46647929810E+01  0.44360143283E+02  0.45045683053E+02  0.00000000000E+00 0.  1.
         11    1    3    3    0    0 -0.25561616091E+00  0.12773474991E+01 -0.41067734014E+01  0.43084271244E+01  0.51100000000E-03 0. -1.
        -11    1    3    3    0    0  0.58474872567E+01 -0.29243622816E+01 -0.14634573628E+02  0.16028591563E+02  0.51100000000E-03 0.  1.
         12    1    3    3    0    0  0.69549370280E+00 -0.30177781984E+01 -0.25618796254E+02  0.25805298259E+02  0.00000000000E+00 0. -1.
</event>
<event>
 7    1  0.2031146E-008  0.4614232E+02  0.7816164E-02  0.1320468E+00
        -11   -1    0    0    0    0  0.00000000000E+00  0.00000000000E+00  0.45593999997E+02  0.45594000000E+02  0.51100000000E-03 0.  1.
         11   -1    0    0    0    0 -0.00000000000E+00 -0.00000000000E+00 -0.45593999997E+02  0.45594000000E+02  0.51100000000E-03 0. -1.
    9900012    2    1    2    0    0 -0.24910178006E+02  0.33047639907E+01 -0.37385492609E+02  0.46142317732E+02  0.99999997386E+01 0.  0.
        -12    1    1    2    0    0  0.24910178006E+02 -0.33047639907E+01  0.37385492609E+02  0.45045682268E+02  0.00000000000E+00 0.  1.
         11    1    3    3    0    0 -0.83171515925E+01  0.42127819196E+01 -0.14878786472E+02  0.17558497352E+02  0.51100000000E-03 0. -1.
        -11    1    3    3    0    0 -0.61478802236E+01 -0.31844141896E+01 -0.84679665048E+01  0.10938161727E+02  0.51100000000E-03 0.  1.
        -12    1    3    3    0    0 -0.10445146190E+02  0.22763962606E+01 -0.14038739633E+02  0.17645658654E+02  0.00000000000E+00 0.  1.
</event>
<event>
 7    1  0.2031146E-008  0.4614232E+02  0.7816164E-02  0.1320468E+00
        -11   -1    0    0    0    0  0.00000000000E+00  0.00000000000E+00  0.45593999997E+02  0.45594000000E+02  0.51100000000E-03 0. -1.
         11   -1    0    0    0    0 -0.00000000000E+00 -0.00000000000E+00 -0.45593999997E+02  0.45594000000E+02  0.51100000000E-03 0.  1.
    9900012    2    1    2    0    0  0.42724872851E+02  0.13975474021E+02 -0.28956708182E+01  0.46142317147E+02  0.99999943997E+01 0.  0.
        -12    1    1    2    0    0 -0.42724872851E+02 -0.13975474021E+02  0.28956708182E+01  0.45045682853E+02  0.00000000000E+00 0.  1.
         11    1    3    3    0    0  0.83831533257E+01  0.54330673754E+01 -0.99459354347E+00  0.10039158200E+02  0.51100000000E-03 0. -1.
        -11    1    3    3    0    0  0.24295798285E+01 -0.34980251778E+00 -0.16800935422E+01  0.29745477835E+01  0.51100000000E-03 0.  1.
         12    1    3    3    0    0  0.31912139696E+02  0.88922091630E+01 -0.22098373250E+00  0.33128611163E+02  0.00000000000E+00 0. -1.
</event>
<event>
 7    1  0.2031146E-008  0.4614232E+02  0.7816164E-02  0.1320468E+00
        -11   -1    0    0    0    0  0.00000000000E+00  0.00000000000E+00  0.45593999997E+02  0.45594000000E+02  0.51100000000E-03 0. -1.
         11   -1    0    0    0    0 -0.00000000000E+00 -0.00000000000E+00 -0.45593999997E+02  0.45594000000E+02  0.51100000000E-03 0.  1.
    9900012    2    1    2    0    0  0.26314981929E+02  0.11529930799E+02  0.34694321485E+02  0.46142317394E+02  0.99999966535E+01 0.  0.
        -12    1    1    2    0    0 -0.26314981929E+02 -0.11529930799E+02 -0.34694321485E+02  0.45045682606E+02  0.00000000000E+00 0.  1.
         11    1    3    3    0    0  0.10930990980E+02  0.76856409471E+01  0.14507073670E+02  0.19723357404E+02  0.51100000000E-03 0. -1.
        -11    1    3    3    0    0  0.23240520144E+01  0.26435647348E+01  0.69189102161E+01  0.77627940274E+01  0.51100000000E-03 0.  1.
         12    1    3    3    0    0  0.13059938935E+02  0.12007251169E+01  0.13268337598E+02  0.18656165962E+02  0.00000000000E+00 0. -1.
</event>
<event>
 7    1  0.2031146E-008  0.4614232E+02  0.7816164E-02  0.1320468E+00
        -11   -1    0    0    0    0  0.00000000000E+00  0.00000000000E+00  0.45593999997E+02  0.45594000000E+02  0.51100000000E-03 0.  1.
         11   -1    0    0    0    0 -0.00000000000E+00 -0.00000000000E+00 -0.45593999997E+02  0.45594000000E+02  0.51100000000E-03 0. -1.
    9900012    2    1    2    0    0 -0.23750390735E+02  0.25111777484E+02 -0.28886521607E+02  0.46142316977E+02  0.99999928489E+01 0.  0.
        -12    1    1    2    0    0  0.23750390735E+02 -0.25111777484E+02  0.28886521607E+02  0.45045683023E+02  0.00000000000E+00 0.  1.
         11    1    3    3    0    0 -0.69740764930E+01  0.59476009247E+01 -0.39098384457E+01  0.99648651081E+01  0.51100000000E-03 0. -1.
        -11    1    3    3    0    0 -0.14136776464E+02  0.12261530051E+02 -0.19055822357E+02  0.26708012542E+02  0.51100000000E-03 0.  1.
        -12    1    3    3    0    0 -0.26395377779E+01  0.69026465081E+01 -0.59208608045E+01  0.94694393268E+01  0.00000000000E+00 0.  1.
</event>
<event>
 7    1  0.2031146E-008  0.4614232E+02  0.7816164E-02  0.1320468E+00
        -11   -1    0    0    0    0  0.00000000000E+00  0.00000000000E+00  0.45593999997E+02  0.45594000000E+02  0.51100000000E-03 0.  1.
         11   -1    0    0    0    0 -0.00000000000E+00 -0.00000000000E+00 -0.45593999997E+02  0.45594000000E+02  0.51100000000E-03 0. -1.
    9900012    2    1    2    0    0 -0.41986382806E+02  0.88555929582E+01 -0.13705312853E+02  0.46142317986E+02  0.10000002047E+02 0.  0.
        -12    1    1    2    0    0  0.41986382806E+02 -0.88555929582E+01  0.13705312853E+02  0.45045682014E+02  0.00000000000E+00 0.  1.
         11    1    3    3    0    0 -0.27802271136E+02  0.19370477752E+01 -0.11536927559E+02  0.30163208254E+02  0.51100000000E-03 0.  1.
        -11    1    3    3    0    0 -0.77271852826E+01  0.34400164174E+01 -0.60425415863E+00  0.84798719738E+01  0.51100000000E-03 0. -1.
        -12    1    3    3    0    0 -0.64569263870E+01  0.34785287657E+01 -0.15641311350E+01  0.74992377578E+01  0.00000000000E+00 0.  1.
</event>
<event>
 7    1  0.2031146E-008  0.4614232E+02  0.7816164E-02  0.1320468E+00
        -11   -1    0    0    0    0  0.00000000000E+00  0.00000000000E+00  0.45593999997E+02  0.45594000000E+02  0.51100000000E-03 0.  1.
         11   -1    0    0    0    0 -0.00000000000E+00 -0.00000000000E+00 -0.45593999997E+02  0.45594000000E+02  0.51100000000E-03 0. -1.
    9900012    2    1    2    0    0 -0.43626693151E+01  0.23185881762E+02 -0.38373108861E+02  0.46142317850E+02  0.10000000814E+02 0.  0.
        -12    1    1    2    0    0  0.43626693151E+01 -0.23185881762E+02  0.38373108861E+02  0.45045682150E+02  0.00000000000E+00 0.  1.
         11    1    3    3    0    0 -0.11260799307E+01  0.19239270419E+02 -0.29733949486E+02  0.35433392930E+02  0.51100000000E-03 0. -1.
        -11    1    3    3    0    0 -0.14531651940E+01  0.38984632618E+01 -0.41417973681E+01  0.58706209709E+01  0.51100000000E-03 0.  1.
        -12    1    3    3    0    0 -0.17834241904E+01  0.48148081708E-01 -0.44973620074E+01  0.48383039493E+01  0.00000000000E+00 0.  1.
</event>
<event>
 7    1  0.2031146E-008  0.4614232E+02  0.7816164E-02  0.1320468E+00
        -11   -1    0    0    0    0  0.00000000000E+00  0.00000000000E+00  0.45593999997E+02  0.45594000000E+02  0.51100000000E-03 0.  1.
         11   -1    0    0    0    0 -0.00000000000E+00 -0.00000000000E+00 -0.45593999997E+02  0.45594000000E+02  0.51100000000E-03 0. -1.
    9900012    2    1    2    0    0  0.23043949764E+02  0.35136465025E+01 -0.38545351495E+02  0.46142318139E+02  0.10000003442E+02 0.  0.
        -12    1    1    2    0    0 -0.23043949764E+02 -0.35136465025E+01  0.38545351495E+02  0.45045681861E+02  0.00000000000E+00 0.  1.
         11    1    3    3    0    0  0.13044413703E+02  0.39558328046E+01 -0.20005405095E+02  0.24207882503E+02  0.51100000000E-03 0. -1.
        -11    1    3    3    0    0  0.67365076505E+01  0.13145107805E+01 -0.69558859289E+01  0.97720429407E+01  0.51100000000E-03 0.  1.
         12    1    3    3    0    0  0.32630284104E+01 -0.17566970825E+01 -0.11584060472E+02  0.12162392695E+02  0.00000000000E+00 0. -1.
</event>
<event>
 7    1  0.2031146E-008  0.4614232E+02  0.7816164E-02  0.1320468E+00
        -11   -1    0    0    0    0  0.00000000000E+00  0.00000000000E+00  0.45593999997E+02  0.45594000000E+02  0.51100000000E-03 0. -1.
         11   -1    0    0    0    0 -0.00000000000E+00 -0.00000000000E+00 -0.45593999997E+02  0.45594000000E+02  0.51100000000E-03 0.  1.
    9900012    2    1    2    0    0 -0.37549207455E+02 -0.24883006575E+02 -0.80369827750E-01  0.46142318121E+02  0.10000003279E+02 0.  0.
        -12    1    1    2    0    0  0.37549207455E+02  0.24883006575E+02  0.80369827750E-01  0.45045681879E+02  0.00000000000E+00 0.  1.
         11    1    3    3    0    0 -0.15355954725E+02 -0.73398922896E+01  0.22911061575E+01  0.17173483398E+02  0.51100000000E-03 0. -1.
        -11    1    3    3    0    0 -0.12173954396E+02 -0.77976453207E+01  0.13060279467E+01  0.14515996261E+02  0.51100000000E-03 0.  1.
        -12    1    3    3    0    0 -0.10019298333E+02 -0.97454689643E+01 -0.36775039320E+01  0.14452838461E+02  0.00000000000E+00 0.  1.
</event>
<event>
 7    1  0.2031146E-008  0.4614232E+02  0.7816164E-02  0.1320468E+00
        -11   -1    0    0    0    0  0.00000000000E+00  0.00000000000E+00  0.45593999997E+02  0.45594000000E+02  0.51100000000E-03 0.  1.
         11   -1    0    0    0    0 -0.00000000000E+00 -0.00000000000E+00 -0.45593999997E+02  0.45594000000E+02  0.51100000000E-03 0. -1.
    9900012    2    1    2    0    0  0.11305527411E+02 -0.18039433244E+02 -0.39697321979E+02  0.46142317919E+02  0.10000001440E+02 0.  0.
        -12    1    1    2    0    0 -0.11305527411E+02  0.18039433244E+02  0.39697321979E+02  0.45045682081E+02  0.00000000000E+00 0.  1.
         11    1    3    3    0    0 -0.99264602559E+00 -0.13765157041E+01 -0.32236383150E+01  0.36430736835E+01  0.51100000000E-03 0. -1.
        -11    1    3    3    0    0 -0.68284653005E-01 -0.16014583095E+01 -0.67361633833E+00  0.17387037537E+01  0.51100000000E-03 0.  1.
         12    1    3    3    0    0  0.12366458090E+02 -0.15061459230E+02 -0.35800067326E+02  0.40760540482E+02  0.00000000000E+00 0. -1.
</event>
<event>
 7    1  0.2031146E-008  0.4614233E+02  0.7816164E-02  0.1320468E+00
        -11   -1    0    0    0    0  0.00000000000E+00  0.00000000000E+00  0.45593999997E+02  0.45594000000E+02  0.51100000000E-03 0.  1.
         11   -1    0    0    0    0 -0.00000000000E+00 -0.00000000000E+00 -0.45593999997E+02  0.45594000000E+02  0.51100000000E-03 0. -1.
    9900012    2    1    2    0    0  0.76526312901E+01  0.27167965560E+02 -0.35106291415E+02  0.46142325233E+02  0.10000068133E+02 0.  0.
        -12    1    1    2    0    0 -0.76526312901E+01 -0.27167965560E+02  0.35106291415E+02  0.45045674767E+02  0.00000000000E+00 0.  1.
         11    1    3    3    0    0  0.29032402011E+01  0.18310853136E+02 -0.23569926810E+02  0.29987624052E+02  0.51100000000E-03 0. -1.
        -11    1    3    3    0    0  0.52407724240E+01  0.91628815105E+01 -0.11443607892E+02  0.15568566248E+02  0.51100000000E-03 0.  1.
        -12    1    3    3    0    0 -0.49138133498E+00 -0.30576908677E+00 -0.92756713087E-01  0.58613493208E+00  0.00000000000E+00 0.  1.
</event>
<event>
 7    1  0.2031146E-008  0.4614232E+02  0.7816164E-02  0.1320468E+00
        -11   -1    0    0    0    0  0.00000000000E+00  0.00000000000E+00  0.45593999997E+02  0.45594000000E+02  0.51100000000E-03 0.  1.
         11   -1    0    0    0    0 -0.00000000000E+00 -0.00000000000E+00 -0.45593999997E+02  0.45594000000E+02  0.51100000000E-03 0. -1.
    9900012    2    1    2    0    0 -0.43951677048E+01 -0.45040063042E+01 -0.44603923282E+02  0.46142317143E+02  0.99999943604E+01 0.  0.
        -12    1    1    2    0    0  0.43951677048E+01  0.45040063042E+01  0.44603923282E+02  0.45045682857E+02  0.00000000000E+00 0.  1.
         11    1    3    3    0    0 -0.24570808074E+01 -0.57851848914E+01 -0.29132165550E+02  0.29802494530E+02  0.51100000000E-03 0. -1.
        -11    1    3    3    0    0 -0.24627703423E+01  0.42056364488E+00 -0.33646012306E+01  0.41907819366E+01  0.51100000000E-03 0.  1.
         12    1    3    3    0    0  0.52468344496E+00  0.86061494238E+00 -0.12107156502E+02  0.12149040676E+02  0.00000000000E+00 0. -1.
</event>
<event>
 7    1  0.2031146E-008  0.4614232E+02  0.7816164E-02  0.1320468E+00
        -11   -1    0    0    0    0  0.00000000000E+00  0.00000000000E+00  0.45593999997E+02  0.45594000000E+02  0.51100000000E-03 0.  1.
         11   -1    0    0    0    0 -0.00000000000E+00 -0.00000000000E+00 -0.45593999997E+02  0.45594000000E+02  0.51100000000E-03 0. -1.
    9900012    2    1    2    0    0  0.16811390142E+02 -0.41786575498E+02 -0.61051131748E+00  0.46142318138E+02  0.10000003436E+02 0.  0.
        -12    1    1    2    0    0 -0.16811390142E+02  0.41786575498E+02  0.61051131748E+00  0.45045681862E+02  0.00000000000E+00 0.  1.
         11    1    3    3    0    0  0.11697611154E+02 -0.22698072280E+02 -0.21651063754E+01  0.25626632198E+02  0.51100000000E-03 0. -1.
        -11    1    3    3    0    0  0.41306780128E+01 -0.18240334395E+02  0.25558779206E+01  0.18876038035E+02  0.51100000000E-03 0.  1.
         12    1    3    3    0    0  0.98310097591E+00 -0.84816882225E+00 -0.10012828627E+01  0.16396479046E+01  0.00000000000E+00 0. -1.
</event>
<event>
 7    1  0.2031146E-008  0.4614232E+02  0.7816164E-02  0.1320468E+00
        -11   -1    0    0    0    0  0.00000000000E+00  0.00000000000E+00  0.45593999997E+02  0.45594000000E+02  0.51100000000E-03 0.  1.
         11   -1    0    0    0    0 -0.00000000000E+00 -0.00000000000E+00 -0.45593999997E+02  0.45594000000E+02  0.51100000000E-03 0. -1.
    9900012    2    1    2    0    0  0.34693914698E+02 -0.15661705402E+02 -0.24086443166E+02  0.46142317881E+02  0.10000001096E+02 0.  0.
        -12    1    1    2    0    0 -0.34693914698E+02  0.15661705402E+02  0.24086443166E+02  0.45045682119E+02  0.00000000000E+00 0.  1.
         11    1    3    3    0    0  0.14851287382E+02 -0.31788202894E+01 -0.11952327789E+02  0.19326763184E+02  0.51100000000E-03 0. -1.
        -11    1    3    3    0    0  0.26012206686E+01 -0.74171180261E+00 -0.43390812564E-01  0.27052483044E+01  0.51100000000E-03 0.  1.
         12    1    3    3    0    0  0.17241406648E+02 -0.11741173310E+02 -0.12090724565E+02  0.24110306393E+02  0.00000000000E+00 0. -1.
</event>
<event>
 7    1  0.2031146E-008  0.4614232E+02  0.7816164E-02  0.1320468E+00
        -11   -1    0    0    0    0  0.00000000000E+00  0.00000000000E+00  0.45593999997E+02  0.45594000000E+02  0.51100000000E-03 0.  1.
         11   -1    0    0    0    0 -0.00000000000E+00 -0.00000000000E+00 -0.45593999997E+02  0.45594000000E+02  0.51100000000E-03 0. -1.
    9900012    2    1    2    0    0 -0.30073141731E+02 -0.31805506969E+02 -0.10636234353E+02  0.46142316430E+02  0.99999878587E+01 0.  0.
        -12    1    1    2    0    0  0.30073141731E+02  0.31805506969E+02  0.10636234353E+02  0.45045683570E+02  0.00000000000E+00 0.  1.
         11    1    3    3    0    0 -0.24622314556E+02 -0.28022717625E+02 -0.73566714917E+01  0.38021726590E+02  0.51100000000E-03 0. -1.
        -11    1    3    3    0    0 -0.33829065136E+01 -0.30445306000E+01 -0.37236591200E+01  0.58803792869E+01  0.51100000000E-03 0.  1.
         12    1    3    3    0    0 -0.20679206610E+01 -0.73825874352E+00  0.44409625850E+00  0.22402105525E+01  0.00000000000E+00 0. -1.
</event>
<event>
 7    1  0.2031146E-008  0.4614232E+02  0.7816164E-02  0.1320468E+00
        -11   -1    0    0    0    0  0.00000000000E+00  0.00000000000E+00  0.45593999997E+02  0.45594000000E+02  0.51100000000E-03 0. -1.
         11   -1    0    0    0    0 -0.00000000000E+00 -0.00000000000E+00 -0.45593999997E+02  0.45594000000E+02  0.51100000000E-03 0.  1.
    9900012    2    1    2    0    0 -0.39511567192E+02  0.20327813680E+02  0.73979316863E+01  0.46142319361E+02  0.10000014594E+02 0.  0.
        -12    1    1    2    0    0  0.39511567192E+02 -0.20327813680E+02 -0.73979316863E+01  0.45045680639E+02  0.00000000000E+00 0.  1.
         11    1    3    3    0    0 -0.46734195770E-01 -0.24807263110E+00 -0.30500820930E-01  0.25427283880E+00  0.51100000000E-03 0. -1.
        -11    1    3    3    0    0 -0.34412343354E+01 -0.48846963612E+00  0.12969983245E+01  0.37098384401E+01  0.51100000000E-03 0.  1.
         12    1    3    3    0    0 -0.36023598661E+02  0.21064355947E+02  0.61314341827E+01  0.42178208083E+02  0.00000000000E+00 0. -1.
</event>
<event>
 7    1  0.2031146E-008  0.4614232E+02  0.7816164E-02  0.1320468E+00
        -11   -1    0    0    0    0  0.00000000000E+00  0.00000000000E+00  0.45593999997E+02  0.45594000000E+02  0.51100000000E-03 0. -1.
         11   -1    0    0    0    0 -0.00000000000E+00 -0.00000000000E+00 -0.45593999997E+02  0.45594000000E+02  0.51100000000E-03 0.  1.
    9900012    2    1    2    0    0 -0.30085798727E+02  0.20220955209E+02  0.26740818821E+02  0.46142315347E+02  0.99999779871E+01 0.  0.
        -12    1    1    2    0    0  0.30085798727E+02 -0.20220955209E+02 -0.26740818821E+02  0.45045684653E+02  0.00000000000E+00 0.  1.
         11    1    3    3    0    0 -0.10131572347E+02  0.10178123104E+02  0.11405281969E+02  0.18339122258E+02  0.51100000000E-03 0. -1.
        -11    1    3    3    0    0 -0.15677845877E+02  0.47440076248E+01  0.11009781150E+02  0.19736153144E+02  0.51100000000E-03 0.  1.
        -12    1    3    3    0    0 -0.42763805028E+01  0.52988244803E+01  0.43257557024E+01  0.80670399450E+01  0.00000000000E+00 0.  1.
</event>
<event>
 7    1  0.2031146E-008  0.4614232E+02  0.7816164E-02  0.1320468E+00
        -11   -1    0    0    0    0  0.00000000000E+00  0.00000000000E+00  0.45593999997E+02  0.45594000000E+02  0.51100000000E-03 0.  1.
         11   -1    0    0    0    0 -0.00000000000E+00 -0.00000000000E+00 -0.45593999997E+02  0.45594000000E+02  0.51100000000E-03 0. -1.
    9900012    2    1    2    0    0 -0.12522147317E+02  0.19277750720E+02 -0.38738581041E+02  0.46142317551E+02  0.99999980826E+01 0.  0.
        -12    1    1    2    0    0  0.12522147317E+02 -0.19277750720E+02  0.38738581041E+02  0.45045682449E+02  0.00000000000E+00 0.  1.
         11    1    3    3    0    0 -0.56981112096E+01  0.66295567585E+01 -0.14811212996E+02  0.17198590781E+02  0.51100000000E-03 0. -1.
        -11    1    3    3    0    0  0.93853363631E+00  0.15154356171E+01 -0.71258793164E+01  0.73454439478E+01  0.51100000000E-03 0.  1.
        -12    1    3    3    0    0 -0.77625697433E+01  0.11132758345E+02 -0.16801488728E+02  0.21598282822E+02  0.00000000000E+00 0.  1.
</event>
<event>
 7    1  0.2031146E-008  0.4614232E+02  0.7816164E-02  0.1320468E+00
        -11   -1    0    0    0    0  0.00000000000E+00  0.00000000000E+00  0.45593999997E+02  0.45594000000E+02  0.51100000000E-03 0. -1.
         11   -1    0    0    0    0 -0.00000000000E+00 -0.00000000000E+00 -0.45593999997E+02  0.45594000000E+02  0.51100000000E-03 0.  1.
    9900012    2    1    2    0    0 -0.36431353560E+02  0.25378103737E+02 -0.76040674249E+01  0.46142317489E+02  0.99999975227E+01 0.  0.
        -12    1    1    2    0    0  0.36431353560E+02 -0.25378103737E+02  0.76040674249E+01  0.45045682511E+02  0.00000000000E+00 0.  1.
         11    1    3    3    0    0 -0.17738155677E+02  0.79343944445E+01 -0.74793529423E+00  0.19446238441E+02  0.51100000000E-03 0. -1.
        -11    1    3    3    0    0 -0.36474376668E+01  0.37845751569E+01 -0.28668204550E+01  0.59871086873E+01  0.51100000000E-03 0.  1.
        -12    1    3    3    0    0 -0.15045760216E+02  0.13659134135E+02 -0.39893116756E+01  0.20708970362E+02  0.00000000000E+00 0.  1.
</event>
<event>
 7    1  0.2031146E-008  0.4614232E+02  0.7816164E-02  0.1320468E+00
        -11   -1    0    0    0    0  0.00000000000E+00  0.00000000000E+00  0.45593999997E+02  0.45594000000E+02  0.51100000000E-03 0. -1.
         11   -1    0    0    0    0 -0.00000000000E+00 -0.00000000000E+00 -0.45593999997E+02  0.45594000000E+02  0.51100000000E-03 0.  1.
    9900012    2    1    2    0    0  0.28331215103E+02  0.34941679987E+02 -0.23525944944E+01  0.46142318183E+02  0.10000003845E+02 0.  0.
        -12    1    1    2    0    0 -0.28331215103E+02 -0.34941679987E+02  0.23525944944E+01  0.45045681817E+02  0.00000000000E+00 0.  1.
         11    1    3    3    0    0  0.58240914901E+01  0.59462112253E+01 -0.87074164857E+00  0.83687311405E+01  0.51100000000E-03 0. -1.
        -11    1    3    3    0    0  0.40644624116E+01  0.79576233657E+01 -0.37800192431E+01  0.97021734712E+01  0.51100000000E-03 0.  1.
        -12    1    3    3    0    0  0.18442661201E+02  0.21037845396E+02  0.22981663973E+01  0.28071413571E+02  0.00000000000E+00 0.  1.
</event>
<event>
 7    1  0.2031146E-008  0.4614232E+02  0.7816164E-02  0.1320468E+00
        -11   -1    0    0    0    0  0.00000000000E+00  0.00000000000E+00  0.45593999997E+02  0.45594000000E+02  0.51100000000E-03 0.  1.
         11   -1    0    0    0    0 -0.00000000000E+00 -0.00000000000E+00 -0.45593999997E+02  0.45594000000E+02  0.51100000000E-03 0. -1.
    9900012    2    1    2    0    0 -0.40881370240E+02  0.18337078503E+02 -0.46452749351E+01  0.46142318076E+02  0.10000002874E+02 0.  0.
        -12    1    1    2    0    0  0.40881370240E+02 -0.18337078503E+02  0.46452749351E+01  0.45045681924E+02  0.00000000000E+00 0.  1.
         11    1    3    3    0    0 -0.15434150819E+02  0.10072991580E+02 -0.39191677396E+01  0.18842453314E+02  0.51100000000E-03 0. -1.
        -11    1    3    3    0    0 -0.35448383550E+01  0.28490837274E+01 -0.13023336048E+01  0.47306690994E+01  0.51100000000E-03 0.  1.
         12    1    3    3    0    0 -0.21902381066E+02  0.54150031961E+01  0.57622640923E+00  0.22569195663E+02  0.00000000000E+00 0. -1.
</event>
<event>
 7    1  0.2031146E-008  0.4614232E+02  0.7816164E-02  0.1320468E+00
        -11   -1    0    0    0    0  0.00000000000E+00  0.00000000000E+00  0.45593999997E+02  0.45594000000E+02  0.51100000000E-03 0.  1.
         11   -1    0    0    0    0 -0.00000000000E+00 -0.00000000000E+00 -0.45593999997E+02  0.45594000000E+02  0.51100000000E-03 0. -1.
    9900012    2    1    2    0    0 -0.16098973289E+01 -0.11007293836E+02 -0.43650444254E+02  0.46142316849E+02  0.99999916813E+01 0.  0.
        -12    1    1    2    0    0  0.16098973289E+01  0.11007293836E+02  0.43650444254E+02  0.45045683151E+02  0.00000000000E+00 0.  1.
         11    1    3    3    0    0 -0.12253321576E+00 -0.52039307986E+00 -0.14363603583E+02  0.14373549718E+02  0.51100000000E-03 0. -1.
        -11    1    3    3    0    0 -0.12829199899E+01 -0.28465435315E+01 -0.27751273094E+01  0.41773227817E+01  0.51100000000E-03 0.  1.
        -12    1    3    3    0    0 -0.20444412319E+00 -0.76403572246E+01 -0.26511713362E+02  0.27591444349E+02  0.00000000000E+00 0.  1.
</event>
<event>
 7    1  0.2031146E-008  0.4614232E+02  0.7816164E-02  0.1320468E+00
        -11   -1    0    0    0    0  0.00000000000E+00  0.00000000000E+00  0.45593999997E+02  0.45594000000E+02  0.51100000000E-03 0.  1.
         11   -1    0    0    0    0 -0.00000000000E+00 -0.00000000000E+00 -0.45593999997E+02  0.45594000000E+02  0.51100000000E-03 0. -1.
    9900012    2    1    2    0    0 -0.88782766212E+01  0.11218835131E+02 -0.42713316927E+02  0.46142317628E+02  0.99999987864E+01 0.  0.
        -12    1    1    2    0    0  0.88782766212E+01 -0.11218835131E+02  0.42713316927E+02  0.45045682372E+02  0.00000000000E+00 0.  1.
         11    1    3    3    0    0  0.31856919682E+00  0.51900511818E+01 -0.10382374650E+02  0.11611710522E+02  0.51100000000E-03 0. -1.
        -11    1    3    3    0    0  0.29276548481E+00  0.23477606662E+00 -0.38030819496E-01  0.37719760724E+00  0.51100000000E-03 0.  1.
         12    1    3    3    0    0 -0.94896113029E+01  0.57940078821E+01 -0.32292911458E+02  0.34153409499E+02  0.00000000000E+00 0. -1.
</event>
<event>
 7    1  0.2031146E-008  0.4614232E+02  0.7816164E-02  0.1320468E+00
        -11   -1    0    0    0    0  0.00000000000E+00  0.00000000000E+00  0.45593999997E+02  0.45594000000E+02  0.51100000000E-03 0.  1.
         11   -1    0    0    0    0 -0.00000000000E+00 -0.00000000000E+00 -0.45593999997E+02  0.45594000000E+02  0.51100000000E-03 0. -1.
    9900012    2    1    2    0    0 -0.32199008166E+02 -0.13718143869E+02 -0.28357536456E+02  0.46142317944E+02  0.10000001665E+02 0.  0.
        -12    1    1    2    0    0  0.32199008166E+02  0.13718143869E+02  0.28357536456E+02  0.45045682056E+02  0.00000000000E+00 0.  1.
         11    1    3    3    0    0 -0.63948650480E+01  0.12225084901E+00 -0.84193554544E+01  0.10573305575E+02  0.51100000000E-03 0. -1.
        -11    1    3    3    0    0 -0.88113608650E+01 -0.64368005921E+01 -0.77857694531E+01  0.13404875546E+02  0.51100000000E-03 0.  1.
         12    1    3    3    0    0 -0.16992782253E+02 -0.74035941263E+01 -0.12152411548E+02  0.22164136823E+02  0.00000000000E+00 0. -1.
</event>
<event>
 7    1  0.2031146E-008  0.4614232E+02  0.7816164E-02  0.1320468E+00
        -11   -1    0    0    0    0  0.00000000000E+00  0.00000000000E+00  0.45593999997E+02  0.45594000000E+02  0.51100000000E-03 0. -1.
         11   -1    0    0    0    0 -0.00000000000E+00 -0.00000000000E+00 -0.45593999997E+02  0.45594000000E+02  0.51100000000E-03 0.  1.
    9900012    2    1    2    0    0  0.38824993175E+02  0.22764131847E+02  0.18781994200E+01  0.46142318444E+02  0.10000006226E+02 0.  0.
        -12    1    1    2    0    0 -0.38824993175E+02 -0.22764131847E+02 -0.18781994200E+01  0.45045681556E+02  0.00000000000E+00 0.  1.
         11    1    3    3    0    0  0.52610417827E+01  0.25115339105E+01 -0.19207608800E+01  0.61380522840E+01  0.51100000000E-03 0. -1.
        -11    1    3    3    0    0  0.41144817596E+01  0.40873593371E+01  0.26859818787E+01  0.63913977669E+01  0.51100000000E-03 0.  1.
        -12    1    3    3    0    0  0.29449469633E+02  0.16165238599E+02  0.11129784213E+01  0.33612868393E+02  0.00000000000E+00 0.  1.
</event>
<event>
 7    1  0.2031146E-008  0.4614232E+02  0.7816164E-02  0.1320468E+00
        -11   -1    0    0    0    0  0.00000000000E+00  0.00000000000E+00  0.45593999997E+02  0.45594000000E+02  0.51100000000E-03 0. -1.
         11   -1    0    0    0    0 -0.00000000000E+00 -0.00000000000E+00 -0.45593999997E+02  0.45594000000E+02  0.51100000000E-03 0.  1.
    9900012    2    1    2    0    0  0.29994308568E+01 -0.30318078229E+02  0.33180281169E+02  0.46142317505E+02  0.99999976689E+01 0.  0.
        -12    1    1    2    0    0 -0.29994308568E+01  0.30318078229E+02 -0.33180281169E+02  0.45045682495E+02  0.00000000000E+00 0.  1.
         11    1    3    3    0    0  0.53466783247E+01 -0.10272241055E+02  0.91939817902E+01  0.14786318231E+02  0.51100000000E-03 0. -1.
        -11    1    3    3    0    0 -0.11802888404E+01 -0.71700408138E+01  0.87182042760E+01  0.11349434042E+02  0.51100000000E-03 0.  1.
         12    1    3    3    0    0 -0.11669586276E+01 -0.12875796360E+02  0.15268095102E+02  0.20006565233E+02  0.00000000000E+00 0. -1.
</event>
<event>
 7    1  0.2031146E-008  0.4614232E+02  0.7816164E-02  0.1320468E+00
        -11   -1    0    0    0    0  0.00000000000E+00  0.00000000000E+00  0.45593999997E+02  0.45594000000E+02  0.51100000000E-03 0. -1.
         11   -1    0    0    0    0 -0.00000000000E+00 -0.00000000000E+00 -0.45593999997E+02  0.45594000000E+02  0.51100000000E-03 0.  1.
    9900012    2    1    2    0    0 -0.43791522364E+02 -0.87319085364E+01  0.59304137024E+01  0.46142318028E+02  0.10000002435E+02 0.  0.
        -12    1    1    2    0    0  0.43791522364E+02  0.87319085364E+01 -0.59304137024E+01  0.45045681972E+02  0.00000000000E+00 0.  1.
         11    1    3    3    0    0 -0.78113735118E+01 -0.40616085033E+00  0.15303850359E+01  0.79702322046E+01  0.51100000000E-03 0. -1.
        -11    1    3    3    0    0 -0.20913513403E+02 -0.11649950095E+01  0.47865460382E+01  0.21485885587E+02  0.51100000000E-03 0.  1.
        -12    1    3    3    0    0 -0.15066635449E+02 -0.71607526766E+01 -0.38651737168E+00  0.16686200236E+02  0.00000000000E+00 0.  1.
</event>
<event>
 7    1  0.2031146E-008  0.4614232E+02  0.7816164E-02  0.1320468E+00
        -11   -1    0    0    0    0  0.00000000000E+00  0.00000000000E+00  0.45593999997E+02  0.45594000000E+02  0.51100000000E-03 0.  1.
         11   -1    0    0    0    0 -0.00000000000E+00 -0.00000000000E+00 -0.45593999997E+02  0.45594000000E+02  0.51100000000E-03 0. -1.
    9900012    2    1    2    0    0 -0.47645513484E+01 -0.20393622187E+02 -0.39881231592E+02  0.46142318645E+02  0.10000008056E+02 0.  0.
        -12    1    1    2    0    0  0.47645513484E+01  0.20393622187E+02  0.39881231592E+02  0.45045681355E+02  0.00000000000E+00 0.  1.
         11    1    3    3    0    0  0.94715801552E+00 -0.30570297438E+01 -0.98636428128E+01  0.10369859640E+02  0.51100000000E-03 0. -1.
        -11    1    3    3    0    0 -0.41875666820E+00 -0.10322723029E+01  0.99767802787E-01  0.11184351255E+01  0.51100000000E-03 0.  1.
        -12    1    3    3    0    0 -0.52929526957E+01 -0.16304320141E+02 -0.30117356582E+02  0.34654023879E+02  0.00000000000E+00 0.  1.
</event>
<event>
 7    1  0.2031146E-008  0.4614232E+02  0.7816164E-02  0.1320468E+00
        -11   -1    0    0    0    0  0.00000000000E+00  0.00000000000E+00  0.45593999997E+02  0.45594000000E+02  0.51100000000E-03 0.  1.
         11   -1    0    0    0    0 -0.00000000000E+00 -0.00000000000E+00 -0.45593999997E+02  0.45594000000E+02  0.51100000000E-03 0. -1.
    9900012    2    1    2    0    0  0.21127705990E+02  0.36136860545E+02  0.16639134829E+02  0.46142318094E+02  0.10000003040E+02 0.  0.
        -12    1    1    2    0    0 -0.21127705990E+02 -0.36136860545E+02 -0.16639134829E+02  0.45045681906E+02  0.00000000000E+00 0.  1.
         11    1    3    3    0    0  0.65208883263E+01  0.71672798106E+01  0.16237863037E+01  0.98248952497E+01  0.51100000000E-03 0. -1.
        -11    1    3    3    0    0  0.35904859498E+01  0.27018847619E+01  0.29985597108E+01  0.54021413553E+01  0.51100000000E-03 0.  1.
         12    1    3    3    0    0  0.11016331714E+02  0.26267695973E+02  0.12016788814E+02  0.30915281489E+02  0.00000000000E+00 0. -1.
</event>
<event>
 7    1  0.2031146E-008  0.4614232E+02  0.7816164E-02  0.1320468E+00
        -11   -1    0    0    0    0  0.00000000000E+00  0.00000000000E+00  0.45593999997E+02  0.45594000000E+02  0.51100000000E-03 0.  1.
         11   -1    0    0    0    0 -0.00000000000E+00 -0.00000000000E+00 -0.45593999997E+02  0.45594000000E+02  0.51100000000E-03 0. -1.
    9900012    2    1    2    0    0 -0.36134191543E+02 -0.26459686850E+02 -0.48289480450E+01  0.46142316901E+02  0.99999921528E+01 0.  0.
        -12    1    1    2    0    0  0.36134191543E+02  0.26459686850E+02  0.48289480450E+01  0.45045683099E+02  0.00000000000E+00 0.  1.
         11    1    3    3    0    0 -0.11238743104E+02 -0.61355228477E+01 -0.30972885209E+01  0.13173730816E+02  0.51100000000E-03 0. -1.
        -11    1    3    3    0    0 -0.23998929066E+02 -0.17955845585E+02 -0.30253014166E+01  0.30124963666E+02  0.51100000000E-03 0.  1.
        -12    1    3    3    0    0 -0.89651937352E+00 -0.23683184164E+01  0.12936418925E+01  0.28436224177E+01  0.00000000000E+00 0.  1.
</event>
<event>
 7    1  0.2031146E-008  0.4614232E+02  0.7816164E-02  0.1320468E+00
        -11   -1    0    0    0    0  0.00000000000E+00  0.00000000000E+00  0.45593999997E+02  0.45594000000E+02  0.51100000000E-03 0.  1.
         11   -1    0    0    0    0 -0.00000000000E+00 -0.00000000000E+00 -0.45593999997E+02  0.45594000000E+02  0.51100000000E-03 0. -1.
    9900012    2    1    2    0    0  0.20868663041E+02  0.20764699908E+02 -0.34094569709E+02  0.46142317155E+02  0.99999944700E+01 0.  0.
        -12    1    1    2    0    0 -0.20868663041E+02 -0.20764699908E+02  0.34094569709E+02  0.45045682845E+02  0.00000000000E+00 0.  1.
         11    1    3    3    0    0  0.34384782059E+01  0.41054016144E+01 -0.54690848924E+01  0.76543023594E+01  0.51100000000E-03 0. -1.
        -11    1    3    3    0    0  0.12539366199E+02  0.90846921196E+01 -0.12056414308E+02  0.19624588195E+02  0.51100000000E-03 0.  1.
         12    1    3    3    0    0  0.48908186366E+01  0.75746061738E+01 -0.16569070508E+02  0.18863426601E+02  0.00000000000E+00 0. -1.
</event>
<event>
 7    1  0.2031146E-008  0.4614232E+02  0.7816164E-02  0.1320468E+00
        -11   -1    0    0    0    0  0.00000000000E+00  0.00000000000E+00  0.45593999997E+02  0.45594000000E+02  0.51100000000E-03 0. -1.
         11   -1    0    0    0    0 -0.00000000000E+00 -0.00000000000E+00 -0.45593999997E+02  0.45594000000E+02  0.51100000000E-03 0.  1.
    9900012    2    1    2    0    0 -0.26445284291E+02 -0.24942923867E+02  0.26600958455E+02  0.46142317599E+02  0.99999985201E+01 0.  0.
        -12    1    1    2    0    0  0.26445284291E+02  0.24942923867E+02 -0.26600958455E+02  0.45045682401E+02  0.00000000000E+00 0.  1.
         11    1    3    3    0    0 -0.10655838359E+02 -0.58609965757E+01  0.12562651489E+02  0.17484804394E+02  0.51100000000E-03 0. -1.
        -11    1    3    3    0    0 -0.69424554202E+01 -0.10642626820E+02  0.80606441814E+01  0.15047829670E+02  0.51100000000E-03 0.  1.
         12    1    3    3    0    0 -0.88469905113E+01 -0.84393004717E+01  0.59776627842E+01  0.13609683535E+02  0.00000000000E+00 0. -1.
</event>
<event>
 7    1  0.2031146E-008  0.4614232E+02  0.7816164E-02  0.1320468E+00
        -11   -1    0    0    0    0  0.00000000000E+00  0.00000000000E+00  0.45593999997E+02  0.45594000000E+02  0.51100000000E-03 0.  1.
         11   -1    0    0    0    0 -0.00000000000E+00 -0.00000000000E+00 -0.45593999997E+02  0.45594000000E+02  0.51100000000E-03 0. -1.
    9900012    2    1    2    0    0  0.18589672012E+02 -0.27916123493E+02 -0.30070378318E+02  0.46142317537E+02  0.99999979580E+01 0.  0.
        -12    1    1    2    0    0 -0.18589672012E+02  0.27916123493E+02  0.30070378318E+02  0.45045682463E+02  0.00000000000E+00 0.  1.
         11    1    3    3    0    0  0.58070738480E+01 -0.75882852942E+01 -0.50656143285E+01  0.10815018686E+02  0.51100000000E-03 0. -1.
        -11    1    3    3    0    0 -0.34503000766E+00 -0.32236190472E+00  0.25236597657E+00  0.53539868421E+00  0.51100000000E-03 0.  1.
         12    1    3    3    0    0  0.13127628172E+02 -0.20005476294E+02 -0.25257129966E+02  0.34791900167E+02  0.00000000000E+00 0. -1.
</event>
<event>
 7    1  0.2466242E-008  0.4614232E+02  0.7816164E-02  0.1320468E+00
        -11   -1    0    0    0    0  0.00000000000E+00  0.00000000000E+00  0.45593999997E+02  0.45594000000E+02  0.51100000000E-03 0.  1.
         11   -1    0    0    0    0 -0.00000000000E+00 -0.00000000000E+00 -0.45593999997E+02  0.45594000000E+02  0.51100000000E-03 0. -1.
    9900012    2    1    2    0    0 -0.31906726410E+02  0.19241614419E+02 -0.25314711849E+02  0.46142317059E+02  0.99999935949E+01 0.  0.
        -12    1    1    2    0    0  0.31906726410E+02 -0.19241614419E+02  0.25314711849E+02  0.45045682941E+02  0.00000000000E+00 0.  1.
         11    1    3    3    0    0 -0.20400289598E+02  0.10168300468E+02 -0.17651310362E+02  0.28829410467E+02  0.51100000000E-03 0. -1.
        -11    1    3    3    0    0 -0.68601723826E+01  0.23056047392E+01 -0.44585163814E+01  0.85003615756E+01  0.51100000000E-03 0.  1.
        -12    1    3    3    0    0 -0.46462644292E+01  0.67677092123E+01 -0.32048851050E+01  0.88125450163E+01  0.00000000000E+00 0.  1.
</event>
<event>
 7    1  0.2031146E-008  0.4614232E+02  0.7816164E-02  0.1320468E+00
        -11   -1    0    0    0    0  0.00000000000E+00  0.00000000000E+00  0.45593999997E+02  0.45594000000E+02  0.51100000000E-03 0.  1.
         11   -1    0    0    0    0 -0.00000000000E+00 -0.00000000000E+00 -0.45593999997E+02  0.45594000000E+02  0.51100000000E-03 0. -1.
    9900012    2    1    2    0    0  0.68153846928E+01  0.17559130520E+02 -0.40918712092E+02  0.46142317273E+02  0.99999955481E+01 0.  0.
        -12    1    1    2    0    0 -0.68153846928E+01 -0.17559130520E+02  0.40918712092E+02  0.45045682727E+02  0.00000000000E+00 0.  1.
         11    1    3    3    0    0  0.62663878814E+01  0.86011630447E+01 -0.21981309054E+02  0.24421825706E+02  0.51100000000E-03 0. -1.
        -11    1    3    3    0    0  0.23629975853E+01  0.38221328939E+01 -0.48247996821E+01  0.65932654793E+01  0.51100000000E-03 0.  1.
         12    1    3    3    0    0 -0.18140007739E+01  0.51358345810E+01 -0.14112603355E+02  0.15127226088E+02  0.00000000000E+00 0. -1.
</event>
<event>
 7    1  0.2031146E-008  0.4614232E+02  0.7816164E-02  0.1320468E+00
        -11   -1    0    0    0    0  0.00000000000E+00  0.00000000000E+00  0.45593999997E+02  0.45594000000E+02  0.51100000000E-03 0.  1.
         11   -1    0    0    0    0 -0.00000000000E+00 -0.00000000000E+00 -0.45593999997E+02  0.45594000000E+02  0.51100000000E-03 0. -1.
    9900012    2    1    2    0    0 -0.19545020787E+02 -0.38612545512E+02 -0.12497075728E+02  0.46142318629E+02  0.10000007910E+02 0.  0.
        -12    1    1    2    0    0  0.19545020787E+02  0.38612545512E+02  0.12497075728E+02  0.45045681371E+02  0.00000000000E+00 0.  1.
         11    1    3    3    0    0 -0.96151078730E-01 -0.22506372701E+01  0.27645954569E+00  0.22695909969E+01  0.51100000000E-03 0. -1.
        -11    1    3    3    0    0 -0.11269459497E+02 -0.17923904003E+02 -0.27547902353E+01  0.21350782693E+02  0.51100000000E-03 0.  1.
         12    1    3    3    0    0 -0.81794102110E+01 -0.18438004238E+02 -0.10018745039E+02  0.22521944939E+02  0.00000000000E+00 0. -1.
</event>
<event>
 7    1  0.2031146E-008  0.4614232E+02  0.7816164E-02  0.1320468E+00
        -11   -1    0    0    0    0  0.00000000000E+00  0.00000000000E+00  0.45593999997E+02  0.45594000000E+02  0.51100000000E-03 0.  1.
         11   -1    0    0    0    0 -0.00000000000E+00 -0.00000000000E+00 -0.45593999997E+02  0.45594000000E+02  0.51100000000E-03 0. -1.
    9900012    2    1    2    0    0 -0.22616238769E+02  0.12898578995E+02 -0.36759292001E+02  0.46142321577E+02  0.10000034799E+02 0.  0.
        -12    1    1    2    0    0  0.22616238769E+02 -0.12898578995E+02  0.36759292001E+02  0.45045678423E+02  0.00000000000E+00 0.  1.
         11    1    3    3    0    0 -0.62256900940E+01  0.13600126019E+01 -0.91880967959E+01  0.11181680304E+02  0.51100000000E-03 0. -1.
        -11    1    3    3    0    0 -0.49391049032E+01  0.75629590483E+01 -0.14905631859E+02  0.17429026599E+02  0.51100000000E-03 0.  1.
        -12    1    3    3    0    0 -0.11451443772E+02  0.39756073443E+01 -0.12665563346E+02  0.17531614674E+02  0.00000000000E+00 0.  1.
</event>
<event>
 7    1  0.2031146E-008  0.4614232E+02  0.7816164E-02  0.1320468E+00
        -11   -1    0    0    0    0  0.00000000000E+00  0.00000000000E+00  0.45593999997E+02  0.45594000000E+02  0.51100000000E-03 0.  1.
         11   -1    0    0    0    0 -0.00000000000E+00 -0.00000000000E+00 -0.45593999997E+02  0.45594000000E+02  0.51100000000E-03 0. -1.
    9900012    2    1    2    0    0  0.14635574239E+02 -0.36397718605E+02 -0.22138644779E+02  0.46142317125E+02  0.99999942001E+01 0.  0.
        -12    1    1    2    0    0 -0.14635574239E+02  0.36397718605E+02  0.22138644779E+02  0.45045682875E+02  0.00000000000E+00 0.  1.
         11    1    3    3    0    0  0.86032048639E+01 -0.17983519110E+02 -0.91701692041E+01  0.21943429472E+02  0.51100000000E-03 0.  1.
        -11    1    3    3    0    0  0.38626007442E+01 -0.16913191790E+02 -0.12791619147E+02  0.21554611147E+02  0.51100000000E-03 0. -1.
        -12    1    3    3    0    0  0.21697686311E+01 -0.15010077058E+01 -0.17685642870E+00  0.26442765063E+01  0.00000000000E+00 0.  1.
</event>
<event>
 7    1  0.2031146E-008  0.4614232E+02  0.7816164E-02  0.1320468E+00
        -11   -1    0    0    0    0  0.00000000000E+00  0.00000000000E+00  0.45593999997E+02  0.45594000000E+02  0.51100000000E-03 0.  1.
         11   -1    0    0    0    0 -0.00000000000E+00 -0.00000000000E+00 -0.45593999997E+02  0.45594000000E+02  0.51100000000E-03 0. -1.
    9900012    2    1    2    0    0  0.33979505851E+02  0.29473981455E+02  0.24064598908E+01  0.46142318188E+02  0.10000003893E+02 0.  0.
        -12    1    1    2    0    0 -0.33979505851E+02 -0.29473981455E+02 -0.24064598908E+01  0.45045681812E+02  0.00000000000E+00 0.  1.
         11    1    3    3    0    0  0.14518363203E+02  0.89437787834E+01 -0.16131441581E+01  0.17128230596E+02  0.51100000000E-03 0. -1.
        -11    1    3    3    0    0  0.38436505875E+01  0.73626622203E+01  0.10493936387E+01  0.83715991352E+01  0.51100000000E-03 0.  1.
        -12    1    3    3    0    0  0.15617492060E+02  0.13167540452E+02  0.29702104102E+01  0.20642488457E+02  0.00000000000E+00 0.  1.
</event>
<event>
 7    1  0.2031146E-008  0.4614232E+02  0.7816164E-02  0.1320468E+00
        -11   -1    0    0    0    0  0.00000000000E+00  0.00000000000E+00  0.45593999997E+02  0.45594000000E+02  0.51100000000E-03 0.  1.
         11   -1    0    0    0    0 -0.00000000000E+00 -0.00000000000E+00 -0.45593999997E+02  0.45594000000E+02  0.51100000000E-03 0. -1.
    9900012    2    1    2    0    0 -0.42378740570E+01 -0.28704227661E+02 -0.34456077292E+02  0.46142317360E+02  0.99999963425E+01 0.  0.
        -12    1    1    2    0    0  0.42378740570E+01  0.28704227661E+02  0.34456077292E+02  0.45045682640E+02  0.00000000000E+00 0.  1.
         11    1    3    3    0    0 -0.39834696005E+00 -0.56846288736E+01 -0.41839865631E+01  0.70696131119E+01  0.51100000000E-03 0. -1.
        -11    1    3    3    0    0 -0.55557539544E+01 -0.99773780379E+01 -0.12088141270E+02  0.16629420739E+02  0.51100000000E-03 0.  1.
         12    1    3    3    0    0  0.17162268575E+01 -0.13042220749E+02 -0.18183949460E+02  0.22443283509E+02  0.00000000000E+00 0. -1.
</event>
<event>
 7    1  0.2031146E-008  0.4614232E+02  0.7816164E-02  0.1320468E+00
        -11   -1    0    0    0    0  0.00000000000E+00  0.00000000000E+00  0.45593999997E+02  0.45594000000E+02  0.51100000000E-03 0. -1.
         11   -1    0    0    0    0 -0.00000000000E+00 -0.00000000000E+00 -0.45593999997E+02  0.45594000000E+02  0.51100000000E-03 0.  1.
    9900012    2    1    2    0    0  0.25015404500E+02 -0.28409998560E+02  0.24417517195E+02  0.46142316229E+02  0.99999860249E+01 0.  0.
        -12    1    1    2    0    0 -0.25015404500E+02  0.28409998560E+02 -0.24417517195E+02  0.45045683771E+02  0.00000000000E+00 0.  1.
         11    1    3    3    0    0  0.15264749784E+02 -0.18330182812E+02  0.17931276503E+02  0.29841897815E+02  0.51100000000E-03 0. -1.
        -11    1    3    3    0    0  0.83177603097E+01 -0.71145701721E+01  0.69634220054E+01  0.12972721056E+02  0.51100000000E-03 0.  1.
         12    1    3    3    0    0  0.14328944063E+01 -0.29652455754E+01 -0.47718131306E+00  0.33276973582E+01  0.00000000000E+00 0. -1.
</event>
<event>
 7    1  0.2031146E-008  0.4614232E+02  0.7816164E-02  0.1320468E+00
        -11   -1    0    0    0    0  0.00000000000E+00  0.00000000000E+00  0.45593999997E+02  0.45594000000E+02  0.51100000000E-03 0. -1.
         11   -1    0    0    0    0 -0.00000000000E+00 -0.00000000000E+00 -0.45593999997E+02  0.45594000000E+02  0.51100000000E-03 0.  1.
    9900012    2    1    2    0    0  0.36295155977E+02 -0.24836850182E+02 -0.97419761849E+01  0.46142316807E+02  0.99999912979E+01 0.  0.
        -12    1    1    2    0    0 -0.36295155977E+02  0.24836850182E+02  0.97419761849E+01  0.45045683193E+02  0.00000000000E+00 0.  1.
         11    1    3    3    0    0  0.25786488534E+02 -0.17165155176E+02 -0.65311634773E+01  0.31658200198E+02  0.51100000000E-03 0. -1.
        -11    1    3    3    0    0  0.45138254458E+01 -0.15751327580E+01  0.11044242435E+01  0.49066706157E+01  0.51100000000E-03 0.  1.
        -12    1    3    3    0    0  0.59948419977E+01 -0.60965622475E+01 -0.43152369510E+01  0.95774459935E+01  0.00000000000E+00 0.  1.
</event>
<event>
 7    1  0.2031146E-008  0.4614232E+02  0.7816164E-02  0.1320468E+00
        -11   -1    0    0    0    0  0.00000000000E+00  0.00000000000E+00  0.45593999997E+02  0.45594000000E+02  0.51100000000E-03 0.  1.
         11   -1    0    0    0    0 -0.00000000000E+00 -0.00000000000E+00 -0.45593999997E+02  0.45594000000E+02  0.51100000000E-03 0. -1.
    9900012    2    1    2    0    0 -0.22983246822E+02 -0.10795168955E+02 -0.37206827604E+02  0.46142319546E+02  0.10000016272E+02 0.  0.
        -12    1    1    2    0    0  0.22983246822E+02  0.10795168955E+02  0.37206827604E+02  0.45045680454E+02  0.00000000000E+00 0.  1.
         11    1    3    3    0    0 -0.12827576280E+02 -0.56147924431E+01 -0.25165070957E+02  0.28798496557E+02  0.51100000000E-03 0. -1.
        -11    1    3    3    0    0 -0.52149901319E+00  0.81787594321E+00 -0.30328364511E+00  0.10162989274E+01  0.51100000000E-03 0.  1.
        -12    1    3    3    0    0 -0.96341715286E+01 -0.59982524551E+01 -0.11738473002E+02  0.16327524062E+02  0.00000000000E+00 0.  1.
</event>
<event>
 7    1  0.2031146E-008  0.4614232E+02  0.7816164E-02  0.1320468E+00
        -11   -1    0    0    0    0  0.00000000000E+00  0.00000000000E+00  0.45593999997E+02  0.45594000000E+02  0.51100000000E-03 0. -1.
         11   -1    0    0    0    0 -0.00000000000E+00 -0.00000000000E+00 -0.45593999997E+02  0.45594000000E+02  0.51100000000E-03 0.  1.
    9900012    2    1    2    0    0 -0.39606651079E+02 -0.15850021325E+02 -0.14463869672E+02  0.46142317503E+02  0.99999976469E+01 0.  0.
        -12    1    1    2    0    0  0.39606651079E+02  0.15850021325E+02  0.14463869672E+02  0.45045682497E+02  0.00000000000E+00 0.  1.
         11    1    3    3    0    0 -0.19887320267E+02 -0.38386968864E+01 -0.77295663176E+01  0.21679190412E+02  0.51100000000E-03 0. -1.
        -11    1    3    3    0    0 -0.15823587218E+02 -0.80029875645E+01 -0.64409779902E+01  0.18865840032E+02  0.51100000000E-03 0.  1.
        -12    1    3    3    0    0 -0.38957435948E+01 -0.40083368741E+01 -0.29332536397E+00  0.55972870590E+01  0.00000000000E+00 0.  1.
</event>
<event>
 7    1  0.2031146E-008  0.4614232E+02  0.7816164E-02  0.1320468E+00
        -11   -1    0    0    0    0  0.00000000000E+00  0.00000000000E+00  0.45593999997E+02  0.45594000000E+02  0.51100000000E-03 0.  1.
         11   -1    0    0    0    0 -0.00000000000E+00 -0.00000000000E+00 -0.45593999997E+02  0.45594000000E+02  0.51100000000E-03 0. -1.
    9900012    2    1    2    0    0  0.68071111648E+01  0.44368298213E+02  0.37723893754E+01  0.46142316851E+02  0.99999917026E+01 0.  0.
        -12    1    1    2    0    0 -0.68071111648E+01 -0.44368298213E+02 -0.37723893754E+01  0.45045683149E+02  0.00000000000E+00 0.  1.
         11    1    3    3    0    0  0.37403710236E+01  0.15939490183E+02 -0.28931345558E+01  0.16626122533E+02  0.51100000000E-03 0. -1.
        -11    1    3    3    0    0  0.33676816503E+01  0.17581117481E+02  0.42751388388E+01  0.18404178436E+02  0.51100000000E-03 0.  1.
         12    1    3    3    0    0 -0.30094150910E+00  0.10847690550E+02  0.23903850924E+01  0.11112015881E+02  0.00000000000E+00 0. -1.
</event>
<event>
 7    1  0.2031146E-008  0.4614232E+02  0.7816164E-02  0.1320468E+00
        -11   -1    0    0    0    0  0.00000000000E+00  0.00000000000E+00  0.45593999997E+02  0.45594000000E+02  0.51100000000E-03 0.  1.
         11   -1    0    0    0    0 -0.00000000000E+00 -0.00000000000E+00 -0.45593999997E+02  0.45594000000E+02  0.51100000000E-03 0. -1.
    9900012    2    1    2    0    0  0.17559588780E+02  0.19932250525E+02 -0.36379660958E+02  0.46142317626E+02  0.99999987659E+01 0.  0.
        -12    1    1    2    0    0 -0.17559588780E+02 -0.19932250525E+02  0.36379660958E+02  0.45045682374E+02  0.00000000000E+00 0.  1.
         11    1    3    3    0    0  0.23556522263E+01 -0.97470600006E-01 -0.22718606447E+01  0.32741333172E+01  0.51100000000E-03 0. -1.
        -11    1    3    3    0    0 -0.22333803874E+00  0.19841918006E+01 -0.13437108020E+01  0.24067521605E+01  0.51100000000E-03 0.  1.
        -12    1    3    3    0    0  0.15427274593E+02  0.18045529324E+02 -0.32764089511E+02  0.40461432148E+02  0.00000000000E+00 0.  1.
</event>
<event>
 7    1  0.2031146E-008  0.4614231E+02  0.7816164E-02  0.1320468E+00
        -11   -1    0    0    0    0  0.00000000000E+00  0.00000000000E+00  0.45593999997E+02  0.45594000000E+02  0.51100000000E-03 0. -1.
         11   -1    0    0    0    0 -0.00000000000E+00 -0.00000000000E+00 -0.45593999997E+02  0.45594000000E+02  0.51100000000E-03 0.  1.
    9900012    2    1    2    0    0  0.36118604106E+02  0.37046081771E+01 -0.26661519753E+02  0.46142308532E+02  0.99999158387E+01 0.  0.
        -12    1    1    2    0    0 -0.36118604106E+02 -0.37046081771E+01  0.26661519753E+02  0.45045691468E+02  0.00000000000E+00 0.  1.
         11    1    3    3    0    0  0.30059005151E+02  0.61851871138E+01 -0.22323908048E+02  0.37949403172E+02  0.51100000000E-03 0. -1.
        -11    1    3    3    0    0  0.64628537281E+00  0.45113626592E+00 -0.60402868786E+00  0.99300535267E+00  0.51100000000E-03 0.  1.
         12    1    3    3    0    0  0.54133135820E+01 -0.29317152026E+01 -0.37335830176E+01  0.71999000074E+01  0.00000000000E+00 0. -1.
</event>
<event>
 7    1  0.2031146E-008  0.4614232E+02  0.7816164E-02  0.1320468E+00
        -11   -1    0    0    0    0  0.00000000000E+00  0.00000000000E+00  0.45593999997E+02  0.45594000000E+02  0.51100000000E-03 0.  1.
         11   -1    0    0    0    0 -0.00000000000E+00 -0.00000000000E+00 -0.45593999997E+02  0.45594000000E+02  0.51100000000E-03 0. -1.
    9900012    2    1    2    0    0  0.21898851989E+02 -0.12726916706E+02 -0.37250225712E+02  0.46142318267E+02  0.10000004609E+02 0.  0.
        -12    1    1    2    0    0 -0.21898851989E+02  0.12726916706E+02  0.37250225712E+02  0.45045681733E+02  0.00000000000E+00 0.  1.
         11    1    3    3    0    0 -0.51201666917E+00  0.76653421813E+00 -0.93498687595E+00  0.13129876223E+01  0.51100000000E-03 0.  1.
        -11    1    3    3    0    0  0.14272088173E+02 -0.74739951464E+01 -0.20928748276E+02  0.26411467375E+02  0.51100000000E-03 0. -1.
        -12    1    3    3    0    0  0.81387804845E+01 -0.60194557774E+01 -0.15386490560E+02  0.18417863269E+02  0.00000000000E+00 0.  1.
</event>
<event>
 7    1  0.2031146E-008  0.4614232E+02  0.7816164E-02  0.1320468E+00
        -11   -1    0    0    0    0  0.00000000000E+00  0.00000000000E+00  0.45593999997E+02  0.45594000000E+02  0.51100000000E-03 0.  1.
         11   -1    0    0    0    0 -0.00000000000E+00 -0.00000000000E+00 -0.45593999997E+02  0.45594000000E+02  0.51100000000E-03 0. -1.
    9900012    2    1    2    0    0  0.63182499105E+01  0.33752995084E+02 -0.29153531537E+02  0.46142319184E+02  0.10000012978E+02 0.  0.
        -12    1    1    2    0    0 -0.63182499105E+01 -0.33752995084E+02  0.29153531537E+02  0.45045680816E+02  0.00000000000E+00 0.  1.
         11    1    3    3    0    0  0.52767694283E+01  0.12225581621E+02 -0.14838545976E+02  0.19937191089E+02  0.51100000000E-03 0. -1.
        -11    1    3    3    0    0  0.12507584993E+01  0.16694054970E+02 -0.12988724152E+02  0.21188742849E+02  0.51100000000E-03 0.  1.
        -12    1    3    3    0    0 -0.20927801718E+00  0.48333584942E+01 -0.13262614085E+01  0.50163852469E+01  0.00000000000E+00 0.  1.
</event>
<event>
 7    1  0.2031146E-008  0.4614232E+02  0.7816164E-02  0.1320468E+00
        -11   -1    0    0    0    0  0.00000000000E+00  0.00000000000E+00  0.45593999997E+02  0.45594000000E+02  0.51100000000E-03 0. -1.
         11   -1    0    0    0    0 -0.00000000000E+00 -0.00000000000E+00 -0.45593999997E+02  0.45594000000E+02  0.51100000000E-03 0.  1.
    9900012    2    1    2    0    0 -0.22076100754E+02  0.19071185279E+02  0.34322720707E+02  0.46142317752E+02  0.99999999161E+01 0.  0.
        -12    1    1    2    0    0  0.22076100754E+02 -0.19071185279E+02 -0.34322720707E+02  0.45045682248E+02  0.00000000000E+00 0.  1.
         11    1    3    3    0    0 -0.14058032713E+02  0.12408004357E+02  0.19583381801E+02  0.27112648319E+02  0.51100000000E-03 0. -1.
        -11    1    3    3    0    0 -0.54592669809E+00  0.14857020183E+01 -0.14434132076E+00  0.15893964656E+01  0.51100000000E-03 0.  1.
        -12    1    3    3    0    0 -0.74721413430E+01  0.51774789037E+01  0.14883680227E+02  0.17440272967E+02  0.00000000000E+00 0.  1.
</event>
<event>
 7    1  0.2031146E-008  0.4614232E+02  0.7816164E-02  0.1320468E+00
        -11   -1    0    0    0    0  0.00000000000E+00  0.00000000000E+00  0.45593999997E+02  0.45594000000E+02  0.51100000000E-03 0.  1.
         11   -1    0    0    0    0 -0.00000000000E+00 -0.00000000000E+00 -0.45593999997E+02  0.45594000000E+02  0.51100000000E-03 0. -1.
    9900012    2    1    2    0    0 -0.85526764077E+01  0.41929078230E+02 -0.14068325256E+02  0.46142315962E+02  0.99999835960E+01 0.  0.
        -12    1    1    2    0    0  0.85526764077E+01 -0.41929078230E+02  0.14068325256E+02  0.45045684038E+02  0.00000000000E+00 0.  1.
         11    1    3    3    0    0 -0.25457008385E+01  0.26360134802E+01 -0.24233729674E+00  0.36725859355E+01  0.51100000000E-03 0. -1.
        -11    1    3    3    0    0 -0.34226384782E+01  0.11338393541E+02 -0.62497553677E+01  0.13391529586E+02  0.51100000000E-03 0.  1.
         12    1    3    3    0    0 -0.25843370911E+01  0.27954671209E+02 -0.75762325912E+01  0.29078200440E+02  0.00000000000E+00 0. -1.
</event>
<event>
 7    1  0.2031146E-008  0.4614232E+02  0.7816164E-02  0.1320468E+00
        -11   -1    0    0    0    0  0.00000000000E+00  0.00000000000E+00  0.45593999997E+02  0.45594000000E+02  0.51100000000E-03 0. -1.
         11   -1    0    0    0    0 -0.00000000000E+00 -0.00000000000E+00 -0.45593999997E+02  0.45594000000E+02  0.51100000000E-03 0.  1.
    9900012    2    1    2    0    0 -0.40187981248E+00 -0.39604874027E+02  0.21457072853E+02  0.46142317304E+02  0.99999958354E+01 0.  0.
        -12    1    1    2    0    0  0.40187981248E+00  0.39604874027E+02 -0.21457072853E+02  0.45045682696E+02  0.00000000000E+00 0.  1.
         11    1    3    3    0    0 -0.20865532623E+01 -0.93462679459E+01  0.66525280639E+01  0.11660298407E+02  0.51100000000E-03 0. -1.
        -11    1    3    3    0    0 -0.40100481478E+00 -0.27609936170E+02  0.14224095951E+02  0.31061137874E+02  0.51100000000E-03 0.  1.
        -12    1    3    3    0    0  0.20856782646E+01 -0.26486699114E+01  0.58044883879E+00  0.34208810236E+01  0.00000000000E+00 0.  1.
</event>
<event>
 7    1  0.2031146E-008  0.4614232E+02  0.7816164E-02  0.1320468E+00
        -11   -1    0    0    0    0  0.00000000000E+00  0.00000000000E+00  0.45593999997E+02  0.45594000000E+02  0.51100000000E-03 0.  1.
         11   -1    0    0    0    0 -0.00000000000E+00 -0.00000000000E+00 -0.45593999997E+02  0.45594000000E+02  0.51100000000E-03 0. -1.
    9900012    2    1    2    0    0 -0.16427670905E+02 -0.35968096757E+02  0.21576403135E+02  0.46142317322E+02  0.99999959944E+01 0.  0.
        -12    1    1    2    0    0  0.16427670905E+02  0.35968096757E+02 -0.21576403135E+02  0.45045682678E+02  0.00000000000E+00 0.  1.
         11    1    3    3    0    0 -0.17054550391E+00 -0.15691956237E+01  0.42569701966E+00  0.16348329847E+01  0.51100000000E-03 0. -1.
        -11    1    3    3    0    0  0.16688405059E-01 -0.14495945511E+01  0.33995643822E+01  0.36957598833E+01  0.51100000000E-03 0.  1.
         12    1    3    3    0    0 -0.16273813806E+02 -0.32949306583E+02  0.17751141733E+02  0.40811724454E+02  0.00000000000E+00 0. -1.
</event>
<event>
 7    1  0.2031146E-008  0.4614232E+02  0.7816164E-02  0.1320468E+00
        -11   -1    0    0    0    0  0.00000000000E+00  0.00000000000E+00  0.45593999997E+02  0.45594000000E+02  0.51100000000E-03 0. -1.
         11   -1    0    0    0    0 -0.00000000000E+00 -0.00000000000E+00 -0.45593999997E+02  0.45594000000E+02  0.51100000000E-03 0.  1.
    9900012    2    1    2    0    0 -0.82577349067E+01 -0.29877233509E+02  0.32684465303E+02  0.46142317188E+02  0.99999947706E+01 0.  0.
        -12    1    1    2    0    0  0.82577349067E+01  0.29877233509E+02 -0.32684465303E+02  0.45045682812E+02  0.00000000000E+00 0.  1.
         11    1    3    3    0    0 -0.47319389603E+01 -0.12526251915E+02  0.11537111399E+02  0.17674930638E+02  0.51100000000E-03 0. -1.
        -11    1    3    3    0    0  0.80910390693E+00 -0.12431954393E+02  0.14744515013E+02  0.19303079091E+02  0.51100000000E-03 0.  1.
        -12    1    3    3    0    0 -0.43348998533E+01 -0.49190272008E+01  0.64028388905E+01  0.91643074588E+01  0.00000000000E+00 0.  1.
</event>
<event>
 7    1  0.2031146E-008  0.4614232E+02  0.7816164E-02  0.1320468E+00
        -11   -1    0    0    0    0  0.00000000000E+00  0.00000000000E+00  0.45593999997E+02  0.45594000000E+02  0.51100000000E-03 0. -1.
         11   -1    0    0    0    0 -0.00000000000E+00 -0.00000000000E+00 -0.45593999997E+02  0.45594000000E+02  0.51100000000E-03 0.  1.
    9900012    2    1    2    0    0  0.36446884178E+02 -0.23240830045E+02  0.12672881590E+02  0.46142317906E+02  0.10000001323E+02 0.  0.
        -12    1    1    2    0    0 -0.36446884178E+02  0.23240830045E+02 -0.12672881590E+02  0.45045682094E+02  0.00000000000E+00 0.  1.
         11    1    3    3    0    0  0.14246536621E+02 -0.13284622035E+02  0.76641142938E+01  0.20932836322E+02  0.51100000000E-03 0.  1.
        -11    1    3    3    0    0  0.12671192118E+02 -0.77380960013E+01  0.39820175562E+01  0.15371847758E+02  0.51100000000E-03 0. -1.
        -12    1    3    3    0    0  0.95291554393E+01 -0.22181120087E+01  0.10267497404E+01  0.98376338262E+01  0.00000000000E+00 0.  1.
</event>
<event>
 7    1  0.2031146E-008  0.4614232E+02  0.7816164E-02  0.1320468E+00
        -11   -1    0    0    0    0  0.00000000000E+00  0.00000000000E+00  0.45593999997E+02  0.45594000000E+02  0.51100000000E-03 0.  1.
         11   -1    0    0    0    0 -0.00000000000E+00 -0.00000000000E+00 -0.45593999997E+02  0.45594000000E+02  0.51100000000E-03 0. -1.
    9900012    2    1    2    0    0  0.67681898415E+01  0.41705884028E+02  0.15618075096E+02  0.46142318454E+02  0.10000006317E+02 0.  0.
        -12    1    1    2    0    0 -0.67681898415E+01 -0.41705884028E+02 -0.15618075096E+02  0.45045681546E+02  0.00000000000E+00 0.  1.
         11    1    3    3    0    0  0.14196105285E+01  0.19643118904E+02  0.36845624087E+01  0.20036052873E+02  0.51100000000E-03 0. -1.
        -11    1    3    3    0    0 -0.72710637565E+00  0.28416088049E+01  0.24803241801E+01  0.38412800706E+01  0.51100000000E-03 0.  1.
         12    1    3    3    0    0  0.60756856887E+01  0.19221156319E+02  0.94531885069E+01  0.22264985510E+02  0.00000000000E+00 0. -1.
</event>
<event>
 7    1  0.2031146E-008  0.4614232E+02  0.7816164E-02  0.1320468E+00
        -11   -1    0    0    0    0  0.00000000000E+00  0.00000000000E+00  0.45593999997E+02  0.45594000000E+02  0.51100000000E-03 0.  1.
         11   -1    0    0    0    0 -0.00000000000E+00 -0.00000000000E+00 -0.45593999997E+02  0.45594000000E+02  0.51100000000E-03 0. -1.
    9900012    2    1    2    0    0  0.43014681568E+02 -0.11141288159E+01 -0.13327020142E+02  0.46142316752E+02  0.99999907993E+01 0.  0.
        -12    1    1    2    0    0 -0.43014681568E+02  0.11141288159E+01  0.13327020142E+02  0.45045683248E+02  0.00000000000E+00 0.  1.
         11    1    3    3    0    0  0.20150115985E+01 -0.10780036588E+01 -0.90438924504E+00  0.24576988828E+01  0.51100000000E-03 0.  1.
        -11    1    3    3    0    0  0.26143826096E+02 -0.15255894994E+01 -0.38544650679E+01  0.26470435725E+02  0.51100000000E-03 0. -1.
        -12    1    3    3    0    0  0.14855843873E+02  0.14894643423E+01 -0.85681658295E+01  0.17214182144E+02  0.00000000000E+00 0.  1.
</event>
<event>
 7    1  0.2031146E-008  0.4614232E+02  0.7816164E-02  0.1320468E+00
        -11   -1    0    0    0    0  0.00000000000E+00  0.00000000000E+00  0.45593999997E+02  0.45594000000E+02  0.51100000000E-03 0.  1.
         11   -1    0    0    0    0 -0.00000000000E+00 -0.00000000000E+00 -0.45593999997E+02  0.45594000000E+02  0.51100000000E-03 0. -1.
    9900012    2    1    2    0    0  0.14039182753E+02 -0.15917845315E+01 -0.42772434121E+02  0.46142317066E+02  0.99999936597E+01 0.  0.
        -12    1    1    2    0    0 -0.14039182753E+02  0.15917845315E+01  0.42772434121E+02  0.45045682934E+02  0.00000000000E+00 0.  1.
         11    1    3    3    0    0  0.94284780606E+01 -0.36895018711E+01 -0.26570413682E+02  0.28434055393E+02  0.51100000000E-03 0. -1.
        -11    1    3    3    0    0  0.16690207096E+00  0.37372530130E+00 -0.93638377662E+01  0.93727789303E+01  0.51100000000E-03 0.  1.
        -12    1    3    3    0    0  0.44438026212E+01  0.17239920384E+01 -0.68381826732E+01  0.83354827428E+01  0.00000000000E+00 0.  1.
</event>
<event>
 7    1  0.2031146E-008  0.4614232E+02  0.7816164E-02  0.1320468E+00
        -11   -1    0    0    0    0  0.00000000000E+00  0.00000000000E+00  0.45593999997E+02  0.45594000000E+02  0.51100000000E-03 0. -1.
         11   -1    0    0    0    0 -0.00000000000E+00 -0.00000000000E+00 -0.45593999997E+02  0.45594000000E+02  0.51100000000E-03 0.  1.
    9900012    2    1    2    0    0 -0.10653272616E+02 -0.43284061211E+02  0.64893369333E+01  0.46142315787E+02  0.99999819982E+01 0.  0.
        -12    1    1    2    0    0  0.10653272616E+02  0.43284061211E+02 -0.64893369333E+01  0.45045684213E+02  0.00000000000E+00 0.  1.
         11    1    3    3    0    0 -0.39811457174E+01 -0.91732534792E+01  0.16009959313E+01  0.10127254754E+02  0.51100000000E-03 0. -1.
        -11    1    3    3    0    0 -0.41314414413E+01 -0.56538449418E+01 -0.14980288443E+00  0.70040853917E+01  0.51100000000E-03 0.  1.
         12    1    3    3    0    0 -0.25406854577E+01 -0.28456962790E+02  0.50381438864E+01  0.29010975641E+02  0.00000000000E+00 0. -1.
</event>
<event>
 7    1  0.2031146E-008  0.4614232E+02  0.7816164E-02  0.1320468E+00
        -11   -1    0    0    0    0  0.00000000000E+00  0.00000000000E+00  0.45593999997E+02  0.45594000000E+02  0.51100000000E-03 0.  1.
         11   -1    0    0    0    0 -0.00000000000E+00 -0.00000000000E+00 -0.45593999997E+02  0.45594000000E+02  0.51100000000E-03 0. -1.
    9900012    2    1    2    0    0  0.21817711320E+02  0.40924324477E+01 -0.39196339513E+02  0.46142316946E+02  0.99999925642E+01 0.  0.
        -12    1    1    2    0    0 -0.21817711320E+02 -0.40924324477E+01  0.39196339513E+02  0.45045683054E+02  0.00000000000E+00 0.  1.
         11    1    3    3    0    0  0.71489490428E+01  0.57579219639E+00 -0.10082110825E+02  0.12372872262E+02  0.51100000000E-03 0.  1.
        -11    1    3    3    0    0  0.66621899588E+01  0.49002239564E+01 -0.98484557593E+01  0.12860367451E+02  0.51100000000E-03 0. -1.
        -12    1    3    3    0    0  0.80065723187E+01 -0.13835837051E+01 -0.19265772929E+02  0.20909077232E+02  0.00000000000E+00 0.  1.
</event>
<event>
 7    1  0.2031146E-008  0.4614232E+02  0.7816164E-02  0.1320468E+00
        -11   -1    0    0    0    0  0.00000000000E+00  0.00000000000E+00  0.45593999997E+02  0.45594000000E+02  0.51100000000E-03 0.  1.
         11   -1    0    0    0    0 -0.00000000000E+00 -0.00000000000E+00 -0.45593999997E+02  0.45594000000E+02  0.51100000000E-03 0. -1.
    9900012    2    1    2    0    0  0.17585727669E+02 -0.20423044256E+02 -0.36093696633E+02  0.46142317732E+02  0.99999997328E+01 0.  0.
        -12    1    1    2    0    0 -0.17585727669E+02  0.20423044256E+02  0.36093696633E+02  0.45045682268E+02  0.00000000000E+00 0.  1.
         11    1    3    3    0    0  0.10433979896E+02 -0.99613111659E+01 -0.14889917798E+02  0.20731746403E+02  0.51100000000E-03 0. -1.
        -11    1    3    3    0    0  0.69848003272E+01 -0.88069267330E+01 -0.13682692225E+02  0.17707779671E+02  0.51100000000E-03 0.  1.
        -12    1    3    3    0    0  0.16694744612E+00 -0.16548063575E+01 -0.75210866105E+01  0.77027916584E+01  0.00000000000E+00 0.  1.
</event>
<event>
 7    1  0.2031146E-008  0.4614232E+02  0.7816164E-02  0.1320468E+00
        -11   -1    0    0    0    0  0.00000000000E+00  0.00000000000E+00  0.45593999997E+02  0.45594000000E+02  0.51100000000E-03 0.  1.
         11   -1    0    0    0    0 -0.00000000000E+00 -0.00000000000E+00 -0.45593999997E+02  0.45594000000E+02  0.51100000000E-03 0. -1.
    9900012    2    1    2    0    0  0.10088631322E+02  0.34429530814E+02  0.27238583388E+02  0.46142317643E+02  0.99999989232E+01 0.  0.
        -12    1    1    2    0    0 -0.10088631322E+02 -0.34429530814E+02 -0.27238583388E+02  0.45045682357E+02  0.00000000000E+00 0.  1.
         11    1    3    3    0    0  0.50459494711E+01  0.10830441014E+02  0.48124457792E+01  0.12880981843E+02  0.51100000000E-03 0. -1.
        -11    1    3    3    0    0  0.26103578470E+01  0.61467553294E+01  0.40912364596E+01  0.78316527756E+01  0.51100000000E-03 0.  1.
        -12    1    3    3    0    0  0.24323240044E+01  0.17452334471E+02  0.18334901149E+02  0.25429683024E+02  0.00000000000E+00 0.  1.
</event>
<event>
 7    1  0.2031146E-008  0.4614231E+02  0.7816164E-02  0.1320468E+00
        -11   -1    0    0    0    0  0.00000000000E+00  0.00000000000E+00  0.45593999997E+02  0.45594000000E+02  0.51100000000E-03 0.  1.
         11   -1    0    0    0    0 -0.00000000000E+00 -0.00000000000E+00 -0.45593999997E+02  0.45594000000E+02  0.51100000000E-03 0. -1.
    9900012    2    1    2    0    0 -0.41950398132E+02 -0.45030631997E+01 -0.15779743995E+02  0.46142314278E+02  0.99999682418E+01 0.  0.
        -12    1    1    2    0    0  0.41950398132E+02  0.45030631997E+01  0.15779743995E+02  0.45045685722E+02  0.00000000000E+00 0.  1.
         11    1    3    3    0    0 -0.43405368886E+00 -0.33727361548E+00  0.30392686601E+00  0.62811455764E+00  0.51100000000E-03 0. -1.
        -11    1    3    3    0    0 -0.12941577617E+02 -0.32079113172E+01 -0.14959169184E+01  0.13416888384E+02  0.51100000000E-03 0.  1.
         12    1    3    3    0    0 -0.28574766826E+02 -0.95787826702E+00 -0.14587753943E+02  0.32097311336E+02  0.00000000000E+00 0. -1.
</event>
<event>
 7    1  0.2031146E-008  0.4614232E+02  0.7816164E-02  0.1320468E+00
        -11   -1    0    0    0    0  0.00000000000E+00  0.00000000000E+00  0.45593999997E+02  0.45594000000E+02  0.51100000000E-03 0.  1.
         11   -1    0    0    0    0 -0.00000000000E+00 -0.00000000000E+00 -0.45593999997E+02  0.45594000000E+02  0.51100000000E-03 0. -1.
    9900012    2    1    2    0    0  0.34011391697E+02 -0.16462484473E+02  0.24521936870E+02  0.46142317099E+02  0.99999939589E+01 0.  0.
        -12    1    1    2    0    0 -0.34011391697E+02  0.16462484473E+02 -0.24521936870E+02  0.45045682901E+02  0.00000000000E+00 0.  1.
         11    1    3    3    0    0  0.83559759290E+01 -0.72213971342E+01  0.73214208155E+01  0.13250438231E+02  0.51100000000E-03 0. -1.
        -11    1    3    3    0    0  0.10884122070E+02 -0.51697927292E+01  0.40853750508E+01  0.12723252716E+02  0.51100000000E-03 0.  1.
         12    1    3    3    0    0  0.14771293698E+02 -0.40712946097E+01  0.13115141004E+02  0.20168626152E+02  0.00000000000E+00 0. -1.
</event>
<event>
 7    1  0.2031146E-008  0.4614231E+02  0.7816164E-02  0.1320468E+00
        -11   -1    0    0    0    0  0.00000000000E+00  0.00000000000E+00  0.45593999997E+02  0.45594000000E+02  0.51100000000E-03 0.  1.
         11   -1    0    0    0    0 -0.00000000000E+00 -0.00000000000E+00 -0.45593999997E+02  0.45594000000E+02  0.51100000000E-03 0. -1.
    9900012    2    1    2    0    0  0.23190813506E+02  0.28557569109E+02 -0.25995485443E+02  0.46142313770E+02  0.99999636077E+01 0.  0.
        -12    1    1    2    0    0 -0.23190813506E+02 -0.28557569109E+02  0.25995485443E+02  0.45045686230E+02  0.00000000000E+00 0.  1.
         11    1    3    3    0    0  0.40803394629E+01  0.97509299772E+01 -0.88046696999E+01  0.13756889704E+02  0.51100000000E-03 0. -1.
        -11    1    3    3    0    0  0.49541199823E+01  0.79004577730E+01 -0.80184770115E+01  0.12298638610E+02  0.51100000000E-03 0.  1.
        -12    1    3    3    0    0  0.14156354061E+02  0.10906181359E+02 -0.91723387314E+01  0.20086785456E+02  0.00000000000E+00 0.  1.
</event>
<event>
 7    1  0.2031146E-008  0.4614232E+02  0.7816164E-02  0.1320468E+00
        -11   -1    0    0    0    0  0.00000000000E+00  0.00000000000E+00  0.45593999997E+02  0.45594000000E+02  0.51100000000E-03 0.  1.
         11   -1    0    0    0    0 -0.00000000000E+00 -0.00000000000E+00 -0.45593999997E+02  0.45594000000E+02  0.51100000000E-03 0. -1.
    9900012    2    1    2    0    0 -0.43156400153E+02 -0.16105378336E+01 -0.12807994012E+02  0.46142318555E+02  0.10000007238E+02 0.  0.
        -12    1    1    2    0    0  0.43156400153E+02  0.16105378336E+01  0.12807994012E+02  0.45045681445E+02  0.00000000000E+00 0.  1.
         11    1    3    3    0    0 -0.15113395601E+02  0.28006446319E+00 -0.52755229663E+01  0.16010131340E+02  0.51100000000E-03 0. -1.
        -11    1    3    3    0    0 -0.13972122527E+02  0.28248120175E+01 -0.25711678256E+01  0.14484842943E+02  0.51100000000E-03 0.  1.
         12    1    3    3    0    0 -0.14070882025E+02 -0.47154143143E+01 -0.49613032204E+01  0.15647344272E+02  0.00000000000E+00 0. -1.
</event>
<event>
 7    1  0.2031146E-008  0.4614232E+02  0.7816164E-02  0.1320468E+00
        -11   -1    0    0    0    0  0.00000000000E+00  0.00000000000E+00  0.45593999997E+02  0.45594000000E+02  0.51100000000E-03 0. -1.
         11   -1    0    0    0    0 -0.00000000000E+00 -0.00000000000E+00 -0.45593999997E+02  0.45594000000E+02  0.51100000000E-03 0.  1.
    9900012    2    1    2    0    0  0.49183893815E+01  0.81636909238E+01  0.44025869448E+02  0.46142316697E+02  0.99999902927E+01 0.  0.
        -12    1    1    2    0    0 -0.49183893815E+01 -0.81636909238E+01 -0.44025869448E+02  0.45045683303E+02  0.00000000000E+00 0.  1.
         11    1    3    3    0    0  0.44467749359E+01  0.74333503698E+01  0.22406685708E+02  0.24022657424E+02  0.51100000000E-03 0. -1.
        -11    1    3    3    0    0  0.22539023824E+01  0.82657457813E+00  0.71831321291E+01  0.75736839733E+01  0.51100000000E-03 0.  1.
         12    1    3    3    0    0 -0.17822879368E+01 -0.96234024159E-01  0.14436051611E+02  0.14545975299E+02  0.00000000000E+00 0. -1.
</event>
<event>
 7    1  0.2031146E-008  0.4614232E+02  0.7816164E-02  0.1320468E+00
        -11   -1    0    0    0    0  0.00000000000E+00  0.00000000000E+00  0.45593999997E+02  0.45594000000E+02  0.51100000000E-03 0.  1.
         11   -1    0    0    0    0 -0.00000000000E+00 -0.00000000000E+00 -0.45593999997E+02  0.45594000000E+02  0.51100000000E-03 0. -1.
    9900012    2    1    2    0    0 -0.96800511532E+01  0.38659896848E+01 -0.43823101509E+02  0.46142317715E+02  0.99999995834E+01 0.  0.
        -12    1    1    2    0    0  0.96800511532E+01 -0.38659896848E+01  0.43823101509E+02  0.45045682285E+02  0.00000000000E+00 0.  1.
         11    1    3    3    0    0 -0.29476587571E+01  0.88799754217E+00 -0.43093732489E+01  0.52960296301E+01  0.51100000000E-03 0. -1.
        -11    1    3    3    0    0 -0.27166843178E+01  0.46211682980E+01 -0.28667769698E+02  0.29164646232E+02  0.51100000000E-03 0.  1.
        -12    1    3    3    0    0 -0.40157080783E+01 -0.16431761554E+01 -0.10845958563E+02  0.11681641853E+02  0.00000000000E+00 0.  1.
</event>
<event>
 7    1  0.2031146E-008  0.4614232E+02  0.7816164E-02  0.1320468E+00
        -11   -1    0    0    0    0  0.00000000000E+00  0.00000000000E+00  0.45593999997E+02  0.45594000000E+02  0.51100000000E-03 0. -1.
         11   -1    0    0    0    0 -0.00000000000E+00 -0.00000000000E+00 -0.45593999997E+02  0.45594000000E+02  0.51100000000E-03 0.  1.
    9900012    2    1    2    0    0 -0.81419052531E-01 -0.38875071881E+02  0.22756003030E+02  0.46142317446E+02  0.99999971281E+01 0.  0.
        -12    1    1    2    0    0  0.81419052531E-01  0.38875071881E+02 -0.22756003030E+02  0.45045682554E+02  0.00000000000E+00 0.  1.
         11    1    3    3    0    0  0.21129729076E+00 -0.17650919654E+02  0.10486384704E+02  0.20532020739E+02  0.51100000000E-03 0. -1.
        -11    1    3    3    0    0  0.30912021510E+01 -0.79764346218E+01  0.28907375379E+01  0.90296956642E+01  0.51100000000E-03 0.  1.
        -12    1    3    3    0    0 -0.33839184942E+01 -0.13247717605E+02  0.93788807881E+01  0.16580601043E+02  0.00000000000E+00 0.  1.
</event>
<event>
 7    1  0.2031146E-008  0.4614232E+02  0.7816164E-02  0.1320468E+00
        -11   -1    0    0    0    0  0.00000000000E+00  0.00000000000E+00  0.45593999997E+02  0.45594000000E+02  0.51100000000E-03 0.  1.
         11   -1    0    0    0    0 -0.00000000000E+00 -0.00000000000E+00 -0.45593999997E+02  0.45594000000E+02  0.51100000000E-03 0. -1.
    9900012    2    1    2    0    0  0.29277799064E+02 -0.16312547908E+02 -0.30096923224E+02  0.46142317356E+02  0.99999963071E+01 0.  0.
        -12    1    1    2    0    0 -0.29277799064E+02  0.16312547908E+02  0.30096923224E+02  0.45045682644E+02  0.00000000000E+00 0.  1.
         11    1    3    3    0    0  0.70909828927E+01 -0.42649465029E+01 -0.89242833509E+01  0.12170235850E+02  0.51100000000E-03 0. -1.
        -11    1    3    3    0    0  0.73137646129E+01 -0.85606881321E+01 -0.81706546920E+01  0.13911726437E+02  0.51100000000E-03 0.  1.
        -12    1    3    3    0    0  0.14873051559E+02 -0.34869132734E+01 -0.13001985181E+02  0.20060355069E+02  0.00000000000E+00 0.  1.
</event>
<event>
 7    1  0.2031146E-008  0.4614232E+02  0.7816164E-02  0.1320468E+00
        -11   -1    0    0    0    0  0.00000000000E+00  0.00000000000E+00  0.45593999997E+02  0.45594000000E+02  0.51100000000E-03 0.  1.
         11   -1    0    0    0    0 -0.00000000000E+00 -0.00000000000E+00 -0.45593999997E+02  0.45594000000E+02  0.51100000000E-03 0. -1.
    9900012    2    1    2    0    0  0.10652232231E+02  0.21662734716E+02 -0.38031163430E+02  0.46142317424E+02  0.99999969268E+01 0.  0.
        -12    1    1    2    0    0 -0.10652232231E+02 -0.21662734716E+02  0.38031163430E+02  0.45045682576E+02  0.00000000000E+00 0.  1.
         11    1    3    3    0    0  0.39092330465E+01  0.34182020913E+01 -0.11169594134E+02  0.12317712529E+02  0.51100000000E-03 0. -1.
        -11    1    3    3    0    0  0.80385442719E+01  0.14474100486E+02 -0.21163141576E+02  0.26869989589E+02  0.51100000000E-03 0.  1.
        -12    1    3    3    0    0 -0.12955450869E+01  0.37704321386E+01 -0.56984277203E+01  0.69546153069E+01  0.00000000000E+00 0.  1.
</event>
<event>
 7    1  0.2031146E-008  0.4614232E+02  0.7816164E-02  0.1320468E+00
        -11   -1    0    0    0    0  0.00000000000E+00  0.00000000000E+00  0.45593999997E+02  0.45594000000E+02  0.51100000000E-03 0. -1.
         11   -1    0    0    0    0 -0.00000000000E+00 -0.00000000000E+00 -0.45593999997E+02  0.45594000000E+02  0.51100000000E-03 0.  1.
    9900012    2    1    2    0    0  0.25184961608E+02 -0.35401729547E+02  0.11897425354E+02  0.46142317897E+02  0.10000001236E+02 0.  0.
        -12    1    1    2    0    0 -0.25184961608E+02  0.35401729547E+02 -0.11897425354E+02  0.45045682103E+02  0.00000000000E+00 0.  1.
         11    1    3    3    0    0  0.20705573068E+01 -0.89446206100E+01  0.22307633323E+01  0.94482670752E+01  0.51100000000E-03 0. -1.
        -11    1    3    3    0    0  0.23095683845E+01 -0.11282362899E+01  0.12202073728E+01  0.28453346978E+01  0.51100000000E-03 0.  1.
         12    1    3    3    0    0  0.20804835917E+02 -0.25328872647E+02  0.84464546491E+01  0.33848716124E+02  0.00000000000E+00 0. -1.
</event>
<event>
 7    1  0.2031146E-008  0.4614232E+02  0.7816164E-02  0.1320468E+00
        -11   -1    0    0    0    0  0.00000000000E+00  0.00000000000E+00  0.45593999997E+02  0.45594000000E+02  0.51100000000E-03 0.  1.
         11   -1    0    0    0    0 -0.00000000000E+00 -0.00000000000E+00 -0.45593999997E+02  0.45594000000E+02  0.51100000000E-03 0. -1.
    9900012    2    1    2    0    0  0.42146605748E+02  0.44962437190E+01 -0.15249945864E+02  0.46142318381E+02  0.10000005655E+02 0.  0.
        -12    1    1    2    0    0 -0.42146605748E+02 -0.44962437190E+01  0.15249945864E+02  0.45045681619E+02  0.00000000000E+00 0.  1.
         11    1    3    3    0    0  0.31257541460E+02  0.29141678756E+01 -0.14305373928E+02  0.34498840503E+02  0.51100000000E-03 0. -1.
        -11    1    3    3    0    0  0.39146485255E+00  0.30150774613E+00 -0.94689027787E+00  0.10680604436E+01  0.51100000000E-03 0.  1.
         12    1    3    3    0    0  0.10497599435E+02  0.12805680973E+01  0.23183420326E-02  0.10575417435E+02  0.00000000000E+00 0. -1.
</event>
<event>
 7    1  0.2031146E-008  0.4614232E+02  0.7816164E-02  0.1320468E+00
        -11   -1    0    0    0    0  0.00000000000E+00  0.00000000000E+00  0.45593999997E+02  0.45594000000E+02  0.51100000000E-03 0.  1.
         11   -1    0    0    0    0 -0.00000000000E+00 -0.00000000000E+00 -0.45593999997E+02  0.45594000000E+02  0.51100000000E-03 0. -1.
    9900012    2    1    2    0    0  0.26053041366E+02 -0.33508024695E+02 -0.15085253332E+02  0.46142317061E+02  0.99999936162E+01 0.  0.
        -12    1    1    2    0    0 -0.26053041366E+02  0.33508024695E+02  0.15085253332E+02  0.45045682939E+02  0.00000000000E+00 0.  1.
         11    1    3    3    0    0  0.54739433508E+01 -0.96849190879E+01 -0.60323144655E+01  0.12655059526E+02  0.51100000000E-03 0. -1.
        -11    1    3    3    0    0  0.35088634547E+01 -0.80754741660E+01 -0.42254751100E+01  0.97662708296E+01  0.51100000000E-03 0.  1.
        -12    1    3    3    0    0  0.17070234560E+02 -0.15747631441E+02 -0.48274637561E+01  0.23720986705E+02  0.00000000000E+00 0.  1.
</event>
<event>
 7    1  0.2031146E-008  0.4614231E+02  0.7816164E-02  0.1320468E+00
        -11   -1    0    0    0    0  0.00000000000E+00  0.00000000000E+00  0.45593999997E+02  0.45594000000E+02  0.51100000000E-03 0. -1.
         11   -1    0    0    0    0 -0.00000000000E+00 -0.00000000000E+00 -0.45593999997E+02  0.45594000000E+02  0.51100000000E-03 0.  1.
    9900012    2    1    2    0    0  0.35968670574E+02 -0.26774908183E+02 -0.42980526040E+01  0.46142309560E+02  0.99999252163E+01 0.  0.
        -12    1    1    2    0    0 -0.35968670574E+02  0.26774908183E+02  0.42980526040E+01  0.45045690440E+02  0.00000000000E+00 0.  1.
         11    1    3    3    0    0  0.28478164522E+01 -0.33739650774E+01  0.28484647341E+00  0.44243459023E+01  0.51100000000E-03 0. -1.
        -11    1    3    3    0    0  0.22871303873E+02 -0.16878740419E+02  0.78539129353E+00  0.28435985278E+02  0.51100000000E-03 0.  1.
        -12    1    3    3    0    0  0.10249550248E+02 -0.65222026864E+01 -0.53682903710E+01  0.13281978380E+02  0.00000000000E+00 0.  1.
</event>
<event>
 7    1  0.2031146E-008  0.4614231E+02  0.7816164E-02  0.1320468E+00
        -11   -1    0    0    0    0  0.00000000000E+00  0.00000000000E+00  0.45593999997E+02  0.45594000000E+02  0.51100000000E-03 0.  1.
         11   -1    0    0    0    0 -0.00000000000E+00 -0.00000000000E+00 -0.45593999997E+02  0.45594000000E+02  0.51100000000E-03 0. -1.
    9900012    2    1    2    0    0  0.20587843811E+02 -0.15396261282E+02 -0.36989319617E+02  0.46142312749E+02  0.99999542912E+01 0.  0.
        -12    1    1    2    0    0 -0.20587843811E+02  0.15396261282E+02  0.36989319617E+02  0.45045687251E+02  0.00000000000E+00 0.  1.
         11    1    3    3    0    0  0.73573969775E+01 -0.48629817843E+01 -0.18789911659E+02  0.20756701630E+02  0.51100000000E-03 0. -1.
        -11    1    3    3    0    0  0.12217392237E+02 -0.84427944143E+01 -0.17515849022E+02  0.22964111518E+02  0.51100000000E-03 0.  1.
        -12    1    3    3    0    0  0.10130545963E+01 -0.20904850832E+01 -0.68355893582E+00  0.24214996009E+01  0.00000000000E+00 0.  1.
</event>
<event>
 7    1  0.2031146E-008  0.4614232E+02  0.7816164E-02  0.1320468E+00
        -11   -1    0    0    0    0  0.00000000000E+00  0.00000000000E+00  0.45593999997E+02  0.45594000000E+02  0.51100000000E-03 0.  1.
         11   -1    0    0    0    0 -0.00000000000E+00 -0.00000000000E+00 -0.45593999997E+02  0.45594000000E+02  0.51100000000E-03 0. -1.
    9900012    2    1    2    0    0  0.20814324065E+01  0.44831292163E+02 -0.38647429630E+01  0.46142319230E+02  0.10000013392E+02 0.  0.
        -12    1    1    2    0    0 -0.20814324065E+01 -0.44831292163E+02  0.38647429630E+01  0.45045680770E+02  0.00000000000E+00 0.  1.
         11    1    3    3    0    0 -0.51628085681E+00  0.57564841319E+01 -0.27668027866E+01  0.64077182683E+01  0.51100000000E-03 0.  1.
        -11    1    3    3    0    0  0.29603877558E+00  0.31835293760E+02  0.10042410841E+01  0.31852504896E+02  0.51100000000E-03 0. -1.
         12    1    3    3    0    0  0.23016744877E+01  0.72395142713E+01 -0.21021812605E+01  0.78820960653E+01  0.00000000000E+00 0. -1.
</event>
<event>
 7    1  0.2031146E-008  0.4614232E+02  0.7816164E-02  0.1320468E+00
        -11   -1    0    0    0    0  0.00000000000E+00  0.00000000000E+00  0.45593999997E+02  0.45594000000E+02  0.51100000000E-03 0. -1.
         11   -1    0    0    0    0 -0.00000000000E+00 -0.00000000000E+00 -0.45593999997E+02  0.45594000000E+02  0.51100000000E-03 0.  1.
    9900012    2    1    2    0    0  0.11179701359E+02  0.33854505310E+02  0.27531803401E+02  0.46142318179E+02  0.10000003807E+02 0.  0.
        -12    1    1    2    0    0 -0.11179701359E+02 -0.33854505310E+02 -0.27531803401E+02  0.45045681821E+02  0.00000000000E+00 0.  1.
         11    1    3    3    0    0  0.75408565652E+01  0.21998816224E+02  0.18127703978E+02  0.29486032029E+02  0.51100000000E-03 0. -1.
        -11    1    3    3    0    0  0.26077167326E+01  0.12128947832E+01  0.96162166899E+00  0.30324934968E+01  0.51100000000E-03 0.  1.
        -12    1    3    3    0    0  0.10311280615E+01  0.10642794302E+02  0.84424777534E+01  0.13623792653E+02  0.00000000000E+00 0.  1.
</event>
<event>
 7    1  0.2031146E-008  0.4614232E+02  0.7816164E-02  0.1320468E+00
        -11   -1    0    0    0    0  0.00000000000E+00  0.00000000000E+00  0.45593999997E+02  0.45594000000E+02  0.51100000000E-03 0.  1.
         11   -1    0    0    0    0 -0.00000000000E+00 -0.00000000000E+00 -0.45593999997E+02  0.45594000000E+02  0.51100000000E-03 0. -1.
    9900012    2    1    2    0    0 -0.61780611978E+01 -0.41932474140E+02 -0.15251645557E+02  0.46142317411E+02  0.99999968089E+01 0.  0.
        -12    1    1    2    0    0  0.61780611978E+01  0.41932474140E+02  0.15251645557E+02  0.45045682589E+02  0.00000000000E+00 0.  1.
         11    1    3    3    0    0 -0.23882227229E+01 -0.19179341838E+02 -0.56878327529E+01  0.20147014737E+02  0.51100000000E-03 0.  1.
        -11    1    3    3    0    0 -0.36660150282E+00 -0.45185687093E+00  0.94167063677E+00  0.11069395390E+01  0.51100000000E-03 0. -1.
         12    1    3    3    0    0 -0.34232369721E+01 -0.22301275431E+02 -0.10505483441E+02  0.24888363135E+02  0.00000000000E+00 0. -1.
</event>
<event>
 7    1  0.2031146E-008  0.4614232E+02  0.7816164E-02  0.1320468E+00
        -11   -1    0    0    0    0  0.00000000000E+00  0.00000000000E+00  0.45593999997E+02  0.45594000000E+02  0.51100000000E-03 0.  1.
         11   -1    0    0    0    0 -0.00000000000E+00 -0.00000000000E+00 -0.45593999997E+02  0.45594000000E+02  0.51100000000E-03 0. -1.
    9900012    2    1    2    0    0 -0.36062583555E+02 -0.76257536644E+01 -0.25893078651E+02  0.46142316815E+02  0.99999913685E+01 0.  0.
        -12    1    1    2    0    0  0.36062583555E+02  0.76257536644E+01  0.25893078651E+02  0.45045683185E+02  0.00000000000E+00 0.  1.
         11    1    3    3    0    0 -0.57542433489E+00 -0.11075852903E+00 -0.23415205808E+01  0.24137314491E+01  0.51100000000E-03 0. -1.
        -11    1    3    3    0    0 -0.15342706108E+01  0.31029253095E+00 -0.27055846151E+01  0.31257728856E+01  0.51100000000E-03 0.  1.
         12    1    3    3    0    0 -0.33952888609E+02 -0.78252876663E+01 -0.20845973455E+02  0.40602812480E+02  0.00000000000E+00 0. -1.
</event>
<event>
 7    1  0.2031146E-008  0.4614232E+02  0.7816164E-02  0.1320468E+00
        -11   -1    0    0    0    0  0.00000000000E+00  0.00000000000E+00  0.45593999997E+02  0.45594000000E+02  0.51100000000E-03 0. -1.
         11   -1    0    0    0    0 -0.00000000000E+00 -0.00000000000E+00 -0.45593999997E+02  0.45594000000E+02  0.51100000000E-03 0.  1.
    9900012    2    1    2    0    0  0.43213559649E+02  0.98486262770E+01 -0.80440149636E+01  0.46142319254E+02  0.10000013615E+02 0.  0.
        -12    1    1    2    0    0 -0.43213559649E+02 -0.98486262770E+01  0.80440149636E+01  0.45045680746E+02  0.00000000000E+00 0.  1.
         11    1    3    3    0    0  0.27865904297E+02  0.30999392890E+01 -0.45073622403E+01  0.28397791473E+02  0.51100000000E-03 0. -1.
        -11    1    3    3    0    0  0.12204008378E+02  0.32375014366E+01 -0.19749032689E+01  0.12779650982E+02  0.51100000000E-03 0.  1.
        -12    1    3    3    0    0  0.31436469740E+01  0.35111855514E+01 -0.15617494543E+01  0.49648767992E+01  0.00000000000E+00 0.  1.
</event>
<event>
 7    1  0.2031146E-008  0.4614232E+02  0.7816164E-02  0.1320468E+00
        -11   -1    0    0    0    0  0.00000000000E+00  0.00000000000E+00  0.45593999997E+02  0.45594000000E+02  0.51100000000E-03 0.  1.
         11   -1    0    0    0    0 -0.00000000000E+00 -0.00000000000E+00 -0.45593999997E+02  0.45594000000E+02  0.51100000000E-03 0. -1.
    9900012    2    1    2    0    0  0.13284499773E+02 -0.34456555677E+02 -0.25794987833E+02  0.46142316959E+02  0.99999926863E+01 0.  0.
        -12    1    1    2    0    0 -0.13284499773E+02  0.34456555677E+02  0.25794987833E+02  0.45045683041E+02  0.00000000000E+00 0.  1.
         11    1    3    3    0    0  0.53834566116E+01 -0.95350241638E+01 -0.84315096504E+01  0.13819864187E+02  0.51100000000E-03 0. -1.
        -11    1    3    3    0    0  0.35415253587E+01 -0.38659393006E+01 -0.10865611197E+01  0.53542977009E+01  0.51100000000E-03 0.  1.
         12    1    3    3    0    0  0.43595178025E+01 -0.21055592212E+02 -0.16276917063E+02  0.26968155071E+02  0.00000000000E+00 0. -1.
</event>
<event>
 7    1  0.2031146E-008  0.4614232E+02  0.7816164E-02  0.1320468E+00
        -11   -1    0    0    0    0  0.00000000000E+00  0.00000000000E+00  0.45593999997E+02  0.45594000000E+02  0.51100000000E-03 0.  1.
         11   -1    0    0    0    0 -0.00000000000E+00 -0.00000000000E+00 -0.45593999997E+02  0.45594000000E+02  0.51100000000E-03 0. -1.
    9900012    2    1    2    0    0 -0.14371491807E+02 -0.12845663777E+02 -0.40713174013E+02  0.46142318821E+02  0.10000009668E+02 0.  0.
        -12    1    1    2    0    0  0.14371491807E+02  0.12845663777E+02  0.40713174013E+02  0.45045681179E+02  0.00000000000E+00 0.  1.
         11    1    3    3    0    0 -0.43761784181E+01 -0.35181052862E+01 -0.13685893100E+02  0.14792960237E+02  0.51100000000E-03 0. -1.
        -11    1    3    3    0    0 -0.92288172258E+01 -0.70438281610E+01 -0.26430008730E+02  0.28867489400E+02  0.51100000000E-03 0.  1.
        -12    1    3    3    0    0 -0.76649616321E+00 -0.22837303302E+01 -0.59727218308E+00  0.24818691847E+01  0.00000000000E+00 0.  1.
</event>
<event>
 7    1  0.2031146E-008  0.4614232E+02  0.7816164E-02  0.1320468E+00
        -11   -1    0    0    0    0  0.00000000000E+00  0.00000000000E+00  0.45593999997E+02  0.45594000000E+02  0.51100000000E-03 0.  1.
         11   -1    0    0    0    0 -0.00000000000E+00 -0.00000000000E+00 -0.45593999997E+02  0.45594000000E+02  0.51100000000E-03 0. -1.
    9900012    2    1    2    0    0 -0.14141471604E+02 -0.31693746815E+02 -0.28716522755E+02  0.46142317794E+02  0.10000000296E+02 0.  0.
        -12    1    1    2    0    0  0.14141471604E+02  0.31693746815E+02  0.28716522755E+02  0.45045682206E+02  0.00000000000E+00 0.  1.
         11    1    3    3    0    0 -0.65675455699E+01 -0.11237412172E+02 -0.10708810999E+02  0.16854990965E+02  0.51100000000E-03 0. -1.
        -11    1    3    3    0    0 -0.89907008883E+01 -0.15286113112E+02 -0.13662102996E+02  0.22386402460E+02  0.51100000000E-03 0.  1.
        -12    1    3    3    0    0  0.14167748538E+01 -0.51702215303E+01 -0.43456087599E+01  0.69009243694E+01  0.00000000000E+00 0.  1.
</event>
<event>
 7    1  0.2031146E-008  0.4614232E+02  0.7816164E-02  0.1320468E+00
        -11   -1    0    0    0    0  0.00000000000E+00  0.00000000000E+00  0.45593999997E+02  0.45594000000E+02  0.51100000000E-03 0.  1.
         11   -1    0    0    0    0 -0.00000000000E+00 -0.00000000000E+00 -0.45593999997E+02  0.45594000000E+02  0.51100000000E-03 0. -1.
    9900012    2    1    2    0    0  0.18737935912E+01 -0.36695798648E+02 -0.26058026315E+02  0.46142317895E+02  0.10000001220E+02 0.  0.
        -12    1    1    2    0    0 -0.18737935912E+01  0.36695798648E+02  0.26058026315E+02  0.45045682105E+02  0.00000000000E+00 0.  1.
         11    1    3    3    0    0  0.31124142292E+00 -0.79007660758E+00 -0.23734851396E+01  0.25208181684E+01  0.51100000000E-03 0. -1.
        -11    1    3    3    0    0 -0.68452199658E+00 -0.18850705158E+01  0.16632270903E+00  0.20123927842E+01  0.51100000000E-03 0.  1.
         12    1    3    3    0    0  0.22470741648E+01 -0.34020651525E+02 -0.23850863885E+02  0.41609106942E+02  0.00000000000E+00 0. -1.
</event>
<event>
 7    1  0.2031146E-008  0.4614232E+02  0.7816164E-02  0.1320468E+00
        -11   -1    0    0    0    0  0.00000000000E+00  0.00000000000E+00  0.45593999997E+02  0.45594000000E+02  0.51100000000E-03 0.  1.
         11   -1    0    0    0    0 -0.00000000000E+00 -0.00000000000E+00 -0.45593999997E+02  0.45594000000E+02  0.51100000000E-03 0. -1.
    9900012    2    1    2    0    0 -0.65067566277E+01 -0.38669276358E+02  0.22168955870E+02  0.46142318518E+02  0.10000006899E+02 0.  0.
        -12    1    1    2    0    0  0.65067566277E+01  0.38669276358E+02 -0.22168955870E+02  0.45045681482E+02  0.00000000000E+00 0.  1.
         11    1    3    3    0    0 -0.59032527796E+01 -0.17199180931E+02  0.11951900980E+02  0.21760242540E+02  0.51100000000E-03 0. -1.
        -11    1    3    3    0    0  0.50432820026E+00  0.43022727275E-01 -0.68680088340E-01  0.51079849676E+00  0.51100000000E-03 0.  1.
         12    1    3    3    0    0 -0.11078320483E+01 -0.21513118153E+02  0.10285734979E+02  0.23871277481E+02  0.00000000000E+00 0. -1.
</event>
<event>
 7    1  0.2031146E-008  0.4614232E+02  0.7816164E-02  0.1320468E+00
        -11   -1    0    0    0    0  0.00000000000E+00  0.00000000000E+00  0.45593999997E+02  0.45594000000E+02  0.51100000000E-03 0.  1.
         11   -1    0    0    0    0 -0.00000000000E+00 -0.00000000000E+00 -0.45593999997E+02  0.45594000000E+02  0.51100000000E-03 0. -1.
    9900012    2    1    2    0    0 -0.50919537775E+01  0.25394406533E+00 -0.44756240384E+02  0.46142317252E+02  0.99999953606E+01 0.  0.
        -12    1    1    2    0    0  0.50919537775E+01 -0.25394406533E+00  0.44756240384E+02  0.45045682748E+02  0.00000000000E+00 0.  1.
         11    1    3    3    0    0  0.58094672621E+00  0.36641759620E+01 -0.22085229650E+02  0.22394665739E+02  0.51100000000E-03 0. -1.
        -11    1    3    3    0    0 -0.48695983290E+01 -0.16619716496E+01 -0.16489188378E+02  0.17273345689E+02  0.51100000000E-03 0.  1.
         12    1    3    3    0    0 -0.80330217472E+00 -0.17482602471E+01 -0.61818223556E+01  0.64743058246E+01  0.00000000000E+00 0. -1.
</event>
<event>
 7    1  0.2031146E-008  0.4614232E+02  0.7816164E-02  0.1320468E+00
        -11   -1    0    0    0    0  0.00000000000E+00  0.00000000000E+00  0.45593999997E+02  0.45594000000E+02  0.51100000000E-03 0. -1.
         11   -1    0    0    0    0 -0.00000000000E+00 -0.00000000000E+00 -0.45593999997E+02  0.45594000000E+02  0.51100000000E-03 0.  1.
    9900012    2    1    2    0    0  0.13552766669E+02  0.23173670515E+02  0.36172046723E+02  0.46142318147E+02  0.10000003516E+02 0.  0.
        -12    1    1    2    0    0 -0.13552766669E+02 -0.23173670515E+02 -0.36172046723E+02  0.45045681853E+02  0.00000000000E+00 0.  1.
         11    1    3    3    0    0  0.93007232716E+01  0.20175083871E+02  0.23011756289E+02  0.31985596608E+02  0.51100000000E-03 0. -1.
        -11    1    3    3    0    0  0.24825776789E+01  0.19556809641E+01  0.82067833044E+01  0.87942692950E+01  0.51100000000E-03 0.  1.
         12    1    3    3    0    0  0.17694657185E+01  0.10429056790E+01  0.49535071299E+01  0.53624522441E+01  0.00000000000E+00 0. -1.
</event>
<event>
 7    1  0.2031146E-008  0.4614232E+02  0.7816164E-02  0.1320468E+00
        -11   -1    0    0    0    0  0.00000000000E+00  0.00000000000E+00  0.45593999997E+02  0.45594000000E+02  0.51100000000E-03 0.  1.
         11   -1    0    0    0    0 -0.00000000000E+00 -0.00000000000E+00 -0.45593999997E+02  0.45594000000E+02  0.51100000000E-03 0. -1.
    9900012    2    1    2    0    0 -0.10358703507E+02  0.41623476704E+02  0.13758522575E+02  0.46142317690E+02  0.99999993525E+01 0.  0.
        -12    1    1    2    0    0  0.10358703507E+02 -0.41623476704E+02 -0.13758522575E+02  0.45045682310E+02  0.00000000000E+00 0.  1.
         11    1    3    3    0    0 -0.21894511668E+01  0.17099393958E+02  0.37874079309E+01  0.17650139638E+02  0.51100000000E-03 0. -1.
        -11    1    3    3    0    0 -0.54659171159E+01  0.20990002479E+02  0.10337814930E+02  0.24027627261E+02  0.51100000000E-03 0.  1.
        -12    1    3    3    0    0 -0.27033352242E+01  0.35340802680E+01 -0.36670028571E+00  0.44645507920E+01  0.00000000000E+00 0.  1.
</event>
<event>
 7    1  0.2031146E-008  0.4614232E+02  0.7816164E-02  0.1320468E+00
        -11   -1    0    0    0    0  0.00000000000E+00  0.00000000000E+00  0.45593999997E+02  0.45594000000E+02  0.51100000000E-03 0. -1.
         11   -1    0    0    0    0 -0.00000000000E+00 -0.00000000000E+00 -0.45593999997E+02  0.45594000000E+02  0.51100000000E-03 0.  1.
    9900012    2    1    2    0    0 -0.39574860651E+02  0.20169192103E+02 -0.74931720159E+01  0.46142317272E+02  0.99999955372E+01 0.  0.
        -12    1    1    2    0    0  0.39574860651E+02 -0.20169192103E+02  0.74931720159E+01  0.45045682728E+02  0.00000000000E+00 0.  1.
         11    1    3    3    0    0 -0.32880716505E+02  0.18223006833E+02 -0.90502261987E+01  0.38666860364E+02  0.51100000000E-03 0. -1.
        -11    1    3    3    0    0 -0.76069788955E+00  0.28879136646E+00 -0.52987714646E+00  0.97099525435E+00  0.51100000000E-03 0.  1.
         12    1    3    3    0    0 -0.59334462558E+01  0.16573939036E+01  0.20869313293E+01  0.65044616530E+01  0.00000000000E+00 0. -1.
</event>
<event>
 7    1  0.2031146E-008  0.4614232E+02  0.7816164E-02  0.1320468E+00
        -11   -1    0    0    0    0  0.00000000000E+00  0.00000000000E+00  0.45593999997E+02  0.45594000000E+02  0.51100000000E-03 0. -1.
         11   -1    0    0    0    0 -0.00000000000E+00 -0.00000000000E+00 -0.45593999997E+02  0.45594000000E+02  0.51100000000E-03 0.  1.
    9900012    2    1    2    0    0  0.34378114858E+02  0.27008835095E+02  0.10852721480E+02  0.46142317433E+02  0.99999970101E+01 0.  0.
        -12    1    1    2    0    0 -0.34378114858E+02 -0.27008835095E+02 -0.10852721480E+02  0.45045682567E+02  0.00000000000E+00 0.  1.
         11    1    3    3    0    0  0.10277648474E+02  0.11547778275E+02  0.25149722494E+01  0.15662258041E+02  0.51100000000E-03 0. -1.
        -11    1    3    3    0    0  0.13220269062E+02  0.11474149681E+02  0.31596395389E+01  0.17788056309E+02  0.51100000000E-03 0.  1.
        -12    1    3    3    0    0  0.10880197322E+02  0.39869071385E+01  0.51781096915E+01  0.12692003083E+02  0.00000000000E+00 0.  1.
</event>
<event>
 7    1  0.2031146E-008  0.4614232E+02  0.7816164E-02  0.1320468E+00
        -11   -1    0    0    0    0  0.00000000000E+00  0.00000000000E+00  0.45593999997E+02  0.45594000000E+02  0.51100000000E-03 0.  1.
         11   -1    0    0    0    0 -0.00000000000E+00 -0.00000000000E+00 -0.45593999997E+02  0.45594000000E+02  0.51100000000E-03 0. -1.
    9900012    2    1    2    0    0  0.35119861729E+02  0.23781180053E+02 -0.15171167003E+02  0.46142317401E+02  0.99999967181E+01 0.  0.
        -12    1    1    2    0    0 -0.35119861729E+02 -0.23781180053E+02  0.15171167003E+02  0.45045682599E+02  0.00000000000E+00 0.  1.
         11    1    3    3    0    0  0.12342443766E+02  0.91606587712E+01 -0.52995092919E+01  0.16258486591E+02  0.51100000000E-03 0. -1.
        -11    1    3    3    0    0  0.22537868570E+02  0.14948240479E+02 -0.83429193653E+01  0.28302115060E+02  0.51100000000E-03 0.  1.
        -12    1    3    3    0    0  0.23954939328E+00 -0.32771919750E+00 -0.15287383454E+01  0.15817157497E+01  0.00000000000E+00 0.  1.
</event>
<event>
 7    1  0.2031146E-008  0.4614232E+02  0.7816164E-02  0.1320468E+00
        -11   -1    0    0    0    0  0.00000000000E+00  0.00000000000E+00  0.45593999997E+02  0.45594000000E+02  0.51100000000E-03 0. -1.
         11   -1    0    0    0    0 -0.00000000000E+00 -0.00000000000E+00 -0.45593999997E+02  0.45594000000E+02  0.51100000000E-03 0.  1.
    9900012    2    1    2    0    0  0.75366321859E+01 -0.39343269912E+02  0.20601445832E+02  0.46142320047E+02  0.10000020845E+02 0.  0.
        -12    1    1    2    0    0 -0.75366321859E+01  0.39343269912E+02 -0.20601445832E+02  0.45045679953E+02  0.00000000000E+00 0.  1.
         11    1    3    3    0    0  0.36328198332E+01 -0.18791358323E+02  0.14685661864E+02  0.24124286357E+02  0.51100000000E-03 0. -1.
        -11    1    3    3    0    0  0.77084249689E+00 -0.47155514452E+01 -0.12966676355E+00  0.47798993000E+01  0.51100000000E-03 0.  1.
         12    1    3    3    0    0  0.31329698558E+01 -0.15836360144E+02  0.60454507307E+01  0.17238134390E+02  0.00000000000E+00 0. -1.
</event>
<event>
 7    1  0.2031146E-008  0.4614231E+02  0.7816164E-02  0.1320468E+00
        -11   -1    0    0    0    0  0.00000000000E+00  0.00000000000E+00  0.45593999997E+02  0.45594000000E+02  0.51100000000E-03 0.  1.
         11   -1    0    0    0    0 -0.00000000000E+00 -0.00000000000E+00 -0.45593999997E+02  0.45594000000E+02  0.51100000000E-03 0. -1.
    9900012    2    1    2    0    0 -0.78159589533E+01  0.17709522562E+01 -0.44327060585E+02  0.46142314453E+02  0.99999698358E+01 0.  0.
        -12    1    1    2    0    0  0.78159589533E+01 -0.17709522562E+01  0.44327060585E+02  0.45045685547E+02  0.00000000000E+00 0.  1.
         11    1    3    3    0    0  0.14734568529E+00  0.28492518102E+01 -0.16855355888E+02  0.17095115355E+02  0.51100000000E-03 0. -1.
        -11    1    3    3    0    0 -0.69529488351E+00  0.13152447891E+01 -0.23094154414E+01  0.27471264573E+01  0.51100000000E-03 0.  1.
         12    1    3    3    0    0 -0.72680097551E+01 -0.23935443430E+01 -0.25162289256E+02  0.26300072641E+02  0.00000000000E+00 0. -1.
</event>
<event>
 7    1  0.2031146E-008  0.4614232E+02  0.7816164E-02  0.1320468E+00
        -11   -1    0    0    0    0  0.00000000000E+00  0.00000000000E+00  0.45593999997E+02  0.45594000000E+02  0.51100000000E-03 0. -1.
         11   -1    0    0    0    0 -0.00000000000E+00 -0.00000000000E+00 -0.45593999997E+02  0.45594000000E+02  0.51100000000E-03 0.  1.
    9900012    2    1    2    0    0 -0.16471396982E+02  0.35947188057E+02  0.21577912730E+02  0.46142316905E+02  0.99999921915E+01 0.  0.
        -12    1    1    2    0    0  0.16471396982E+02 -0.35947188057E+02 -0.21577912730E+02  0.45045683095E+02  0.00000000000E+00 0.  1.
         11    1    3    3    0    0 -0.58408297196E+01  0.12320965363E+02  0.38079472265E+01  0.14157045653E+02  0.51100000000E-03 0. -1.
        -11    1    3    3    0    0 -0.53373206162E+01  0.57234260893E+01  0.40107056865E+01  0.87937681301E+01  0.51100000000E-03 0.  1.
         12    1    3    3    0    0 -0.52932466457E+01  0.17902796605E+02  0.13759259817E+02  0.23191503122E+02  0.00000000000E+00 0. -1.
</event>
<event>
 7    1  0.2031146E-008  0.4614232E+02  0.7816164E-02  0.1320468E+00
        -11   -1    0    0    0    0  0.00000000000E+00  0.00000000000E+00  0.45593999997E+02  0.45594000000E+02  0.51100000000E-03 0. -1.
         11   -1    0    0    0    0 -0.00000000000E+00 -0.00000000000E+00 -0.45593999997E+02  0.45594000000E+02  0.51100000000E-03 0.  1.
    9900012    2    1    2    0    0  0.15092780720E+02  0.16152447267E+02  0.39248182986E+02  0.46142318184E+02  0.10000003852E+02 0.  0.
        -12    1    1    2    0    0 -0.15092780720E+02 -0.16152447267E+02 -0.39248182986E+02  0.45045681816E+02  0.00000000000E+00 0.  1.
         11    1    3    3    0    0  0.30354686332E+01 -0.79381579838E+00  0.38411071941E+01  0.49596691505E+01  0.51100000000E-03 0.  1.
        -11    1    3    3    0    0  0.42549195442E+01  0.69497940144E+01  0.16707463408E+02  0.18588795307E+02  0.51100000000E-03 0. -1.
        -12    1    3    3    0    0  0.78023925429E+01  0.99964690509E+01  0.18699612384E+02  0.22593853726E+02  0.00000000000E+00 0.  1.
</event>
<event>
 7    1  0.2031146E-008  0.4614232E+02  0.7816164E-02  0.1320468E+00
        -11   -1    0    0    0    0  0.00000000000E+00  0.00000000000E+00  0.45593999997E+02  0.45594000000E+02  0.51100000000E-03 0.  1.
         11   -1    0    0    0    0 -0.00000000000E+00 -0.00000000000E+00 -0.45593999997E+02  0.45594000000E+02  0.51100000000E-03 0. -1.
    9900012    2    1    2    0    0  0.38716123535E+02  0.16173902371E+02  0.16388417283E+02  0.46142316960E+02  0.99999926960E+01 0.  0.
        -12    1    1    2    0    0 -0.38716123535E+02 -0.16173902371E+02 -0.16388417283E+02  0.45045683040E+02  0.00000000000E+00 0.  1.
         11    1    3    3    0    0  0.10804598792E+02  0.27787862752E+01  0.52584162327E+01  0.12333367332E+02  0.51100000000E-03 0.  1.
        -11    1    3    3    0    0  0.22220205421E+02  0.70331690991E+01  0.70625861865E+01  0.24353297938E+02  0.51100000000E-03 0. -1.
        -12    1    3    3    0    0  0.56913193221E+01  0.63619469964E+01  0.40674148634E+01  0.94556516900E+01  0.00000000000E+00 0.  1.
</event>
<event>
 7    1  0.2031146E-008  0.4614232E+02  0.7816164E-02  0.1320468E+00
        -11   -1    0    0    0    0  0.00000000000E+00  0.00000000000E+00  0.45593999997E+02  0.45594000000E+02  0.51100000000E-03 0.  1.
         11   -1    0    0    0    0 -0.00000000000E+00 -0.00000000000E+00 -0.45593999997E+02  0.45594000000E+02  0.51100000000E-03 0. -1.
    9900012    2    1    2    0    0 -0.41801323282E+02 -0.11288735223E+02 -0.12422853542E+02  0.46142318063E+02  0.10000002754E+02 0.  0.
        -12    1    1    2    0    0  0.41801323282E+02  0.11288735223E+02  0.12422853542E+02  0.45045681937E+02  0.00000000000E+00 0.  1.
         11    1    3    3    0    0 -0.11799180448E+02 -0.28154728775E+01 -0.26679171241E+01  0.12420359448E+02  0.51100000000E-03 0. -1.
        -11    1    3    3    0    0 -0.13186538223E+02 -0.62413955801E+01 -0.80781348953E+01  0.16676212782E+02  0.51100000000E-03 0.  1.
         12    1    3    3    0    0 -0.16815604611E+02 -0.22318667653E+01 -0.16768015221E+01  0.17045745834E+02  0.00000000000E+00 0. -1.
</event>
<event>
 7    1  0.2031146E-008  0.4614232E+02  0.7816164E-02  0.1320468E+00
        -11   -1    0    0    0    0  0.00000000000E+00  0.00000000000E+00  0.45593999997E+02  0.45594000000E+02  0.51100000000E-03 0.  1.
         11   -1    0    0    0    0 -0.00000000000E+00 -0.00000000000E+00 -0.45593999997E+02  0.45594000000E+02  0.51100000000E-03 0. -1.
    9900012    2    1    2    0    0 -0.11304164056E+02  0.25934752947E+02 -0.35053071258E+02  0.46142319408E+02  0.10000015017E+02 0.  0.
        -12    1    1    2    0    0  0.11304164056E+02 -0.25934752947E+02  0.35053071258E+02  0.45045680592E+02  0.00000000000E+00 0.  1.
         11    1    3    3    0    0 -0.36919591481E+00  0.55908094530E+01 -0.64055382871E+01  0.85102512872E+01  0.51100000000E-03 0. -1.
        -11    1    3    3    0    0 -0.32157857946E+01  0.31578147325E+01 -0.18440548754E+01  0.48696622887E+01  0.51100000000E-03 0.  1.
         12    1    3    3    0    0 -0.77191823469E+01  0.17186128761E+02 -0.26803478095E+02  0.32762405832E+02  0.00000000000E+00 0. -1.
</event>
<event>
 7    1  0.2031146E-008  0.4614232E+02  0.7816164E-02  0.1320468E+00
        -11   -1    0    0    0    0  0.00000000000E+00  0.00000000000E+00  0.45593999997E+02  0.45594000000E+02  0.51100000000E-03 0.  1.
         11   -1    0    0    0    0 -0.00000000000E+00 -0.00000000000E+00 -0.45593999997E+02  0.45594000000E+02  0.51100000000E-03 0. -1.
    9900012    2    1    2    0    0  0.86820205120E+01 -0.15085913705E+02 -0.41546975463E+02  0.46142318269E+02  0.10000004633E+02 0.  0.
        -12    1    1    2    0    0 -0.86820205120E+01  0.15085913705E+02  0.41546975463E+02  0.45045681731E+02  0.00000000000E+00 0.  1.
         11    1    3    3    0    0  0.45020223340E+01 -0.30102230381E+01 -0.72742467321E+01  0.90688650677E+01  0.51100000000E-03 0. -1.
        -11    1    3    3    0    0  0.20876983199E+01 -0.19486405261E+01 -0.30294915661E+01  0.41633524454E+01  0.51100000000E-03 0.  1.
         12    1    3    3    0    0  0.20922998581E+01 -0.10127050141E+02 -0.31243237165E+02  0.32910100756E+02  0.00000000000E+00 0. -1.
</event>
<event>
 7    1  0.2031146E-008  0.4614232E+02  0.7816164E-02  0.1320468E+00
        -11   -1    0    0    0    0  0.00000000000E+00  0.00000000000E+00  0.45593999997E+02  0.45594000000E+02  0.51100000000E-03 0.  1.
         11   -1    0    0    0    0 -0.00000000000E+00 -0.00000000000E+00 -0.45593999997E+02  0.45594000000E+02  0.51100000000E-03 0. -1.
    9900012    2    1    2    0    0  0.33136543148E+01  0.19819361869E+02 -0.40315333531E+02  0.46142317326E+02  0.99999960344E+01 0.  0.
        -12    1    1    2    0    0 -0.33136543148E+01 -0.19819361869E+02  0.40315333531E+02  0.45045682674E+02  0.00000000000E+00 0.  1.
         11    1    3    3    0    0  0.10091275653E+01  0.62592630799E+01 -0.14805635617E+02  0.16106010028E+02  0.51100000000E-03 0. -1.
        -11    1    3    3    0    0 -0.12983541882E+01  0.83741382876E+01 -0.90073861143E+01  0.12367090221E+02  0.51100000000E-03 0.  1.
        -12    1    3    3    0    0  0.36028809377E+01  0.51859605013E+01 -0.16502311800E+02  0.17669217077E+02  0.00000000000E+00 0.  1.
</event>
<event>
 7    1  0.2031146E-008  0.4614232E+02  0.7816164E-02  0.1320468E+00
        -11   -1    0    0    0    0  0.00000000000E+00  0.00000000000E+00  0.45593999997E+02  0.45594000000E+02  0.51100000000E-03 0.  1.
         11   -1    0    0    0    0 -0.00000000000E+00 -0.00000000000E+00 -0.45593999997E+02  0.45594000000E+02  0.51100000000E-03 0. -1.
    9900012    2    1    2    0    0 -0.15351953196E+02  0.30255751314E+02 -0.29631409807E+02  0.46142318724E+02  0.10000008778E+02 0.  0.
        -12    1    1    2    0    0  0.15351953196E+02 -0.30255751314E+02  0.29631409807E+02  0.45045681276E+02  0.00000000000E+00 0.  1.
         11    1    3    3    0    0 -0.38076759913E+01  0.13170465070E+02 -0.13121087817E+02  0.18976893644E+02  0.51100000000E-03 0. -1.
        -11    1    3    3    0    0  0.11628169570E+00  0.35907867682E+01 -0.16600657129E+01  0.39576621229E+01  0.51100000000E-03 0.  1.
         12    1    3    3    0    0 -0.11660558900E+02  0.13494499476E+02 -0.14850256277E+02  0.23207762956E+02  0.00000000000E+00 0. -1.
</event>
<event>
 7    1  0.2031146E-008  0.4614232E+02  0.7816164E-02  0.1320468E+00
        -11   -1    0    0    0    0  0.00000000000E+00  0.00000000000E+00  0.45593999997E+02  0.45594000000E+02  0.51100000000E-03 0.  1.
         11   -1    0    0    0    0 -0.00000000000E+00 -0.00000000000E+00 -0.45593999997E+02  0.45594000000E+02  0.51100000000E-03 0. -1.
    9900012    2    1    2    0    0  0.40115214773E+02  0.78913091867E+01 -0.18910588950E+02  0.46142316618E+02  0.99999895746E+01 0.  0.
        -12    1    1    2    0    0 -0.40115214773E+02 -0.78913091867E+01  0.18910588950E+02  0.45045683382E+02  0.00000000000E+00 0.  1.
         11    1    3    3    0    0  0.25044507265E+02  0.25578836866E+01 -0.14899930400E+02  0.29253684200E+02  0.51100000000E-03 0. -1.
        -11    1    3    3    0    0  0.99093826171E+01  0.47273490597E+01 -0.40193739299E+01  0.11691837325E+02  0.51100000000E-03 0.  1.
        -12    1    3    3    0    0  0.51613248907E+01  0.60607644038E+00  0.87153797952E-02  0.51967950928E+01  0.00000000000E+00 0.  1.
</event>
<event>
 7    1  0.2031146E-008  0.4614232E+02  0.7816164E-02  0.1320468E+00
        -11   -1    0    0    0    0  0.00000000000E+00  0.00000000000E+00  0.45593999997E+02  0.45594000000E+02  0.51100000000E-03 0.  1.
         11   -1    0    0    0    0 -0.00000000000E+00 -0.00000000000E+00 -0.45593999997E+02  0.45594000000E+02  0.51100000000E-03 0. -1.
    9900012    2    1    2    0    0 -0.14587552546E+02  0.35511631303E+02 -0.23563548570E+02  0.46142317984E+02  0.10000002037E+02 0.  0.
        -12    1    1    2    0    0  0.14587552546E+02 -0.35511631303E+02  0.23563548570E+02  0.45045682016E+02  0.00000000000E+00 0.  1.
         11    1    3    3    0    0 -0.90932793418E+01  0.29163028919E+02 -0.17431095622E+02  0.35171196735E+02  0.51100000000E-03 0. -1.
        -11    1    3    3    0    0 -0.34679614536E+01  0.40059219948E+01 -0.17017396964E+01  0.55650773514E+01  0.51100000000E-03 0.  1.
         12    1    3    3    0    0 -0.20263117505E+01  0.23426803889E+01 -0.44307132515E+01  0.54060438984E+01  0.00000000000E+00 0. -1.
</event>
<event>
 7    1  0.2031146E-008  0.4614232E+02  0.7816164E-02  0.1320468E+00
        -11   -1    0    0    0    0  0.00000000000E+00  0.00000000000E+00  0.45593999997E+02  0.45594000000E+02  0.51100000000E-03 0. -1.
         11   -1    0    0    0    0 -0.00000000000E+00 -0.00000000000E+00 -0.45593999997E+02  0.45594000000E+02  0.51100000000E-03 0.  1.
    9900012    2    1    2    0    0  0.24096457546E+02  0.23440404037E+02  0.29983691067E+02  0.46142317214E+02  0.99999950113E+01 0.  0.
        -12    1    1    2    0    0 -0.24096457546E+02 -0.23440404037E+02 -0.29983691067E+02  0.45045682786E+02  0.00000000000E+00 0.  1.
         11    1    3    3    0    0  0.37048491442E+01  0.33694072735E+01  0.17993574567E+01  0.53213250299E+01  0.51100000000E-03 0. -1.
        -11    1    3    3    0    0  0.12583763051E+01  0.43593669279E+01  0.63909957849E+01  0.78378835358E+01  0.51100000000E-03 0.  1.
         12    1    3    3    0    0  0.19133232096E+02  0.15711629835E+02  0.21793337826E+02  0.32983108648E+02  0.00000000000E+00 0. -1.
</event>
<event>
 7    1  0.2031146E-008  0.4614232E+02  0.7816164E-02  0.1320468E+00
        -11   -1    0    0    0    0  0.00000000000E+00  0.00000000000E+00  0.45593999997E+02  0.45594000000E+02  0.51100000000E-03 0.  1.
         11   -1    0    0    0    0 -0.00000000000E+00 -0.00000000000E+00 -0.45593999997E+02  0.45594000000E+02  0.51100000000E-03 0. -1.
    9900012    2    1    2    0    0 -0.45998864632E+01 -0.19433640008E+02 -0.40376827586E+02  0.46142317351E+02  0.99999962589E+01 0.  0.
        -12    1    1    2    0    0  0.45998864632E+01  0.19433640008E+02  0.40376827586E+02  0.45045682649E+02  0.00000000000E+00 0.  1.
         11    1    3    3    0    0 -0.53691010286E+01 -0.79087195323E+01 -0.13384236891E+02  0.16447276003E+02  0.51100000000E-03 0. -1.
        -11    1    3    3    0    0  0.31605488851E+00 -0.11338448630E+02 -0.22716220983E+02  0.25390687349E+02  0.51100000000E-03 0.  1.
         12    1    3    3    0    0  0.45315967685E+00 -0.18647184589E+00 -0.42763697110E+01  0.43043539989E+01  0.00000000000E+00 0. -1.
</event>
<event>
 7    1  0.2031146E-008  0.4614232E+02  0.7816164E-02  0.1320468E+00
        -11   -1    0    0    0    0  0.00000000000E+00  0.00000000000E+00  0.45593999997E+02  0.45594000000E+02  0.51100000000E-03 0. -1.
         11   -1    0    0    0    0 -0.00000000000E+00 -0.00000000000E+00 -0.45593999997E+02  0.45594000000E+02  0.51100000000E-03 0.  1.
    9900012    2    1    2    0    0  0.77845688237E+01  0.44118278440E+02  0.47001539188E+01  0.46142318174E+02  0.10000003767E+02 0.  0.
        -12    1    1    2    0    0 -0.77845688237E+01 -0.44118278440E+02 -0.47001539188E+01  0.45045681826E+02  0.00000000000E+00 0.  1.
         11    1    3    3    0    0  0.22236608297E+01  0.34864838810E+02  0.52563650795E+01  0.35328897900E+02  0.51100000000E-03 0. -1.
        -11    1    3    3    0    0  0.39150903736E+01  0.62777685506E+01 -0.36158609074E+00  0.74073649411E+01  0.51100000000E-03 0.  1.
         12    1    3    3    0    0  0.16458176203E+01  0.29756710797E+01 -0.19462506996E+00  0.34060553331E+01  0.00000000000E+00 0. -1.
</event>
<event>
 7    1  0.2031146E-008  0.4614232E+02  0.7816164E-02  0.1320468E+00
        -11   -1    0    0    0    0  0.00000000000E+00  0.00000000000E+00  0.45593999997E+02  0.45594000000E+02  0.51100000000E-03 0.  1.
         11   -1    0    0    0    0 -0.00000000000E+00 -0.00000000000E+00 -0.45593999997E+02  0.45594000000E+02  0.51100000000E-03 0. -1.
    9900012    2    1    2    0    0  0.23391191785E+02  0.18056377303E+01 -0.38453937978E+02  0.46142317335E+02  0.99999961113E+01 0.  0.
        -12    1    1    2    0    0 -0.23391191785E+02 -0.18056377303E+01  0.38453937978E+02  0.45045682665E+02  0.00000000000E+00 0.  1.
         11    1    3    3    0    0  0.78921097112E+01  0.35120542042E+01 -0.15565491311E+02  0.17801810032E+02  0.51100000000E-03 0. -1.
        -11    1    3    3    0    0  0.13001133985E+02  0.89923394584E+00 -0.16794862174E+02  0.21258069110E+02  0.51100000000E-03 0.  1.
        -12    1    3    3    0    0  0.24979480893E+01 -0.26056504198E+01 -0.60935844936E+01  0.70824381922E+01  0.00000000000E+00 0.  1.
</event>
<event>
 7    1  0.2031146E-008  0.4614232E+02  0.7816164E-02  0.1320468E+00
        -11   -1    0    0    0    0  0.00000000000E+00  0.00000000000E+00  0.45593999997E+02  0.45594000000E+02  0.51100000000E-03 0.  1.
         11   -1    0    0    0    0 -0.00000000000E+00 -0.00000000000E+00 -0.45593999997E+02  0.45594000000E+02  0.51100000000E-03 0. -1.
    9900012    2    1    2    0    0  0.18857093971E+01 -0.68641558703E+01 -0.44479671104E+02  0.46142315664E+02  0.99999808782E+01 0.  0.
        -12    1    1    2    0    0 -0.18857093971E+01  0.68641558703E+01  0.44479671104E+02  0.45045684336E+02  0.00000000000E+00 0.  1.
         11    1    3    3    0    0 -0.17823482123E+01 -0.65540363182E+01 -0.20814402140E+02  0.21894553979E+02  0.51100000000E-03 0. -1.
        -11    1    3    3    0    0  0.18555307572E+01 -0.12882871610E+01 -0.52192444492E+01  0.56871074442E+01  0.51100000000E-03 0.  1.
         12    1    3    3    0    0  0.18125268522E+01  0.97816760898E+00 -0.18446024515E+02  0.18560654241E+02  0.00000000000E+00 0. -1.
</event>
<event>
 7    1  0.2031146E-008  0.4614232E+02  0.7816164E-02  0.1320468E+00
        -11   -1    0    0    0    0  0.00000000000E+00  0.00000000000E+00  0.45593999997E+02  0.45594000000E+02  0.51100000000E-03 0. -1.
         11   -1    0    0    0    0 -0.00000000000E+00 -0.00000000000E+00 -0.45593999997E+02  0.45594000000E+02  0.51100000000E-03 0.  1.
    9900012    2    1    2    0    0  0.26853255951E+02 -0.14800485602E+02  0.32999420484E+02  0.46142317838E+02  0.10000000697E+02 0.  0.
        -12    1    1    2    0    0 -0.26853255951E+02  0.14800485602E+02 -0.32999420484E+02  0.45045682162E+02  0.00000000000E+00 0.  1.
         11    1    3    3    0    0  0.20111018550E+02 -0.78418472696E+01  0.18391676058E+02  0.28358444671E+02  0.51100000000E-03 0. -1.
        -11    1    3    3    0    0  0.27995741613E+01 -0.98596180530E+00  0.47783321381E+01  0.56251395049E+01  0.51100000000E-03 0.  1.
        -12    1    3    3    0    0  0.39426632400E+01 -0.59726765272E+01  0.98294122877E+01  0.12158733661E+02  0.00000000000E+00 0.  1.
</event>
<event>
 7    1  0.2031146E-008  0.4614232E+02  0.7816164E-02  0.1320468E+00
        -11   -1    0    0    0    0  0.00000000000E+00  0.00000000000E+00  0.45593999997E+02  0.45594000000E+02  0.51100000000E-03 0.  1.
         11   -1    0    0    0    0 -0.00000000000E+00 -0.00000000000E+00 -0.45593999997E+02  0.45594000000E+02  0.51100000000E-03 0. -1.
    9900012    2    1    2    0    0  0.38460658295E+02  0.45315261124E+01 -0.23007750486E+02  0.46142317102E+02  0.99999939857E+01 0.  0.
        -12    1    1    2    0    0 -0.38460658295E+02 -0.45315261124E+01  0.23007750486E+02  0.45045682898E+02  0.00000000000E+00 0.  1.
         11    1    3    3    0    0  0.13794815669E+02  0.26084394082E+01 -0.45089265552E+01  0.14745552361E+02  0.51100000000E-03 0. -1.
        -11    1    3    3    0    0  0.14535770467E+02 -0.16386604991E+01 -0.10451465699E+02  0.17977957804E+02  0.51100000000E-03 0.  1.
        -12    1    3    3    0    0  0.10130072159E+02  0.35617472033E+01 -0.80473582318E+01  0.13418806936E+02  0.00000000000E+00 0.  1.
</event>
<event>
 7    1  0.2031146E-008  0.4614232E+02  0.7816164E-02  0.1320468E+00
        -11   -1    0    0    0    0  0.00000000000E+00  0.00000000000E+00  0.45593999997E+02  0.45594000000E+02  0.51100000000E-03 0.  1.
         11   -1    0    0    0    0 -0.00000000000E+00 -0.00000000000E+00 -0.45593999997E+02  0.45594000000E+02  0.51100000000E-03 0. -1.
    9900012    2    1    2    0    0 -0.90090902210E+01  0.35929087411E+02 -0.25632996028E+02  0.46142317475E+02  0.99999973876E+01 0.  0.
        -12    1    1    2    0    0  0.90090902210E+01 -0.35929087411E+02  0.25632996028E+02  0.45045682525E+02  0.00000000000E+00 0.  1.
         11    1    3    3    0    0 -0.59630844657E+01  0.19924917685E+02 -0.18563801970E+02  0.27877866937E+02  0.51100000000E-03 0. -1.
        -11    1    3    3    0    0 -0.84197068909E+00  0.38152840931E+00 -0.99526245228E+00  0.13583174071E+01  0.51100000000E-03 0.  1.
         12    1    3    3    0    0 -0.22040350663E+01  0.15622641317E+02 -0.60739316060E+01  0.16906133131E+02  0.00000000000E+00 0. -1.
</event>
<event>
 7    1  0.2031146E-008  0.4614232E+02  0.7816164E-02  0.1320468E+00
        -11   -1    0    0    0    0  0.00000000000E+00  0.00000000000E+00  0.45593999997E+02  0.45594000000E+02  0.51100000000E-03 0.  1.
         11   -1    0    0    0    0 -0.00000000000E+00 -0.00000000000E+00 -0.45593999997E+02  0.45594000000E+02  0.51100000000E-03 0. -1.
    9900012    2    1    2    0    0 -0.10724865859E+00  0.26982951376E+02 -0.36069689292E+02  0.46142315935E+02  0.99999833504E+01 0.  0.
        -12    1    1    2    0    0  0.10724865859E+00 -0.26982951376E+02  0.36069689292E+02  0.45045684065E+02  0.00000000000E+00 0.  1.
         11    1    3    3    0    0 -0.20685697288E+01  0.21213056699E+01 -0.27022865321E+01  0.40101460361E+01  0.51100000000E-03 0. -1.
        -11    1    3    3    0    0  0.46816591875E+00  0.17157773656E+02 -0.27149314517E+02  0.32119988405E+02  0.51100000000E-03 0.  1.
        -12    1    3    3    0    0  0.14931551515E+01  0.77038720497E+01 -0.62180882435E+01  0.10012181494E+02  0.00000000000E+00 0.  1.
</event>
<event>
 7    1  0.2263273E-008  0.4614232E+02  0.7816164E-02  0.1320468E+00
        -11   -1    0    0    0    0  0.00000000000E+00  0.00000000000E+00  0.45593999997E+02  0.45594000000E+02  0.51100000000E-03 0.  1.
         11   -1    0    0    0    0 -0.00000000000E+00 -0.00000000000E+00 -0.45593999997E+02  0.45594000000E+02  0.51100000000E-03 0. -1.
    9900012    2    1    2    0    0 -0.35247130802E+02 -0.27132317045E+02 -0.71127100819E+01  0.46142317602E+02  0.99999985452E+01 0.  0.
        -12    1    1    2    0    0  0.35247130802E+02  0.27132317045E+02  0.71127100819E+01  0.45045682398E+02  0.00000000000E+00 0.  1.
         11    1    3    3    0    0 -0.11547660407E+02 -0.10024294405E+02 -0.33542323030E+01  0.15655216824E+02  0.51100000000E-03 0. -1.
        -11    1    3    3    0    0 -0.23007774507E+02 -0.17912842919E+02 -0.33519893976E+01  0.29350697818E+02  0.51100000000E-03 0.  1.
        -12    1    3    3    0    0 -0.69169588744E+00  0.80482027893E+00 -0.40648838129E+00  0.11364029594E+01  0.00000000000E+00 0.  1.
</event>
<event>
 7    1  0.2031146E-008  0.4614232E+02  0.7816164E-02  0.1320468E+00
        -11   -1    0    0    0    0  0.00000000000E+00  0.00000000000E+00  0.45593999997E+02  0.45594000000E+02  0.51100000000E-03 0.  1.
         11   -1    0    0    0    0 -0.00000000000E+00 -0.00000000000E+00 -0.45593999997E+02  0.45594000000E+02  0.51100000000E-03 0. -1.
    9900012    2    1    2    0    0 -0.49415972544E+01  0.28630348956E+01 -0.44682178873E+02  0.46142318064E+02  0.10000002758E+02 0.  0.
        -12    1    1    2    0    0  0.49415972544E+01 -0.28630348956E+01  0.44682178873E+02  0.45045681936E+02  0.00000000000E+00 0.  1.
         11    1    3    3    0    0 -0.15350511347E+01  0.46701772072E+01 -0.22401011509E+02  0.22934084983E+02  0.51100000000E-03 0. -1.
        -11    1    3    3    0    0  0.17828561789E+00  0.12128071812E+01 -0.97919172596E+01  0.98683499584E+01  0.51100000000E-03 0.  1.
        -12    1    3    3    0    0 -0.35848317376E+01 -0.30199494928E+01 -0.12489250105E+02  0.13339883122E+02  0.00000000000E+00 0.  1.
</event>
<event>
 7    1  0.2031146E-008  0.4614232E+02  0.7816164E-02  0.1320468E+00
        -11   -1    0    0    0    0  0.00000000000E+00  0.00000000000E+00  0.45593999997E+02  0.45594000000E+02  0.51100000000E-03 0.  1.
         11   -1    0    0    0    0 -0.00000000000E+00 -0.00000000000E+00 -0.45593999997E+02  0.45594000000E+02  0.51100000000E-03 0. -1.
    9900012    2    1    2    0    0 -0.44266694830E+01 -0.18049842168E+02 -0.41033173332E+02  0.46142317424E+02  0.99999969282E+01 0.  0.
        -12    1    1    2    0    0  0.44266694830E+01  0.18049842168E+02  0.41033173332E+02  0.45045682576E+02  0.00000000000E+00 0.  1.
         11    1    3    3    0    0  0.35633610286E+00 -0.32804778067E+01 -0.15978446603E+02  0.16315614183E+02  0.51100000000E-03 0. -1.
        -11    1    3    3    0    0  0.50776091455E+00 -0.10751551627E+00 -0.14478963542E+01  0.15381108042E+01  0.51100000000E-03 0.  1.
        -12    1    3    3    0    0 -0.52907665005E+01 -0.14661848845E+02 -0.23606830375E+02  0.28288592437E+02  0.00000000000E+00 0.  1.
</event>
<event>
 7    1  0.2031146E-008  0.4614232E+02  0.7816164E-02  0.1320468E+00
        -11   -1    0    0    0    0  0.00000000000E+00  0.00000000000E+00  0.45593999997E+02  0.45594000000E+02  0.51100000000E-03 0.  1.
         11   -1    0    0    0    0 -0.00000000000E+00 -0.00000000000E+00 -0.45593999997E+02  0.45594000000E+02  0.51100000000E-03 0. -1.
    9900012    2    1    2    0    0  0.27573142010E+02 -0.27196756248E+02 -0.23003735084E+02  0.46142317204E+02  0.99999949204E+01 0.  0.
        -12    1    1    2    0    0 -0.27573142010E+02  0.27196756248E+02  0.23003735084E+02  0.45045682796E+02  0.00000000000E+00 0.  1.
         11    1    3    3    0    0  0.16801867181E+02 -0.19675914947E+02 -0.12739238238E+02  0.28839773940E+02  0.51100000000E-03 0. -1.
        -11    1    3    3    0    0  0.45797757037E+00 -0.22370276107E+01 -0.11333614525E+01  0.25492242798E+01  0.51100000000E-03 0.  1.
        -12    1    3    3    0    0  0.10313297259E+02 -0.52838136897E+01 -0.91311353940E+01  0.14753318984E+02  0.00000000000E+00 0.  1.
</event>
<event>
 7    1  0.2031146E-008  0.4614232E+02  0.7816164E-02  0.1320468E+00
        -11   -1    0    0    0    0  0.00000000000E+00  0.00000000000E+00  0.45593999997E+02  0.45594000000E+02  0.51100000000E-03 0.  1.
         11   -1    0    0    0    0 -0.00000000000E+00 -0.00000000000E+00 -0.45593999997E+02  0.45594000000E+02  0.51100000000E-03 0. -1.
    9900012    2    1    2    0    0 -0.14624950990E+02  0.29898195114E+02 -0.30353290147E+02  0.46142317795E+02  0.10000000314E+02 0.  0.
        -12    1    1    2    0    0  0.14624950990E+02 -0.29898195114E+02  0.30353290147E+02  0.45045682205E+02  0.00000000000E+00 0.  1.
         11    1    3    3    0    0 -0.17190570915E+01  0.55804972493E+01 -0.73085935512E+01  0.93548194419E+01  0.51100000000E-03 0. -1.
        -11    1    3    3    0    0 -0.32562692473E+01  0.39358115161E+01 -0.90980697704E+00  0.51886077803E+01  0.51100000000E-03 0.  1.
        -12    1    3    3    0    0 -0.96496246511E+01  0.20381886349E+02 -0.22134889619E+02  0.31598890573E+02  0.00000000000E+00 0.  1.
</event>
<event>
 7    1  0.2031146E-008  0.4614232E+02  0.7816164E-02  0.1320468E+00
        -11   -1    0    0    0    0  0.00000000000E+00  0.00000000000E+00  0.45593999997E+02  0.45594000000E+02  0.51100000000E-03 0.  1.
         11   -1    0    0    0    0 -0.00000000000E+00 -0.00000000000E+00 -0.45593999997E+02  0.45594000000E+02  0.51100000000E-03 0. -1.
    9900012    2    1    2    0    0  0.34330101253E+02 -0.16403949125E+02 -0.24113649102E+02  0.46142317944E+02  0.10000001664E+02 0.  0.
        -12    1    1    2    0    0 -0.34330101253E+02  0.16403949125E+02  0.24113649102E+02  0.45045682056E+02  0.00000000000E+00 0.  1.
         11    1    3    3    0    0  0.56333747365E+01 -0.11636865477E+01 -0.20347421055E+01  0.61015779107E+01  0.51100000000E-03 0. -1.
        -11    1    3    3    0    0  0.88850941787E+00  0.12825956865E-01 -0.27692400568E+01  0.29083163934E+01  0.51100000000E-03 0.  1.
         12    1    3    3    0    0  0.27808217098E+02 -0.15253088534E+02 -0.19309666939E+02  0.37132423639E+02  0.00000000000E+00 0. -1.
</event>
<event>
 7    1  0.2031146E-008  0.4614230E+02  0.7816164E-02  0.1320468E+00
        -11   -1    0    0    0    0  0.00000000000E+00  0.00000000000E+00  0.45593999997E+02  0.45594000000E+02  0.51100000000E-03 0.  1.
         11   -1    0    0    0    0 -0.00000000000E+00 -0.00000000000E+00 -0.45593999997E+02  0.45594000000E+02  0.51100000000E-03 0. -1.
    9900012    2    1    2    0    0  0.22638315829E+02  0.83520743772E+00 -0.38934867238E+02  0.46142303181E+02  0.99998670503E+01 0.  0.
        -12    1    1    2    0    0 -0.22638315829E+02 -0.83520743772E+00  0.38934867238E+02  0.45045696819E+02  0.00000000000E+00 0.  1.
         11    1    3    3    0    0  0.12266692796E+02  0.18832481622E+01 -0.25122928141E+02  0.28021061622E+02  0.51100000000E-03 0.  1.
        -11    1    3    3    0    0  0.94357030599E+01 -0.44871295385E-01 -0.87212567773E+01  0.12848923134E+02  0.51100000000E-03 0. -1.
        -12    1    3    3    0    0  0.93591997307E+00 -0.10031694291E+01 -0.50906823193E+01  0.52723184251E+01  0.00000000000E+00 0.  1.
</event>
<event>
 7    1  0.2031146E-008  0.4614232E+02  0.7816164E-02  0.1320468E+00
        -11   -1    0    0    0    0  0.00000000000E+00  0.00000000000E+00  0.45593999997E+02  0.45594000000E+02  0.51100000000E-03 0.  1.
         11   -1    0    0    0    0 -0.00000000000E+00 -0.00000000000E+00 -0.45593999997E+02  0.45594000000E+02  0.51100000000E-03 0. -1.
    9900012    2    1    2    0    0  0.14801876129E+02  0.36489114702E+02  0.21876069888E+02  0.46142318049E+02  0.10000002625E+02 0.  0.
        -12    1    1    2    0    0 -0.14801876129E+02 -0.36489114702E+02 -0.21876069888E+02  0.45045681951E+02  0.00000000000E+00 0.  1.
         11    1    3    3    0    0  0.55828844135E+00  0.43895766294E+01  0.21545018094E+01  0.49215797542E+01  0.51100000000E-03 0.  1.
        -11    1    3    3    0    0 -0.81693729486E-01  0.83356039782E+01  0.59628854343E+01  0.10249144867E+02  0.51100000000E-03 0. -1.
        -12    1    3    3    0    0  0.14325281417E+02  0.23763934095E+02  0.13758682644E+02  0.30971593428E+02  0.00000000000E+00 0.  1.
</event>
<event>
 7    1  0.2031146E-008  0.4614232E+02  0.7816164E-02  0.1320468E+00
        -11   -1    0    0    0    0  0.00000000000E+00  0.00000000000E+00  0.45593999997E+02  0.45594000000E+02  0.51100000000E-03 0.  1.
         11   -1    0    0    0    0 -0.00000000000E+00 -0.00000000000E+00 -0.45593999997E+02  0.45594000000E+02  0.51100000000E-03 0. -1.
    9900012    2    1    2    0    0 -0.25841610106E+01  0.36074717943E+02 -0.26852377753E+02  0.46142319255E+02  0.10000013620E+02 0.  0.
        -12    1    1    2    0    0  0.25841610106E+01 -0.36074717943E+02  0.26852377753E+02  0.45045680745E+02  0.00000000000E+00 0.  1.
         11    1    3    3    0    0  0.25000969992E+01  0.49407764046E+01 -0.41147601998E+01  0.68987686038E+01  0.51100000000E-03 0.  1.
        -11    1    3    3    0    0  0.91532951616E+00  0.23629414262E+01 -0.25012402972E+01  0.35605510237E+01  0.51100000000E-03 0. -1.
         12    1    3    3    0    0 -0.59995875259E+01  0.28771000113E+02 -0.20236377256E+02  0.35682999627E+02  0.00000000000E+00 0. -1.
</event>
<event>
 7    1  0.2031146E-008  0.4614232E+02  0.7816164E-02  0.1320468E+00
        -11   -1    0    0    0    0  0.00000000000E+00  0.00000000000E+00  0.45593999997E+02  0.45594000000E+02  0.51100000000E-03 0. -1.
         11   -1    0    0    0    0 -0.00000000000E+00 -0.00000000000E+00 -0.45593999997E+02  0.45594000000E+02  0.51100000000E-03 0.  1.
    9900012    2    1    2    0    0  0.11296118637E+02 -0.31555889639E+02  0.30095464823E+02  0.46142317964E+02  0.10000001848E+02 0.  0.
        -12    1    1    2    0    0 -0.11296118637E+02  0.31555889639E+02 -0.30095464823E+02  0.45045682036E+02  0.00000000000E+00 0.  1.
         11    1    3    3    0    0  0.68788903113E+01 -0.12005666004E+02  0.16224769940E+02  0.21323656065E+02  0.51100000000E-03 0. -1.
        -11    1    3    3    0    0  0.32475221895E+01 -0.79947596607E+01  0.37326007614E+01  0.94018557269E+01  0.51100000000E-03 0.  1.
         12    1    3    3    0    0  0.11697061358E+01 -0.11555463975E+02  0.10138094122E+02  0.15416806172E+02  0.00000000000E+00 0. -1.
</event>
<event>
 7    1  0.2031146E-008  0.4614232E+02  0.7816164E-02  0.1320468E+00
        -11   -1    0    0    0    0  0.00000000000E+00  0.00000000000E+00  0.45593999997E+02  0.45594000000E+02  0.51100000000E-03 0.  1.
         11   -1    0    0    0    0 -0.00000000000E+00 -0.00000000000E+00 -0.45593999997E+02  0.45594000000E+02  0.51100000000E-03 0. -1.
    9900012    2    1    2    0    0  0.23729964783E+02 -0.16878075220E+02 -0.34367612729E+02  0.46142318116E+02  0.10000003236E+02 0.  0.
        -12    1    1    2    0    0 -0.23729964783E+02  0.16878075220E+02  0.34367612729E+02  0.45045681884E+02  0.00000000000E+00 0.  1.
         11    1    3    3    0    0  0.10217224755E+02 -0.11356583483E+02 -0.21353333884E+02  0.26255066907E+02  0.51100000000E-03 0.  1.
        -11    1    3    3    0    0  0.84067028654E+01 -0.51395504614E+01 -0.94167167845E+01  0.13629460271E+02  0.51100000000E-03 0. -1.
        -12    1    3    3    0    0  0.51060371627E+01 -0.38194127616E+00 -0.35975620601E+01  0.62577909379E+01  0.00000000000E+00 0.  1.
</event>
<event>
 7    1  0.2031146E-008  0.4614232E+02  0.7816164E-02  0.1320468E+00
        -11   -1    0    0    0    0  0.00000000000E+00  0.00000000000E+00  0.45593999997E+02  0.45594000000E+02  0.51100000000E-03 0.  1.
         11   -1    0    0    0    0 -0.00000000000E+00 -0.00000000000E+00 -0.45593999997E+02  0.45594000000E+02  0.51100000000E-03 0. -1.
    9900012    2    1    2    0    0  0.10288048154E+02 -0.40408680022E+02  0.17041364801E+02  0.46142317963E+02  0.10000001837E+02 0.  0.
        -12    1    1    2    0    0 -0.10288048154E+02  0.40408680022E+02 -0.17041364801E+02  0.45045682037E+02  0.00000000000E+00 0.  1.
         11    1    3    3    0    0  0.40715830897E+01 -0.10535819694E+02  0.16764792609E+01  0.11418925889E+02  0.51100000000E-03 0. -1.
        -11    1    3    3    0    0  0.27778134974E+00 -0.36239418967E+00 -0.51600476702E+00  0.68902337238E+00  0.51100000000E-03 0.  1.
        -12    1    3    3    0    0  0.59386837149E+01 -0.29510466138E+02  0.15880890307E+02  0.34034368702E+02  0.00000000000E+00 0.  1.
</event>
<event>
 7    1  0.2031146E-008  0.4614232E+02  0.7816164E-02  0.1320468E+00
        -11   -1    0    0    0    0  0.00000000000E+00  0.00000000000E+00  0.45593999997E+02  0.45594000000E+02  0.51100000000E-03 0. -1.
         11   -1    0    0    0    0 -0.00000000000E+00 -0.00000000000E+00 -0.45593999997E+02  0.45594000000E+02  0.51100000000E-03 0.  1.
    9900012    2    1    2    0    0  0.33968061670E+02  0.10776080104E+02  0.27552866334E+02  0.46142316975E+02  0.99999928296E+01 0.  0.
        -12    1    1    2    0    0 -0.33968061670E+02 -0.10776080104E+02 -0.27552866334E+02  0.45045683025E+02  0.00000000000E+00 0.  1.
         11    1    3    3    0    0  0.72405764998E+01  0.30869125196E+01  0.60755352165E+01  0.99431939225E+01  0.51100000000E-03 0. -1.
        -11    1    3    3    0    0  0.26819730134E+02  0.82361691591E+01  0.19555113342E+02  0.34198462903E+02  0.51100000000E-03 0.  1.
        -12    1    3    3    0    0 -0.92244963622E-01 -0.54700157503E+00  0.19222177754E+01  0.20006601492E+01  0.00000000000E+00 0.  1.
</event>
<event>
 7    1  0.2031146E-008  0.4614232E+02  0.7816164E-02  0.1320468E+00
        -11   -1    0    0    0    0  0.00000000000E+00  0.00000000000E+00  0.45593999997E+02  0.45594000000E+02  0.51100000000E-03 0. -1.
         11   -1    0    0    0    0 -0.00000000000E+00 -0.00000000000E+00 -0.45593999997E+02  0.45594000000E+02  0.51100000000E-03 0.  1.
    9900012    2    1    2    0    0 -0.48129746681E+01 -0.32488115831E+02 -0.30829712203E+02  0.46142317078E+02  0.99999937702E+01 0.  0.
        -12    1    1    2    0    0  0.48129746681E+01  0.32488115831E+02  0.30829712203E+02  0.45045682922E+02  0.00000000000E+00 0.  1.
         11    1    3    3    0    0 -0.11673968106E+01 -0.84657014782E+01 -0.40217497497E+01  0.94448604088E+01  0.51100000000E-03 0. -1.
        -11    1    3    3    0    0  0.12826563520E+01 -0.46297497024E+01 -0.33071620781E+01  0.58324189575E+01  0.51100000000E-03 0.  1.
         12    1    3    3    0    0 -0.49282342095E+01 -0.19392664650E+02 -0.23500800375E+02  0.30865037712E+02  0.00000000000E+00 0. -1.
</event>
<event>
 7    1  0.2031146E-008  0.4614232E+02  0.7816164E-02  0.1320468E+00
        -11   -1    0    0    0    0  0.00000000000E+00  0.00000000000E+00  0.45593999997E+02  0.45594000000E+02  0.51100000000E-03 0. -1.
         11   -1    0    0    0    0 -0.00000000000E+00 -0.00000000000E+00 -0.45593999997E+02  0.45594000000E+02  0.51100000000E-03 0.  1.
    9900012    2    1    2    0    0  0.30288902178E+02  0.30274794454E+02  0.13968987806E+02  0.46142318801E+02  0.10000009482E+02 0.  0.
        -12    1    1    2    0    0 -0.30288902178E+02 -0.30274794454E+02 -0.13968987806E+02  0.45045681199E+02  0.00000000000E+00 0.  1.
         11    1    3    3    0    0  0.34808672262E+01  0.25066019159E+01 -0.82125015755E+00  0.43673724244E+01  0.51100000000E-03 0. -1.
        -11    1    3    3    0    0  0.11569165493E+02  0.79320359111E+01  0.45586916402E+01  0.14749388246E+02  0.51100000000E-03 0.  1.
         12    1    3    3    0    0  0.15238869459E+02  0.19836156627E+02  0.10231546323E+02  0.27025558131E+02  0.00000000000E+00 0. -1.
</event>
<event>
 7    1  0.2031146E-008  0.4614232E+02  0.7816164E-02  0.1320468E+00
        -11   -1    0    0    0    0  0.00000000000E+00  0.00000000000E+00  0.45593999997E+02  0.45594000000E+02  0.51100000000E-03 0.  1.
         11   -1    0    0    0    0 -0.00000000000E+00 -0.00000000000E+00 -0.45593999997E+02  0.45594000000E+02  0.51100000000E-03 0. -1.
    9900012    2    1    2    0    0 -0.25933746541E+02 -0.33905732324E+02 -0.14385949382E+02  0.46142318368E+02  0.10000005532E+02 0.  0.
        -12    1    1    2    0    0  0.25933746541E+02  0.33905732324E+02  0.14385949382E+02  0.45045681632E+02  0.00000000000E+00 0.  1.
         11    1    3    3    0    0 -0.62544718829E+01 -0.94599349762E+01 -0.11936448067E+01  0.11403226582E+02  0.51100000000E-03 0. -1.
        -11    1    3    3    0    0 -0.54289530810E+01 -0.25232020264E+01 -0.22760747291E+01  0.64047323484E+01  0.51100000000E-03 0.  1.
         12    1    3    3    0    0 -0.14250321577E+02 -0.21922595321E+02 -0.10916229846E+02  0.28334359438E+02  0.00000000000E+00 0. -1.
</event>
<event>
 7    1  0.2031146E-008  0.4614232E+02  0.7816164E-02  0.1320468E+00
        -11   -1    0    0    0    0  0.00000000000E+00  0.00000000000E+00  0.45593999997E+02  0.45594000000E+02  0.51100000000E-03 0.  1.
         11   -1    0    0    0    0 -0.00000000000E+00 -0.00000000000E+00 -0.45593999997E+02  0.45594000000E+02  0.51100000000E-03 0. -1.
    9900012    2    1    2    0    0  0.41467035051E+02  0.16114502302E+02 -0.70654933196E+01  0.46142319006E+02  0.10000011351E+02 0.  0.
        -12    1    1    2    0    0 -0.41467035051E+02 -0.16114502302E+02  0.70654933196E+01  0.45045680994E+02  0.00000000000E+00 0.  1.
         11    1    3    3    0    0  0.65900965634E+01  0.41686700219E+01  0.13019870355E+01  0.79058429638E+01  0.51100000000E-03 0. -1.
        -11    1    3    3    0    0  0.18952902004E+02  0.67900885768E+01 -0.74729793532E+01  0.21474711125E+02  0.51100000000E-03 0.  1.
        -12    1    3    3    0    0  0.15924036484E+02  0.51557437037E+01 -0.89450100183E+00  0.16761764917E+02  0.00000000000E+00 0.  1.
</event>
<event>
 7    1  0.2031146E-008  0.4614232E+02  0.7816164E-02  0.1320468E+00
        -11   -1    0    0    0    0  0.00000000000E+00  0.00000000000E+00  0.45593999997E+02  0.45594000000E+02  0.51100000000E-03 0.  1.
         11   -1    0    0    0    0 -0.00000000000E+00 -0.00000000000E+00 -0.45593999997E+02  0.45594000000E+02  0.51100000000E-03 0. -1.
    9900012    2    1    2    0    0  0.26235485463E+02  0.35156771520E+02 -0.10237887751E+02  0.46142316225E+02  0.99999859898E+01 0.  0.
        -12    1    1    2    0    0 -0.26235485463E+02 -0.35156771520E+02  0.10237887751E+02  0.45045683775E+02  0.00000000000E+00 0.  1.
         11    1    3    3    0    0  0.21167857792E+02  0.27260881335E+02 -0.88897106260E+01  0.35640718426E+02  0.51100000000E-03 0. -1.
        -11    1    3    3    0    0  0.15498688094E+01  0.61563841442E+01 -0.16688737456E+01  0.65641677993E+01  0.51100000000E-03 0.  1.
        -12    1    3    3    0    0  0.35177588621E+01  0.17395060406E+01  0.32069662085E+00  0.39374299993E+01  0.00000000000E+00 0.  1.
</event>
<event>
 7    1  0.2031146E-008  0.4614232E+02  0.7816164E-02  0.1320468E+00
        -11   -1    0    0    0    0  0.00000000000E+00  0.00000000000E+00  0.45593999997E+02  0.45594000000E+02  0.51100000000E-03 0.  1.
         11   -1    0    0    0    0 -0.00000000000E+00 -0.00000000000E+00 -0.45593999997E+02  0.45594000000E+02  0.51100000000E-03 0. -1.
    9900012    2    1    2    0    0 -0.50022468027E+01  0.33533029190E+01 -0.44641308373E+02  0.46142317335E+02  0.99999961135E+01 0.  0.
        -12    1    1    2    0    0  0.50022468027E+01 -0.33533029190E+01  0.44641308373E+02  0.45045682665E+02  0.00000000000E+00 0.  1.
         11    1    3    3    0    0 -0.19846987981E+01 -0.23284264775E+01 -0.81749145207E+01  0.87286784144E+01  0.51100000000E-03 0. -1.
        -11    1    3    3    0    0 -0.40080576066E+01  0.30884837389E+01 -0.16594673816E+02  0.17348961263E+02  0.51100000000E-03 0.  1.
         12    1    3    3    0    0  0.99050960197E+00  0.25932456576E+01 -0.19871720036E+02  0.20064677658E+02  0.00000000000E+00 0. -1.
</event>
<event>
 7    1  0.2031146E-008  0.4614232E+02  0.7816164E-02  0.1320468E+00
        -11   -1    0    0    0    0  0.00000000000E+00  0.00000000000E+00  0.45593999997E+02  0.45594000000E+02  0.51100000000E-03 0.  1.
         11   -1    0    0    0    0 -0.00000000000E+00 -0.00000000000E+00 -0.45593999997E+02  0.45594000000E+02  0.51100000000E-03 0. -1.
    9900012    2    1    2    0    0  0.10101794839E+02 -0.43896612106E+02 -0.39329507104E+00  0.46142317695E+02  0.99999993928E+01 0.  0.
        -12    1    1    2    0    0 -0.10101794839E+02  0.43896612106E+02  0.39329507104E+00  0.45045682305E+02  0.00000000000E+00 0.  1.
         11    1    3    3    0    0  0.45135732534E+01 -0.24132387296E+02 -0.45316804227E+01  0.24965588073E+02  0.51100000000E-03 0. -1.
        -11    1    3    3    0    0  0.16436081704E+01 -0.41931988064E+01 -0.29432723627E+00  0.45134236264E+01  0.51100000000E-03 0.  1.
        -12    1    3    3    0    0  0.39446134149E+01 -0.15571026003E+02  0.44327125879E+01  0.16663305995E+02  0.00000000000E+00 0.  1.
</event>
<event>
 7    1  0.2031146E-008  0.4614232E+02  0.7816164E-02  0.1320468E+00
        -11   -1    0    0    0    0  0.00000000000E+00  0.00000000000E+00  0.45593999997E+02  0.45594000000E+02  0.51100000000E-03 0. -1.
         11   -1    0    0    0    0 -0.00000000000E+00 -0.00000000000E+00 -0.45593999997E+02  0.45594000000E+02  0.51100000000E-03 0.  1.
    9900012    2    1    2    0    0  0.26060961193E+02  0.35033869501E+02 -0.11071033829E+02  0.46142317626E+02  0.99999987671E+01 0.  0.
        -12    1    1    2    0    0 -0.26060961193E+02 -0.35033869501E+02  0.11071033829E+02  0.45045682374E+02  0.00000000000E+00 0.  1.
         11    1    3    3    0    0  0.15457128507E+02  0.22057502223E+02 -0.21839534537E+01  0.27022691927E+02  0.51100000000E-03 0. -1.
        -11    1    3    3    0    0  0.10660919151E+01  0.24823070000E+01 -0.19583049668E+01  0.33366687906E+01  0.51100000000E-03 0.  1.
         12    1    3    3    0    0  0.95377407704E+01  0.10494060278E+02 -0.69287754088E+01  0.15782956909E+02  0.00000000000E+00 0. -1.
</event>
<event>
 7    1  0.2031146E-008  0.4614232E+02  0.7816164E-02  0.1320468E+00
        -11   -1    0    0    0    0  0.00000000000E+00  0.00000000000E+00  0.45593999997E+02  0.45594000000E+02  0.51100000000E-03 0.  1.
         11   -1    0    0    0    0 -0.00000000000E+00 -0.00000000000E+00 -0.45593999997E+02  0.45594000000E+02  0.51100000000E-03 0. -1.
    9900012    2    1    2    0    0 -0.30088854732E+02  0.30400820450E+02  0.14126727252E+02  0.46142317788E+02  0.10000000244E+02 0.  0.
        -12    1    1    2    0    0  0.30088854732E+02 -0.30400820450E+02 -0.14126727252E+02  0.45045682212E+02  0.00000000000E+00 0.  1.
         11    1    3    3    0    0 -0.15012694173E+02  0.20155660720E+02  0.46892401331E+01  0.25566005138E+02  0.51100000000E-03 0. -1.
        -11    1    3    3    0    0 -0.97371863394E+01  0.70974148418E+01  0.56040110927E+01  0.13288755993E+02  0.51100000000E-03 0.  1.
         12    1    3    3    0    0 -0.53389742199E+01  0.31477448876E+01  0.38334760258E+01  0.72875566577E+01  0.00000000000E+00 0. -1.
</event>
<event>
 7    1  0.2031146E-008  0.4614232E+02  0.7816164E-02  0.1320468E+00
        -11   -1    0    0    0    0  0.00000000000E+00  0.00000000000E+00  0.45593999997E+02  0.45594000000E+02  0.51100000000E-03 0.  1.
         11   -1    0    0    0    0 -0.00000000000E+00 -0.00000000000E+00 -0.45593999997E+02  0.45594000000E+02  0.51100000000E-03 0. -1.
    9900012    2    1    2    0    0  0.14839585289E+02 -0.42268598532E+02  0.47186657564E+01  0.46142317410E+02  0.99999968025E+01 0.  0.
        -12    1    1    2    0    0 -0.14839585289E+02  0.42268598532E+02 -0.47186657564E+01  0.45045682590E+02  0.00000000000E+00 0.  1.
         11    1    3    3    0    0  0.68533742837E+01 -0.21633296172E+02  0.15660453631E+01  0.22746884197E+02  0.51100000000E-03 0. -1.
        -11    1    3    3    0    0  0.79662738417E+00 -0.19467897779E+01  0.26262197678E+01  0.33647639083E+01  0.51100000000E-03 0.  1.
         12    1    3    3    0    0  0.71895836208E+01 -0.18688512583E+02  0.52640062545E+00  0.20030669305E+02  0.00000000000E+00 0. -1.
</event>
<event>
 7    1  0.2031146E-008  0.4614232E+02  0.7816164E-02  0.1320468E+00
        -11   -1    0    0    0    0  0.00000000000E+00  0.00000000000E+00  0.45593999997E+02  0.45594000000E+02  0.51100000000E-03 0. -1.
         11   -1    0    0    0    0 -0.00000000000E+00 -0.00000000000E+00 -0.45593999997E+02  0.45594000000E+02  0.51100000000E-03 0.  1.
    9900012    2    1    2    0    0  0.11722144247E+02 -0.32148282875E+02  0.29294927110E+02  0.46142317500E+02  0.99999976147E+01 0.  0.
        -12    1    1    2    0    0 -0.11722144247E+02  0.32148282875E+02 -0.29294927110E+02  0.45045682500E+02  0.00000000000E+00 0.  1.
         11    1    3    3    0    0  0.46885456128E+01 -0.21163913050E+02  0.19450772121E+02  0.29124323372E+02  0.51100000000E-03 0. -1.
        -11    1    3    3    0    0  0.55177509747E+00  0.39692893598E+00  0.86465535322E-01  0.68518967324E+00  0.51100000000E-03 0.  1.
         12    1    3    3    0    0  0.64818235370E+01 -0.11381298761E+02  0.97576894539E+01  0.16332804454E+02  0.00000000000E+00 0. -1.
</event>
<event>
 7    1  0.2031146E-008  0.4614232E+02  0.7816164E-02  0.1320468E+00
        -11   -1    0    0    0    0  0.00000000000E+00  0.00000000000E+00  0.45593999997E+02  0.45594000000E+02  0.51100000000E-03 0.  1.
         11   -1    0    0    0    0 -0.00000000000E+00 -0.00000000000E+00 -0.45593999997E+02  0.45594000000E+02  0.51100000000E-03 0. -1.
    9900012    2    1    2    0    0 -0.29632265717E+01  0.16693747773E+02 -0.41733099150E+02  0.46142317730E+02  0.99999997206E+01 0.  0.
        -12    1    1    2    0    0  0.29632265717E+01 -0.16693747773E+02  0.41733099150E+02  0.45045682270E+02  0.00000000000E+00 0.  1.
         11    1    3    3    0    0 -0.10634298163E+01 -0.16332751294E+00 -0.10393524380E+01  0.14959320179E+01  0.51100000000E-03 0. -1.
        -11    1    3    3    0    0  0.14170782257E+01  0.30616540653E+00 -0.40491757359E+01  0.43008920418E+01  0.51100000000E-03 0.  1.
         12    1    3    3    0    0 -0.33168749811E+01  0.16550909880E+02 -0.36644570976E+02  0.40345493671E+02  0.00000000000E+00 0. -1.
</event>
<event>
 7    1  0.2031146E-008  0.4614232E+02  0.7816164E-02  0.1320468E+00
        -11   -1    0    0    0    0  0.00000000000E+00  0.00000000000E+00  0.45593999997E+02  0.45594000000E+02  0.51100000000E-03 0.  1.
         11   -1    0    0    0    0 -0.00000000000E+00 -0.00000000000E+00 -0.45593999997E+02  0.45594000000E+02  0.51100000000E-03 0. -1.
    9900012    2    1    2    0    0  0.39106296574E+02 -0.22355469795E+02 -0.20977222803E+00  0.46142318011E+02  0.10000002279E+02 0.  0.
        -12    1    1    2    0    0 -0.39106296574E+02  0.22355469795E+02  0.20977222803E+00  0.45045681989E+02  0.00000000000E+00 0.  1.
         11    1    3    3    0    0  0.18654433229E+02 -0.79591605711E+01 -0.57057533514E+00  0.20289447321E+02  0.51100000000E-03 0. -1.
        -11    1    3    3    0    0  0.17988246413E+02 -0.13882444440E+02  0.20613777636E+01  0.22815533113E+02  0.51100000000E-03 0.  1.
        -12    1    3    3    0    0  0.24636169311E+01 -0.51386478327E+00 -0.17005746564E+01  0.30373375777E+01  0.00000000000E+00 0.  1.
</event>
<event>
 7    1  0.2031146E-008  0.4614232E+02  0.7816164E-02  0.1320468E+00
        -11   -1    0    0    0    0  0.00000000000E+00  0.00000000000E+00  0.45593999997E+02  0.45594000000E+02  0.51100000000E-03 0.  1.
         11   -1    0    0    0    0 -0.00000000000E+00 -0.00000000000E+00 -0.45593999997E+02  0.45594000000E+02  0.51100000000E-03 0. -1.
    9900012    2    1    2    0    0  0.57901583593E+01  0.16539516893E+02 -0.41497372618E+02  0.46142317775E+02  0.10000000130E+02 0.  0.
        -12    1    1    2    0    0 -0.57901583593E+01 -0.16539516893E+02  0.41497372618E+02  0.45045682225E+02  0.00000000000E+00 0.  1.
         11    1    3    3    0    0 -0.93698667312E+00  0.17178359452E+01 -0.58274372601E+01  0.61471887593E+01  0.51100000000E-03 0. -1.
        -11    1    3    3    0    0 -0.86486211849E+00  0.55575601296E+00 -0.70779456255E+01  0.71522140466E+01  0.51100000000E-03 0.  1.
         12    1    3    3    0    0  0.75920071509E+01  0.14265924935E+02 -0.28591989732E+02  0.32842914969E+02  0.00000000000E+00 0. -1.
</event>
<event>
 7    1  0.2031146E-008  0.4614232E+02  0.7816164E-02  0.1320468E+00
        -11   -1    0    0    0    0  0.00000000000E+00  0.00000000000E+00  0.45593999997E+02  0.45594000000E+02  0.51100000000E-03 0.  1.
         11   -1    0    0    0    0 -0.00000000000E+00 -0.00000000000E+00 -0.45593999997E+02  0.45594000000E+02  0.51100000000E-03 0. -1.
    9900012    2    1    2    0    0 -0.42401237248E+02 -0.15137495847E+02 -0.14508039778E+01  0.46142317267E+02  0.99999954967E+01 0.  0.
        -12    1    1    2    0    0  0.42401237248E+02  0.15137495847E+02  0.14508039778E+01  0.45045682733E+02  0.00000000000E+00 0.  1.
         11    1    3    3    0    0 -0.20146325781E+02 -0.87926060745E+01  0.16080641002E+01  0.22040195881E+02  0.51100000000E-03 0. -1.
        -11    1    3    3    0    0 -0.86449319380E+01 -0.24635271397E+01  0.17440811033E+01  0.91567261254E+01  0.51100000000E-03 0.  1.
        -12    1    3    3    0    0 -0.13609979529E+02 -0.38813626324E+01 -0.48029491813E+01  0.14945395261E+02  0.00000000000E+00 0.  1.
</event>
<event>
 7    1  0.2031146E-008  0.4614232E+02  0.7816164E-02  0.1320468E+00
        -11   -1    0    0    0    0  0.00000000000E+00  0.00000000000E+00  0.45593999997E+02  0.45594000000E+02  0.51100000000E-03 0.  1.
         11   -1    0    0    0    0 -0.00000000000E+00 -0.00000000000E+00 -0.45593999997E+02  0.45594000000E+02  0.51100000000E-03 0. -1.
    9900012    2    1    2    0    0 -0.26753127579E+02  0.30789144350E+02 -0.19115763621E+02  0.46142315813E+02  0.99999822375E+01 0.  0.
        -12    1    1    2    0    0  0.26753127579E+02 -0.30789144350E+02  0.19115763621E+02  0.45045684187E+02  0.00000000000E+00 0.  1.
         11    1    3    3    0    0 -0.20416128571E+02  0.20169474914E+02 -0.12243628476E+02  0.31201481739E+02  0.51100000000E-03 0. -1.
        -11    1    3    3    0    0 -0.41455376393E+01  0.31809798881E+01 -0.43108174983E+01  0.67740138125E+01  0.51100000000E-03 0.  1.
        -12    1    3    3    0    0 -0.21914613687E+01  0.74386895469E+01 -0.25613176459E+01  0.81668202619E+01  0.00000000000E+00 0.  1.
</event>
<event>
 7    1  0.2031146E-008  0.4614231E+02  0.7816164E-02  0.1320468E+00
        -11   -1    0    0    0    0  0.00000000000E+00  0.00000000000E+00  0.45593999997E+02  0.45594000000E+02  0.51100000000E-03 0. -1.
         11   -1    0    0    0    0 -0.00000000000E+00 -0.00000000000E+00 -0.45593999997E+02  0.45594000000E+02  0.51100000000E-03 0.  1.
    9900012    2    1    2    0    0 -0.40582615215E+02 -0.19548474255E+02 -0.15003858241E+00  0.46142311916E+02  0.99999466996E+01 0.  0.
        -12    1    1    2    0    0  0.40582615215E+02  0.19548474255E+02  0.15003858241E+00  0.45045688084E+02  0.00000000000E+00 0.  1.
         11    1    3    3    0    0 -0.18006915206E+02 -0.79212847667E+01 -0.13573763897E+01  0.19718981174E+02  0.51100000000E-03 0.  1.
        -11    1    3    3    0    0 -0.10096334442E+02 -0.76742063667E+01 -0.22594808710E+01  0.12881563049E+02  0.51100000000E-03 0. -1.
        -12    1    3    3    0    0 -0.12479365567E+02 -0.39529831216E+01  0.34668186783E+01  0.13541767694E+02  0.00000000000E+00 0.  1.
</event>
<event>
 7    1  0.2031146E-008  0.4614232E+02  0.7816164E-02  0.1320468E+00
        -11   -1    0    0    0    0  0.00000000000E+00  0.00000000000E+00  0.45593999997E+02  0.45594000000E+02  0.51100000000E-03 0.  1.
         11   -1    0    0    0    0 -0.00000000000E+00 -0.00000000000E+00 -0.45593999997E+02  0.45594000000E+02  0.51100000000E-03 0. -1.
    9900012    2    1    2    0    0 -0.12262945381E+02 -0.26909312886E+01 -0.43260750269E+02  0.46142318138E+02  0.10000003436E+02 0.  0.
        -12    1    1    2    0    0  0.12262945381E+02  0.26909312886E+01  0.43260750269E+02  0.45045681862E+02  0.00000000000E+00 0.  1.
         11    1    3    3    0    0 -0.34242974418E+00  0.38323197945E+00 -0.11157009778E+02  0.11168840240E+02  0.51100000000E-03 0. -1.
        -11    1    3    3    0    0 -0.18572508471E+01 -0.26317055435E+01 -0.41048886077E+01  0.52177931657E+01  0.51100000000E-03 0.  1.
         12    1    3    3    0    0 -0.10063264789E+02 -0.44245772451E+00 -0.27998851884E+02  0.29755684732E+02  0.00000000000E+00 0. -1.
</event>
<event>
 7    1  0.2031146E-008  0.4614232E+02  0.7816164E-02  0.1320468E+00
        -11   -1    0    0    0    0  0.00000000000E+00  0.00000000000E+00  0.45593999997E+02  0.45594000000E+02  0.51100000000E-03 0.  1.
         11   -1    0    0    0    0 -0.00000000000E+00 -0.00000000000E+00 -0.45593999997E+02  0.45594000000E+02  0.51100000000E-03 0. -1.
    9900012    2    1    2    0    0  0.19025303978E+02  0.40771933597E+02 -0.21910478708E+01  0.46142318171E+02  0.10000003736E+02 0.  0.
        -12    1    1    2    0    0 -0.19025303978E+02 -0.40771933597E+02  0.21910478708E+01  0.45045681829E+02  0.00000000000E+00 0.  1.
         11    1    3    3    0    0 -0.12868251987E+00 -0.50990977746E-01  0.30148879003E+00  0.33174541801E+00  0.51100000000E-03 0. -1.
        -11    1    3    3    0    0  0.35316305382E+01  0.47185984210E+01  0.19806768936E+01  0.62177702221E+01  0.51100000000E-03 0.  1.
         12    1    3    3    0    0  0.15622355959E+02  0.36104326154E+02 -0.44732135544E+01  0.39592802531E+02  0.00000000000E+00 0. -1.
</event>
<event>
 7    1  0.2031146E-008  0.4614232E+02  0.7816164E-02  0.1320468E+00
        -11   -1    0    0    0    0  0.00000000000E+00  0.00000000000E+00  0.45593999997E+02  0.45594000000E+02  0.51100000000E-03 0. -1.
         11   -1    0    0    0    0 -0.00000000000E+00 -0.00000000000E+00 -0.45593999997E+02  0.45594000000E+02  0.51100000000E-03 0.  1.
    9900012    2    1    2    0    0  0.59173187321E+01  0.25779133306E+02  0.36462789809E+02  0.46142318568E+02  0.10000007360E+02 0.  0.
        -12    1    1    2    0    0 -0.59173187321E+01 -0.25779133306E+02 -0.36462789809E+02  0.45045681432E+02  0.00000000000E+00 0.  1.
         11    1    3    3    0    0  0.36856348874E+01  0.99514959000E+01  0.95946013308E+01  0.14306381448E+02  0.51100000000E-03 0. -1.
        -11    1    3    3    0    0  0.30625326301E+01  0.40563342217E+01  0.10408311737E+02  0.11583000773E+02  0.51100000000E-03 0.  1.
        -12    1    3    3    0    0 -0.83084878540E+00  0.11771303184E+02  0.16459876742E+02  0.20252936348E+02  0.00000000000E+00 0.  1.
</event>
<event>
 7    1  0.2031146E-008  0.4614232E+02  0.7816164E-02  0.1320468E+00
        -11   -1    0    0    0    0  0.00000000000E+00  0.00000000000E+00  0.45593999997E+02  0.45594000000E+02  0.51100000000E-03 0.  1.
         11   -1    0    0    0    0 -0.00000000000E+00 -0.00000000000E+00 -0.45593999997E+02  0.45594000000E+02  0.51100000000E-03 0. -1.
    9900012    2    1    2    0    0  0.24076135296E+02  0.33306460818E+02 -0.18442691892E+02  0.46142317552E+02  0.99999980906E+01 0.  0.
        -12    1    1    2    0    0 -0.24076135296E+02 -0.33306460818E+02  0.18442691892E+02  0.45045682448E+02  0.00000000000E+00 0.  1.
         11    1    3    3    0    0  0.20655693316E+02  0.25950175644E+02 -0.12827251205E+02  0.35561322473E+02  0.51100000000E-03 0. -1.
        -11    1    3    3    0    0  0.38687606194E+01  0.39407922884E+01 -0.35244972536E+01  0.65512772604E+01  0.51100000000E-03 0.  1.
         12    1    3    3    0    0 -0.44831863881E+00  0.34154928853E+01 -0.20909434336E+01  0.40297178182E+01  0.00000000000E+00 0. -1.
</event>
<event>
 7    1  0.2031146E-008  0.4614232E+02  0.7816164E-02  0.1320468E+00
        -11   -1    0    0    0    0  0.00000000000E+00  0.00000000000E+00  0.45593999997E+02  0.45594000000E+02  0.51100000000E-03 0. -1.
         11   -1    0    0    0    0 -0.00000000000E+00 -0.00000000000E+00 -0.45593999997E+02  0.45594000000E+02  0.51100000000E-03 0.  1.
    9900012    2    1    2    0    0  0.31499435567E+02  0.20926495532E+02  0.24474084979E+02  0.46142317722E+02  0.99999996445E+01 0.  0.
        -12    1    1    2    0    0 -0.31499435567E+02 -0.20926495532E+02 -0.24474084979E+02  0.45045682278E+02  0.00000000000E+00 0.  1.
         11    1    3    3    0    0  0.20710236446E+02  0.16036326774E+02  0.16529754058E+02  0.30972737036E+02  0.51100000000E-03 0. -1.
        -11    1    3    3    0    0  0.11264098805E+02  0.40735376291E+01  0.73379757394E+01  0.14047046626E+02  0.51100000000E-03 0.  1.
         12    1    3    3    0    0 -0.47489968305E+00  0.81663112815E+00  0.60635518240E+00  0.11225340599E+01  0.00000000000E+00 0. -1.
</event>
<event>
 7    1  0.2031146E-008  0.4614233E+02  0.7816164E-02  0.1320468E+00
        -11   -1    0    0    0    0  0.00000000000E+00  0.00000000000E+00  0.45593999997E+02  0.45594000000E+02  0.51100000000E-03 0.  1.
         11   -1    0    0    0    0 -0.00000000000E+00 -0.00000000000E+00 -0.45593999997E+02  0.45594000000E+02  0.51100000000E-03 0. -1.
    9900012    2    1    2    0    0  0.66874620175E+01 -0.39900318602E+02 -0.19807959217E+02  0.46142325167E+02  0.10000067534E+02 0.  0.
        -12    1    1    2    0    0 -0.66874620175E+01  0.39900318602E+02  0.19807959217E+02  0.45045674833E+02  0.00000000000E+00 0.  1.
         11    1    3    3    0    0  0.70515531456E+01 -0.23371991192E+02 -0.10738119742E+02  0.26669862952E+02  0.51100000000E-03 0. -1.
        -11    1    3    3    0    0 -0.13632472083E+01 -0.51819342572E+01 -0.51353462817E+01  0.74217698220E+01  0.51100000000E-03 0.  1.
         12    1    3    3    0    0  0.99915608030E+00 -0.11346393153E+02 -0.39344931931E+01  0.12050692393E+02  0.00000000000E+00 0. -1.
</event>
<event>
 7    1  0.2031146E-008  0.4614232E+02  0.7816164E-02  0.1320468E+00
        -11   -1    0    0    0    0  0.00000000000E+00  0.00000000000E+00  0.45593999997E+02  0.45594000000E+02  0.51100000000E-03 0. -1.
         11   -1    0    0    0    0 -0.00000000000E+00 -0.00000000000E+00 -0.45593999997E+02  0.45594000000E+02  0.51100000000E-03 0.  1.
    9900012    2    1    2    0    0  0.13476512545E+02  0.41912707603E+02  0.95300561389E+01  0.46142318531E+02  0.10000007021E+02 0.  0.
        -12    1    1    2    0    0 -0.13476512545E+02 -0.41912707603E+02 -0.95300561389E+01  0.45045681469E+02  0.00000000000E+00 0.  1.
         11    1    3    3    0    0  0.79790363002E+01  0.17920937834E+02  0.84054802076E+01  0.21341910198E+02  0.51100000000E-03 0. -1.
        -11    1    3    3    0    0  0.45313938707E+01  0.13846137215E+02  0.24256580830E+00  0.14570788744E+02  0.51100000000E-03 0.  1.
        -12    1    3    3    0    0  0.96608237422E+00  0.10145632554E+02  0.88201012299E+00  0.10229619588E+02  0.00000000000E+00 0.  1.
</event>
<event>
 7    1  0.2031146E-008  0.4614232E+02  0.7816164E-02  0.1320468E+00
        -11   -1    0    0    0    0  0.00000000000E+00  0.00000000000E+00  0.45593999997E+02  0.45594000000E+02  0.51100000000E-03 0.  1.
         11   -1    0    0    0    0 -0.00000000000E+00 -0.00000000000E+00 -0.45593999997E+02  0.45594000000E+02  0.51100000000E-03 0. -1.
    9900012    2    1    2    0    0 -0.18909890325E+02 -0.25581836827E+02 -0.31891992495E+02  0.46142317489E+02  0.99999975203E+01 0.  0.
        -12    1    1    2    0    0  0.18909890325E+02  0.25581836827E+02  0.31891992495E+02  0.45045682511E+02  0.00000000000E+00 0.  1.
         11    1    3    3    0    0  0.31326896163E+00 -0.24947009554E+01 -0.26475974675E+01  0.36512248507E+01  0.51100000000E-03 0.  1.
        -11    1    3    3    0    0 -0.48916877860E+01 -0.51001621358E+01 -0.32350976089E+01  0.77721374156E+01  0.51100000000E-03 0. -1.
         12    1    3    3    0    0 -0.14331471501E+02 -0.17986973736E+02 -0.26009297419E+02  0.34718955223E+02  0.00000000000E+00 0. -1.
</event>
<event>
 7    1  0.2031146E-008  0.4614231E+02  0.7816164E-02  0.1320468E+00
        -11   -1    0    0    0    0  0.00000000000E+00  0.00000000000E+00  0.45593999997E+02  0.45594000000E+02  0.51100000000E-03 0. -1.
         11   -1    0    0    0    0 -0.00000000000E+00 -0.00000000000E+00 -0.45593999997E+02  0.45594000000E+02  0.51100000000E-03 0.  1.
    9900012    2    1    2    0    0  0.11095110392E+02  0.36067395515E+02  0.24599904281E+02  0.46142314474E+02  0.99999700237E+01 0.  0.
        -12    1    1    2    0    0 -0.11095110392E+02 -0.36067395515E+02 -0.24599904281E+02  0.45045685526E+02  0.00000000000E+00 0.  1.
         11    1    3    3    0    0  0.59996082232E+01  0.17574500901E+02  0.12424447973E+02  0.22343349983E+02  0.51100000000E-03 0. -1.
        -11    1    3    3    0    0  0.50280346712E+00 -0.48861558566E+00  0.12189678008E+01  0.14062145204E+01  0.51100000000E-03 0.  1.
         12    1    3    3    0    0  0.45926987021E+01  0.18981510199E+02  0.10956488508E+02  0.22392749971E+02  0.00000000000E+00 0. -1.
</event>
<event>
 7    1  0.2031146E-008  0.4614232E+02  0.7816164E-02  0.1320468E+00
        -11   -1    0    0    0    0  0.00000000000E+00  0.00000000000E+00  0.45593999997E+02  0.45594000000E+02  0.51100000000E-03 0. -1.
         11   -1    0    0    0    0 -0.00000000000E+00 -0.00000000000E+00 -0.45593999997E+02  0.45594000000E+02  0.51100000000E-03 0.  1.
    9900012    2    1    2    0    0  0.41131732595E+02 -0.47267819831E+01 -0.17746869918E+02  0.46142320007E+02  0.10000020478E+02 0.  0.
        -12    1    1    2    0    0 -0.41131732595E+02  0.47267819831E+01  0.17746869918E+02  0.45045679993E+02  0.00000000000E+00 0.  1.
         11    1    3    3    0    0  0.18006287620E+02 -0.40705692303E+01 -0.52327650565E+01  0.19187958675E+02  0.51100000000E-03 0. -1.
        -11    1    3    3    0    0  0.15347528295E+02 -0.26774719996E+01 -0.10086475155E+02  0.18559430551E+02  0.51100000000E-03 0.  1.
         12    1    3    3    0    0  0.77779166797E+01  0.20212592468E+01 -0.24276297070E+01  0.83949307808E+01  0.00000000000E+00 0. -1.
</event>
<event>
 7    1  0.2031146E-008  0.4614232E+02  0.7816164E-02  0.1320468E+00
        -11   -1    0    0    0    0  0.00000000000E+00  0.00000000000E+00  0.45593999997E+02  0.45594000000E+02  0.51100000000E-03 0.  1.
         11   -1    0    0    0    0 -0.00000000000E+00 -0.00000000000E+00 -0.45593999997E+02  0.45594000000E+02  0.51100000000E-03 0. -1.
    9900012    2    1    2    0    0  0.27246505444E+02 -0.24113281204E+02 -0.26557317574E+02  0.46142317565E+02  0.99999982077E+01 0.  0.
        -12    1    1    2    0    0 -0.27246505444E+02  0.24113281204E+02  0.26557317574E+02  0.45045682435E+02  0.00000000000E+00 0.  1.
         11    1    3    3    0    0  0.38743214810E+01 -0.28333691735E+01 -0.50554446283E+01  0.69710736951E+01  0.51100000000E-03 0. -1.
        -11    1    3    3    0    0  0.12407639334E+01  0.56787825302E-01  0.52941913939E+00  0.13501869803E+01  0.51100000000E-03 0.  1.
         12    1    3    3    0    0  0.22131420029E+02 -0.21336699856E+02 -0.22031292085E+02  0.37821056889E+02  0.00000000000E+00 0. -1.
</event>
<event>
 7    1  0.2031146E-008  0.4614232E+02  0.7816164E-02  0.1320468E+00
        -11   -1    0    0    0    0  0.00000000000E+00  0.00000000000E+00  0.45593999997E+02  0.45594000000E+02  0.51100000000E-03 0.  1.
         11   -1    0    0    0    0 -0.00000000000E+00 -0.00000000000E+00 -0.45593999997E+02  0.45594000000E+02  0.51100000000E-03 0. -1.
    9900012    2    1    2    0    0 -0.44557250144E+02 -0.91192286255E+00  0.65523552793E+01  0.46142317595E+02  0.99999984810E+01 0.  0.
        -12    1    1    2    0    0  0.44557250144E+02  0.91192286255E+00 -0.65523552793E+01  0.45045682405E+02  0.00000000000E+00 0.  1.
         11    1    3    3    0    0 -0.29732315909E+02 -0.37091203360E+01  0.20635011035E+01  0.30033751348E+02  0.51100000000E-03 0. -1.
        -11    1    3    3    0    0 -0.78499271435E+00 -0.29184561839E+00  0.10208450327E+01  0.13204212466E+01  0.51100000000E-03 0.  1.
         12    1    3    3    0    0 -0.14039941520E+02  0.30890430919E+01  0.34680091431E+01  0.14788144999E+02  0.00000000000E+00 0. -1.
</event>
<event>
 7    1  0.2031146E-008  0.4614232E+02  0.7816164E-02  0.1320468E+00
        -11   -1    0    0    0    0  0.00000000000E+00  0.00000000000E+00  0.45593999997E+02  0.45594000000E+02  0.51100000000E-03 0. -1.
         11   -1    0    0    0    0 -0.00000000000E+00 -0.00000000000E+00 -0.45593999997E+02  0.45594000000E+02  0.51100000000E-03 0.  1.
    9900012    2    1    2    0    0 -0.16813490884E+01  0.43655214541E+02  0.10977640882E+02  0.46142319955E+02  0.10000020008E+02 0.  0.
        -12    1    1    2    0    0  0.16813490884E+01 -0.43655214541E+02 -0.10977640882E+02  0.45045680045E+02  0.00000000000E+00 0.  1.
         11    1    3    3    0    0 -0.35804299808E+00  0.16471633495E+02  0.29061094860E+01  0.16729864835E+02  0.51100000000E-03 0. -1.
        -11    1    3    3    0    0 -0.21828636514E+01  0.21186519383E+02  0.29947263773E+01  0.21508181784E+02  0.51100000000E-03 0.  1.
         12    1    3    3    0    0  0.85955756115E+00  0.59970616622E+01  0.50768050189E+01  0.79042733367E+01  0.00000000000E+00 0. -1.
</event>
<event>
 7    1  0.2031146E-008  0.4614232E+02  0.7816164E-02  0.1320468E+00
        -11   -1    0    0    0    0  0.00000000000E+00  0.00000000000E+00  0.45593999997E+02  0.45594000000E+02  0.51100000000E-03 0. -1.
         11   -1    0    0    0    0 -0.00000000000E+00 -0.00000000000E+00 -0.45593999997E+02  0.45594000000E+02  0.51100000000E-03 0.  1.
    9900012    2    1    2    0    0  0.40574346568E+02 -0.49834168719E+01  0.18920920850E+02  0.46142319975E+02  0.10000020190E+02 0.  0.
        -12    1    1    2    0    0 -0.40574346568E+02  0.49834168719E+01 -0.18920920850E+02  0.45045680025E+02  0.00000000000E+00 0.  1.
         11    1    3    3    0    0  0.14996335274E+02 -0.31848287281E+01  0.91183687700E+01  0.17837540609E+02  0.51100000000E-03 0. -1.
        -11    1    3    3    0    0  0.95849800793E+01 -0.58981509164E-01  0.72453865051E+01  0.12015446218E+02  0.51100000000E-03 0.  1.
        -12    1    3    3    0    0  0.15993031214E+02 -0.17396066346E+01  0.25571655745E+01  0.16289333149E+02  0.00000000000E+00 0.  1.
</event>
<event>
 7    1  0.2031146E-008  0.4614232E+02  0.7816164E-02  0.1320468E+00
        -11   -1    0    0    0    0  0.00000000000E+00  0.00000000000E+00  0.45593999997E+02  0.45594000000E+02  0.51100000000E-03 0.  1.
         11   -1    0    0    0    0 -0.00000000000E+00 -0.00000000000E+00 -0.45593999997E+02  0.45594000000E+02  0.51100000000E-03 0. -1.
    9900012    2    1    2    0    0 -0.39052090822E+02  0.22354771874E+02  0.20764571357E+01  0.46142319882E+02  0.10000019335E+02 0.  0.
        -12    1    1    2    0    0  0.39052090822E+02 -0.22354771874E+02 -0.20764571357E+01  0.45045680118E+02  0.00000000000E+00 0.  1.
         11    1    3    3    0    0 -0.28341287607E+02  0.14902763281E+02  0.20428465640E+01  0.32085731393E+02  0.51100000000E-03 0. -1.
        -11    1    3    3    0    0 -0.59263042008E+01  0.68142525245E+01  0.11461103133E+01  0.91032240475E+01  0.51100000000E-03 0.  1.
        -12    1    3    3    0    0 -0.47844990135E+01  0.63775606880E+00 -0.11124997416E+01  0.49533644413E+01  0.00000000000E+00 0.  1.
</event>
<event>
 7    1  0.2031146E-008  0.4614232E+02  0.7816164E-02  0.1320468E+00
        -11   -1    0    0    0    0  0.00000000000E+00  0.00000000000E+00  0.45593999997E+02  0.45594000000E+02  0.51100000000E-03 0.  1.
         11   -1    0    0    0    0 -0.00000000000E+00 -0.00000000000E+00 -0.45593999997E+02  0.45594000000E+02  0.51100000000E-03 0. -1.
    9900012    2    1    2    0    0  0.47476541855E+00 -0.44007347337E+02  0.96042417756E+01  0.46142317833E+02  0.10000000656E+02 0.  0.
        -12    1    1    2    0    0 -0.47476541855E+00  0.44007347337E+02 -0.96042417756E+01  0.45045682167E+02  0.00000000000E+00 0.  1.
         11    1    3    3    0    0 -0.40293138997E+00 -0.86456637136E+01  0.41561263076E+01  0.96012103872E+01  0.51100000000E-03 0. -1.
        -11    1    3    3    0    0 -0.40294248819E+00 -0.27818721284E+02  0.71013270469E+01  0.28713628517E+02  0.51100000000E-03 0.  1.
        -12    1    3    3    0    0  0.12806392967E+01 -0.75429623393E+01 -0.16532115790E+01  0.78274789291E+01  0.00000000000E+00 0.  1.
</event>
<event>
 7    1  0.2031146E-008  0.4614232E+02  0.7816164E-02  0.1320468E+00
        -11   -1    0    0    0    0  0.00000000000E+00  0.00000000000E+00  0.45593999997E+02  0.45594000000E+02  0.51100000000E-03 0.  1.
         11   -1    0    0    0    0 -0.00000000000E+00 -0.00000000000E+00 -0.45593999997E+02  0.45594000000E+02  0.51100000000E-03 0. -1.
    9900012    2    1    2    0    0  0.14242474220E+02  0.26915261044E+02 -0.33193887144E+02  0.46142317713E+02  0.99999995600E+01 0.  0.
        -12    1    1    2    0    0 -0.14242474220E+02 -0.26915261044E+02  0.33193887144E+02  0.45045682287E+02  0.00000000000E+00 0.  1.
         11    1    3    3    0    0  0.34152859234E+00  0.51647939128E+01 -0.97631516434E+01  0.11050378646E+02  0.51100000000E-03 0.  1.
        -11    1    3    3    0    0  0.98873655657E+01  0.18411196770E+02 -0.18485957659E+02  0.27900946134E+02  0.51100000000E-03 0. -1.
        -12    1    3    3    0    0  0.40135800624E+01  0.33392703609E+01 -0.49447778418E+01  0.71909929331E+01  0.00000000000E+00 0.  1.
</event>
<event>
 7    1  0.2031146E-008  0.4614232E+02  0.7816164E-02  0.1320468E+00
        -11   -1    0    0    0    0  0.00000000000E+00  0.00000000000E+00  0.45593999997E+02  0.45594000000E+02  0.51100000000E-03 0.  1.
         11   -1    0    0    0    0 -0.00000000000E+00 -0.00000000000E+00 -0.45593999997E+02  0.45594000000E+02  0.51100000000E-03 0. -1.
    9900012    2    1    2    0    0 -0.38892341748E+02  0.21168944236E+02 -0.82689209750E+01  0.46142317623E+02  0.99999987400E+01 0.  0.
        -12    1    1    2    0    0  0.38892341748E+02 -0.21168944236E+02  0.82689209750E+01  0.45045682377E+02  0.00000000000E+00 0.  1.
         11    1    3    3    0    0 -0.20474470720E+02  0.80802781925E+01 -0.56953304570E+01  0.22736130634E+02  0.51100000000E-03 0. -1.
        -11    1    3    3    0    0 -0.13232799281E+02  0.86958940694E+01 -0.42739875399E+01  0.16400991441E+02  0.51100000000E-03 0.  1.
        -12    1    3    3    0    0 -0.51850717467E+01  0.43927719739E+01  0.17003970219E+01  0.70051955480E+01  0.00000000000E+00 0.  1.
</event>
<event>
 7    1  0.2031146E-008  0.4614232E+02  0.7816164E-02  0.1320468E+00
        -11   -1    0    0    0    0  0.00000000000E+00  0.00000000000E+00  0.45593999997E+02  0.45594000000E+02  0.51100000000E-03 0. -1.
         11   -1    0    0    0    0 -0.00000000000E+00 -0.00000000000E+00 -0.45593999997E+02  0.45594000000E+02  0.51100000000E-03 0.  1.
    9900012    2    1    2    0    0 -0.18658990540E+02 -0.15099708710E+02  0.38117639942E+02  0.46142316458E+02  0.99999881128E+01 0.  0.
        -12    1    1    2    0    0  0.18658990540E+02  0.15099708710E+02 -0.38117639942E+02  0.45045683542E+02  0.00000000000E+00 0.  1.
         11    1    3    3    0    0 -0.67163276481E+01 -0.49902900139E+01  0.62058305975E+01  0.10417503788E+02  0.51100000000E-03 0.  1.
        -11    1    3    3    0    0 -0.34588935286E+01 -0.13025627797E+01  0.95056854205E+01  0.10198954349E+02  0.51100000000E-03 0. -1.
         12    1    3    3    0    0 -0.84837693630E+01 -0.88068559159E+01  0.22406123924E+02  0.25525858321E+02  0.00000000000E+00 0. -1.
</event>
<event>
 7    1  0.2031146E-008  0.4614232E+02  0.7816164E-02  0.1320468E+00
        -11   -1    0    0    0    0  0.00000000000E+00  0.00000000000E+00  0.45593999997E+02  0.45594000000E+02  0.51100000000E-03 0.  1.
         11   -1    0    0    0    0 -0.00000000000E+00 -0.00000000000E+00 -0.45593999997E+02  0.45594000000E+02  0.51100000000E-03 0. -1.
    9900012    2    1    2    0    0  0.24310913251E+02 -0.24486987290E+02 -0.28956521061E+02  0.46142321388E+02  0.10000033072E+02 0.  0.
        -12    1    1    2    0    0 -0.24310913251E+02  0.24486987290E+02  0.28956521061E+02  0.45045678612E+02  0.00000000000E+00 0.  1.
         11    1    3    3    0    0  0.76128906427E+01 -0.10207784364E+02 -0.95279048822E+01  0.15903959798E+02  0.51100000000E-03 0. -1.
        -11    1    3    3    0    0  0.65527387922E+01 -0.46373538304E+01 -0.11875404557E+02  0.14334178382E+02  0.51100000000E-03 0.  1.
         12    1    3    3    0    0  0.10145283816E+02 -0.96418490964E+01 -0.75532116213E+01  0.15904183208E+02  0.00000000000E+00 0. -1.
</event>
<event>
 7    1  0.2031146E-008  0.4614232E+02  0.7816164E-02  0.1320468E+00
        -11   -1    0    0    0    0  0.00000000000E+00  0.00000000000E+00  0.45593999997E+02  0.45594000000E+02  0.51100000000E-03 0.  1.
         11   -1    0    0    0    0 -0.00000000000E+00 -0.00000000000E+00 -0.45593999997E+02  0.45594000000E+02  0.51100000000E-03 0. -1.
    9900012    2    1    2    0    0  0.37664898712E+02 -0.44054992879E+00 -0.24703740120E+02  0.46142318130E+02  0.10000003363E+02 0.  0.
        -12    1    1    2    0    0 -0.37664898712E+02  0.44054992879E+00  0.24703740120E+02  0.45045681870E+02  0.00000000000E+00 0.  1.
         11    1    3    3    0    0  0.42242936644E+00  0.14501213018E+00 -0.10821307562E+01  0.11706760108E+01  0.51100000000E-03 0. -1.
        -11    1    3    3    0    0  0.15897155176E+02  0.56906365394E+00 -0.15181861005E+02  0.21989367430E+02  0.51100000000E-03 0.  1.
         12    1    3    3    0    0  0.21345314170E+02 -0.11546257129E+01 -0.84397483590E+01  0.22982274689E+02  0.00000000000E+00 0. -1.
</event>
<event>
 7    1  0.2031146E-008  0.4614232E+02  0.7816164E-02  0.1320468E+00
        -11   -1    0    0    0    0  0.00000000000E+00  0.00000000000E+00  0.45593999997E+02  0.45594000000E+02  0.51100000000E-03 0. -1.
         11   -1    0    0    0    0 -0.00000000000E+00 -0.00000000000E+00 -0.45593999997E+02  0.45594000000E+02  0.51100000000E-03 0.  1.
    9900012    2    1    2    0    0 -0.20518876352E+02 -0.25727043949E+02  0.30760500656E+02  0.46142317880E+02  0.10000001080E+02 0.  0.
        -12    1    1    2    0    0  0.20518876352E+02  0.25727043949E+02 -0.30760500656E+02  0.45045682120E+02  0.00000000000E+00 0.  1.
         11    1    3    3    0    0 -0.22537961740E+01 -0.38642687881E+01  0.80480186611E+01  0.92077562463E+01  0.51100000000E-03 0. -1.
        -11    1    3    3    0    0 -0.51752634932E+01 -0.56556442077E+01  0.29345807334E+01  0.82086191269E+01  0.51100000000E-03 0.  1.
         12    1    3    3    0    0 -0.13089816685E+02 -0.16207130953E+02  0.19777901261E+02  0.28725942506E+02  0.00000000000E+00 0. -1.
</event>
<event>
 7    1  0.2031146E-008  0.4614232E+02  0.7816164E-02  0.1320468E+00
        -11   -1    0    0    0    0  0.00000000000E+00  0.00000000000E+00  0.45593999997E+02  0.45594000000E+02  0.51100000000E-03 0.  1.
         11   -1    0    0    0    0 -0.00000000000E+00 -0.00000000000E+00 -0.45593999997E+02  0.45594000000E+02  0.51100000000E-03 0. -1.
    9900012    2    1    2    0    0 -0.32669936024E+02 -0.27419487232E+02 -0.14490005455E+02  0.46142320319E+02  0.10000023324E+02 0.  0.
        -12    1    1    2    0    0  0.32669936024E+02  0.27419487232E+02  0.14490005455E+02  0.45045679681E+02  0.00000000000E+00 0.  1.
         11    1    3    3    0    0 -0.20320448790E+02 -0.12872730318E+02 -0.65194252708E+01  0.24922494478E+02  0.51100000000E-03 0. -1.
        -11    1    3    3    0    0 -0.28095549254E+01 -0.42379656497E+01 -0.29628140234E-01  0.50847644797E+01  0.51100000000E-03 0.  1.
         12    1    3    3    0    0 -0.95399323084E+01 -0.10308791263E+02 -0.79409520437E+01  0.16135061361E+02  0.00000000000E+00 0. -1.
</event>
<event>
 7    1  0.2031146E-008  0.4614232E+02  0.7816164E-02  0.1320468E+00
        -11   -1    0    0    0    0  0.00000000000E+00  0.00000000000E+00  0.45593999997E+02  0.45594000000E+02  0.51100000000E-03 0.  1.
         11   -1    0    0    0    0 -0.00000000000E+00 -0.00000000000E+00 -0.45593999997E+02  0.45594000000E+02  0.51100000000E-03 0. -1.
    9900012    2    1    2    0    0  0.37723738230E+02 -0.19605591615E+02 -0.14888043041E+02  0.46142317918E+02  0.10000001432E+02 0.  0.
        -12    1    1    2    0    0 -0.37723738230E+02  0.19605591615E+02  0.14888043041E+02  0.45045682082E+02  0.00000000000E+00 0.  1.
         11    1    3    3    0    0  0.91766172660E+01 -0.67261143365E+01 -0.40463835610E+01  0.12075766588E+02  0.51100000000E-03 0. -1.
        -11    1    3    3    0    0  0.23879690154E+02 -0.99024325974E+01 -0.56175151574E+01  0.26454758551E+02  0.51100000000E-03 0.  1.
        -12    1    3    3    0    0  0.46674308106E+01 -0.29770446809E+01 -0.52241443227E+01  0.76117927788E+01  0.00000000000E+00 0.  1.
</event>
<event>
 7    1  0.2031146E-008  0.4614232E+02  0.7816164E-02  0.1320468E+00
        -11   -1    0    0    0    0  0.00000000000E+00  0.00000000000E+00  0.45593999997E+02  0.45594000000E+02  0.51100000000E-03 0. -1.
         11   -1    0    0    0    0 -0.00000000000E+00 -0.00000000000E+00 -0.45593999997E+02  0.45594000000E+02  0.51100000000E-03 0.  1.
    9900012    2    1    2    0    0 -0.32161137474E+02 -0.31202077937E+02  0.46048977694E+01  0.46142317469E+02  0.99999973385E+01 0.  0.
        -12    1    1    2    0    0  0.32161137474E+02  0.31202077937E+02 -0.46048977694E+01  0.45045682531E+02  0.00000000000E+00 0.  1.
         11    1    3    3    0    0 -0.12703547692E+02 -0.13374593738E+02 -0.16436983420E+01  0.18519223151E+02  0.51100000000E-03 0. -1.
        -11    1    3    3    0    0 -0.54908104893E+01 -0.40244928847E+01 -0.58168558344E+00  0.68325618320E+01  0.51100000000E-03 0.  1.
        -12    1    3    3    0    0 -0.13966779293E+02 -0.13802991314E+02  0.68302816948E+01  0.20790532486E+02  0.00000000000E+00 0.  1.
</event>
<event>
 7    1  0.2031146E-008  0.4614231E+02  0.7816164E-02  0.1320468E+00
        -11   -1    0    0    0    0  0.00000000000E+00  0.00000000000E+00  0.45593999997E+02  0.45594000000E+02  0.51100000000E-03 0. -1.
         11   -1    0    0    0    0 -0.00000000000E+00 -0.00000000000E+00 -0.45593999997E+02  0.45594000000E+02  0.51100000000E-03 0.  1.
    9900012    2    1    2    0    0 -0.39012228706E+02 -0.10099917066E+02  0.20128374120E+02  0.46142314768E+02  0.99999727049E+01 0.  0.
        -12    1    1    2    0    0  0.39012228706E+02  0.10099917066E+02 -0.20128374120E+02  0.45045685232E+02  0.00000000000E+00 0.  1.
         11    1    3    3    0    0 -0.34526337836E+01  0.52551206215E+00  0.14629934023E+01  0.37864485903E+01  0.51100000000E-03 0. -1.
        -11    1    3    3    0    0 -0.26670869803E+02 -0.53800560990E+01  0.16467442759E+02  0.31803411310E+02  0.51100000000E-03 0.  1.
        -12    1    3    3    0    0 -0.88887251196E+01 -0.52453730291E+01  0.21979379584E+01  0.10552454868E+02  0.00000000000E+00 0.  1.
</event>
<event>
 7    1  0.2031146E-008  0.4614232E+02  0.7816164E-02  0.1320468E+00
        -11   -1    0    0    0    0  0.00000000000E+00  0.00000000000E+00  0.45593999997E+02  0.45594000000E+02  0.51100000000E-03 0.  1.
         11   -1    0    0    0    0 -0.00000000000E+00 -0.00000000000E+00 -0.45593999997E+02  0.45594000000E+02  0.51100000000E-03 0. -1.
    9900012    2    1    2    0    0 -0.27128900374E+02  0.35341003091E+02  0.66445263680E+01  0.46142318013E+02  0.10000002300E+02 0.  0.
        -12    1    1    2    0    0  0.27128900374E+02 -0.35341003091E+02 -0.66445263680E+01  0.45045681987E+02  0.00000000000E+00 0.  1.
         11    1    3    3    0    0 -0.21316767380E+02  0.26413518674E+02  0.56399989336E+01  0.34407675430E+02  0.51100000000E-03 0. -1.
        -11    1    3    3    0    0 -0.10858957554E+01  0.46616088678E+01  0.21814163703E+01  0.52600707666E+01  0.51100000000E-03 0.  1.
        -12    1    3    3    0    0 -0.47262372393E+01  0.42658755490E+01 -0.11768889359E+01  0.64745718166E+01  0.00000000000E+00 0.  1.
</event>
<event>
 7    1  0.2031146E-008  0.4614232E+02  0.7816164E-02  0.1320468E+00
        -11   -1    0    0    0    0  0.00000000000E+00  0.00000000000E+00  0.45593999997E+02  0.45594000000E+02  0.51100000000E-03 0. -1.
         11   -1    0    0    0    0 -0.00000000000E+00 -0.00000000000E+00 -0.45593999997E+02  0.45594000000E+02  0.51100000000E-03 0.  1.
    9900012    2    1    2    0    0  0.37105134000E+02 -0.15575484010E+02 -0.20241711086E+02  0.46142317199E+02  0.99999948741E+01 0.  0.
        -12    1    1    2    0    0 -0.37105134000E+02  0.15575484010E+02  0.20241711086E+02  0.45045682801E+02  0.00000000000E+00 0.  1.
         11    1    3    3    0    0  0.10753545621E+02 -0.33289101246E+01 -0.43728118131E+01  0.12076500712E+02  0.51100000000E-03 0. -1.
        -11    1    3    3    0    0  0.41562139846E+01  0.10095829939E+01 -0.26232448602E+01  0.50174481925E+01  0.51100000000E-03 0.  1.
         12    1    3    3    0    0  0.22195374394E+02 -0.13256156880E+02 -0.13245654413E+02  0.29048368294E+02  0.00000000000E+00 0. -1.
</event>
<event>
 7    1  0.2031146E-008  0.4614232E+02  0.7816164E-02  0.1320468E+00
        -11   -1    0    0    0    0  0.00000000000E+00  0.00000000000E+00  0.45593999997E+02  0.45594000000E+02  0.51100000000E-03 0. -1.
         11   -1    0    0    0    0 -0.00000000000E+00 -0.00000000000E+00 -0.45593999997E+02  0.45594000000E+02  0.51100000000E-03 0.  1.
    9900012    2    1    2    0    0  0.15635306104E+01 -0.44988827130E+02  0.16353556920E+01  0.46142316713E+02  0.99999904466E+01 0.  0.
        -12    1    1    2    0    0 -0.15635306104E+01  0.44988827130E+02 -0.16353556920E+01  0.45045683287E+02  0.00000000000E+00 0.  1.
         11    1    3    3    0    0  0.15258520791E+01 -0.57763962946E+01  0.97614104868E+00  0.60537451489E+01  0.51100000000E-03 0. -1.
        -11    1    3    3    0    0  0.68996763430E+00 -0.31255623070E+02 -0.27989372134E+01  0.31388279319E+02  0.51100000000E-03 0.  1.
         12    1    3    3    0    0 -0.65228910301E+00 -0.79568077654E+01  0.34581518568E+01  0.87002922453E+01  0.00000000000E+00 0. -1.
</event>
<event>
 7    1  0.2031146E-008  0.4614232E+02  0.7816164E-02  0.1320468E+00
        -11   -1    0    0    0    0  0.00000000000E+00  0.00000000000E+00  0.45593999997E+02  0.45594000000E+02  0.51100000000E-03 0.  1.
         11   -1    0    0    0    0 -0.00000000000E+00 -0.00000000000E+00 -0.45593999997E+02  0.45594000000E+02  0.51100000000E-03 0. -1.
    9900012    2    1    2    0    0  0.13652223880E+02 -0.12611494359E+00 -0.42926848793E+02  0.46142317975E+02  0.10000001950E+02 0.  0.
        -12    1    1    2    0    0 -0.13652223880E+02  0.12611494359E+00  0.42926848793E+02  0.45045682025E+02  0.00000000000E+00 0.  1.
         11    1    3    3    0    0  0.83400796536E+01  0.28168807082E+00 -0.20528033004E+02  0.22159341508E+02  0.51100000000E-03 0. -1.
        -11    1    3    3    0    0  0.60339916407E+01 -0.23531568083E+01 -0.17643783785E+02  0.18794933057E+02  0.51100000000E-03 0.  1.
         12    1    3    3    0    0 -0.72184741431E+00  0.19453537938E+01 -0.47550320034E+01  0.51880434102E+01  0.00000000000E+00 0. -1.
</event>
<event>
 7    1  0.2031146E-008  0.4614232E+02  0.7816164E-02  0.1320468E+00
        -11   -1    0    0    0    0  0.00000000000E+00  0.00000000000E+00  0.45593999997E+02  0.45594000000E+02  0.51100000000E-03 0.  1.
         11   -1    0    0    0    0 -0.00000000000E+00 -0.00000000000E+00 -0.45593999997E+02  0.45594000000E+02  0.51100000000E-03 0. -1.
    9900012    2    1    2    0    0  0.10150895839E+02 -0.16429423903E+02 -0.40695785617E+02  0.46142316266E+02  0.99999863653E+01 0.  0.
        -12    1    1    2    0    0 -0.10150895839E+02  0.16429423903E+02  0.40695785617E+02  0.45045683734E+02  0.00000000000E+00 0.  1.
         11    1    3    3    0    0 -0.88893071557E-01 -0.48576927923E+01 -0.11330305302E+02  0.12328053364E+02  0.51100000000E-03 0. -1.
        -11    1    3    3    0    0  0.51604352686E+01 -0.10301257151E+02 -0.19705402016E+02  0.22826494692E+02  0.51100000000E-03 0.  1.
        -12    1    3    3    0    0  0.50793536423E+01 -0.12704739598E+01 -0.96600782991E+01  0.10987768211E+02  0.00000000000E+00 0.  1.
</event>
<event>
 7    1  0.2031146E-008  0.4614232E+02  0.7816164E-02  0.1320468E+00
        -11   -1    0    0    0    0  0.00000000000E+00  0.00000000000E+00  0.45593999997E+02  0.45594000000E+02  0.51100000000E-03 0.  1.
         11   -1    0    0    0    0 -0.00000000000E+00 -0.00000000000E+00 -0.45593999997E+02  0.45594000000E+02  0.51100000000E-03 0. -1.
    9900012    2    1    2    0    0 -0.28946736569E+02  0.24154852297E+02 -0.24652437255E+02  0.46142321960E+02  0.10000038290E+02 0.  0.
        -12    1    1    2    0    0  0.28946736569E+02 -0.24154852297E+02  0.24652437255E+02  0.45045678040E+02  0.00000000000E+00 0.  1.
         11    1    3    3    0    0 -0.90309775448E+01  0.10118307461E+02 -0.10407683229E+02  0.17095571700E+02  0.51100000000E-03 0. -1.
        -11    1    3    3    0    0 -0.15148403056E+02  0.96777182139E+01 -0.68724486145E+01  0.19244814761E+02  0.51100000000E-03 0.  1.
        -12    1    3    3    0    0 -0.47673559682E+01  0.43588266215E+01 -0.73723054115E+01  0.98019354989E+01  0.00000000000E+00 0.  1.
</event>
<event>
 7    1  0.2031146E-008  0.4614232E+02  0.7816164E-02  0.1320468E+00
        -11   -1    0    0    0    0  0.00000000000E+00  0.00000000000E+00  0.45593999997E+02  0.45594000000E+02  0.51100000000E-03 0. -1.
         11   -1    0    0    0    0 -0.00000000000E+00 -0.00000000000E+00 -0.45593999997E+02  0.45594000000E+02  0.51100000000E-03 0.  1.
    9900012    2    1    2    0    0 -0.51069789540E+01 -0.36423643936E+02  0.26006737333E+02  0.46142318095E+02  0.10000003041E+02 0.  0.
        -12    1    1    2    0    0  0.51069789540E+01  0.36423643936E+02 -0.26006737333E+02  0.45045681905E+02  0.00000000000E+00 0.  1.
         11    1    3    3    0    0 -0.83376544516E+00 -0.15333528618E+02  0.10630793954E+02  0.18676885314E+02  0.51100000000E-03 0. -1.
        -11    1    3    3    0    0  0.20451365147E+01 -0.67425854950E+01  0.40722132051E+01  0.81380564737E+01  0.51100000000E-03 0.  1.
         12    1    3    3    0    0 -0.63183500236E+01 -0.14347529823E+02  0.11303730174E+02  0.19327376307E+02  0.00000000000E+00 0. -1.
</event>
<event>
 7    1  0.2031146E-008  0.4614232E+02  0.7816164E-02  0.1320468E+00
        -11   -1    0    0    0    0  0.00000000000E+00  0.00000000000E+00  0.45593999997E+02  0.45594000000E+02  0.51100000000E-03 0. -1.
         11   -1    0    0    0    0 -0.00000000000E+00 -0.00000000000E+00 -0.45593999997E+02  0.45594000000E+02  0.51100000000E-03 0.  1.
    9900012    2    1    2    0    0  0.38736720911E+01 -0.44452480147E+02 -0.61713155544E+01  0.46142318050E+02  0.10000002635E+02 0.  0.
        -12    1    1    2    0    0 -0.38736720911E+01  0.44452480147E+02  0.61713155544E+01  0.45045681950E+02  0.00000000000E+00 0.  1.
         11    1    3    3    0    0  0.11284021948E+01 -0.25450152426E+02 -0.50009073940E+01  0.25961367935E+02  0.51100000000E-03 0. -1.
        -11    1    3    3    0    0  0.33613166385E+01 -0.78163820422E+01 -0.25768091044E+01  0.88901194140E+01  0.51100000000E-03 0.  1.
        -12    1    3    3    0    0 -0.61604674219E+00 -0.11185945679E+02  0.14064009440E+01  0.11290830701E+02  0.00000000000E+00 0.  1.
</event>
<event>
 7    1  0.2031146E-008  0.4614232E+02  0.7816164E-02  0.1320468E+00
        -11   -1    0    0    0    0  0.00000000000E+00  0.00000000000E+00  0.45593999997E+02  0.45594000000E+02  0.51100000000E-03 0. -1.
         11   -1    0    0    0    0 -0.00000000000E+00 -0.00000000000E+00 -0.45593999997E+02  0.45594000000E+02  0.51100000000E-03 0.  1.
    9900012    2    1    2    0    0  0.43618643158E+02  0.86821669049E+01  0.71517455603E+01  0.46142317435E+02  0.99999970305E+01 0.  0.
        -12    1    1    2    0    0 -0.43618643158E+02 -0.86821669049E+01 -0.71517455603E+01  0.45045682565E+02  0.00000000000E+00 0.  1.
         11    1    3    3    0    0  0.35586800314E+02  0.64814436734E+01  0.31150525565E+01  0.36306101710E+02  0.51100000000E-03 0. -1.
        -11    1    3    3    0    0  0.85423371410E+00  0.15285881934E+01  0.97248445480E+00  0.20030035894E+01  0.51100000000E-03 0.  1.
         12    1    3    3    0    0  0.71776091299E+01  0.67213503807E+00  0.30642085491E+01  0.78332121357E+01  0.00000000000E+00 0. -1.
</event>
<event>
 7    1  0.2031146E-008  0.4614232E+02  0.7816164E-02  0.1320468E+00
        -11   -1    0    0    0    0  0.00000000000E+00  0.00000000000E+00  0.45593999997E+02  0.45594000000E+02  0.51100000000E-03 0.  1.
         11   -1    0    0    0    0 -0.00000000000E+00 -0.00000000000E+00 -0.45593999997E+02  0.45594000000E+02  0.51100000000E-03 0. -1.
    9900012    2    1    2    0    0 -0.25461866713E+02 -0.12954682435E+02 -0.34827907042E+02  0.46142316939E+02  0.99999925050E+01 0.  0.
        -12    1    1    2    0    0  0.25461866713E+02  0.12954682435E+02  0.34827907042E+02  0.45045683061E+02  0.00000000000E+00 0.  1.
         11    1    3    3    0    0 -0.10642336707E+02 -0.29836522779E+01 -0.13608479922E+02  0.17531464215E+02  0.51100000000E-03 0.  1.
        -11    1    3    3    0    0 -0.54915316302E+01 -0.59077594159E+01 -0.50810092831E+01  0.95328482919E+01  0.51100000000E-03 0. -1.
         12    1    3    3    0    0 -0.93279983765E+01 -0.40632707410E+01 -0.16138417837E+02  0.19078004432E+02  0.00000000000E+00 0. -1.
</event>
<event>
 7    1  0.2031146E-008  0.4614232E+02  0.7816164E-02  0.1320468E+00
        -11   -1    0    0    0    0  0.00000000000E+00  0.00000000000E+00  0.45593999997E+02  0.45594000000E+02  0.51100000000E-03 0. -1.
         11   -1    0    0    0    0 -0.00000000000E+00 -0.00000000000E+00 -0.45593999997E+02  0.45594000000E+02  0.51100000000E-03 0.  1.
    9900012    2    1    2    0    0 -0.28633467658E+02  0.32699394680E+02  0.11831635334E+02  0.46142317885E+02  0.10000001130E+02 0.  0.
        -12    1    1    2    0    0  0.28633467658E+02 -0.32699394680E+02 -0.11831635334E+02  0.45045682115E+02  0.00000000000E+00 0.  1.
         11    1    3    3    0    0 -0.78637746939E+01  0.10704159990E+02  0.63369094876E+01  0.14716467499E+02  0.51100000000E-03 0. -1.
        -11    1    3    3    0    0 -0.11727564751E+02  0.11673947061E+02  0.62373363712E+01  0.17683924346E+02  0.51100000000E-03 0.  1.
        -12    1    3    3    0    0 -0.90421282123E+01  0.10321287628E+02 -0.74261052463E+00  0.13741926041E+02  0.00000000000E+00 0.  1.
</event>
<event>
 7    1  0.2031146E-008  0.4614232E+02  0.7816164E-02  0.1320468E+00
        -11   -1    0    0    0    0  0.00000000000E+00  0.00000000000E+00  0.45593999997E+02  0.45594000000E+02  0.51100000000E-03 0.  1.
         11   -1    0    0    0    0 -0.00000000000E+00 -0.00000000000E+00 -0.45593999997E+02  0.45594000000E+02  0.51100000000E-03 0. -1.
    9900012    2    1    2    0    0  0.67925381269E+01  0.28501787465E+02 -0.34214370142E+02  0.46142316665E+02  0.99999900028E+01 0.  0.
        -12    1    1    2    0    0 -0.67925381269E+01 -0.28501787465E+02  0.34214370142E+02  0.45045683335E+02  0.00000000000E+00 0.  1.
         11    1    3    3    0    0  0.26556930605E+01  0.39849062400E+01 -0.40291596802E+01  0.62582993986E+01  0.51100000000E-03 0. -1.
        -11    1    3    3    0    0 -0.19634166475E+01  0.95465561157E+01 -0.92804268695E+01  0.13458011062E+02  0.51100000000E-03 0.  1.
         12    1    3    3    0    0  0.61002617140E+01  0.14970325110E+02 -0.20904783592E+02  0.26426006204E+02  0.00000000000E+00 0. -1.
</event>
<event>
 7    1  0.2031146E-008  0.4614232E+02  0.7816164E-02  0.1320468E+00
        -11   -1    0    0    0    0  0.00000000000E+00  0.00000000000E+00  0.45593999997E+02  0.45594000000E+02  0.51100000000E-03 0.  1.
         11   -1    0    0    0    0 -0.00000000000E+00 -0.00000000000E+00 -0.45593999997E+02  0.45594000000E+02  0.51100000000E-03 0. -1.
    9900012    2    1    2    0    0  0.21330514454E+02  0.15952427452E+02 -0.36326886366E+02  0.46142318059E+02  0.10000002716E+02 0.  0.
        -12    1    1    2    0    0 -0.21330514454E+02 -0.15952427452E+02  0.36326886366E+02  0.45045681941E+02  0.00000000000E+00 0.  1.
         11    1    3    3    0    0  0.44463529233E+01  0.44862374707E+01 -0.11720053384E+02  0.13313753511E+02  0.51100000000E-03 0. -1.
        -11    1    3    3    0    0  0.16062439827E+02  0.75882563759E+01 -0.19949762802E+02  0.26712855410E+02  0.51100000000E-03 0.  1.
        -12    1    3    3    0    0  0.82172170408E+00  0.38779336053E+01 -0.46570701797E+01  0.61157091383E+01  0.00000000000E+00 0.  1.
</event>
<event>
 7    1  0.2031146E-008  0.4614232E+02  0.7816164E-02  0.1320468E+00
        -11   -1    0    0    0    0  0.00000000000E+00  0.00000000000E+00  0.45593999997E+02  0.45594000000E+02  0.51100000000E-03 0. -1.
         11   -1    0    0    0    0 -0.00000000000E+00 -0.00000000000E+00 -0.45593999997E+02  0.45594000000E+02  0.51100000000E-03 0.  1.
    9900012    2    1    2    0    0 -0.55932531991E+01  0.24580686684E+02  0.37331204627E+02  0.46142317875E+02  0.10000001042E+02 0.  0.
        -12    1    1    2    0    0  0.55932531991E+01 -0.24580686684E+02 -0.37331204627E+02  0.45045682125E+02  0.00000000000E+00 0.  1.
         11    1    3    3    0    0 -0.64663314490E+01  0.13039892223E+02  0.16794889764E+02  0.22224323478E+02  0.51100000000E-03 0. -1.
        -11    1    3    3    0    0  0.10683543803E+01  0.75225889461E+01  0.94586871384E+01  0.12132497195E+02  0.51100000000E-03 0.  1.
        -12    1    3    3    0    0 -0.19527613036E+00  0.40182055148E+01  0.11077627724E+02  0.11785497203E+02  0.00000000000E+00 0.  1.
</event>
<event>
 7    1  0.2031146E-008  0.4614232E+02  0.7816164E-02  0.1320468E+00
        -11   -1    0    0    0    0  0.00000000000E+00  0.00000000000E+00  0.45593999997E+02  0.45594000000E+02  0.51100000000E-03 0.  1.
         11   -1    0    0    0    0 -0.00000000000E+00 -0.00000000000E+00 -0.45593999997E+02  0.45594000000E+02  0.51100000000E-03 0. -1.
    9900012    2    1    2    0    0 -0.21071029608E+02  0.23292004192E+02 -0.32289437072E+02  0.46142317694E+02  0.99999993837E+01 0.  0.
        -12    1    1    2    0    0  0.21071029608E+02 -0.23292004192E+02  0.32289437072E+02  0.45045682306E+02  0.00000000000E+00 0.  1.
         11    1    3    3    0    0 -0.41968602328E+01  0.24497300328E+01 -0.44368643949E+01  0.65803175430E+01  0.51100000000E-03 0. -1.
        -11    1    3    3    0    0 -0.95228130162E+01  0.53371812304E+01 -0.11561255985E+02  0.15900695313E+02  0.51100000000E-03 0.  1.
         12    1    3    3    0    0 -0.73513563595E+01  0.15505092929E+02 -0.16291316692E+02  0.23661304837E+02  0.00000000000E+00 0. -1.
</event>
<event>
 7    1  0.2031146E-008  0.4614232E+02  0.7816164E-02  0.1320468E+00
        -11   -1    0    0    0    0  0.00000000000E+00  0.00000000000E+00  0.45593999997E+02  0.45594000000E+02  0.51100000000E-03 0. -1.
         11   -1    0    0    0    0 -0.00000000000E+00 -0.00000000000E+00 -0.45593999997E+02  0.45594000000E+02  0.51100000000E-03 0.  1.
    9900012    2    1    2    0    0  0.12825543051E+02  0.19547013691E+02  0.38503677345E+02  0.46142317988E+02  0.10000002071E+02 0.  0.
        -12    1    1    2    0    0 -0.12825543051E+02 -0.19547013691E+02 -0.38503677345E+02  0.45045682012E+02  0.00000000000E+00 0.  1.
         11    1    3    3    0    0  0.24442422042E+01  0.14867672666E+01  0.76609570520E+01  0.81777172897E+01  0.51100000000E-03 0.  1.
        -11    1    3    3    0    0  0.35939841637E+01  0.90967920530E+01  0.20382877519E+02  0.22608185332E+02  0.51100000000E-03 0. -1.
         12    1    3    3    0    0  0.67873166831E+01  0.89634543713E+01  0.10459842775E+02  0.15356415366E+02  0.00000000000E+00 0. -1.
</event>
<event>
 7    1  0.2031146E-008  0.4614232E+02  0.7816164E-02  0.1320468E+00
        -11   -1    0    0    0    0  0.00000000000E+00  0.00000000000E+00  0.45593999997E+02  0.45594000000E+02  0.51100000000E-03 0.  1.
         11   -1    0    0    0    0 -0.00000000000E+00 -0.00000000000E+00 -0.45593999997E+02  0.45594000000E+02  0.51100000000E-03 0. -1.
    9900012    2    1    2    0    0 -0.11661653567E+02  0.82215775832E+01 -0.42726162370E+02  0.46142318156E+02  0.10000003604E+02 0.  0.
        -12    1    1    2    0    0  0.11661653567E+02 -0.82215775832E+01  0.42726162370E+02  0.45045681844E+02  0.00000000000E+00 0.  1.
         11    1    3    3    0    0 -0.33662219343E+01  0.31827933588E+01 -0.11748125509E+02  0.12628542153E+02  0.51100000000E-03 0. -1.
        -11    1    3    3    0    0 -0.29449224424E+01  0.11382831406E+01 -0.22675593720E+02  0.22894340076E+02  0.51100000000E-03 0.  1.
        -12    1    3    3    0    0 -0.53505091907E+01  0.39005010837E+01 -0.83024431415E+01  0.10619435928E+02  0.00000000000E+00 0.  1.
</event>
<event>
 7    1  0.2031146E-008  0.4614232E+02  0.7816164E-02  0.1320468E+00
        -11   -1    0    0    0    0  0.00000000000E+00  0.00000000000E+00  0.45593999997E+02  0.45594000000E+02  0.51100000000E-03 0. -1.
         11   -1    0    0    0    0 -0.00000000000E+00 -0.00000000000E+00 -0.45593999997E+02  0.45594000000E+02  0.51100000000E-03 0.  1.
    9900012    2    1    2    0    0  0.73126276887E+01  0.26542315563E+02  0.35653111891E+02  0.46142318446E+02  0.10000006244E+02 0.  0.
        -12    1    1    2    0    0 -0.73126276887E+01 -0.26542315563E+02 -0.35653111891E+02  0.45045681554E+02  0.00000000000E+00 0.  1.
         11    1    3    3    0    0  0.69528249585E+01  0.20576695424E+02  0.27394760081E+02  0.34960192357E+02  0.51100000000E-03 0. -1.
        -11    1    3    3    0    0  0.93094579095E+00  0.66038795827E+01  0.70937674880E+01  0.97364995272E+01  0.51100000000E-03 0.  1.
        -12    1    3    3    0    0 -0.57114306077E+00 -0.63825944343E+00  0.11645843224E+01  0.14456265621E+01  0.00000000000E+00 0.  1.
</event>
<event>
 7    1  0.2031146E-008  0.4614232E+02  0.7816164E-02  0.1320468E+00
        -11   -1    0    0    0    0  0.00000000000E+00  0.00000000000E+00  0.45593999997E+02  0.45594000000E+02  0.51100000000E-03 0.  1.
         11   -1    0    0    0    0 -0.00000000000E+00 -0.00000000000E+00 -0.45593999997E+02  0.45594000000E+02  0.51100000000E-03 0. -1.
    9900012    2    1    2    0    0  0.33961102239E+02  0.27568975843E+02  0.10756794079E+02  0.46142317486E+02  0.99999974882E+01 0.  0.
        -12    1    1    2    0    0 -0.33961102239E+02 -0.27568975843E+02 -0.10756794079E+02  0.45045682514E+02  0.00000000000E+00 0.  1.
         11    1    3    3    0    0  0.13600178229E+02  0.10443160800E+02  0.15095638909E+01  0.17213460976E+02  0.51100000000E-03 0. -1.
        -11    1    3    3    0    0  0.84040427236E+01  0.36000403495E+01  0.48437042355E+01  0.10346482281E+02  0.51100000000E-03 0.  1.
        -12    1    3    3    0    0  0.11956881286E+02  0.13525774693E+02  0.44035259527E+01  0.18582374229E+02  0.00000000000E+00 0.  1.
</event>
<event>
 7    1  0.2031146E-008  0.4614232E+02  0.7816164E-02  0.1320468E+00
        -11   -1    0    0    0    0  0.00000000000E+00  0.00000000000E+00  0.45593999997E+02  0.45594000000E+02  0.51100000000E-03 0.  1.
         11   -1    0    0    0    0 -0.00000000000E+00 -0.00000000000E+00 -0.45593999997E+02  0.45594000000E+02  0.51100000000E-03 0. -1.
    9900012    2    1    2    0    0  0.26784109719E+02 -0.23211590014E+02 -0.27801925133E+02  0.46142317793E+02  0.10000000288E+02 0.  0.
        -12    1    1    2    0    0 -0.26784109719E+02  0.23211590014E+02  0.27801925133E+02  0.45045682207E+02  0.00000000000E+00 0.  1.
         11    1    3    3    0    0  0.46717695594E+01 -0.63312526482E+01 -0.71304087147E+01  0.10618517769E+02  0.51100000000E-03 0. -1.
        -11    1    3    3    0    0  0.11064006660E+02 -0.72868787413E+01 -0.14507386529E+02  0.19646249243E+02  0.51100000000E-03 0.  1.
        -12    1    3    3    0    0  0.11048333499E+02 -0.95934586241E+01 -0.61641298899E+01  0.15877550780E+02  0.00000000000E+00 0.  1.
</event>
<event>
 7    1  0.2031146E-008  0.4614232E+02  0.7816164E-02  0.1320468E+00
        -11   -1    0    0    0    0  0.00000000000E+00  0.00000000000E+00  0.45593999997E+02  0.45594000000E+02  0.51100000000E-03 0. -1.
         11   -1    0    0    0    0 -0.00000000000E+00 -0.00000000000E+00 -0.45593999997E+02  0.45594000000E+02  0.51100000000E-03 0.  1.
    9900012    2    1    2    0    0  0.39400615595E+02  0.11589730369E+02  0.18503598924E+02  0.46142317272E+02  0.99999955419E+01 0.  0.
        -12    1    1    2    0    0 -0.39400615595E+02 -0.11589730369E+02 -0.18503598924E+02  0.45045682728E+02  0.00000000000E+00 0.  1.
         11    1    3    3    0    0  0.92800891424E+01  0.68103696494E+01  0.55512872535E+01  0.12779592313E+02  0.51100000000E-03 0.  1.
        -11    1    3    3    0    0  0.11121225213E+02  0.25485252084E+01  0.67294521766E+01  0.13246212962E+02  0.51100000000E-03 0. -1.
        -12    1    3    3    0    0  0.18999301239E+02  0.22308355116E+01  0.62228594941E+01  0.20116511997E+02  0.00000000000E+00 0.  1.
</event>
<event>
 7    1  0.2031146E-008  0.4614232E+02  0.7816164E-02  0.1320468E+00
        -11   -1    0    0    0    0  0.00000000000E+00  0.00000000000E+00  0.45593999997E+02  0.45594000000E+02  0.51100000000E-03 0.  1.
         11   -1    0    0    0    0 -0.00000000000E+00 -0.00000000000E+00 -0.45593999997E+02  0.45594000000E+02  0.51100000000E-03 0. -1.
    9900012    2    1    2    0    0 -0.43693722127E+02 -0.62162578665E+01  0.90183017529E+01  0.46142323385E+02  0.10000051281E+02 0.  0.
        -12    1    1    2    0    0  0.43693722127E+02  0.62162578665E+01 -0.90183017529E+01  0.45045676615E+02  0.00000000000E+00 0.  1.
         11    1    3    3    0    0 -0.59429323767E+01 -0.32715136873E+01  0.14406594581E+01  0.69351818272E+01  0.51100000000E-03 0. -1.
        -11    1    3    3    0    0 -0.33992686464E+00 -0.77211533392E+00 -0.33371873461E+00  0.90723801570E+00  0.51100000000E-03 0.  1.
         12    1    3    3    0    0 -0.37410862886E+02 -0.21726288452E+01  0.79113610295E+01  0.38299903542E+02  0.00000000000E+00 0. -1.
</event>
<event>
 7    1  0.2031146E-008  0.4614232E+02  0.7816164E-02  0.1320468E+00
        -11   -1    0    0    0    0  0.00000000000E+00  0.00000000000E+00  0.45593999997E+02  0.45594000000E+02  0.51100000000E-03 0. -1.
         11   -1    0    0    0    0 -0.00000000000E+00 -0.00000000000E+00 -0.45593999997E+02  0.45594000000E+02  0.51100000000E-03 0.  1.
    9900012    2    1    2    0    0  0.85444910170E+01  0.41100305078E+02  0.16336157493E+02  0.46142318233E+02  0.10000004305E+02 0.  0.
        -12    1    1    2    0    0 -0.85444910170E+01 -0.41100305078E+02 -0.16336157493E+02  0.45045681767E+02  0.00000000000E+00 0.  1.
         11    1    3    3    0    0  0.36528966447E+01  0.25705676523E+02  0.87403942283E+01  0.27395619193E+02  0.51100000000E-03 0. -1.
        -11    1    3    3    0    0  0.43365096967E+01  0.12381240288E+02  0.84015926052E+01  0.15578420523E+02  0.51100000000E-03 0.  1.
         12    1    3    3    0    0  0.55508467559E+00  0.30133882666E+01 -0.80582934071E+00  0.31682785182E+01  0.00000000000E+00 0. -1.
</event>
<event>
 7    1  0.2031146E-008  0.4614232E+02  0.7816164E-02  0.1320468E+00
        -11   -1    0    0    0    0  0.00000000000E+00  0.00000000000E+00  0.45593999997E+02  0.45594000000E+02  0.51100000000E-03 0.  1.
         11   -1    0    0    0    0 -0.00000000000E+00 -0.00000000000E+00 -0.45593999997E+02  0.45594000000E+02  0.51100000000E-03 0. -1.
    9900012    2    1    2    0    0  0.56675743715E+01  0.17481087288E+02 -0.41126678057E+02  0.46142318076E+02  0.10000002870E+02 0.  0.
        -12    1    1    2    0    0 -0.56675743715E+01 -0.17481087288E+02  0.41126678057E+02  0.45045681924E+02  0.00000000000E+00 0.  1.
         11    1    3    3    0    0  0.62522640285E+01  0.11083595641E+02 -0.26689087872E+02  0.29567622656E+02  0.51100000000E-03 0. -1.
        -11    1    3    3    0    0  0.40418608315E+00 -0.19038350870E+00  0.20226950952E+00  0.49043397700E+00  0.51100000000E-03 0.  1.
         12    1    3    3    0    0 -0.98887574015E+00  0.65878751553E+01 -0.14639859694E+02  0.16084261443E+02  0.00000000000E+00 0. -1.
</event>
<event>
 7    1  0.2031146E-008  0.4614232E+02  0.7816164E-02  0.1320468E+00
        -11   -1    0    0    0    0  0.00000000000E+00  0.00000000000E+00  0.45593999997E+02  0.45594000000E+02  0.51100000000E-03 0.  1.
         11   -1    0    0    0    0 -0.00000000000E+00 -0.00000000000E+00 -0.45593999997E+02  0.45594000000E+02  0.51100000000E-03 0. -1.
    9900012    2    1    2    0    0  0.40495396874E+02 -0.11884777983E+02 -0.15747646655E+02  0.46142317734E+02  0.99999997488E+01 0.  0.
        -12    1    1    2    0    0 -0.40495396874E+02  0.11884777983E+02  0.15747646655E+02  0.45045682266E+02  0.00000000000E+00 0.  1.
         11    1    3    3    0    0  0.17173239922E+01  0.10937063105E+01 -0.13031053349E+01  0.24173288901E+01  0.51100000000E-03 0.  1.
        -11    1    3    3    0    0  0.37645585378E+02 -0.11446642806E+02 -0.13501635672E+02  0.41599397785E+02  0.51100000000E-03 0. -1.
         12    1    3    3    0    0  0.11324875041E+01 -0.15318414872E+01 -0.94290564788E+00  0.21255910589E+01  0.00000000000E+00 0. -1.
</event>
<event>
 7    1  0.2031146E-008  0.4614232E+02  0.7816164E-02  0.1320468E+00
        -11   -1    0    0    0    0  0.00000000000E+00  0.00000000000E+00  0.45593999997E+02  0.45594000000E+02  0.51100000000E-03 0. -1.
         11   -1    0    0    0    0 -0.00000000000E+00 -0.00000000000E+00 -0.45593999997E+02  0.45594000000E+02  0.51100000000E-03 0.  1.
    9900012    2    1    2    0    0  0.33905666942E+02  0.29408584406E+02  0.38281108606E+01  0.46142317407E+02  0.99999967670E+01 0.  0.
        -12    1    1    2    0    0 -0.33905666942E+02 -0.29408584406E+02 -0.38281108606E+01  0.45045682593E+02  0.00000000000E+00 0.  1.
         11    1    3    3    0    0  0.18019504335E+02  0.11720977008E+02  0.12479104184E+01  0.21532327305E+02  0.51100000000E-03 0. -1.
        -11    1    3    3    0    0  0.12098103470E+02  0.92627029284E+01  0.16500369892E+01  0.15325938648E+02  0.51100000000E-03 0.  1.
        -12    1    3    3    0    0  0.37880591373E+01  0.84249044696E+01  0.93016345312E+00  0.92840514539E+01  0.00000000000E+00 0.  1.
</event>
<event>
 7    1  0.2031146E-008  0.4614232E+02  0.7816164E-02  0.1320468E+00
        -11   -1    0    0    0    0  0.00000000000E+00  0.00000000000E+00  0.45593999997E+02  0.45594000000E+02  0.51100000000E-03 0.  1.
         11   -1    0    0    0    0 -0.00000000000E+00 -0.00000000000E+00 -0.45593999997E+02  0.45594000000E+02  0.51100000000E-03 0. -1.
    9900012    2    1    2    0    0 -0.39948689634E+02  0.47093988328E+01 -0.20274055128E+02  0.46142317053E+02  0.99999935443E+01 0.  0.
        -12    1    1    2    0    0  0.39948689634E+02 -0.47093988328E+01  0.20274055128E+02  0.45045682947E+02  0.00000000000E+00 0.  1.
         11    1    3    3    0    0 -0.10876406247E+02 -0.10189370082E+01 -0.65519189066E+01  0.12738213654E+02  0.51100000000E-03 0. -1.
        -11    1    3    3    0    0 -0.10334329305E+00 -0.50600354628E+00 -0.10616399395E+01  0.11805926678E+01  0.51100000000E-03 0.  1.
        -12    1    3    3    0    0 -0.28968940094E+02  0.62343393873E+01 -0.12660496282E+02  0.32223510731E+02  0.00000000000E+00 0.  1.
</event>
<event>
 7    1  0.2031146E-008  0.4614232E+02  0.7816164E-02  0.1320468E+00
        -11   -1    0    0    0    0  0.00000000000E+00  0.00000000000E+00  0.45593999997E+02  0.45594000000E+02  0.51100000000E-03 0.  1.
         11   -1    0    0    0    0 -0.00000000000E+00 -0.00000000000E+00 -0.45593999997E+02  0.45594000000E+02  0.51100000000E-03 0. -1.
    9900012    2    1    2    0    0 -0.10587024075E+02 -0.41713115009E+02 -0.13305805173E+02  0.46142317701E+02  0.99999994491E+01 0.  0.
        -12    1    1    2    0    0  0.10587024075E+02  0.41713115009E+02  0.13305805173E+02  0.45045682299E+02  0.00000000000E+00 0.  1.
         11    1    3    3    0    0 -0.28417098033E+01 -0.10895934985E+02  0.67996475963E+00  0.11280916015E+02  0.51100000000E-03 0. -1.
        -11    1    3    3    0    0 -0.43739529996E+01 -0.15294994195E+02 -0.86330280439E+01  0.18099654299E+02  0.51100000000E-03 0.  1.
        -12    1    3    3    0    0 -0.33713612720E+01 -0.15522185829E+02 -0.53527418890E+01  0.16761747387E+02  0.00000000000E+00 0.  1.
</event>
<event>
 7    1  0.2031146E-008  0.4614232E+02  0.7816164E-02  0.1320468E+00
        -11   -1    0    0    0    0  0.00000000000E+00  0.00000000000E+00  0.45593999997E+02  0.45594000000E+02  0.51100000000E-03 0.  1.
         11   -1    0    0    0    0 -0.00000000000E+00 -0.00000000000E+00 -0.45593999997E+02  0.45594000000E+02  0.51100000000E-03 0. -1.
    9900012    2    1    2    0    0 -0.25983614423E+01 -0.32926477502E+02 -0.30630200505E+02  0.46142316679E+02  0.99999901318E+01 0.  0.
        -12    1    1    2    0    0  0.25983614423E+01  0.32926477502E+02  0.30630200505E+02  0.45045683321E+02  0.00000000000E+00 0.  1.
         11    1    3    3    0    0 -0.17613923916E+01 -0.28525645845E+02 -0.21544062056E+02  0.35790523664E+02  0.51100000000E-03 0. -1.
        -11    1    3    3    0    0 -0.16783735596E+00  0.61202105890E-01 -0.16084007755E+01  0.16182918129E+01  0.51100000000E-03 0.  1.
         12    1    3    3    0    0 -0.66913169477E+00 -0.44620337630E+01 -0.74777376736E+01  0.87335012018E+01  0.00000000000E+00 0. -1.
</event>
<event>
 7    1  0.2031146E-008  0.4614232E+02  0.7816164E-02  0.1320468E+00
        -11   -1    0    0    0    0  0.00000000000E+00  0.00000000000E+00  0.45593999997E+02  0.45594000000E+02  0.51100000000E-03 0.  1.
         11   -1    0    0    0    0 -0.00000000000E+00 -0.00000000000E+00 -0.45593999997E+02  0.45594000000E+02  0.51100000000E-03 0. -1.
    9900012    2    1    2    0    0  0.15727883111E+02  0.33226239659E+02 -0.26033905161E+02  0.46142317333E+02  0.99999960944E+01 0.  0.
        -12    1    1    2    0    0 -0.15727883111E+02 -0.33226239659E+02  0.26033905161E+02  0.45045682667E+02  0.00000000000E+00 0.  1.
         11    1    3    3    0    0  0.87044583751E+01  0.17621808176E+02 -0.19678285032E+02  0.27812418468E+02  0.51100000000E-03 0. -1.
        -11    1    3    3    0    0  0.46316425157E+01  0.96263983911E+01 -0.31507568499E+01  0.11137635627E+02  0.51100000000E-03 0.  1.
         12    1    3    3    0    0  0.23917822200E+01  0.59780330918E+01 -0.32048632794E+01  0.71922632373E+01  0.00000000000E+00 0. -1.
</event>
<event>
 7    1  0.2031146E-008  0.4614232E+02  0.7816164E-02  0.1320468E+00
        -11   -1    0    0    0    0  0.00000000000E+00  0.00000000000E+00  0.45593999997E+02  0.45594000000E+02  0.51100000000E-03 0. -1.
         11   -1    0    0    0    0 -0.00000000000E+00 -0.00000000000E+00 -0.45593999997E+02  0.45594000000E+02  0.51100000000E-03 0.  1.
    9900012    2    1    2    0    0 -0.36593930870E+01 -0.17552908672E+02  0.41323331720E+02  0.46142317576E+02  0.99999983127E+01 0.  0.
        -12    1    1    2    0    0  0.36593930870E+01  0.17552908672E+02 -0.41323331720E+02  0.45045682424E+02  0.00000000000E+00 0.  1.
         11    1    3    3    0    0 -0.30481996410E+01 -0.54243138880E+01  0.14146339371E+02  0.15454242785E+02  0.51100000000E-03 0. -1.
        -11    1    3    3    0    0  0.52996301737E+00 -0.12675252480E+02  0.26125730237E+02  0.29043014081E+02  0.51100000000E-03 0.  1.
         12    1    3    3    0    0 -0.11411564634E+01  0.54665769623E+00  0.10512621117E+01  0.16450607096E+01  0.00000000000E+00 0. -1.
</event>
<event>
 7    1  0.2031146E-008  0.4614232E+02  0.7816164E-02  0.1320468E+00
        -11   -1    0    0    0    0  0.00000000000E+00  0.00000000000E+00  0.45593999997E+02  0.45594000000E+02  0.51100000000E-03 0.  1.
         11   -1    0    0    0    0 -0.00000000000E+00 -0.00000000000E+00 -0.45593999997E+02  0.45594000000E+02  0.51100000000E-03 0. -1.
    9900012    2    1    2    0    0  0.25727874779E+02  0.69831412844E-01 -0.36975458127E+02  0.46142324061E+02  0.10000057450E+02 0.  0.
        -12    1    1    2    0    0 -0.25727874779E+02 -0.69831412844E-01  0.36975458127E+02  0.45045675939E+02  0.00000000000E+00 0.  1.
         11    1    3    3    0    0  0.79799892877E+01  0.28841077109E+01 -0.13572843922E+02  0.16006885978E+02  0.51100000000E-03 0. -1.
        -11    1    3    3    0    0  0.56996084067E-01 -0.38022965535E+00  0.27934207256E+00  0.47524246341E+00  0.51100000000E-03 0.  1.
         12    1    3    3    0    0  0.17690889407E+02 -0.24340466427E+01 -0.23681956278E+02  0.29660195620E+02  0.00000000000E+00 0. -1.
</event>
<event>
 7    1  0.2031146E-008  0.4614232E+02  0.7816164E-02  0.1320468E+00
        -11   -1    0    0    0    0  0.00000000000E+00  0.00000000000E+00  0.45593999997E+02  0.45594000000E+02  0.51100000000E-03 0.  1.
         11   -1    0    0    0    0 -0.00000000000E+00 -0.00000000000E+00 -0.45593999997E+02  0.45594000000E+02  0.51100000000E-03 0. -1.
    9900012    2    1    2    0    0 -0.17677595206E+02  0.89409755507E+01 -0.40455841269E+02  0.46142317534E+02  0.99999979283E+01 0.  0.
        -12    1    1    2    0    0  0.17677595206E+02 -0.89409755507E+01  0.40455841269E+02  0.45045682466E+02  0.00000000000E+00 0.  1.
         11    1    3    3    0    0 -0.81073413308E+01  0.60867851790E+01 -0.18551229156E+02  0.21140625363E+02  0.51100000000E-03 0. -1.
        -11    1    3    3    0    0 -0.29494266722E+01  0.70318300690E+00 -0.14598431956E+02  0.14909989935E+02  0.51100000000E-03 0.  1.
         12    1    3    3    0    0 -0.66208272026E+01  0.21510073648E+01 -0.73061801570E+01  0.10091702236E+02  0.00000000000E+00 0. -1.
</event>
<event>
 7    1  0.2031146E-008  0.4614232E+02  0.7816164E-02  0.1320468E+00
        -11   -1    0    0    0    0  0.00000000000E+00  0.00000000000E+00  0.45593999997E+02  0.45594000000E+02  0.51100000000E-03 0.  1.
         11   -1    0    0    0    0 -0.00000000000E+00 -0.00000000000E+00 -0.45593999997E+02  0.45594000000E+02  0.51100000000E-03 0. -1.
    9900012    2    1    2    0    0 -0.38752716493E+02  0.68197188610E+01 -0.21927877507E+02  0.46142318599E+02  0.10000007642E+02 0.  0.
        -12    1    1    2    0    0  0.38752716493E+02 -0.68197188610E+01  0.21927877507E+02  0.45045681401E+02  0.00000000000E+00 0.  1.
         11    1    3    3    0    0 -0.46737480413E+01  0.10653945946E+01 -0.31422507901E+01  0.57317298161E+01  0.51100000000E-03 0. -1.
        -11    1    3    3    0    0 -0.21977236644E+02 -0.36815664610E+00 -0.93360203806E+01  0.23880865701E+02  0.51100000000E-03 0.  1.
         12    1    3    3    0    0 -0.12101731808E+02  0.61224809124E+01 -0.94496063364E+01  0.16529723082E+02  0.00000000000E+00 0. -1.
</event>
<event>
 7    1  0.2031146E-008  0.4614232E+02  0.7816164E-02  0.1320468E+00
        -11   -1    0    0    0    0  0.00000000000E+00  0.00000000000E+00  0.45593999997E+02  0.45594000000E+02  0.51100000000E-03 0. -1.
         11   -1    0    0    0    0 -0.00000000000E+00 -0.00000000000E+00 -0.45593999997E+02  0.45594000000E+02  0.51100000000E-03 0.  1.
    9900012    2    1    2    0    0 -0.75694542692E+00  0.31890107325E+02  0.31805056525E+02  0.46142317275E+02  0.99999955715E+01 0.  0.
        -12    1    1    2    0    0  0.75694542692E+00 -0.31890107325E+02 -0.31805056525E+02  0.45045682725E+02  0.00000000000E+00 0.  1.
         11    1    3    3    0    0 -0.21654881738E+01  0.14689184988E+02  0.20522168978E+02  0.25330237157E+02  0.51100000000E-03 0. -1.
        -11    1    3    3    0    0  0.46933951315E+00  0.12414262952E+02  0.94192344476E+01  0.15590259204E+02  0.51100000000E-03 0.  1.
        -12    1    3    3    0    0  0.93920323368E+00  0.47866593846E+01  0.18636530999E+01  0.52218209137E+01  0.00000000000E+00 0.  1.
</event>
<event>
 7    1  0.2031146E-008  0.4614232E+02  0.7816164E-02  0.1320468E+00
        -11   -1    0    0    0    0  0.00000000000E+00  0.00000000000E+00  0.45593999997E+02  0.45594000000E+02  0.51100000000E-03 0. -1.
         11   -1    0    0    0    0 -0.00000000000E+00 -0.00000000000E+00 -0.45593999997E+02  0.45594000000E+02  0.51100000000E-03 0.  1.
    9900012    2    1    2    0    0  0.87261141433E+01  0.34162580888E+02  0.28033669267E+02  0.46142316371E+02  0.99999873282E+01 0.  0.
        -12    1    1    2    0    0 -0.87261141433E+01 -0.34162580888E+02 -0.28033669267E+02  0.45045683629E+02  0.00000000000E+00 0.  1.
         11    1    3    3    0    0  0.32539123295E+01  0.18164844253E+02  0.13582940936E+02  0.22913877823E+02  0.51100000000E-03 0. -1.
        -11    1    3    3    0    0  0.47556115360E+01  0.54279959885E+01  0.36038625209E+01  0.80663998700E+01  0.51100000000E-03 0.  1.
        -12    1    3    3    0    0  0.71659027775E+00  0.10569740647E+02  0.10846865810E+02  0.15162038678E+02  0.00000000000E+00 0.  1.
</event>
<event>
 7    1  0.2031146E-008  0.4614232E+02  0.7816164E-02  0.1320468E+00
        -11   -1    0    0    0    0  0.00000000000E+00  0.00000000000E+00  0.45593999997E+02  0.45594000000E+02  0.51100000000E-03 0.  1.
         11   -1    0    0    0    0 -0.00000000000E+00 -0.00000000000E+00 -0.45593999997E+02  0.45594000000E+02  0.51100000000E-03 0. -1.
    9900012    2    1    2    0    0  0.29257065945E+02  0.58748885295E+01 -0.33743493063E+02  0.46142317110E+02  0.99999940583E+01 0.  0.
        -12    1    1    2    0    0 -0.29257065945E+02 -0.58748885295E+01  0.33743493063E+02  0.45045682890E+02  0.00000000000E+00 0.  1.
         11    1    3    3    0    0  0.16909716513E+02  0.12988642977E+01 -0.22721362436E+02  0.28352881198E+02  0.51100000000E-03 0. -1.
        -11    1    3    3    0    0  0.61555151641E+01  0.51358796060E+00 -0.70948593085E+01  0.94069744550E+01  0.51100000000E-03 0.  1.
        -12    1    3    3    0    0  0.61918342682E+01  0.40624362711E+01 -0.39272713191E+01  0.83824614569E+01  0.00000000000E+00 0.  1.
</event>
<event>
 7    1  0.2031146E-008  0.4614232E+02  0.7816164E-02  0.1320468E+00
        -11   -1    0    0    0    0  0.00000000000E+00  0.00000000000E+00  0.45593999997E+02  0.45594000000E+02  0.51100000000E-03 0.  1.
         11   -1    0    0    0    0 -0.00000000000E+00 -0.00000000000E+00 -0.45593999997E+02  0.45594000000E+02  0.51100000000E-03 0. -1.
    9900012    2    1    2    0    0 -0.15320185328E+02 -0.12560165262E+02 -0.40455501723E+02  0.46142318192E+02  0.10000003929E+02 0.  0.
        -12    1    1    2    0    0  0.15320185328E+02  0.12560165262E+02  0.40455501723E+02  0.45045681808E+02  0.00000000000E+00 0.  1.
         11    1    3    3    0    0 -0.68130167508E+01 -0.43960173265E+01 -0.97895909573E+01  0.12711343633E+02  0.51100000000E-03 0. -1.
        -11    1    3    3    0    0  0.50111451674E+00 -0.26220287065E+01 -0.49264877086E+01  0.56032518863E+01  0.51100000000E-03 0.  1.
         12    1    3    3    0    0 -0.90082830943E+01 -0.55421192290E+01 -0.25739423057E+02  0.27827722673E+02  0.00000000000E+00 0. -1.
</event>
<event>
 7    1  0.2031146E-008  0.4614232E+02  0.7816164E-02  0.1320468E+00
        -11   -1    0    0    0    0  0.00000000000E+00  0.00000000000E+00  0.45593999997E+02  0.45594000000E+02  0.51100000000E-03 0.  1.
         11   -1    0    0    0    0 -0.00000000000E+00 -0.00000000000E+00 -0.45593999997E+02  0.45594000000E+02  0.51100000000E-03 0. -1.
    9900012    2    1    2    0    0 -0.25810458815E+01 -0.24437335052E+02 -0.37752727017E+02  0.46142317194E+02  0.99999948250E+01 0.  0.
        -12    1    1    2    0    0  0.25810458815E+01  0.24437335052E+02  0.37752727017E+02  0.45045682806E+02  0.00000000000E+00 0.  1.
         11    1    3    3    0    0 -0.13512734757E+00 -0.26880417058E+01 -0.79578635453E+01  0.84006797391E+01  0.51100000000E-03 0. -1.
        -11    1    3    3    0    0  0.13819381374E+01 -0.28522518489E+01 -0.15110634930E+01  0.35111831006E+01  0.51100000000E-03 0.  1.
        -12    1    3    3    0    0 -0.38278566713E+01 -0.18897041498E+02 -0.28283799978E+02  0.34230454354E+02  0.00000000000E+00 0.  1.
</event>
<event>
 7    1  0.2031146E-008  0.4614233E+02  0.7816164E-02  0.1320468E+00
        -11   -1    0    0    0    0  0.00000000000E+00  0.00000000000E+00  0.45593999997E+02  0.45594000000E+02  0.51100000000E-03 0. -1.
         11   -1    0    0    0    0 -0.00000000000E+00 -0.00000000000E+00 -0.45593999997E+02  0.45594000000E+02  0.51100000000E-03 0.  1.
    9900012    2    1    2    0    0 -0.15152900542E+02  0.22402647823E+02  0.36022541837E+02  0.46142328236E+02  0.10000095516E+02 0.  0.
        -12    1    1    2    0    0  0.15152900542E+02 -0.22402647823E+02 -0.36022541837E+02  0.45045671764E+02  0.00000000000E+00 0.  1.
         11    1    3    3    0    0 -0.30205798736E+01  0.40007085379E+01  0.12393749017E+02  0.13369165514E+02  0.51100000000E-03 0.  1.
        -11    1    3    3    0    0 -0.82806573343E+01  0.12279189814E+02  0.19355291153E+02  0.24371604056E+02  0.51100000000E-03 0. -1.
        -12    1    3    3    0    0 -0.38516633343E+01  0.61227494707E+01  0.42735016665E+01  0.84015586659E+01  0.00000000000E+00 0.  1.
</event>
<event>
 7    1  0.2031146E-008  0.4614232E+02  0.7816164E-02  0.1320468E+00
        -11   -1    0    0    0    0  0.00000000000E+00  0.00000000000E+00  0.45593999997E+02  0.45594000000E+02  0.51100000000E-03 0.  1.
         11   -1    0    0    0    0 -0.00000000000E+00 -0.00000000000E+00 -0.45593999997E+02  0.45594000000E+02  0.51100000000E-03 0. -1.
    9900012    2    1    2    0    0 -0.14171256212E+02 -0.86420665065E+01 -0.41876051276E+02  0.46142317781E+02  0.10000000183E+02 0.  0.
        -12    1    1    2    0    0  0.14171256212E+02  0.86420665065E+01  0.41876051276E+02  0.45045682219E+02  0.00000000000E+00 0.  1.
         11    1    3    3    0    0 -0.10022807754E+02 -0.28441431373E+01 -0.33526643104E+02  0.35108141841E+02  0.51100000000E-03 0. -1.
        -11    1    3    3    0    0 -0.24703833902E+01 -0.25160294860E+01 -0.42058025744E+01  0.54883489343E+01  0.51100000000E-03 0.  1.
         12    1    3    3    0    0 -0.16780650680E+01 -0.32818938832E+01 -0.41436055972E+01  0.55458270058E+01  0.00000000000E+00 0. -1.
</event>
<event>
 7    1  0.2031146E-008  0.4614232E+02  0.7816164E-02  0.1320468E+00
        -11   -1    0    0    0    0  0.00000000000E+00  0.00000000000E+00  0.45593999997E+02  0.45594000000E+02  0.51100000000E-03 0.  1.
         11   -1    0    0    0    0 -0.00000000000E+00 -0.00000000000E+00 -0.45593999997E+02  0.45594000000E+02  0.51100000000E-03 0. -1.
    9900012    2    1    2    0    0 -0.25688329478E+02 -0.64597815464E+00 -0.36997377421E+02  0.46142317685E+02  0.99999993104E+01 0.  0.
        -12    1    1    2    0    0  0.25688329478E+02  0.64597815464E+00  0.36997377421E+02  0.45045682315E+02  0.00000000000E+00 0.  1.
         11    1    3    3    0    0 -0.11797504299E+02 -0.15918382657E+01 -0.16534016677E+02  0.20373727310E+02  0.51100000000E-03 0. -1.
        -11    1    3    3    0    0 -0.25087882649E+01 -0.21898707603E+01 -0.20982107324E+01  0.39359930187E+01  0.51100000000E-03 0.  1.
         12    1    3    3    0    0 -0.11382036915E+02  0.31357308714E+01 -0.18365150011E+02  0.21832597357E+02  0.00000000000E+00 0. -1.
</event>
<event>
 7    1  0.2031146E-008  0.4614232E+02  0.7816164E-02  0.1320468E+00
        -11   -1    0    0    0    0  0.00000000000E+00  0.00000000000E+00  0.45593999997E+02  0.45594000000E+02  0.51100000000E-03 0.  1.
         11   -1    0    0    0    0 -0.00000000000E+00 -0.00000000000E+00 -0.45593999997E+02  0.45594000000E+02  0.51100000000E-03 0. -1.
    9900012    2    1    2    0    0 -0.38859350124E+01 -0.11465822231E+02 -0.43388338701E+02  0.46142317570E+02  0.99999982554E+01 0.  0.
        -12    1    1    2    0    0  0.38859350124E+01  0.11465822231E+02  0.43388338701E+02  0.45045682430E+02  0.00000000000E+00 0.  1.
         11    1    3    3    0    0 -0.42379250289E+01 -0.66447317226E+01 -0.22959811089E+02  0.24274789262E+02  0.51100000000E-03 0. -1.
        -11    1    3    3    0    0 -0.26927965935E+01 -0.30364006520E+01 -0.83516255127E+01  0.92855011377E+01  0.51100000000E-03 0.  1.
         12    1    3    3    0    0  0.30447866100E+01 -0.17846898562E+01 -0.12076902100E+02  0.12582027170E+02  0.00000000000E+00 0. -1.
</event>
<event>
 7    1  0.2031146E-008  0.4614232E+02  0.7816164E-02  0.1320468E+00
        -11   -1    0    0    0    0  0.00000000000E+00  0.00000000000E+00  0.45593999997E+02  0.45594000000E+02  0.51100000000E-03 0.  1.
         11   -1    0    0    0    0 -0.00000000000E+00 -0.00000000000E+00 -0.45593999997E+02  0.45594000000E+02  0.51100000000E-03 0. -1.
    9900012    2    1    2    0    0 -0.37655849186E+01  0.47101874549E+01 -0.44640206153E+02  0.46142317621E+02  0.99999987196E+01 0.  0.
        -12    1    1    2    0    0  0.37655849186E+01 -0.47101874549E+01  0.44640206153E+02  0.45045682379E+02  0.00000000000E+00 0.  1.
         11    1    3    3    0    0 -0.59081697025E+01  0.62758412557E+00 -0.26136732001E+02  0.26803527585E+02  0.51100000000E-03 0. -1.
        -11    1    3    3    0    0  0.20484862688E+01  0.22250489001E+01 -0.62314737226E+01  0.69266444703E+01  0.51100000000E-03 0.  1.
        -12    1    3    3    0    0  0.94098515118E-01  0.18575544292E+01 -0.12272000430E+02  0.12412145565E+02  0.00000000000E+00 0.  1.
</event>
<event>
 7    1  0.2031146E-008  0.4614232E+02  0.7816164E-02  0.1320468E+00
        -11   -1    0    0    0    0  0.00000000000E+00  0.00000000000E+00  0.45593999997E+02  0.45594000000E+02  0.51100000000E-03 0.  1.
         11   -1    0    0    0    0 -0.00000000000E+00 -0.00000000000E+00 -0.45593999997E+02  0.45594000000E+02  0.51100000000E-03 0. -1.
    9900012    2    1    2    0    0 -0.37242701315E+02  0.76173955731E+01 -0.24167542226E+02  0.46142316369E+02  0.99999873044E+01 0.  0.
        -12    1    1    2    0    0  0.37242701315E+02 -0.76173955731E+01  0.24167542226E+02  0.45045683631E+02  0.00000000000E+00 0.  1.
         11    1    3    3    0    0 -0.13727347554E+02  0.19857685878E+01 -0.10184470869E+02  0.17207753918E+02  0.51100000000E-03 0. -1.
        -11    1    3    3    0    0 -0.16751039374E+02  0.37137849222E+01 -0.13598492938E+02  0.21893116019E+02  0.51100000000E-03 0.  1.
        -12    1    3    3    0    0 -0.67643143860E+01  0.19178420631E+01 -0.38457841919E+00  0.70414464318E+01  0.00000000000E+00 0.  1.
</event>
<event>
 7    1  0.2031146E-008  0.4614232E+02  0.7816164E-02  0.1320468E+00
        -11   -1    0    0    0    0  0.00000000000E+00  0.00000000000E+00  0.45593999997E+02  0.45594000000E+02  0.51100000000E-03 0.  1.
         11   -1    0    0    0    0 -0.00000000000E+00 -0.00000000000E+00 -0.45593999997E+02  0.45594000000E+02  0.51100000000E-03 0. -1.
    9900012    2    1    2    0    0  0.15868433385E+02  0.37435716095E+01 -0.41991570541E+02  0.46142317599E+02  0.99999985232E+01 0.  0.
        -12    1    1    2    0    0 -0.15868433385E+02 -0.37435716095E+01  0.41991570541E+02  0.45045682401E+02  0.00000000000E+00 0.  1.
         11    1    3    3    0    0  0.32362428809E+01 -0.14280049508E+00 -0.11657665848E+02  0.12099373258E+02  0.51100000000E-03 0.  1.
        -11    1    3    3    0    0  0.12766789524E+02  0.28989031110E+01 -0.30342443717E+02  0.33046307584E+02  0.51100000000E-03 0. -1.
        -12    1    3    3    0    0 -0.13459901941E+00  0.98746899366E+00  0.85390240278E-02  0.99663675650E+00  0.00000000000E+00 0.  1.
</event>
<event>
 7    1  0.2031146E-008  0.4614232E+02  0.7816164E-02  0.1320468E+00
        -11   -1    0    0    0    0  0.00000000000E+00  0.00000000000E+00  0.45593999997E+02  0.45594000000E+02  0.51100000000E-03 0. -1.
         11   -1    0    0    0    0 -0.00000000000E+00 -0.00000000000E+00 -0.45593999997E+02  0.45594000000E+02  0.51100000000E-03 0.  1.
    9900012    2    1    2    0    0 -0.25679752588E+02  0.33686385750E+02  0.15326162885E+02  0.46142317114E+02  0.99999941010E+01 0.  0.
        -12    1    1    2    0    0  0.25679752588E+02 -0.33686385750E+02 -0.15326162885E+02  0.45045682886E+02  0.00000000000E+00 0.  1.
         11    1    3    3    0    0 -0.13715562057E+02  0.21580648569E+02  0.13044005535E+02  0.28705175768E+02  0.51100000000E-03 0. -1.
        -11    1    3    3    0    0 -0.40771631178E+01  0.33443043329E+01 -0.58318355141E+00  0.53054437963E+01  0.51100000000E-03 0.  1.
         12    1    3    3    0    0 -0.78870274133E+01  0.87614328478E+01  0.28653409012E+01  0.12131697550E+02  0.00000000000E+00 0. -1.
</event>
<event>
 7    1  0.2031146E-008  0.4614232E+02  0.7816164E-02  0.1320468E+00
        -11   -1    0    0    0    0  0.00000000000E+00  0.00000000000E+00  0.45593999997E+02  0.45594000000E+02  0.51100000000E-03 0.  1.
         11   -1    0    0    0    0 -0.00000000000E+00 -0.00000000000E+00 -0.45593999997E+02  0.45594000000E+02  0.51100000000E-03 0. -1.
    9900012    2    1    2    0    0 -0.10719033915E+02 -0.39684102045E+02 -0.18422481922E+02  0.46142317817E+02  0.10000000508E+02 0.  0.
        -12    1    1    2    0    0  0.10719033915E+02  0.39684102045E+02  0.18422481922E+02  0.45045682183E+02  0.00000000000E+00 0.  1.
         11    1    3    3    0    0 -0.28604167469E+01 -0.13758498015E+02 -0.91468282048E+01  0.16767310996E+02  0.51100000000E-03 0. -1.
        -11    1    3    3    0    0 -0.61322633897E+01 -0.19820281941E+02 -0.40130132159E+01  0.21131788988E+02  0.51100000000E-03 0.  1.
        -12    1    3    3    0    0 -0.17263537788E+01 -0.61053220888E+01 -0.52626405015E+01  0.82432178320E+01  0.00000000000E+00 0.  1.
</event>
<event>
 7    1  0.2031146E-008  0.4614232E+02  0.7816164E-02  0.1320468E+00
        -11   -1    0    0    0    0  0.00000000000E+00  0.00000000000E+00  0.45593999997E+02  0.45594000000E+02  0.51100000000E-03 0.  1.
         11   -1    0    0    0    0 -0.00000000000E+00 -0.00000000000E+00 -0.45593999997E+02  0.45594000000E+02  0.51100000000E-03 0. -1.
    9900012    2    1    2    0    0  0.17054047989E+01  0.21058006538E+02 -0.39783983383E+02  0.46142318978E+02  0.10000011100E+02 0.  0.
        -12    1    1    2    0    0 -0.17054047989E+01 -0.21058006538E+02  0.39783983383E+02  0.45045681022E+02  0.00000000000E+00 0.  1.
         11    1    3    3    0    0 -0.27322003514E+01  0.55367721909E+01 -0.75138972672E+01  0.97251949830E+01  0.51100000000E-03 0. -1.
        -11    1    3    3    0    0  0.17292806924E+01  0.73448612564E+01 -0.99120794613E+01  0.12457396120E+02  0.51100000000E-03 0.  1.
        -12    1    3    3    0    0  0.27083244579E+01  0.81763730908E+01 -0.22358006654E+02  0.23959727875E+02  0.00000000000E+00 0.  1.
</event>
<event>
 7    1  0.2031146E-008  0.4614232E+02  0.7816164E-02  0.1320468E+00
        -11   -1    0    0    0    0  0.00000000000E+00  0.00000000000E+00  0.45593999997E+02  0.45594000000E+02  0.51100000000E-03 0.  1.
         11   -1    0    0    0    0 -0.00000000000E+00 -0.00000000000E+00 -0.45593999997E+02  0.45594000000E+02  0.51100000000E-03 0. -1.
    9900012    2    1    2    0    0  0.22317367476E+02  0.38161446248E+02 -0.86459545945E+01  0.46142318724E+02  0.10000008781E+02 0.  0.
        -12    1    1    2    0    0 -0.22317367476E+02 -0.38161446248E+02  0.86459545945E+01  0.45045681276E+02  0.00000000000E+00 0.  1.
         11    1    3    3    0    0  0.94752496087E+01  0.22768551511E+02 -0.50556383880E+01  0.25174327654E+02  0.51100000000E-03 0. -1.
        -11    1    3    3    0    0  0.88014372937E+00  0.22837051944E+01  0.98969754108E+00  0.26399742202E+01  0.51100000000E-03 0.  1.
        -12    1    3    3    0    0  0.11961974138E+02  0.13109189542E+02 -0.45800137476E+01  0.18328016850E+02  0.00000000000E+00 0.  1.
</event>
<event>
 7    1  0.2031146E-008  0.4614232E+02  0.7816164E-02  0.1320468E+00
        -11   -1    0    0    0    0  0.00000000000E+00  0.00000000000E+00  0.45593999997E+02  0.45594000000E+02  0.51100000000E-03 0.  1.
         11   -1    0    0    0    0 -0.00000000000E+00 -0.00000000000E+00 -0.45593999997E+02  0.45594000000E+02  0.51100000000E-03 0. -1.
    9900012    2    1    2    0    0 -0.30121039714E+01  0.81411358197E+01 -0.44201386742E+02  0.46142318158E+02  0.10000003616E+02 0.  0.
        -12    1    1    2    0    0  0.30121039714E+01 -0.81411358197E+01  0.44201386742E+02  0.45045681842E+02  0.00000000000E+00 0.  1.
         11    1    3    3    0    0  0.16424822045E+01  0.38539580677E+01 -0.11513262844E+02  0.12251773837E+02  0.51100000000E-03 0. -1.
        -11    1    3    3    0    0 -0.23233661446E+01  0.57451209314E+01 -0.22450460440E+02  0.23290075547E+02  0.51100000000E-03 0.  1.
        -12    1    3    3    0    0 -0.23312200313E+01 -0.14579431793E+01 -0.10237663457E+02  0.10600468773E+02  0.00000000000E+00 0.  1.
</event>
<event>
 7    1  0.2031146E-008  0.4614232E+02  0.7816164E-02  0.1320468E+00
        -11   -1    0    0    0    0  0.00000000000E+00  0.00000000000E+00  0.45593999997E+02  0.45594000000E+02  0.51100000000E-03 0.  1.
         11   -1    0    0    0    0 -0.00000000000E+00 -0.00000000000E+00 -0.45593999997E+02  0.45594000000E+02  0.51100000000E-03 0. -1.
    9900012    2    1    2    0    0  0.32470175699E+02 -0.23811593764E+02 -0.20194285704E+02  0.46142317825E+02  0.10000000584E+02 0.  0.
        -12    1    1    2    0    0 -0.32470175699E+02  0.23811593764E+02  0.20194285704E+02  0.45045682175E+02  0.00000000000E+00 0.  1.
         11    1    3    3    0    0  0.28326524242E+02 -0.24264170352E+02 -0.17914042099E+02  0.41376984461E+02  0.51100000000E-03 0. -1.
        -11    1    3    3    0    0  0.14329592343E+01 -0.13912452434E-01 -0.82533941475E+00  0.16537082977E+01  0.51100000000E-03 0.  1.
         12    1    3    3    0    0  0.27106922228E+01  0.46648904027E+00 -0.14549041902E+01  0.31116250664E+01  0.00000000000E+00 0. -1.
</event>
<event>
 7    1  0.2031146E-008  0.4614232E+02  0.7816164E-02  0.1320468E+00
        -11   -1    0    0    0    0  0.00000000000E+00  0.00000000000E+00  0.45593999997E+02  0.45594000000E+02  0.51100000000E-03 0.  1.
         11   -1    0    0    0    0 -0.00000000000E+00 -0.00000000000E+00 -0.45593999997E+02  0.45594000000E+02  0.51100000000E-03 0. -1.
    9900012    2    1    2    0    0  0.42559063719E+02 -0.14729972662E+02  0.93137801884E+00  0.46142318028E+02  0.10000002436E+02 0.  0.
        -12    1    1    2    0    0 -0.42559063719E+02  0.14729972662E+02 -0.93137801884E+00  0.45045681972E+02  0.00000000000E+00 0.  1.
         11    1    3    3    0    0  0.22073826660E+02 -0.39822569552E+01  0.17949123202E+00  0.22430880750E+02  0.51100000000E-03 0. -1.
        -11    1    3    3    0    0  0.12691473898E+02 -0.84036603913E+01  0.23944315618E+01  0.15408709240E+02  0.51100000000E-03 0.  1.
        -12    1    3    3    0    0  0.77937631610E+01 -0.23440553159E+01 -0.16425447750E+01  0.83027280379E+01  0.00000000000E+00 0.  1.
</event>
<event>
 7    1  0.2031146E-008  0.4614232E+02  0.7816164E-02  0.1320468E+00
        -11   -1    0    0    0    0  0.00000000000E+00  0.00000000000E+00  0.45593999997E+02  0.45594000000E+02  0.51100000000E-03 0.  1.
         11   -1    0    0    0    0 -0.00000000000E+00 -0.00000000000E+00 -0.45593999997E+02  0.45594000000E+02  0.51100000000E-03 0. -1.
    9900012    2    1    2    0    0 -0.83023401981E+01  0.11302330248E+01 -0.44259542327E+02  0.46142319114E+02  0.10000012339E+02 0.  0.
        -12    1    1    2    0    0  0.83023401981E+01 -0.11302330248E+01  0.44259542327E+02  0.45045680886E+02  0.00000000000E+00 0.  1.
         11    1    3    3    0    0 -0.12600278834E+01 -0.29372464272E-01 -0.55786376127E+00  0.13783124631E+01  0.51100000000E-03 0.  1.
        -11    1    3    3    0    0 -0.89512504859E+00 -0.63447401627E+00 -0.24462800698E+02  0.24487393173E+02  0.51100000000E-03 0. -1.
        -12    1    3    3    0    0 -0.61471872661E+01  0.17940795053E+01 -0.19238877868E+02  0.20276613479E+02  0.00000000000E+00 0.  1.
</event>
<event>
 7    1  0.2031146E-008  0.4614232E+02  0.7816164E-02  0.1320468E+00
        -11   -1    0    0    0    0  0.00000000000E+00  0.00000000000E+00  0.45593999997E+02  0.45594000000E+02  0.51100000000E-03 0.  1.
         11   -1    0    0    0    0 -0.00000000000E+00 -0.00000000000E+00 -0.45593999997E+02  0.45594000000E+02  0.51100000000E-03 0. -1.
    9900012    2    1    2    0    0 -0.18203607851E+02 -0.34188823088E+02 -0.22997098513E+02  0.46142317599E+02  0.99999985236E+01 0.  0.
        -12    1    1    2    0    0  0.18203607851E+02  0.34188823088E+02  0.22997098513E+02  0.45045682401E+02  0.00000000000E+00 0.  1.
         11    1    3    3    0    0 -0.96344675978E+01 -0.19181659285E+02 -0.95619265912E+01  0.23498711863E+02  0.51100000000E-03 0. -1.
        -11    1    3    3    0    0  0.48210457643E+00 -0.21752671342E+01 -0.46335195635E+00  0.22757212537E+01  0.51100000000E-03 0.  1.
         12    1    3    3    0    0 -0.90512448297E+01 -0.12831896669E+02 -0.12971819965E+02  0.20367884483E+02  0.00000000000E+00 0. -1.
</event>
<event>
 7    1  0.2031146E-008  0.4614232E+02  0.7816164E-02  0.1320468E+00
        -11   -1    0    0    0    0  0.00000000000E+00  0.00000000000E+00  0.45593999997E+02  0.45594000000E+02  0.51100000000E-03 0. -1.
         11   -1    0    0    0    0 -0.00000000000E+00 -0.00000000000E+00 -0.45593999997E+02  0.45594000000E+02  0.51100000000E-03 0.  1.
    9900012    2    1    2    0    0  0.40736703356E+02  0.13385165715E+02 -0.13801152998E+02  0.46142317792E+02  0.10000000282E+02 0.  0.
        -12    1    1    2    0    0 -0.40736703356E+02 -0.13385165715E+02  0.13801152998E+02  0.45045682208E+02  0.00000000000E+00 0.  1.
         11    1    3    3    0    0  0.19398283923E+02  0.69055200229E+01 -0.98725805792E+01  0.22835224403E+02  0.51100000000E-03 0. -1.
        -11    1    3    3    0    0  0.51675699146E+01 -0.65772033940E+00 -0.44451994223E-01  0.52094482537E+01  0.51100000000E-03 0.  1.
         12    1    3    3    0    0  0.16170849518E+02  0.71373660310E+01 -0.38841204243E+01  0.18097645136E+02  0.00000000000E+00 0. -1.
</event>
<event>
 7    1  0.2031146E-008  0.4614232E+02  0.7816164E-02  0.1320468E+00
        -11   -1    0    0    0    0  0.00000000000E+00  0.00000000000E+00  0.45593999997E+02  0.45594000000E+02  0.51100000000E-03 0. -1.
         11   -1    0    0    0    0 -0.00000000000E+00 -0.00000000000E+00 -0.45593999997E+02  0.45594000000E+02  0.51100000000E-03 0.  1.
    9900012    2    1    2    0    0  0.31916692119E+02  0.22026179895E+02 -0.22919110619E+02  0.46142317985E+02  0.10000002042E+02 0.  0.
        -12    1    1    2    0    0 -0.31916692119E+02 -0.22026179895E+02  0.22919110619E+02  0.45045682015E+02  0.00000000000E+00 0.  1.
         11    1    3    3    0    0  0.18352076972E+02  0.10329738807E+02 -0.10534752227E+02  0.23547467756E+02  0.51100000000E-03 0. -1.
        -11    1    3    3    0    0  0.53916475097E+01  0.14752632274E+01 -0.53483091973E+01  0.77363218644E+01  0.51100000000E-03 0.  1.
        -12    1    3    3    0    0  0.81729676378E+01  0.10221177861E+02 -0.70360491952E+01  0.14858528364E+02  0.00000000000E+00 0.  1.
</event>
<event>
 7    1  0.2031146E-008  0.4614232E+02  0.7816164E-02  0.1320468E+00
        -11   -1    0    0    0    0  0.00000000000E+00  0.00000000000E+00  0.45593999997E+02  0.45594000000E+02  0.51100000000E-03 0. -1.
         11   -1    0    0    0    0 -0.00000000000E+00 -0.00000000000E+00 -0.45593999997E+02  0.45594000000E+02  0.51100000000E-03 0.  1.
    9900012    2    1    2    0    0  0.20974830331E+02 -0.37597588635E+02  0.13251084930E+02  0.46142318404E+02  0.10000005865E+02 0.  0.
        -12    1    1    2    0    0 -0.20974830331E+02  0.37597588635E+02 -0.13251084930E+02  0.45045681596E+02  0.00000000000E+00 0.  1.
         11    1    3    3    0    0  0.54850679146E+01 -0.52021772730E+01  0.13365039143E+01  0.76769044140E+01  0.51100000000E-03 0. -1.
        -11    1    3    3    0    0  0.14431208160E+02 -0.31797885658E+02  0.12534473857E+02  0.37100920965E+02  0.51100000000E-03 0.  1.
        -12    1    3    3    0    0  0.10585542565E+01 -0.59752570406E+00 -0.61989284192E+00  0.13644930254E+01  0.00000000000E+00 0.  1.
</event>
<event>
 7    1  0.2031146E-008  0.4614232E+02  0.7816164E-02  0.1320468E+00
        -11   -1    0    0    0    0  0.00000000000E+00  0.00000000000E+00  0.45593999997E+02  0.45594000000E+02  0.51100000000E-03 0.  1.
         11   -1    0    0    0    0 -0.00000000000E+00 -0.00000000000E+00 -0.45593999997E+02  0.45594000000E+02  0.51100000000E-03 0. -1.
    9900012    2    1    2    0    0  0.37759296279E+02  0.13768220688E+02 -0.20341711781E+02  0.46142316582E+02  0.99999892501E+01 0.  0.
        -12    1    1    2    0    0 -0.37759296279E+02 -0.13768220688E+02  0.20341711781E+02  0.45045683418E+02  0.00000000000E+00 0.  1.
         11    1    3    3    0    0  0.79606254124E+01  0.40600381891E+01 -0.62107666771E+01  0.10882513038E+02  0.51100000000E-03 0. -1.
        -11    1    3    3    0    0  0.30008776669E+02  0.10247913619E+02 -0.13728737703E+02  0.34554661768E+02  0.51100000000E-03 0.  1.
        -12    1    3    3    0    0 -0.21010580280E+00 -0.53973112007E+00 -0.40220740138E+00  0.70514177586E+00  0.00000000000E+00 0.  1.
</event>
<event>
 7    1  0.2031146E-008  0.4614232E+02  0.7816164E-02  0.1320468E+00
        -11   -1    0    0    0    0  0.00000000000E+00  0.00000000000E+00  0.45593999997E+02  0.45594000000E+02  0.51100000000E-03 0. -1.
         11   -1    0    0    0    0 -0.00000000000E+00 -0.00000000000E+00 -0.45593999997E+02  0.45594000000E+02  0.51100000000E-03 0.  1.
    9900012    2    1    2    0    0 -0.39834910885E+02  0.17293745125E+02  0.11967445845E+02  0.46142317569E+02  0.99999982438E+01 0.  0.
        -12    1    1    2    0    0  0.39834910885E+02 -0.17293745125E+02 -0.11967445845E+02  0.45045682431E+02  0.00000000000E+00 0.  1.
         11    1    3    3    0    0 -0.31958644709E+02  0.12484731926E+02  0.88401443752E+01  0.35431224305E+02  0.51100000000E-03 0. -1.
        -11    1    3    3    0    0 -0.13140508110E+01 -0.83778859379E-01 -0.89363835413E+00  0.15913322092E+01  0.51100000000E-03 0.  1.
        -12    1    3    3    0    0 -0.65622153652E+01  0.48927920587E+01  0.40209398236E+01  0.91197610547E+01  0.00000000000E+00 0.  1.
</event>
<event>
 7    1  0.2031146E-008  0.4614232E+02  0.7816164E-02  0.1320468E+00
        -11   -1    0    0    0    0  0.00000000000E+00  0.00000000000E+00  0.45593999997E+02  0.45594000000E+02  0.51100000000E-03 0. -1.
         11   -1    0    0    0    0 -0.00000000000E+00 -0.00000000000E+00 -0.45593999997E+02  0.45594000000E+02  0.51100000000E-03 0.  1.
    9900012    2    1    2    0    0 -0.12471256709E+01 -0.38420283684E+02  0.23482762226E+02  0.46142316050E+02  0.99999843929E+01 0.  0.
        -12    1    1    2    0    0  0.12471256709E+01  0.38420283684E+02 -0.23482762226E+02  0.45045683950E+02  0.00000000000E+00 0.  1.
         11    1    3    3    0    0  0.18247057843E+01 -0.98050387788E+01  0.96604562888E+01  0.13884982990E+02  0.51100000000E-03 0. -1.
        -11    1    3    3    0    0  0.56905835710E+00 -0.14651392441E+02  0.79353057970E+01  0.16672018661E+02  0.51100000000E-03 0.  1.
        -12    1    3    3    0    0 -0.36408898122E+01 -0.13963852464E+02  0.58870001397E+01  0.15585314399E+02  0.00000000000E+00 0.  1.
</event>
<event>
 7    1  0.2031146E-008  0.4614232E+02  0.7816164E-02  0.1320468E+00
        -11   -1    0    0    0    0  0.00000000000E+00  0.00000000000E+00  0.45593999997E+02  0.45594000000E+02  0.51100000000E-03 0.  1.
         11   -1    0    0    0    0 -0.00000000000E+00 -0.00000000000E+00 -0.45593999997E+02  0.45594000000E+02  0.51100000000E-03 0. -1.
    9900012    2    1    2    0    0  0.18894309519E+02  0.17086464499E+02 -0.37150656401E+02  0.46142317939E+02  0.10000001622E+02 0.  0.
        -12    1    1    2    0    0 -0.18894309519E+02 -0.17086464499E+02  0.37150656401E+02  0.45045682061E+02  0.00000000000E+00 0.  1.
         11    1    3    3    0    0  0.13150051181E+02  0.13807932537E+02 -0.30836334752E+02  0.36255515280E+02  0.51100000000E-03 0. -1.
        -11    1    3    3    0    0  0.16183602484E+01  0.21833555963E+01 -0.65058678465E+00  0.27945294737E+01  0.51100000000E-03 0.  1.
         12    1    3    3    0    0  0.41258980902E+01  0.10951763661E+01 -0.56637348648E+01  0.70922731858E+01  0.00000000000E+00 0. -1.
</event>
<event>
 7    1  0.2031146E-008  0.4614232E+02  0.7816164E-02  0.1320468E+00
        -11   -1    0    0    0    0  0.00000000000E+00  0.00000000000E+00  0.45593999997E+02  0.45594000000E+02  0.51100000000E-03 0.  1.
         11   -1    0    0    0    0 -0.00000000000E+00 -0.00000000000E+00 -0.45593999997E+02  0.45594000000E+02  0.51100000000E-03 0. -1.
    9900012    2    1    2    0    0  0.33164675065E+02  0.10072761497E+02 -0.28770775786E+02  0.46142315016E+02  0.99999749649E+01 0.  0.
        -12    1    1    2    0    0 -0.33164675065E+02 -0.10072761497E+02  0.28770775786E+02  0.45045684984E+02  0.00000000000E+00 0.  1.
         11    1    3    3    0    0  0.75881823450E+01  0.50018139361E+01 -0.78752026799E+01  0.12025700456E+02  0.51100000000E-03 0. -1.
        -11    1    3    3    0    0  0.11463551465E+02 -0.92797960756E+00 -0.10643355088E+02  0.15670199939E+02  0.51100000000E-03 0.  1.
         12    1    3    3    0    0  0.14112941255E+02  0.59989271680E+01 -0.10252218018E+02  0.18446414620E+02  0.00000000000E+00 0. -1.
</event>
<event>
 7    1  0.2031146E-008  0.4614232E+02  0.7816164E-02  0.1320468E+00
        -11   -1    0    0    0    0  0.00000000000E+00  0.00000000000E+00  0.45593999997E+02  0.45594000000E+02  0.51100000000E-03 0.  1.
         11   -1    0    0    0    0 -0.00000000000E+00 -0.00000000000E+00 -0.45593999997E+02  0.45594000000E+02  0.51100000000E-03 0. -1.
    9900012    2    1    2    0    0  0.99654927486E+01 -0.12745809107E+02 -0.42039824237E+02  0.46142317439E+02  0.99999970633E+01 0.  0.
        -12    1    1    2    0    0 -0.99654927486E+01  0.12745809107E+02  0.42039824237E+02  0.45045682561E+02  0.00000000000E+00 0.  1.
         11    1    3    3    0    0 -0.64015780941E+00 -0.58640386749E+00 -0.58780894620E+01  0.59418521945E+01  0.51100000000E-03 0. -1.
        -11    1    3    3    0    0  0.77993895765E+01 -0.11685034565E+02 -0.24952958100E+02  0.28636002318E+02  0.51100000000E-03 0.  1.
         12    1    3    3    0    0  0.28062609815E+01 -0.47437067443E+00 -0.11208776675E+02  0.11564462926E+02  0.00000000000E+00 0. -1.
</event>
<event>
 7    1  0.2031146E-008  0.4614232E+02  0.7816164E-02  0.1320468E+00
        -11   -1    0    0    0    0  0.00000000000E+00  0.00000000000E+00  0.45593999997E+02  0.45594000000E+02  0.51100000000E-03 0. -1.
         11   -1    0    0    0    0 -0.00000000000E+00 -0.00000000000E+00 -0.45593999997E+02  0.45594000000E+02  0.51100000000E-03 0.  1.
    9900012    2    1    2    0    0  0.44131209019E+01 -0.15146515419E+02  0.42192664612E+02  0.46142317494E+02  0.99999975625E+01 0.  0.
        -12    1    1    2    0    0 -0.44131209019E+01  0.15146515419E+02 -0.42192664612E+02  0.45045682506E+02  0.00000000000E+00 0.  1.
         11    1    3    3    0    0 -0.72390141325E+00 -0.56279986573E+01  0.11734434616E+02  0.13034391362E+02  0.51100000000E-03 0. -1.
        -11    1    3    3    0    0  0.21205752981E+01 -0.36904665400E+01  0.21971321193E+02  0.22379797544E+02  0.51100000000E-03 0.  1.
         12    1    3    3    0    0  0.30164470170E+01 -0.58280502213E+01  0.84869088023E+01  0.10728128588E+02  0.00000000000E+00 0. -1.
</event>
<event>
 7    1  0.2031146E-008  0.4614232E+02  0.7816164E-02  0.1320468E+00
        -11   -1    0    0    0    0  0.00000000000E+00  0.00000000000E+00  0.45593999997E+02  0.45594000000E+02  0.51100000000E-03 0.  1.
         11   -1    0    0    0    0 -0.00000000000E+00 -0.00000000000E+00 -0.45593999997E+02  0.45594000000E+02  0.51100000000E-03 0. -1.
    9900012    2    1    2    0    0 -0.88279293043E+01 -0.30461529190E+02 -0.31988690303E+02  0.46142318701E+02  0.10000008572E+02 0.  0.
        -12    1    1    2    0    0  0.88279293043E+01  0.30461529190E+02  0.31988690303E+02  0.45045681299E+02  0.00000000000E+00 0.  1.
         11    1    3    3    0    0 -0.16413814619E+01 -0.55870227033E+01 -0.11191586339E+02  0.12615885258E+02  0.51100000000E-03 0. -1.
        -11    1    3    3    0    0 -0.24959916802E+00 -0.77845978180E+01 -0.72611804223E+01  0.10648333406E+02  0.51100000000E-03 0.  1.
        -12    1    3    3    0    0 -0.69369486743E+01 -0.17089908669E+02 -0.13535923541E+02  0.22878100038E+02  0.00000000000E+00 0.  1.
</event>
<event>
 7    1  0.2031146E-008  0.4614232E+02  0.7816164E-02  0.1320468E+00
        -11   -1    0    0    0    0  0.00000000000E+00  0.00000000000E+00  0.45593999997E+02  0.45594000000E+02  0.51100000000E-03 0.  1.
         11   -1    0    0    0    0 -0.00000000000E+00 -0.00000000000E+00 -0.45593999997E+02  0.45594000000E+02  0.51100000000E-03 0. -1.
    9900012    2    1    2    0    0 -0.14366645704E+02  0.26675139579E+01 -0.42609824978E+02  0.46142319584E+02  0.10000016621E+02 0.  0.
        -12    1    1    2    0    0  0.14366645704E+02 -0.26675139579E+01  0.42609824978E+02  0.45045680416E+02  0.00000000000E+00 0.  1.
         11    1    3    3    0    0 -0.11592623748E+02  0.17808377661E+01 -0.33034802041E+02  0.35055077445E+02  0.51100000000E-03 0. -1.
        -11    1    3    3    0    0 -0.19207822666E+00  0.11200682319E+01 -0.79429164347E+01  0.80238001370E+01  0.51100000000E-03 0.  1.
        -12    1    3    3    0    0 -0.25819437291E+01 -0.23339204009E+00 -0.16321065025E+01  0.30634420021E+01  0.00000000000E+00 0.  1.
</event>
<event>
 7    1  0.2031146E-008  0.4614232E+02  0.7816164E-02  0.1320468E+00
        -11   -1    0    0    0    0  0.00000000000E+00  0.00000000000E+00  0.45593999997E+02  0.45594000000E+02  0.51100000000E-03 0. -1.
         11   -1    0    0    0    0 -0.00000000000E+00 -0.00000000000E+00 -0.45593999997E+02  0.45594000000E+02  0.51100000000E-03 0.  1.
    9900012    2    1    2    0    0 -0.53771578166E+01 -0.44720787795E+02 -0.50081502714E+00  0.46142317600E+02  0.99999985272E+01 0.  0.
        -12    1    1    2    0    0  0.53771578166E+01  0.44720787795E+02  0.50081502714E+00  0.45045682400E+02  0.00000000000E+00 0.  1.
         11    1    3    3    0    0 -0.38386082547E+01 -0.24775069852E+02 -0.11130225393E+01  0.25095374453E+02  0.51100000000E-03 0. -1.
        -11    1    3    3    0    0  0.13927011348E+01 -0.49252481916E+01 -0.20493793156E+01  0.55134056662E+01  0.51100000000E-03 0.  1.
        -12    1    3    3    0    0 -0.29312506966E+01 -0.15020469752E+02  0.26615868278E+01  0.15533537480E+02  0.00000000000E+00 0.  1.
</event>
<event>
 7    1  0.2031146E-008  0.4614232E+02  0.7816164E-02  0.1320468E+00
        -11   -1    0    0    0    0  0.00000000000E+00  0.00000000000E+00  0.45593999997E+02  0.45594000000E+02  0.51100000000E-03 0.  1.
         11   -1    0    0    0    0 -0.00000000000E+00 -0.00000000000E+00 -0.45593999997E+02  0.45594000000E+02  0.51100000000E-03 0. -1.
    9900012    2    1    2    0    0 -0.46340293680E+01 -0.33533532801E+02 -0.29717695310E+02  0.46142318023E+02  0.10000002384E+02 0.  0.
        -12    1    1    2    0    0  0.46340293680E+01  0.33533532801E+02  0.29717695310E+02  0.45045681977E+02  0.00000000000E+00 0.  1.
         11    1    3    3    0    0 -0.55552783329E+00 -0.23213246209E+02 -0.17516580994E+02  0.29085976358E+02  0.51100000000E-03 0. -1.
        -11    1    3    3    0    0 -0.38591130579E+01 -0.81043151892E+01 -0.69491484792E+01  0.11351799114E+02  0.51100000000E-03 0.  1.
         12    1    3    3    0    0 -0.21938847686E+00 -0.22159714027E+01 -0.52519658361E+01  0.57045425500E+01  0.00000000000E+00 0. -1.
</event>
<event>
 7    1  0.2031146E-008  0.4614232E+02  0.7816164E-02  0.1320468E+00
        -11   -1    0    0    0    0  0.00000000000E+00  0.00000000000E+00  0.45593999997E+02  0.45594000000E+02  0.51100000000E-03 0.  1.
         11   -1    0    0    0    0 -0.00000000000E+00 -0.00000000000E+00 -0.45593999997E+02  0.45594000000E+02  0.51100000000E-03 0. -1.
    9900012    2    1    2    0    0 -0.34128927553E+02  0.27406830978E+02 -0.10639333468E+02  0.46142317668E+02  0.99999991468E+01 0.  0.
        -12    1    1    2    0    0  0.34128927553E+02 -0.27406830978E+02  0.10639333468E+02  0.45045682332E+02  0.00000000000E+00 0.  1.
         11    1    3    3    0    0 -0.24993378747E+02  0.16928758375E+02 -0.54618731456E+01  0.30677090798E+02  0.51100000000E-03 0. -1.
        -11    1    3    3    0    0 -0.26201919049E+01  0.59101337431E+00 -0.14454314844E+01  0.30502417715E+01  0.51100000000E-03 0.  1.
         12    1    3    3    0    0 -0.65153569005E+01  0.98870592286E+01 -0.37320288381E+01  0.12414985098E+02  0.00000000000E+00 0. -1.
</event>
<event>
 7    1  0.2031146E-008  0.4614232E+02  0.7816164E-02  0.1320468E+00
        -11   -1    0    0    0    0  0.00000000000E+00  0.00000000000E+00  0.45593999997E+02  0.45594000000E+02  0.51100000000E-03 0.  1.
         11   -1    0    0    0    0 -0.00000000000E+00 -0.00000000000E+00 -0.45593999997E+02  0.45594000000E+02  0.51100000000E-03 0. -1.
    9900012    2    1    2    0    0  0.35017480363E+02 -0.97503106130E+01 -0.26604906430E+02  0.46142317253E+02  0.99999953666E+01 0.  0.
        -12    1    1    2    0    0 -0.35017480363E+02  0.97503106130E+01  0.26604906430E+02  0.45045682747E+02  0.00000000000E+00 0.  1.
         11    1    3    3    0    0  0.21423515303E+02 -0.90708198161E+01 -0.15892218273E+02  0.28174623014E+02  0.51100000000E-03 0. -1.
        -11    1    3    3    0    0  0.45858549557E+01  0.18468309253E+01 -0.26068491791E+01  0.55889635036E+01  0.51100000000E-03 0.  1.
        -12    1    3    3    0    0  0.90081101042E+01 -0.25263217221E+01 -0.81058389775E+01  0.12378730736E+02  0.00000000000E+00 0.  1.
</event>
<event>
 7    1  0.2031146E-008  0.4614232E+02  0.7816164E-02  0.1320468E+00
        -11   -1    0    0    0    0  0.00000000000E+00  0.00000000000E+00  0.45593999997E+02  0.45594000000E+02  0.51100000000E-03 0. -1.
         11   -1    0    0    0    0 -0.00000000000E+00 -0.00000000000E+00 -0.45593999997E+02  0.45594000000E+02  0.51100000000E-03 0.  1.
    9900012    2    1    2    0    0 -0.15194003314E+02  0.10005831373E+02  0.41208482767E+02  0.46142318186E+02  0.10000003872E+02 0.  0.
        -12    1    1    2    0    0  0.15194003314E+02 -0.10005831373E+02 -0.41208482767E+02  0.45045681814E+02  0.00000000000E+00 0.  1.
         11    1    3    3    0    0 -0.10987172418E+02  0.48530167885E+01  0.27440477260E+02  0.29954123627E+02  0.51100000000E-03 0. -1.
        -11    1    3    3    0    0 -0.40034170559E+01  0.61767575753E+01  0.12794743721E+02  0.14760933216E+02  0.51100000000E-03 0.  1.
         12    1    3    3    0    0 -0.20341383973E+00 -0.10239429905E+01  0.97326178539E+00  0.14272613429E+01  0.00000000000E+00 0. -1.
</event>
<event>
 7    1  0.2031146E-008  0.4614232E+02  0.7816164E-02  0.1320468E+00
        -11   -1    0    0    0    0  0.00000000000E+00  0.00000000000E+00  0.45593999997E+02  0.45594000000E+02  0.51100000000E-03 0.  1.
         11   -1    0    0    0    0 -0.00000000000E+00 -0.00000000000E+00 -0.45593999997E+02  0.45594000000E+02  0.51100000000E-03 0. -1.
    9900012    2    1    2    0    0 -0.28204002161E+02  0.12184227997E+01 -0.35102183345E+02  0.46142316882E+02  0.99999919809E+01 0.  0.
        -12    1    1    2    0    0  0.28204002161E+02 -0.12184227997E+01  0.35102183345E+02  0.45045683118E+02  0.00000000000E+00 0.  1.
         11    1    3    3    0    0 -0.28355434585E+01 -0.38114952369E+00 -0.35410802969E+01  0.45524533600E+01  0.51100000000E-03 0. -1.
        -11    1    3    3    0    0 -0.13304705276E+02  0.16258429355E+00 -0.93141514048E+01  0.16241768154E+02  0.51100000000E-03 0.  1.
         12    1    3    3    0    0 -0.12063753427E+02  0.14369880299E+01 -0.22246951644E+02  0.25348095368E+02  0.00000000000E+00 0. -1.
</event>
<event>
 7    1  0.2031146E-008  0.4614232E+02  0.7816164E-02  0.1320468E+00
        -11   -1    0    0    0    0  0.00000000000E+00  0.00000000000E+00  0.45593999997E+02  0.45594000000E+02  0.51100000000E-03 0. -1.
         11   -1    0    0    0    0 -0.00000000000E+00 -0.00000000000E+00 -0.45593999997E+02  0.45594000000E+02  0.51100000000E-03 0.  1.
    9900012    2    1    2    0    0 -0.98787514101E+01 -0.19481895391E+01  0.43905903379E+02  0.46142317372E+02  0.99999964529E+01 0.  0.
        -12    1    1    2    0    0  0.98787514101E+01  0.19481895391E+01 -0.43905903379E+02  0.45045682628E+02  0.00000000000E+00 0.  1.
         11    1    3    3    0    0 -0.31879498007E+00 -0.50242670794E+00  0.84598655890E+01  0.84807658192E+01  0.51100000000E-03 0. -1.
        -11    1    3    3    0    0 -0.57354027658E+01 -0.19126691483E+01  0.31756696531E+02  0.32327092708E+02  0.51100000000E-03 0.  1.
        -12    1    3    3    0    0 -0.38245536642E+01  0.46690631719E+00  0.36893412590E+01  0.53344588446E+01  0.00000000000E+00 0.  1.
</event>
<event>
 7    1  0.2031146E-008  0.4614232E+02  0.7816164E-02  0.1320468E+00
        -11   -1    0    0    0    0  0.00000000000E+00  0.00000000000E+00  0.45593999997E+02  0.45594000000E+02  0.51100000000E-03 0.  1.
         11   -1    0    0    0    0 -0.00000000000E+00 -0.00000000000E+00 -0.45593999997E+02  0.45594000000E+02  0.51100000000E-03 0. -1.
    9900012    2    1    2    0    0 -0.40052999779E+02 -0.10192344037E+02  0.17916102016E+02  0.46142318967E+02  0.10000010994E+02 0.  0.
        -12    1    1    2    0    0  0.40052999779E+02  0.10192344037E+02 -0.17916102016E+02  0.45045681033E+02  0.00000000000E+00 0.  1.
         11    1    3    3    0    0 -0.15902673533E+02 -0.67182349535E+01  0.69905927933E+01  0.18625200516E+02  0.51100000000E-03 0. -1.
        -11    1    3    3    0    0 -0.83937782161E+01 -0.22532117951E+01  0.75530012533E+00  0.87237007442E+01  0.51100000000E-03 0.  1.
        -12    1    3    3    0    0 -0.15756548030E+02 -0.12208972888E+01  0.10170209097E+02  0.18793417707E+02  0.00000000000E+00 0.  1.
</event>
<event>
 7    1  0.2031146E-008  0.4614232E+02  0.7816164E-02  0.1320468E+00
        -11   -1    0    0    0    0  0.00000000000E+00  0.00000000000E+00  0.45593999997E+02  0.45594000000E+02  0.51100000000E-03 0.  1.
         11   -1    0    0    0    0 -0.00000000000E+00 -0.00000000000E+00 -0.45593999997E+02  0.45594000000E+02  0.51100000000E-03 0. -1.
    9900012    2    1    2    0    0  0.39831474952E+02  0.78521193121E+01 -0.19516949167E+02  0.46142317861E+02  0.10000000915E+02 0.  0.
        -12    1    1    2    0    0 -0.39831474952E+02 -0.78521193121E+01  0.19516949167E+02  0.45045682139E+02  0.00000000000E+00 0.  1.
         11    1    3    3    0    0  0.55403835730E+01  0.25653689932E+00 -0.46408403544E+00  0.55657017140E+01  0.51100000000E-03 0. -1.
        -11    1    3    3    0    0  0.18900014463E+02  0.56046821207E+01 -0.69741657797E+01  0.20910810529E+02  0.51100000000E-03 0.  1.
         12    1    3    3    0    0  0.15391076916E+02  0.19909002920E+01 -0.12078699352E+02  0.19665805619E+02  0.00000000000E+00 0. -1.
</event>
<event>
 7    1  0.2031146E-008  0.4614232E+02  0.7816164E-02  0.1320468E+00
        -11   -1    0    0    0    0  0.00000000000E+00  0.00000000000E+00  0.45593999997E+02  0.45594000000E+02  0.51100000000E-03 0.  1.
         11   -1    0    0    0    0 -0.00000000000E+00 -0.00000000000E+00 -0.45593999997E+02  0.45594000000E+02  0.51100000000E-03 0. -1.
    9900012    2    1    2    0    0  0.27811110638E+02  0.78868663100E+01 -0.34546387932E+02  0.46142318139E+02  0.10000003447E+02 0.  0.
        -12    1    1    2    0    0 -0.27811110638E+02 -0.78868663100E+01  0.34546387932E+02  0.45045681861E+02  0.00000000000E+00 0.  1.
         11    1    3    3    0    0  0.19495191606E+02  0.81721270005E+01 -0.20179364558E+02  0.29224183644E+02  0.51100000000E-03 0. -1.
        -11    1    3    3    0    0  0.78670162477E+01  0.63304472093E+00 -0.12342106300E+02  0.14649855919E+02  0.51100000000E-03 0.  1.
         12    1    3    3    0    0  0.44890278499E+00 -0.91830541147E+00 -0.20249170748E+01  0.22682785761E+01  0.00000000000E+00 0. -1.
</event>
<event>
 7    1  0.2031146E-008  0.4614232E+02  0.7816164E-02  0.1320468E+00
        -11   -1    0    0    0    0  0.00000000000E+00  0.00000000000E+00  0.45593999997E+02  0.45594000000E+02  0.51100000000E-03 0. -1.
         11   -1    0    0    0    0 -0.00000000000E+00 -0.00000000000E+00 -0.45593999997E+02  0.45594000000E+02  0.51100000000E-03 0.  1.
    9900012    2    1    2    0    0  0.26349129182E+02  0.31563613668E+02  0.18400412671E+02  0.46142317600E+02  0.99999985296E+01 0.  0.
        -12    1    1    2    0    0 -0.26349129182E+02 -0.31563613668E+02 -0.18400412671E+02  0.45045682400E+02  0.00000000000E+00 0.  1.
         11    1    3    3    0    0  0.42095674916E+01  0.56519239575E+01 -0.38669816860E+00  0.70579202760E+01  0.51100000000E-03 0. -1.
        -11    1    3    3    0    0  0.39198585352E+00  0.11576054973E+01  0.15754454021E+00  0.12322840339E+01  0.51100000000E-03 0.  1.
         12    1    3    3    0    0  0.21747575837E+02  0.24754084213E+02  0.18629566300E+02  0.37852113290E+02  0.00000000000E+00 0. -1.
</event>
<event>
 7    1  0.2031146E-008  0.4614232E+02  0.7816164E-02  0.1320468E+00
        -11   -1    0    0    0    0  0.00000000000E+00  0.00000000000E+00  0.45593999997E+02  0.45594000000E+02  0.51100000000E-03 0.  1.
         11   -1    0    0    0    0 -0.00000000000E+00 -0.00000000000E+00 -0.45593999997E+02  0.45594000000E+02  0.51100000000E-03 0. -1.
    9900012    2    1    2    0    0  0.22388342881E+02 -0.15993033717E+02 -0.35666488598E+02  0.46142318372E+02  0.10000005569E+02 0.  0.
        -12    1    1    2    0    0 -0.22388342881E+02  0.15993033717E+02  0.35666488598E+02  0.45045681628E+02  0.00000000000E+00 0.  1.
         11    1    3    3    0    0  0.14243286008E+02 -0.10345452390E+02 -0.19043220068E+02  0.25933449680E+02  0.51100000000E-03 0. -1.
        -11    1    3    3    0    0  0.53354762849E+01 -0.85075527392E+00 -0.51709030748E+01  0.74785914846E+01  0.51100000000E-03 0.  1.
        -12    1    3    3    0    0  0.28095805879E+01 -0.47968260528E+01 -0.11452365455E+02  0.12730277208E+02  0.00000000000E+00 0.  1.
</event>
<event>
 7    1  0.2031146E-008  0.4614232E+02  0.7816164E-02  0.1320468E+00
        -11   -1    0    0    0    0  0.00000000000E+00  0.00000000000E+00  0.45593999997E+02  0.45594000000E+02  0.51100000000E-03 0.  1.
         11   -1    0    0    0    0 -0.00000000000E+00 -0.00000000000E+00 -0.45593999997E+02  0.45594000000E+02  0.51100000000E-03 0. -1.
    9900012    2    1    2    0    0  0.23887292509E+01 -0.29891790259E+02 -0.33613811535E+02  0.46142317873E+02  0.10000001025E+02 0.  0.
        -12    1    1    2    0    0 -0.23887292509E+01  0.29891790259E+02  0.33613811535E+02  0.45045682127E+02  0.00000000000E+00 0.  1.
         11    1    3    3    0    0 -0.71284206868E+00 -0.73092847290E+00 -0.20104911540E+01  0.22548780873E+01  0.51100000000E-03 0.  1.
        -11    1    3    3    0    0  0.18571103600E+01 -0.38550660128E+01 -0.88657808678E+01  0.98444128067E+01  0.51100000000E-03 0. -1.
         12    1    3    3    0    0  0.12444609596E+01 -0.25305795773E+02 -0.22737539514E+02  0.34043026979E+02  0.00000000000E+00 0. -1.
</event>
<event>
 7    1  0.2031146E-008  0.4614232E+02  0.7816164E-02  0.1320468E+00
        -11   -1    0    0    0    0  0.00000000000E+00  0.00000000000E+00  0.45593999997E+02  0.45594000000E+02  0.51100000000E-03 0.  1.
         11   -1    0    0    0    0 -0.00000000000E+00 -0.00000000000E+00 -0.45593999997E+02  0.45594000000E+02  0.51100000000E-03 0. -1.
    9900012    2    1    2    0    0  0.14013913343E+02  0.40984435317E+02 -0.12369308633E+02  0.46142317615E+02  0.99999986700E+01 0.  0.
        -12    1    1    2    0    0 -0.14013913343E+02 -0.40984435317E+02  0.12369308633E+02  0.45045682385E+02  0.00000000000E+00 0.  1.
         11    1    3    3    0    0  0.29779336385E+01  0.12047416407E+02 -0.75027476077E+01  0.14501708615E+02  0.51100000000E-03 0. -1.
        -11    1    3    3    0    0  0.58254640631E+01  0.12969131325E+02 -0.42248137056E+01  0.14831839063E+02  0.51100000000E-03 0.  1.
        -12    1    3    3    0    0  0.52105156415E+01  0.15967887585E+02 -0.64174732014E+00  0.16808769937E+02  0.00000000000E+00 0.  1.
</event>
<event>
 7    1  0.2031146E-008  0.4614232E+02  0.7816164E-02  0.1320468E+00
        -11   -1    0    0    0    0  0.00000000000E+00  0.00000000000E+00  0.45593999997E+02  0.45594000000E+02  0.51100000000E-03 0.  1.
         11   -1    0    0    0    0 -0.00000000000E+00 -0.00000000000E+00 -0.45593999997E+02  0.45594000000E+02  0.51100000000E-03 0. -1.
    9900012    2    1    2    0    0  0.44516998521E+02 -0.54145356076E+01 -0.42465654326E+01  0.46142315733E+02  0.99999815028E+01 0.  0.
        -12    1    1    2    0    0 -0.44516998521E+02  0.54145356076E+01  0.42465654326E+01  0.45045684267E+02  0.00000000000E+00 0.  1.
         11    1    3    3    0    0  0.14905274910E+01  0.13875238119E+01 -0.68697574246E+00  0.21491464496E+01  0.51100000000E-03 0.  1.
        -11    1    3    3    0    0  0.39696174993E+02 -0.75878226262E+01 -0.35608428808E+01  0.40571430386E+02  0.51100000000E-03 0. -1.
         12    1    3    3    0    0  0.33302960368E+01  0.78576320662E+00  0.12531907040E-02  0.34217388972E+01  0.00000000000E+00 0. -1.
</event>
<event>
 7    1  0.2031146E-008  0.4614232E+02  0.7816164E-02  0.1320468E+00
        -11   -1    0    0    0    0  0.00000000000E+00  0.00000000000E+00  0.45593999997E+02  0.45594000000E+02  0.51100000000E-03 0. -1.
         11   -1    0    0    0    0 -0.00000000000E+00 -0.00000000000E+00 -0.45593999997E+02  0.45594000000E+02  0.51100000000E-03 0.  1.
    9900012    2    1    2    0    0  0.79708994960E+01 -0.36496471111E+02 -0.25171132141E+02  0.46142317237E+02  0.99999952228E+01 0.  0.
        -12    1    1    2    0    0 -0.79708994960E+01  0.36496471111E+02  0.25171132141E+02  0.45045682763E+02  0.00000000000E+00 0.  1.
         11    1    3    3    0    0  0.76154163064E+01 -0.20035782685E+02 -0.11385735997E+02  0.24270602336E+02  0.51100000000E-03 0.  1.
        -11    1    3    3    0    0 -0.25668754046E+00 -0.91090106071E+01 -0.49805468978E+01  0.10384883745E+02  0.51100000000E-03 0. -1.
        -12    1    3    3    0    0  0.61217073003E+00 -0.73516778184E+01 -0.88048492466E+01  0.11486831156E+02  0.00000000000E+00 0.  1.
</event>
<event>
 7    1  0.2031146E-008  0.4614232E+02  0.7816164E-02  0.1320468E+00
        -11   -1    0    0    0    0  0.00000000000E+00  0.00000000000E+00  0.45593999997E+02  0.45594000000E+02  0.51100000000E-03 0.  1.
         11   -1    0    0    0    0 -0.00000000000E+00 -0.00000000000E+00 -0.45593999997E+02  0.45594000000E+02  0.51100000000E-03 0. -1.
    9900012    2    1    2    0    0 -0.31019784150E+02 -0.26169819522E+02 -0.19545512304E+02  0.46142317479E+02  0.99999974318E+01 0.  0.
        -12    1    1    2    0    0  0.31019784150E+02  0.26169819522E+02  0.19545512304E+02  0.45045682521E+02  0.00000000000E+00 0.  1.
         11    1    3    3    0    0 -0.86034515742E+01 -0.67087077149E+01 -0.44441428979E+01  0.11780345689E+02  0.51100000000E-03 0. -1.
        -11    1    3    3    0    0 -0.15590403634E+02 -0.10001648573E+02 -0.12682829431E+02  0.22448782200E+02  0.51100000000E-03 0.  1.
        -12    1    3    3    0    0 -0.68259289418E+01 -0.94594632346E+01 -0.24185399751E+01  0.11913189590E+02  0.00000000000E+00 0.  1.
</event>
<event>
 7    1  0.2031146E-008  0.4614232E+02  0.7816164E-02  0.1320468E+00
        -11   -1    0    0    0    0  0.00000000000E+00  0.00000000000E+00  0.45593999997E+02  0.45594000000E+02  0.51100000000E-03 0.  1.
         11   -1    0    0    0    0 -0.00000000000E+00 -0.00000000000E+00 -0.45593999997E+02  0.45594000000E+02  0.51100000000E-03 0. -1.
    9900012    2    1    2    0    0 -0.37078900747E+02  0.25555357458E+02 -0.10919390220E+01  0.46142317563E+02  0.99999981941E+01 0.  0.
        -12    1    1    2    0    0  0.37078900747E+02 -0.25555357458E+02  0.10919390220E+01  0.45045682437E+02  0.00000000000E+00 0.  1.
         11    1    3    3    0    0 -0.39573959265E+01  0.29449682996E+01  0.16131997402E+01  0.51900129545E+01  0.51100000000E-03 0. -1.
        -11    1    3    3    0    0 -0.18419205445E+02  0.17185022030E+02 -0.15831599082E+01  0.25240810346E+02  0.51100000000E-03 0.  1.
         12    1    3    3    0    0 -0.14702299376E+02  0.54253671282E+01 -0.11219788540E+01  0.15711494262E+02  0.00000000000E+00 0. -1.
</event>
<event>
 7    1  0.2031146E-008  0.4614232E+02  0.7816164E-02  0.1320468E+00
        -11   -1    0    0    0    0  0.00000000000E+00  0.00000000000E+00  0.45593999997E+02  0.45594000000E+02  0.51100000000E-03 0. -1.
         11   -1    0    0    0    0 -0.00000000000E+00 -0.00000000000E+00 -0.45593999997E+02  0.45594000000E+02  0.51100000000E-03 0.  1.
    9900012    2    1    2    0    0  0.18429313336E+02 -0.40683796555E+02  0.58568418610E+01  0.46142317757E+02  0.99999999616E+01 0.  0.
        -12    1    1    2    0    0 -0.18429313336E+02  0.40683796555E+02 -0.58568418610E+01  0.45045682243E+02  0.00000000000E+00 0.  1.
         11    1    3    3    0    0  0.25635370761E+01 -0.68852212143E+01  0.41169795467E+01  0.84218474434E+01  0.51100000000E-03 0. -1.
        -11    1    3    3    0    0  0.11249478300E+01 -0.29090264899E+01  0.15737753275E+01  0.34935242638E+01  0.51100000000E-03 0.  1.
        -12    1    3    3    0    0  0.14740828430E+02 -0.30889548851E+02  0.16608698671E+00  0.34226946050E+02  0.00000000000E+00 0.  1.
</event>
<event>
 7    1  0.2031146E-008  0.4614232E+02  0.7816164E-02  0.1320468E+00
        -11   -1    0    0    0    0  0.00000000000E+00  0.00000000000E+00  0.45593999997E+02  0.45594000000E+02  0.51100000000E-03 0.  1.
         11   -1    0    0    0    0 -0.00000000000E+00 -0.00000000000E+00 -0.45593999997E+02  0.45594000000E+02  0.51100000000E-03 0. -1.
    9900012    2    1    2    0    0  0.29784631316E+02 -0.18559368478E+02 -0.28240729942E+02  0.46142320422E+02  0.10000024266E+02 0.  0.
        -12    1    1    2    0    0 -0.29784631316E+02  0.18559368478E+02  0.28240729942E+02  0.45045679578E+02  0.00000000000E+00 0.  1.
         11    1    3    3    0    0  0.30793763110E+01 -0.30699872035E+01 -0.49118685874E+01  0.65600177725E+01  0.51100000000E-03 0. -1.
        -11    1    3    3    0    0  0.93897358920E+00  0.51382672312E+00  0.32421974859E+00  0.11183952830E+01  0.51100000000E-03 0.  1.
         12    1    3    3    0    0  0.25766281416E+02 -0.16003207998E+02 -0.23653081103E+02  0.38463907367E+02  0.00000000000E+00 0. -1.
</event>
<event>
 7    1  0.2031146E-008  0.4614232E+02  0.7816164E-02  0.1320468E+00
        -11   -1    0    0    0    0  0.00000000000E+00  0.00000000000E+00  0.45593999997E+02  0.45594000000E+02  0.51100000000E-03 0.  1.
         11   -1    0    0    0    0 -0.00000000000E+00 -0.00000000000E+00 -0.45593999997E+02  0.45594000000E+02  0.51100000000E-03 0. -1.
    9900012    2    1    2    0    0 -0.67487417798E+01 -0.36630199014E+02 -0.25333700722E+02  0.46142318878E+02  0.10000010187E+02 0.  0.
        -12    1    1    2    0    0  0.67487417798E+01  0.36630199014E+02  0.25333700722E+02  0.45045681122E+02  0.00000000000E+00 0.  1.
         11    1    3    3    0    0 -0.41655674212E+00 -0.12820913172E+02 -0.13081417593E+02  0.18321376056E+02  0.51100000000E-03 0. -1.
        -11    1    3    3    0    0  0.20428141725E+00 -0.58326680517E+01 -0.24825061451E+01  0.63422854335E+01  0.51100000000E-03 0.  1.
        -12    1    3    3    0    0 -0.65364664550E+01 -0.17976617790E+02 -0.97697769841E+01  0.21478657389E+02  0.00000000000E+00 0.  1.
</event>
<event>
 7    1  0.2031146E-008  0.4614232E+02  0.7816164E-02  0.1320468E+00
        -11   -1    0    0    0    0  0.00000000000E+00  0.00000000000E+00  0.45593999997E+02  0.45594000000E+02  0.51100000000E-03 0. -1.
         11   -1    0    0    0    0 -0.00000000000E+00 -0.00000000000E+00 -0.45593999997E+02  0.45594000000E+02  0.51100000000E-03 0.  1.
    9900012    2    1    2    0    0 -0.28900508626E+02 -0.34421389207E+02 -0.30069998905E+01  0.46142317830E+02  0.10000000627E+02 0.  0.
        -12    1    1    2    0    0  0.28900508626E+02  0.34421389207E+02  0.30069998905E+01  0.45045682170E+02  0.00000000000E+00 0.  1.
         11    1    3    3    0    0 -0.52766209561E+01 -0.65519252980E+01  0.19655417569E+00  0.84148135826E+01  0.51100000000E-03 0. -1.
        -11    1    3    3    0    0 -0.14325495576E+01 -0.34732008634E+01  0.21313779174E+01  0.43195016565E+01  0.51100000000E-03 0.  1.
         12    1    3    3    0    0 -0.22191338113E+02 -0.24396263046E+02 -0.53349319836E+01  0.33408002591E+02  0.00000000000E+00 0. -1.
</event>
<event>
 7    1  0.2031146E-008  0.4614232E+02  0.7816164E-02  0.1320468E+00
        -11   -1    0    0    0    0  0.00000000000E+00  0.00000000000E+00  0.45593999997E+02  0.45594000000E+02  0.51100000000E-03 0. -1.
         11   -1    0    0    0    0 -0.00000000000E+00 -0.00000000000E+00 -0.45593999997E+02  0.45594000000E+02  0.51100000000E-03 0.  1.
    9900012    2    1    2    0    0 -0.51890111022E+01  0.11528397649E+00  0.44745661677E+02  0.46142319124E+02  0.10000012432E+02 0.  0.
        -12    1    1    2    0    0  0.51890111022E+01 -0.11528397649E+00 -0.44745661677E+02  0.45045680876E+02  0.00000000000E+00 0.  1.
         11    1    3    3    0    0 -0.10200218472E+01  0.25470987240E+01  0.15265203765E+02  0.15509822782E+02  0.51100000000E-03 0. -1.
        -11    1    3    3    0    0 -0.51162717282E+01 -0.73278253328E+00  0.12293337721E+02  0.13335642438E+02  0.51100000000E-03 0.  1.
         12    1    3    3    0    0  0.94728247325E+00 -0.16990322142E+01  0.17187120190E+02  0.17296853904E+02  0.00000000000E+00 0. -1.
</event>
<event>
 7    1  0.2031146E-008  0.4614232E+02  0.7816164E-02  0.1320468E+00
        -11   -1    0    0    0    0  0.00000000000E+00  0.00000000000E+00  0.45593999997E+02  0.45594000000E+02  0.51100000000E-03 0.  1.
         11   -1    0    0    0    0 -0.00000000000E+00 -0.00000000000E+00 -0.45593999997E+02  0.45594000000E+02  0.51100000000E-03 0. -1.
    9900012    2    1    2    0    0 -0.18466851147E+02 -0.40929197216E+02  0.35902031572E+01  0.46142319466E+02  0.10000015550E+02 0.  0.
        -12    1    1    2    0    0  0.18466851147E+02  0.40929197216E+02 -0.35902031572E+01  0.45045680534E+02  0.00000000000E+00 0.  1.
         11    1    3    3    0    0 -0.94123431821E+01 -0.15889100523E+02  0.29838793908E+01  0.18707197975E+02  0.51100000000E-03 0. -1.
        -11    1    3    3    0    0 -0.38292449464E+01 -0.60498154326E+01  0.26473678051E+01  0.76336059752E+01  0.51100000000E-03 0.  1.
         12    1    3    3    0    0 -0.52252630186E+01 -0.18990281260E+02 -0.20410440387E+01  0.19801515516E+02  0.00000000000E+00 0. -1.
</event>
<event>
 7    1  0.2031146E-008  0.4614232E+02  0.7816164E-02  0.1320468E+00
        -11   -1    0    0    0    0  0.00000000000E+00  0.00000000000E+00  0.45593999997E+02  0.45594000000E+02  0.51100000000E-03 0.  1.
         11   -1    0    0    0    0 -0.00000000000E+00 -0.00000000000E+00 -0.45593999997E+02  0.45594000000E+02  0.51100000000E-03 0. -1.
    9900012    2    1    2    0    0  0.18561034139E+02  0.19655566960E+02 -0.36031378303E+02  0.46142317375E+02  0.99999964757E+01 0.  0.
        -12    1    1    2    0    0 -0.18561034139E+02 -0.19655566960E+02  0.36031378303E+02  0.45045682625E+02  0.00000000000E+00 0.  1.
         11    1    3    3    0    0  0.28697993989E+00  0.11894223299E+01 -0.26554909155E+01  0.29238186038E+01  0.51100000000E-03 0. -1.
        -11    1    3    3    0    0  0.14210186151E+02  0.12592375382E+02 -0.29527564406E+02  0.35105190047E+02  0.51100000000E-03 0.  1.
        -12    1    3    3    0    0  0.40638680475E+01  0.58737692472E+01 -0.38483229807E+01  0.81133087234E+01  0.00000000000E+00 0.  1.
</event>
<event>
 7    1  0.2031146E-008  0.4614232E+02  0.7816164E-02  0.1320468E+00
        -11   -1    0    0    0    0  0.00000000000E+00  0.00000000000E+00  0.45593999997E+02  0.45594000000E+02  0.51100000000E-03 0.  1.
         11   -1    0    0    0    0 -0.00000000000E+00 -0.00000000000E+00 -0.45593999997E+02  0.45594000000E+02  0.51100000000E-03 0. -1.
    9900012    2    1    2    0    0  0.14946892047E+02 -0.44657417514E+01 -0.42258265399E+02  0.46142318456E+02  0.10000006334E+02 0.  0.
        -12    1    1    2    0    0 -0.14946892047E+02  0.44657417514E+01  0.42258265399E+02  0.45045681544E+02  0.00000000000E+00 0.  1.
         11    1    3    3    0    0  0.76604385128E+01  0.64928672953E+00 -0.17593368151E+02  0.19199752463E+02  0.51100000000E-03 0. -1.
        -11    1    3    3    0    0  0.29271539161E+01 -0.59139475593E+00 -0.24691315528E+01  0.38748662805E+01  0.51100000000E-03 0.  1.
         12    1    3    3    0    0  0.43592996179E+01 -0.45236337250E+01 -0.22195765695E+02  0.23067699712E+02  0.00000000000E+00 0. -1.
</event>
<event>
 7    1  0.2031146E-008  0.4614232E+02  0.7816164E-02  0.1320468E+00
        -11   -1    0    0    0    0  0.00000000000E+00  0.00000000000E+00  0.45593999997E+02  0.45594000000E+02  0.51100000000E-03 0.  1.
         11   -1    0    0    0    0 -0.00000000000E+00 -0.00000000000E+00 -0.45593999997E+02  0.45594000000E+02  0.51100000000E-03 0. -1.
    9900012    2    1    2    0    0  0.52706406356E+01 -0.44073353804E+02 -0.76728901774E+01  0.46142318610E+02  0.10000007740E+02 0.  0.
        -12    1    1    2    0    0 -0.52706406356E+01  0.44073353804E+02  0.76728901774E+01  0.45045681390E+02  0.00000000000E+00 0.  1.
         11    1    3    3    0    0  0.12480223999E+01 -0.24902578369E+02 -0.28848324532E+01  0.25100163901E+02  0.51100000000E-03 0. -1.
        -11    1    3    3    0    0  0.12767413157E+00 -0.86969647499E+01  0.43163071409E+00  0.87086050478E+01  0.51100000000E-03 0.  1.
        -12    1    3    3    0    0  0.38949441042E+01 -0.10473810685E+02 -0.52196884383E+01  0.12333549661E+02  0.00000000000E+00 0.  1.
</event>
<event>
 7    1  0.2031146E-008  0.4614232E+02  0.7816164E-02  0.1320468E+00
        -11   -1    0    0    0    0  0.00000000000E+00  0.00000000000E+00  0.45593999997E+02  0.45594000000E+02  0.51100000000E-03 0. -1.
         11   -1    0    0    0    0 -0.00000000000E+00 -0.00000000000E+00 -0.45593999997E+02  0.45594000000E+02  0.51100000000E-03 0.  1.
    9900012    2    1    2    0    0 -0.19051373155E+02 -0.12339569309E+02  0.38908787613E+02  0.46142317151E+02  0.99999944399E+01 0.  0.
        -12    1    1    2    0    0  0.19051373155E+02  0.12339569309E+02 -0.38908787613E+02  0.45045682849E+02  0.00000000000E+00 0.  1.
         11    1    3    3    0    0 -0.73804283611E+01 -0.76232586276E+01  0.15226291538E+02  0.18558683928E+02  0.51100000000E-03 0. -1.
        -11    1    3    3    0    0 -0.27564078349E+01 -0.38820662788E+01  0.52232348720E+01  0.70675600835E+01  0.51100000000E-03 0.  1.
        -12    1    3    3    0    0 -0.89145369589E+01 -0.83424440275E+00  0.18459261203E+02  0.20516073140E+02  0.00000000000E+00 0.  1.
</event>
<event>
 7    1  0.2031146E-008  0.4614232E+02  0.7816164E-02  0.1320468E+00
        -11   -1    0    0    0    0  0.00000000000E+00  0.00000000000E+00  0.45593999997E+02  0.45594000000E+02  0.51100000000E-03 0.  1.
         11   -1    0    0    0    0 -0.00000000000E+00 -0.00000000000E+00 -0.45593999997E+02  0.45594000000E+02  0.51100000000E-03 0. -1.
    9900012    2    1    2    0    0  0.36177874914E+02  0.15757602316E+02 -0.21724935422E+02  0.46142317819E+02  0.10000000526E+02 0.  0.
        -12    1    1    2    0    0 -0.36177874914E+02 -0.15757602316E+02  0.21724935422E+02  0.45045682181E+02  0.00000000000E+00 0.  1.
         11    1    3    3    0    0  0.14083279594E+01  0.58572105525E+00  0.30146927908E+00  0.15547799791E+01  0.51100000000E-03 0. -1.
        -11    1    3    3    0    0  0.22957022252E+02  0.66650570051E+01 -0.10938208572E+02  0.26288633715E+02  0.51100000000E-03 0.  1.
         12    1    3    3    0    0  0.11812524703E+02  0.85068242557E+01 -0.11088196129E+02  0.18298904125E+02  0.00000000000E+00 0. -1.
</event>
<event>
 7    1  0.2031146E-008  0.4614232E+02  0.7816164E-02  0.1320468E+00
        -11   -1    0    0    0    0  0.00000000000E+00  0.00000000000E+00  0.45593999997E+02  0.45594000000E+02  0.51100000000E-03 0. -1.
         11   -1    0    0    0    0 -0.00000000000E+00 -0.00000000000E+00 -0.45593999997E+02  0.45594000000E+02  0.51100000000E-03 0.  1.
    9900012    2    1    2    0    0  0.82890181440E+00 -0.41637476223E+02  0.17168198758E+02  0.46142317043E+02  0.99999934521E+01 0.  0.
        -12    1    1    2    0    0 -0.82890181440E+00  0.41637476223E+02 -0.17168198758E+02  0.45045682957E+02  0.00000000000E+00 0.  1.
         11    1    3    3    0    0  0.25096632423E+01 -0.94871982066E+01  0.15736955500E+01  0.99389062449E+01  0.51100000000E-03 0. -1.
        -11    1    3    3    0    0  0.89770021689E+00 -0.25553378588E+02  0.11676930391E+02  0.28109281858E+02  0.51100000000E-03 0.  1.
        -12    1    3    3    0    0 -0.25784616448E+01 -0.65968994289E+01  0.39175728169E+01  0.80941289404E+01  0.00000000000E+00 0.  1.
</event>
<event>
 7    1  0.2031146E-008  0.4614232E+02  0.7816164E-02  0.1320468E+00
        -11   -1    0    0    0    0  0.00000000000E+00  0.00000000000E+00  0.45593999997E+02  0.45594000000E+02  0.51100000000E-03 0.  1.
         11   -1    0    0    0    0 -0.00000000000E+00 -0.00000000000E+00 -0.45593999997E+02  0.45594000000E+02  0.51100000000E-03 0. -1.
    9900012    2    1    2    0    0 -0.14783811425E+02 -0.20433737578E+02 -0.37323111666E+02  0.46142319007E+02  0.10000011365E+02 0.  0.
        -12    1    1    2    0    0  0.14783811425E+02  0.20433737578E+02  0.37323111666E+02  0.45045680993E+02  0.00000000000E+00 0.  1.
         11    1    3    3    0    0 -0.10780563723E+01 -0.61983414816E+01 -0.12664671646E+02  0.14141271188E+02  0.51100000000E-03 0. -1.
        -11    1    3    3    0    0 -0.16700602932E+01 -0.34766492204E+01 -0.25409734645E+01  0.46187376622E+01  0.51100000000E-03 0.  1.
        -12    1    3    3    0    0 -0.12035694760E+02 -0.10758746876E+02 -0.22117466556E+02  0.27382310157E+02  0.00000000000E+00 0.  1.
</event>
<event>
 7    1  0.2031146E-008  0.4614232E+02  0.7816164E-02  0.1320468E+00
        -11   -1    0    0    0    0  0.00000000000E+00  0.00000000000E+00  0.45593999997E+02  0.45594000000E+02  0.51100000000E-03 0. -1.
         11   -1    0    0    0    0 -0.00000000000E+00 -0.00000000000E+00 -0.45593999997E+02  0.45594000000E+02  0.51100000000E-03 0.  1.
    9900012    2    1    2    0    0 -0.22693051034E+02 -0.26049238993E+02  0.28906331542E+02  0.46142318514E+02  0.10000006863E+02 0.  0.
        -12    1    1    2    0    0  0.22693051034E+02  0.26049238993E+02 -0.28906331542E+02  0.45045681486E+02  0.00000000000E+00 0.  1.
         11    1    3    3    0    0 -0.13206779658E+02 -0.17282029815E+02  0.22699132046E+02  0.31437846290E+02  0.51100000000E-03 0. -1.
        -11    1    3    3    0    0 -0.73919189205E+00  0.19806144785E+00  0.10771311151E+00  0.77281004516E+00  0.51100000000E-03 0.  1.
         12    1    3    3    0    0 -0.87470794844E+01 -0.89652706258E+01  0.60994863841E+01  0.13931662178E+02  0.00000000000E+00 0. -1.
</event>
<event>
 7    1  0.2031146E-008  0.4614232E+02  0.7816164E-02  0.1320468E+00
        -11   -1    0    0    0    0  0.00000000000E+00  0.00000000000E+00  0.45593999997E+02  0.45594000000E+02  0.51100000000E-03 0. -1.
         11   -1    0    0    0    0 -0.00000000000E+00 -0.00000000000E+00 -0.45593999997E+02  0.45594000000E+02  0.51100000000E-03 0.  1.
    9900012    2    1    2    0    0  0.35991391397E+02  0.19506333524E+02  0.18794580608E+02  0.46142316938E+02  0.99999924986E+01 0.  0.
        -12    1    1    2    0    0 -0.35991391397E+02 -0.19506333524E+02 -0.18794580608E+02  0.45045683062E+02  0.00000000000E+00 0.  1.
         11    1    3    3    0    0  0.85722293548E+01  0.39850715589E+01  0.38974904271E+01  0.10225181824E+02  0.51100000000E-03 0. -1.
        -11    1    3    3    0    0  0.14859961883E+02  0.11123128516E+02  0.46870379948E+01  0.19144471280E+02  0.51100000000E-03 0.  1.
        -12    1    3    3    0    0  0.12559200159E+02  0.43981334489E+01  0.10210052186E+02  0.16772663835E+02  0.00000000000E+00 0.  1.
</event>
<event>
 7    1  0.2031146E-008  0.4614232E+02  0.7816164E-02  0.1320468E+00
        -11   -1    0    0    0    0  0.00000000000E+00  0.00000000000E+00  0.45593999997E+02  0.45594000000E+02  0.51100000000E-03 0.  1.
         11   -1    0    0    0    0 -0.00000000000E+00 -0.00000000000E+00 -0.45593999997E+02  0.45594000000E+02  0.51100000000E-03 0. -1.
    9900012    2    1    2    0    0 -0.48734102552E+01  0.11853144970E+02 -0.43184099848E+02  0.46142315935E+02  0.99999833515E+01 0.  0.
        -12    1    1    2    0    0  0.48734102552E+01 -0.11853144970E+02  0.43184099848E+02  0.45045684065E+02  0.00000000000E+00 0.  1.
         11    1    3    3    0    0 -0.11218828005E+01  0.78687038222E+01 -0.28458424420E+02  0.29547538672E+02  0.51100000000E-03 0. -1.
        -11    1    3    3    0    0 -0.14184185134E+01  0.32378229664E+01 -0.13297229811E+02  0.13759059908E+02  0.51100000000E-03 0.  1.
        -12    1    3    3    0    0 -0.23331089413E+01  0.74661818120E+00 -0.14284456174E+01  0.28357173558E+01  0.00000000000E+00 0.  1.
</event>
<event>
 7    1  0.2031146E-008  0.4614232E+02  0.7816164E-02  0.1320468E+00
        -11   -1    0    0    0    0  0.00000000000E+00  0.00000000000E+00  0.45593999997E+02  0.45594000000E+02  0.51100000000E-03 0.  1.
         11   -1    0    0    0    0 -0.00000000000E+00 -0.00000000000E+00 -0.45593999997E+02  0.45594000000E+02  0.51100000000E-03 0. -1.
    9900012    2    1    2    0    0  0.30013290183E+02  0.10312548852E+02 -0.31968225805E+02  0.46142315273E+02  0.99999773083E+01 0.  0.
        -12    1    1    2    0    0 -0.30013290183E+02 -0.10312548852E+02  0.31968225805E+02  0.45045684727E+02  0.00000000000E+00 0.  1.
         11    1    3    3    0    0  0.16796049633E+02  0.28891008408E+01 -0.18456998700E+02  0.25122002074E+02  0.51100000000E-03 0. -1.
        -11    1    3    3    0    0  0.12631962092E+02  0.78053391790E+01 -0.11181576335E+02  0.18588099300E+02  0.51100000000E-03 0.  1.
         12    1    3    3    0    0  0.58527845809E+00 -0.38189116792E+00 -0.23296507699E+01  0.24322138983E+01  0.00000000000E+00 0. -1.
</event>
<event>
 7    1  0.2031146E-008  0.4614232E+02  0.7816164E-02  0.1320468E+00
        -11   -1    0    0    0    0  0.00000000000E+00  0.00000000000E+00  0.45593999997E+02  0.45594000000E+02  0.51100000000E-03 0.  1.
         11   -1    0    0    0    0 -0.00000000000E+00 -0.00000000000E+00 -0.45593999997E+02  0.45594000000E+02  0.51100000000E-03 0. -1.
    9900012    2    1    2    0    0  0.15371500720E+02 -0.10224413307E+02 -0.41088828918E+02  0.46142317369E+02  0.99999964204E+01 0.  0.
        -12    1    1    2    0    0 -0.15371500720E+02  0.10224413307E+02  0.41088828918E+02  0.45045682631E+02  0.00000000000E+00 0.  1.
         11    1    3    3    0    0  0.39167238800E+01 -0.61966687426E+01 -0.18581903254E+02  0.19975649133E+02  0.51100000000E-03 0. -1.
        -11    1    3    3    0    0  0.14521191402E+01 -0.22390673717E+01 -0.81636163535E+01  0.85887545617E+01  0.51100000000E-03 0.  1.
        -12    1    3    3    0    0  0.10002657700E+02 -0.17886771931E+01 -0.14343309310E+02  0.17577913674E+02  0.00000000000E+00 0.  1.
</event>
<event>
 7    1  0.2031146E-008  0.4614232E+02  0.7816164E-02  0.1320468E+00
        -11   -1    0    0    0    0  0.00000000000E+00  0.00000000000E+00  0.45593999997E+02  0.45594000000E+02  0.51100000000E-03 0.  1.
         11   -1    0    0    0    0 -0.00000000000E+00 -0.00000000000E+00 -0.45593999997E+02  0.45594000000E+02  0.51100000000E-03 0. -1.
    9900012    2    1    2    0    0  0.13852063111E+02  0.15599691315E+02 -0.39923469862E+02  0.46142317994E+02  0.10000002128E+02 0.  0.
        -12    1    1    2    0    0 -0.13852063111E+02 -0.15599691315E+02  0.39923469862E+02  0.45045682006E+02  0.00000000000E+00 0.  1.
         11    1    3    3    0    0  0.69681551341E+01  0.68408153115E+01 -0.11677741973E+02  0.15222404474E+02  0.51100000000E-03 0. -1.
        -11    1    3    3    0    0  0.73053541419E+01  0.60826039628E+01 -0.24637232673E+02  0.26407565283E+02  0.51100000000E-03 0.  1.
        -12    1    3    3    0    0 -0.42144616541E+00  0.26762720403E+01 -0.36084952153E+01  0.45123482382E+01  0.00000000000E+00 0.  1.
</event>
<event>
 7    1  0.2031146E-008  0.4614232E+02  0.7816164E-02  0.1320468E+00
        -11   -1    0    0    0    0  0.00000000000E+00  0.00000000000E+00  0.45593999997E+02  0.45594000000E+02  0.51100000000E-03 0.  1.
         11   -1    0    0    0    0 -0.00000000000E+00 -0.00000000000E+00 -0.45593999997E+02  0.45594000000E+02  0.51100000000E-03 0. -1.
    9900012    2    1    2    0    0 -0.27932394899E+02  0.92750198332E+01 -0.34100861348E+02  0.46142318493E+02  0.10000006678E+02 0.  0.
        -12    1    1    2    0    0  0.27932394899E+02 -0.92750198332E+01  0.34100861348E+02  0.45045681507E+02  0.00000000000E+00 0.  1.
         11    1    3    3    0    0 -0.38475107533E+01  0.38753036774E+01 -0.50319483235E+01  0.74257539537E+01  0.51100000000E-03 0. -1.
        -11    1    3    3    0    0 -0.33824615036E+00  0.14608153942E+01 -0.18286274997E+01  0.23647982721E+01  0.51100000000E-03 0.  1.
        -12    1    3    3    0    0 -0.23746637996E+02  0.39389007616E+01 -0.27240285525E+02  0.36351766268E+02  0.00000000000E+00 0.  1.
</event>
<event>
 7    1  0.2031146E-008  0.4614232E+02  0.7816164E-02  0.1320468E+00
        -11   -1    0    0    0    0  0.00000000000E+00  0.00000000000E+00  0.45593999997E+02  0.45594000000E+02  0.51100000000E-03 0.  1.
         11   -1    0    0    0    0 -0.00000000000E+00 -0.00000000000E+00 -0.45593999997E+02  0.45594000000E+02  0.51100000000E-03 0. -1.
    9900012    2    1    2    0    0  0.40218343637E+02 -0.20217168541E+02  0.16924595845E+01  0.46142317763E+02  0.10000000021E+02 0.  0.
        -12    1    1    2    0    0 -0.40218343637E+02  0.20217168541E+02 -0.16924595845E+01  0.45045682237E+02  0.00000000000E+00 0.  1.
         11    1    3    3    0    0  0.55699752693E+01 -0.29709926926E+01 -0.23622849610E+01  0.67403124985E+01  0.51100000000E-03 0. -1.
        -11    1    3    3    0    0  0.24544187033E+02 -0.15241982060E+02  0.29961152356E+01  0.29046718248E+02  0.51100000000E-03 0.  1.
         12    1    3    3    0    0  0.10104181334E+02 -0.20041937893E+01  0.10586293099E+01  0.10355287017E+02  0.00000000000E+00 0. -1.
</event>
<event>
 7    1  0.2031146E-008  0.4614232E+02  0.7816164E-02  0.1320468E+00
        -11   -1    0    0    0    0  0.00000000000E+00  0.00000000000E+00  0.45593999997E+02  0.45594000000E+02  0.51100000000E-03 0.  1.
         11   -1    0    0    0    0 -0.00000000000E+00 -0.00000000000E+00 -0.45593999997E+02  0.45594000000E+02  0.51100000000E-03 0. -1.
    9900012    2    1    2    0    0 -0.10304446580E+02  0.42120058735E+02 -0.12199693774E+02  0.46142317684E+02  0.99999992956E+01 0.  0.
        -12    1    1    2    0    0  0.10304446580E+02 -0.42120058735E+02  0.12199693774E+02  0.45045682316E+02  0.00000000000E+00 0.  1.
         11    1    3    3    0    0 -0.38861744779E+01  0.25260722456E+02 -0.84152965815E+01  0.26907687896E+02  0.51100000000E-03 0. -1.
        -11    1    3    3    0    0 -0.48574272448E+01  0.16055538885E+02 -0.44542041159E+01  0.17355542713E+02  0.51100000000E-03 0.  1.
        -12    1    3    3    0    0 -0.15608448570E+01  0.80379739411E+00  0.66980692367E+00  0.18790870745E+01  0.00000000000E+00 0.  1.
</event>
<event>
 7    1  0.2031146E-008  0.4614232E+02  0.7816164E-02  0.1320468E+00
        -11   -1    0    0    0    0  0.00000000000E+00  0.00000000000E+00  0.45593999997E+02  0.45594000000E+02  0.51100000000E-03 0. -1.
         11   -1    0    0    0    0 -0.00000000000E+00 -0.00000000000E+00 -0.45593999997E+02  0.45594000000E+02  0.51100000000E-03 0.  1.
    9900012    2    1    2    0    0 -0.12407164234E+02  0.30254814584E+02  0.30980994594E+02  0.46142317012E+02  0.99999931663E+01 0.  0.
        -12    1    1    2    0    0  0.12407164234E+02 -0.30254814584E+02 -0.30980994594E+02  0.45045682988E+02  0.00000000000E+00 0.  1.
         11    1    3    3    0    0 -0.71534484057E+01  0.13600561884E+02  0.13952458333E+02  0.20756160566E+02  0.51100000000E-03 0. -1.
        -11    1    3    3    0    0  0.20204869629E+00  0.71989620425E+01  0.35137300729E+01  0.80132501179E+01  0.51100000000E-03 0.  1.
        -12    1    3    3    0    0 -0.54557645246E+01  0.94552906573E+01  0.13514806188E+02  0.17372906327E+02  0.00000000000E+00 0.  1.
</event>
<event>
 7    1  0.2031146E-008  0.4614231E+02  0.7816164E-02  0.1320468E+00
        -11   -1    0    0    0    0  0.00000000000E+00  0.00000000000E+00  0.45593999997E+02  0.45594000000E+02  0.51100000000E-03 0.  1.
         11   -1    0    0    0    0 -0.00000000000E+00 -0.00000000000E+00 -0.45593999997E+02  0.45594000000E+02  0.51100000000E-03 0. -1.
    9900012    2    1    2    0    0 -0.53932244125E+01  0.34496794130E+02 -0.28460467119E+02  0.46142313598E+02  0.99999620356E+01 0.  0.
        -12    1    1    2    0    0  0.53932244125E+01 -0.34496794130E+02  0.28460467119E+02  0.45045686402E+02  0.00000000000E+00 0.  1.
         11    1    3    3    0    0 -0.10986152672E+01  0.16947688833E+02 -0.16411401500E+02  0.23617053409E+02  0.51100000000E-03 0. -1.
        -11    1    3    3    0    0 -0.44725512607E+01  0.17932700450E+02 -0.12112790444E+02  0.22097627764E+02  0.51100000000E-03 0.  1.
         12    1    3    3    0    0  0.17794211541E+00 -0.38359515240E+00  0.63724824700E-01  0.42763242471E+00  0.00000000000E+00 0. -1.
</event>
<event>
 7    1  0.2031146E-008  0.4614232E+02  0.7816164E-02  0.1320468E+00
        -11   -1    0    0    0    0  0.00000000000E+00  0.00000000000E+00  0.45593999997E+02  0.45594000000E+02  0.51100000000E-03 0. -1.
         11   -1    0    0    0    0 -0.00000000000E+00 -0.00000000000E+00 -0.45593999997E+02  0.45594000000E+02  0.51100000000E-03 0.  1.
    9900012    2    1    2    0    0  0.13776307391E+02  0.41193466662E+01  0.42689082695E+02  0.46142318258E+02  0.10000004527E+02 0.  0.
        -12    1    1    2    0    0 -0.13776307391E+02 -0.41193466662E+01 -0.42689082695E+02  0.45045681742E+02  0.00000000000E+00 0.  1.
         11    1    3    3    0    0 -0.80502277404E+00 -0.26412784755E-01  0.17429791172E+01  0.19200874371E+01  0.51100000000E-03 0. -1.
        -11    1    3    3    0    0  0.47605137082E+01  0.23204227406E+00  0.57280739783E+01  0.74516552621E+01  0.51100000000E-03 0.  1.
         12    1    3    3    0    0  0.98208164570E+01  0.39137171769E+01  0.35218029600E+02  0.36770575558E+02  0.00000000000E+00 0. -1.
</event>
<event>
 7    1  0.2031146E-008  0.4614232E+02  0.7816164E-02  0.1320468E+00
        -11   -1    0    0    0    0  0.00000000000E+00  0.00000000000E+00  0.45593999997E+02  0.45594000000E+02  0.51100000000E-03 0.  1.
         11   -1    0    0    0    0 -0.00000000000E+00 -0.00000000000E+00 -0.45593999997E+02  0.45594000000E+02  0.51100000000E-03 0. -1.
    9900012    2    1    2    0    0 -0.44793173296E+02 -0.12464188439E+01  0.45969120758E+01  0.46142317249E+02  0.99999953288E+01 0.  0.
        -12    1    1    2    0    0  0.44793173296E+02  0.12464188439E+01 -0.45969120758E+01  0.45045682751E+02  0.00000000000E+00 0.  1.
         11    1    3    3    0    0 -0.35790958532E+01  0.11521086473E+00  0.25752824294E+01  0.44108140431E+01  0.51100000000E-03 0. -1.
        -11    1    3    3    0    0 -0.71099265382E+01  0.20245863708E+01  0.82912153255E+00  0.74389144456E+01  0.51100000000E-03 0.  1.
         12    1    3    3    0    0 -0.34104150905E+02 -0.33862160794E+01  0.11925081139E+01  0.34292588760E+02  0.00000000000E+00 0. -1.
</event>
<event>
 7    1  0.2031146E-008  0.4614232E+02  0.7816164E-02  0.1320468E+00
        -11   -1    0    0    0    0  0.00000000000E+00  0.00000000000E+00  0.45593999997E+02  0.45594000000E+02  0.51100000000E-03 0.  1.
         11   -1    0    0    0    0 -0.00000000000E+00 -0.00000000000E+00 -0.45593999997E+02  0.45594000000E+02  0.51100000000E-03 0. -1.
    9900012    2    1    2    0    0 -0.18221987333E+02  0.59644204340E+01 -0.40761480650E+02  0.46142318318E+02  0.10000005077E+02 0.  0.
        -12    1    1    2    0    0  0.18221987333E+02 -0.59644204340E+01  0.40761480650E+02  0.45045681682E+02  0.00000000000E+00 0.  1.
         11    1    3    3    0    0 -0.81700726842E+01 -0.10839555019E+01 -0.23635290104E+02  0.25031020469E+02  0.51100000000E-03 0. -1.
        -11    1    3    3    0    0 -0.52113722684E+01  0.39765156147E+01 -0.81285718455E+01  0.10442449802E+02  0.51100000000E-03 0.  1.
         12    1    3    3    0    0 -0.48405423800E+01  0.30718603212E+01 -0.89976187004E+01  0.10668848047E+02  0.00000000000E+00 0. -1.
</event>
<event>
 7    1  0.2031146E-008  0.4614231E+02  0.7816164E-02  0.1320468E+00
        -11   -1    0    0    0    0  0.00000000000E+00  0.00000000000E+00  0.45593999997E+02  0.45594000000E+02  0.51100000000E-03 0.  1.
         11   -1    0    0    0    0 -0.00000000000E+00 -0.00000000000E+00 -0.45593999997E+02  0.45594000000E+02  0.51100000000E-03 0. -1.
    9900012    2    1    2    0    0 -0.29724656979E+02  0.25744722895E+02 -0.21971978994E+02  0.46142313743E+02  0.99999633594E+01 0.  0.
        -12    1    1    2    0    0  0.29724656979E+02 -0.25744722895E+02  0.21971978994E+02  0.45045686257E+02  0.00000000000E+00 0.  1.
         11    1    3    3    0    0 -0.16633858993E+02  0.12789182979E+02 -0.13788417887E+02  0.25107149069E+02  0.51100000000E-03 0. -1.
        -11    1    3    3    0    0 -0.40207121749E+01  0.17087104295E+01  0.12047384209E+00  0.43703926520E+01  0.51100000000E-03 0.  1.
        -12    1    3    3    0    0 -0.90700858105E+01  0.11246829486E+02 -0.83040349490E+01  0.16664772022E+02  0.00000000000E+00 0.  1.
</event>
<event>
 7    1  0.2031146E-008  0.4614232E+02  0.7816164E-02  0.1320468E+00
        -11   -1    0    0    0    0  0.00000000000E+00  0.00000000000E+00  0.45593999997E+02  0.45594000000E+02  0.51100000000E-03 0. -1.
         11   -1    0    0    0    0 -0.00000000000E+00 -0.00000000000E+00 -0.45593999997E+02  0.45594000000E+02  0.51100000000E-03 0.  1.
    9900012    2    1    2    0    0 -0.38742032570E+02  0.22784258066E+02 -0.30076540654E+01  0.46142317784E+02  0.10000000212E+02 0.  0.
        -12    1    1    2    0    0  0.38742032570E+02 -0.22784258066E+02  0.30076540654E+01  0.45045682216E+02  0.00000000000E+00 0.  1.
         11    1    3    3    0    0 -0.18843899014E+02  0.13995542271E+02 -0.11374772978E+01  0.23500246559E+02  0.51100000000E-03 0. -1.
        -11    1    3    3    0    0 -0.27635456731E+01  0.71994557068E+00  0.17647436840E+01  0.33570562764E+01  0.51100000000E-03 0.  1.
        -12    1    3    3    0    0 -0.17134587884E+02  0.80687702246E+01 -0.36349204516E+01  0.19285014949E+02  0.00000000000E+00 0.  1.
</event>
<event>
 7    1  0.2031146E-008  0.4614232E+02  0.7816164E-02  0.1320468E+00
        -11   -1    0    0    0    0  0.00000000000E+00  0.00000000000E+00  0.45593999997E+02  0.45594000000E+02  0.51100000000E-03 0. -1.
         11   -1    0    0    0    0 -0.00000000000E+00 -0.00000000000E+00 -0.45593999997E+02  0.45594000000E+02  0.51100000000E-03 0.  1.
    9900012    2    1    2    0    0 -0.30255476540E+02 -0.32546669109E+02 -0.73779324166E+01  0.46142318548E+02  0.10000007173E+02 0.  0.
        -12    1    1    2    0    0  0.30255476540E+02  0.32546669109E+02  0.73779324166E+01  0.45045681452E+02  0.00000000000E+00 0.  1.
         11    1    3    3    0    0 -0.60244653135E+01 -0.24411855656E+01 -0.25782018968E+01  0.69929031569E+01  0.51100000000E-03 0.  1.
        -11    1    3    3    0    0 -0.88071187509E+01 -0.83383951466E+01 -0.59959843622E+00  0.12143051217E+02  0.51100000000E-03 0. -1.
        -12    1    3    3    0    0 -0.15423892475E+02 -0.21767088397E+02 -0.42001320835E+01  0.27006364174E+02  0.00000000000E+00 0.  1.
</event>
<event>
 7    1  0.2031146E-008  0.4614232E+02  0.7816164E-02  0.1320468E+00
        -11   -1    0    0    0    0  0.00000000000E+00  0.00000000000E+00  0.45593999997E+02  0.45594000000E+02  0.51100000000E-03 0.  1.
         11   -1    0    0    0    0 -0.00000000000E+00 -0.00000000000E+00 -0.45593999997E+02  0.45594000000E+02  0.51100000000E-03 0. -1.
    9900012    2    1    2    0    0  0.23520288376E+02  0.29859144319E+02 -0.24173146634E+02  0.46142317821E+02  0.10000000550E+02 0.  0.
        -12    1    1    2    0    0 -0.23520288376E+02 -0.29859144319E+02  0.24173146634E+02  0.45045682179E+02  0.00000000000E+00 0.  1.
         11    1    3    3    0    0  0.11858566027E+01  0.10473109065E+01  0.39654594490E+00  0.16310625263E+01  0.51100000000E-03 0. -1.
        -11    1    3    3    0    0  0.29425242474E+01  0.16689920543E+01 -0.60370314622E+00  0.34363412482E+01  0.51100000000E-03 0.  1.
         12    1    3    3    0    0  0.19391907526E+02  0.27142841358E+02 -0.23965989433E+02  0.41074914047E+02  0.00000000000E+00 0. -1.
</event>
<event>
 7    1  0.2031146E-008  0.4614232E+02  0.7816164E-02  0.1320468E+00
        -11   -1    0    0    0    0  0.00000000000E+00  0.00000000000E+00  0.45593999997E+02  0.45594000000E+02  0.51100000000E-03 0. -1.
         11   -1    0    0    0    0 -0.00000000000E+00 -0.00000000000E+00 -0.45593999997E+02  0.45594000000E+02  0.51100000000E-03 0.  1.
    9900012    2    1    2    0    0  0.43488984571E+02 -0.84071394360E+01  0.81940056372E+01  0.46142317622E+02  0.99999987338E+01 0.  0.
        -12    1    1    2    0    0 -0.43488984571E+02  0.84071394360E+01 -0.81940056372E+01  0.45045682378E+02  0.00000000000E+00 0.  1.
         11    1    3    3    0    0  0.12270776117E+02 -0.39633834277E+01 -0.31216973316E+00  0.12898752068E+02  0.51100000000E-03 0. -1.
        -11    1    3    3    0    0  0.30960506908E+01  0.13871426970E+01  0.12990092785E+01  0.36327840713E+01  0.51100000000E-03 0.  1.
         12    1    3    3    0    0  0.28122157763E+02 -0.58308987052E+01  0.72071660919E+01  0.29610781483E+02  0.00000000000E+00 0. -1.
</event>
<event>
 7    1  0.2031146E-008  0.4614232E+02  0.7816164E-02  0.1320468E+00
        -11   -1    0    0    0    0  0.00000000000E+00  0.00000000000E+00  0.45593999997E+02  0.45594000000E+02  0.51100000000E-03 0.  1.
         11   -1    0    0    0    0 -0.00000000000E+00 -0.00000000000E+00 -0.45593999997E+02  0.45594000000E+02  0.51100000000E-03 0. -1.
    9900012    2    1    2    0    0  0.10080975290E+02  0.80186931883E+01 -0.43164662167E+02  0.46142316930E+02  0.99999924170E+01 0.  0.
        -12    1    1    2    0    0 -0.10080975290E+02 -0.80186931883E+01  0.43164662167E+02  0.45045683070E+02  0.00000000000E+00 0.  1.
         11    1    3    3    0    0  0.75290539941E+01  0.82032713116E+01 -0.28222242368E+02  0.30339335503E+02  0.51100000000E-03 0. -1.
        -11    1    3    3    0    0  0.29995771311E+01 -0.91946365048E+00 -0.14499780689E+02  0.14835313164E+02  0.51100000000E-03 0.  1.
         12    1    3    3    0    0 -0.44765583479E+00  0.73488552715E+00 -0.44263911091E+00  0.96766826286E+00  0.00000000000E+00 0. -1.
</event>
<event>
 7    1  0.2031146E-008  0.4614232E+02  0.7816164E-02  0.1320468E+00
        -11   -1    0    0    0    0  0.00000000000E+00  0.00000000000E+00  0.45593999997E+02  0.45594000000E+02  0.51100000000E-03 0.  1.
         11   -1    0    0    0    0 -0.00000000000E+00 -0.00000000000E+00 -0.45593999997E+02  0.45594000000E+02  0.51100000000E-03 0. -1.
    9900012    2    1    2    0    0 -0.27656628465E+02 -0.24445194865E+02 -0.25819696036E+02  0.46142319259E+02  0.10000013662E+02 0.  0.
        -12    1    1    2    0    0  0.27656628465E+02  0.24445194865E+02  0.25819696036E+02  0.45045680741E+02  0.00000000000E+00 0.  1.
         11    1    3    3    0    0 -0.88345326291E+01 -0.10910130100E+02 -0.83528884452E+01  0.16335564001E+02  0.51100000000E-03 0. -1.
        -11    1    3    3    0    0 -0.16687208934E+01 -0.43810049268E+01 -0.29047585433E+01  0.55150209469E+01  0.51100000000E-03 0.  1.
        -12    1    3    3    0    0 -0.17153374942E+02 -0.91540598378E+01 -0.14562049047E+02  0.24291734312E+02  0.00000000000E+00 0.  1.
</event>
<event>
 7    1  0.2031146E-008  0.4614231E+02  0.7816164E-02  0.1320468E+00
        -11   -1    0    0    0    0  0.00000000000E+00  0.00000000000E+00  0.45593999997E+02  0.45594000000E+02  0.51100000000E-03 0.  1.
         11   -1    0    0    0    0 -0.00000000000E+00 -0.00000000000E+00 -0.45593999997E+02  0.45594000000E+02  0.51100000000E-03 0. -1.
    9900012    2    1    2    0    0  0.48289941215E+01 -0.44132836877E+02 -0.76215284354E+01  0.46142310187E+02  0.99999309292E+01 0.  0.
        -12    1    1    2    0    0 -0.48289941215E+01  0.44132836877E+02  0.76215284354E+01  0.45045689813E+02  0.00000000000E+00 0.  1.
         11    1    3    3    0    0  0.17426057014E+01 -0.57968768325E+01  0.45970064205E+00  0.60705667432E+01  0.51100000000E-03 0. -1.
        -11    1    3    3    0    0 -0.53121885967E+00 -0.40095100186E+01 -0.33113399440E+01  0.52271729025E+01  0.51100000000E-03 0.  1.
         12    1    3    3    0    0  0.36176072798E+01 -0.34326450026E+02 -0.47698891334E+01  0.34844570541E+02  0.00000000000E+00 0. -1.
</event>
<event>
 7    1  0.2031146E-008  0.4614232E+02  0.7816164E-02  0.1320468E+00
        -11   -1    0    0    0    0  0.00000000000E+00  0.00000000000E+00  0.45593999997E+02  0.45594000000E+02  0.51100000000E-03 0.  1.
         11   -1    0    0    0    0 -0.00000000000E+00 -0.00000000000E+00 -0.45593999997E+02  0.45594000000E+02  0.51100000000E-03 0. -1.
    9900012    2    1    2    0    0 -0.30632701447E+02  0.32111865981E+02 -0.77187571848E+01  0.46142317108E+02  0.99999940461E+01 0.  0.
        -12    1    1    2    0    0  0.30632701447E+02 -0.32111865981E+02  0.77187571848E+01  0.45045682892E+02  0.00000000000E+00 0.  1.
         11    1    3    3    0    0 -0.24831359211E+02  0.25942871838E+02 -0.46757996622E+01  0.36214528883E+02  0.51100000000E-03 0. -1.
        -11    1    3    3    0    0 -0.35584966146E+00  0.32135042651E+01 -0.73173153495E+00  0.33149162801E+01  0.51100000000E-03 0.  1.
        -12    1    3    3    0    0 -0.54454925744E+01  0.29554898773E+01 -0.23112259876E+01  0.66128719448E+01  0.00000000000E+00 0.  1.
</event>
<event>
 7    1  0.2031146E-008  0.4614232E+02  0.7816164E-02  0.1320468E+00
        -11   -1    0    0    0    0  0.00000000000E+00  0.00000000000E+00  0.45593999997E+02  0.45594000000E+02  0.51100000000E-03 0.  1.
         11   -1    0    0    0    0 -0.00000000000E+00 -0.00000000000E+00 -0.45593999997E+02  0.45594000000E+02  0.51100000000E-03 0. -1.
    9900012    2    1    2    0    0 -0.38517216267E+02 -0.23347422187E+02 -0.65991165721E+00  0.46142317020E+02  0.99999932405E+01 0.  0.
        -12    1    1    2    0    0  0.38517216267E+02  0.23347422187E+02  0.65991165721E+00  0.45045682980E+02  0.00000000000E+00 0.  1.
         11    1    3    3    0    0 -0.66528953935E+01 -0.36466531831E+01  0.14002442580E+01  0.77149064024E+01  0.51100000000E-03 0. -1.
        -11    1    3    3    0    0 -0.25731363296E+02 -0.12238674573E+02  0.25519145040E+00  0.28494794881E+02  0.51100000000E-03 0.  1.
        -12    1    3    3    0    0 -0.61329575781E+01 -0.74620944308E+01 -0.23153473656E+01  0.99326157367E+01  0.00000000000E+00 0.  1.
</event>
<event>
 7    1  0.2031146E-008  0.4614232E+02  0.7816164E-02  0.1320468E+00
        -11   -1    0    0    0    0  0.00000000000E+00  0.00000000000E+00  0.45593999997E+02  0.45594000000E+02  0.51100000000E-03 0.  1.
         11   -1    0    0    0    0 -0.00000000000E+00 -0.00000000000E+00 -0.45593999997E+02  0.45594000000E+02  0.51100000000E-03 0. -1.
    9900012    2    1    2    0    0  0.11333524709E+02  0.28892049111E+02 -0.32648341096E+02  0.46142318071E+02  0.10000002823E+02 0.  0.
        -12    1    1    2    0    0 -0.11333524709E+02 -0.28892049111E+02  0.32648341096E+02  0.45045681929E+02  0.00000000000E+00 0.  1.
         11    1    3    3    0    0  0.23582734863E+00  0.69999971474E+00 -0.79263409204E+00  0.10834589074E+01  0.51100000000E-03 0. -1.
        -11    1    3    3    0    0  0.70841387652E+01  0.17609720443E+02 -0.26344951401E+02  0.32470659690E+02  0.51100000000E-03 0.  1.
        -12    1    3    3    0    0  0.40135585948E+01  0.10582328952E+02 -0.55107556034E+01  0.12588199473E+02  0.00000000000E+00 0.  1.
</event>
<event>
 7    1  0.2031146E-008  0.4614232E+02  0.7816164E-02  0.1320468E+00
        -11   -1    0    0    0    0  0.00000000000E+00  0.00000000000E+00  0.45593999997E+02  0.45594000000E+02  0.51100000000E-03 0.  1.
         11   -1    0    0    0    0 -0.00000000000E+00 -0.00000000000E+00 -0.45593999997E+02  0.45594000000E+02  0.51100000000E-03 0. -1.
    9900012    2    1    2    0    0  0.43731640633E+02  0.36144478191E+01 -0.10178044864E+02  0.46142320709E+02  0.10000026884E+02 0.  0.
        -12    1    1    2    0    0 -0.43731640633E+02 -0.36144478191E+01  0.10178044864E+02  0.45045679291E+02  0.00000000000E+00 0.  1.
         11    1    3    3    0    0  0.16645093159E+02  0.16848206049E+01 -0.70916991651E+01  0.18171129410E+02  0.51100000000E-03 0. -1.
        -11    1    3    3    0    0  0.48570480791E-01  0.21529956371E+00  0.59064654295E+00  0.63053675037E+00  0.51100000000E-03 0.  1.
        -12    1    3    3    0    0  0.27037976994E+02  0.17143276505E+01 -0.36769922415E+01  0.27340654549E+02  0.00000000000E+00 0.  1.
</event>
<event>
 7    1  0.2031146E-008  0.4614232E+02  0.7816164E-02  0.1320468E+00
        -11   -1    0    0    0    0  0.00000000000E+00  0.00000000000E+00  0.45593999997E+02  0.45594000000E+02  0.51100000000E-03 0.  1.
         11   -1    0    0    0    0 -0.00000000000E+00 -0.00000000000E+00 -0.45593999997E+02  0.45594000000E+02  0.51100000000E-03 0. -1.
    9900012    2    1    2    0    0  0.90137324002E+01  0.30548037024E+01 -0.44028789723E+02  0.46142317388E+02  0.99999966009E+01 0.  0.
        -12    1    1    2    0    0 -0.90137324002E+01 -0.30548037024E+01  0.44028789723E+02  0.45045682612E+02  0.00000000000E+00 0.  1.
         11    1    3    3    0    0  0.77058172680E+01  0.29097254324E+01 -0.23754528552E+02  0.25142071292E+02  0.51100000000E-03 0. -1.
        -11    1    3    3    0    0  0.11998000660E+01  0.25074251232E+01 -0.72816055480E+01  0.77941311616E+01  0.51100000000E-03 0.  1.
        -12    1    3    3    0    0  0.10811506609E+00 -0.23623468531E+01 -0.12992655624E+02  0.13206114935E+02  0.00000000000E+00 0.  1.
</event>
<event>
 7    1  0.2031146E-008  0.4614232E+02  0.7816164E-02  0.1320468E+00
        -11   -1    0    0    0    0  0.00000000000E+00  0.00000000000E+00  0.45593999997E+02  0.45594000000E+02  0.51100000000E-03 0.  1.
         11   -1    0    0    0    0 -0.00000000000E+00 -0.00000000000E+00 -0.45593999997E+02  0.45594000000E+02  0.51100000000E-03 0. -1.
    9900012    2    1    2    0    0  0.23665814128E+02 -0.27236695531E+02 -0.26966742381E+02  0.46142317228E+02  0.99999951348E+01 0.  0.
        -12    1    1    2    0    0 -0.23665814128E+02  0.27236695531E+02  0.26966742381E+02  0.45045682772E+02  0.00000000000E+00 0.  1.
         11    1    3    3    0    0  0.10911761451E+02 -0.16849205332E+02 -0.16112797458E+02  0.25740716782E+02  0.51100000000E-03 0. -1.
        -11    1    3    3    0    0  0.65139088375E+01 -0.42550392350E+01 -0.80948619239E+01  0.11227785047E+02  0.51100000000E-03 0.  1.
        -12    1    3    3    0    0  0.62401438395E+01 -0.61324509644E+01 -0.27590829991E+01  0.91738153984E+01  0.00000000000E+00 0.  1.
</event>
<event>
 7    1  0.2031146E-008  0.4614232E+02  0.7816164E-02  0.1320468E+00
        -11   -1    0    0    0    0  0.00000000000E+00  0.00000000000E+00  0.45593999997E+02  0.45594000000E+02  0.51100000000E-03 0.  1.
         11   -1    0    0    0    0 -0.00000000000E+00 -0.00000000000E+00 -0.45593999997E+02  0.45594000000E+02  0.51100000000E-03 0. -1.
    9900012    2    1    2    0    0 -0.12607265676E+01  0.44596912692E+02 -0.62160665700E+01  0.46142317224E+02  0.99999951028E+01 0.  0.
        -12    1    1    2    0    0  0.12607265676E+01 -0.44596912692E+02  0.62160665700E+01  0.45045682776E+02  0.00000000000E+00 0.  1.
         11    1    3    3    0    0 -0.34846541552E+00  0.12176072726E+02 -0.15570397324E+01  0.12280168898E+02  0.51100000000E-03 0. -1.
        -11    1    3    3    0    0  0.26909638573E+01  0.18736423656E+02  0.11091494480E+00  0.18929003151E+02  0.51100000000E-03 0.  1.
        -12    1    3    3    0    0 -0.36032250094E+01  0.13684416310E+02 -0.47699417824E+01  0.14933145176E+02  0.00000000000E+00 0.  1.
</event>
<event>
 7    1  0.2031146E-008  0.4614232E+02  0.7816164E-02  0.1320468E+00
        -11   -1    0    0    0    0  0.00000000000E+00  0.00000000000E+00  0.45593999997E+02  0.45594000000E+02  0.51100000000E-03 0.  1.
         11   -1    0    0    0    0 -0.00000000000E+00 -0.00000000000E+00 -0.45593999997E+02  0.45594000000E+02  0.51100000000E-03 0. -1.
    9900012    2    1    2    0    0  0.36371096577E+02  0.10443233371E+01 -0.26554964880E+02  0.46142318329E+02  0.10000005181E+02 0.  0.
        -12    1    1    2    0    0 -0.36371096577E+02 -0.10443233371E+01  0.26554964880E+02  0.45045681671E+02  0.00000000000E+00 0.  1.
         11    1    3    3    0    0  0.13454519823E+02  0.48129702693E+00 -0.11764425340E+02  0.17878966814E+02  0.51100000000E-03 0. -1.
        -11    1    3    3    0    0  0.92140182589E+01 -0.19194221797E+01 -0.26220069352E+01  0.97702218301E+01  0.51100000000E-03 0.  1.
        -12    1    3    3    0    0  0.13702558495E+02  0.24824484899E+01 -0.12168532604E+02  0.18493129685E+02  0.00000000000E+00 0.  1.
</event>
<event>
 7    1  0.2031146E-008  0.4614232E+02  0.7816164E-02  0.1320468E+00
        -11   -1    0    0    0    0  0.00000000000E+00  0.00000000000E+00  0.45593999997E+02  0.45594000000E+02  0.51100000000E-03 0.  1.
         11   -1    0    0    0    0 -0.00000000000E+00 -0.00000000000E+00 -0.45593999997E+02  0.45594000000E+02  0.51100000000E-03 0. -1.
    9900012    2    1    2    0    0  0.84473921994E+01 -0.36917352884E+02 -0.24389836588E+02  0.46142317546E+02  0.99999980371E+01 0.  0.
        -12    1    1    2    0    0 -0.84473921994E+01  0.36917352884E+02  0.24389836588E+02  0.45045682454E+02  0.00000000000E+00 0.  1.
         11    1    3    3    0    0  0.29396903563E+01 -0.17256540011E+02 -0.10276614599E+02  0.20298737902E+02  0.51100000000E-03 0. -1.
        -11    1    3    3    0    0 -0.10978109312E+01 -0.30035022289E+01 -0.28767347949E+00  0.32107585975E+01  0.51100000000E-03 0.  1.
         12    1    3    3    0    0  0.66055127743E+01 -0.16657310645E+02 -0.13825548509E+02  0.22632821046E+02  0.00000000000E+00 0. -1.
</event>
<event>
 7    1  0.2031146E-008  0.4614232E+02  0.7816164E-02  0.1320468E+00
        -11   -1    0    0    0    0  0.00000000000E+00  0.00000000000E+00  0.45593999997E+02  0.45594000000E+02  0.51100000000E-03 0.  1.
         11   -1    0    0    0    0 -0.00000000000E+00 -0.00000000000E+00 -0.45593999997E+02  0.45594000000E+02  0.51100000000E-03 0. -1.
    9900012    2    1    2    0    0 -0.22398873776E+02 -0.35936405539E+02 -0.15361597713E+02  0.46142317923E+02  0.10000001479E+02 0.  0.
        -12    1    1    2    0    0  0.22398873776E+02  0.35936405539E+02  0.15361597713E+02  0.45045682077E+02  0.00000000000E+00 0.  1.
         11    1    3    3    0    0 -0.11635918470E+02 -0.15853833371E+02 -0.56032426314E+01  0.20448348575E+02  0.51100000000E-03 0. -1.
        -11    1    3    3    0    0 -0.44290676976E+01 -0.61699171135E+01 -0.66492306090E+01  0.10094393781E+02  0.51100000000E-03 0.  1.
         12    1    3    3    0    0 -0.63338876084E+01 -0.13912655054E+02 -0.31091244728E+01  0.15599575567E+02  0.00000000000E+00 0. -1.
</event>
<event>
 7    1  0.2031146E-008  0.4614232E+02  0.7816164E-02  0.1320468E+00
        -11   -1    0    0    0    0  0.00000000000E+00  0.00000000000E+00  0.45593999997E+02  0.45594000000E+02  0.51100000000E-03 0.  1.
         11   -1    0    0    0    0 -0.00000000000E+00 -0.00000000000E+00 -0.45593999997E+02  0.45594000000E+02  0.51100000000E-03 0. -1.
    9900012    2    1    2    0    0 -0.28607419977E+01  0.92874871225E+01 -0.43984909292E+02  0.46142317552E+02  0.99999980917E+01 0.  0.
        -12    1    1    2    0    0  0.28607419977E+01 -0.92874871225E+01  0.43984909292E+02  0.45045682448E+02  0.00000000000E+00 0.  1.
         11    1    3    3    0    0 -0.52775008134E+00  0.43640984707E+01 -0.10998018840E+02  0.11843998238E+02  0.51100000000E-03 0. -1.
        -11    1    3    3    0    0 -0.71065638370E+00 -0.18688901777E+01 -0.38734799404E+01  0.43590859250E+01  0.51100000000E-03 0.  1.
        -12    1    3    3    0    0 -0.16223355326E+01  0.67922788295E+01 -0.29113410512E+02  0.29939233389E+02  0.00000000000E+00 0.  1.
</event>
<event>
 7    1  0.2031146E-008  0.4614232E+02  0.7816164E-02  0.1320468E+00
        -11   -1    0    0    0    0  0.00000000000E+00  0.00000000000E+00  0.45593999997E+02  0.45594000000E+02  0.51100000000E-03 0.  1.
         11   -1    0    0    0    0 -0.00000000000E+00 -0.00000000000E+00 -0.45593999997E+02  0.45594000000E+02  0.51100000000E-03 0. -1.
    9900012    2    1    2    0    0  0.39571239414E+01 -0.26225626334E+02 -0.36409767471E+02  0.46142317922E+02  0.10000001472E+02 0.  0.
        -12    1    1    2    0    0 -0.39571239414E+01  0.26225626334E+02  0.36409767471E+02  0.45045682078E+02  0.00000000000E+00 0.  1.
         11    1    3    3    0    0  0.53776664770E+01 -0.19187347871E+02 -0.24634327111E+02  0.31684754812E+02  0.51100000000E-03 0. -1.
        -11    1    3    3    0    0  0.10613245901E+01 -0.18669235222E+01 -0.12885590852E+01  0.25044356850E+01  0.51100000000E-03 0.  1.
         12    1    3    3    0    0 -0.24818671257E+01 -0.51713549411E+01 -0.10486881275E+02  0.11953127425E+02  0.00000000000E+00 0. -1.
</event>
<event>
 7    1  0.2031146E-008  0.4614232E+02  0.7816164E-02  0.1320468E+00
        -11   -1    0    0    0    0  0.00000000000E+00  0.00000000000E+00  0.45593999997E+02  0.45594000000E+02  0.51100000000E-03 0.  1.
         11   -1    0    0    0    0 -0.00000000000E+00 -0.00000000000E+00 -0.45593999997E+02  0.45594000000E+02  0.51100000000E-03 0. -1.
    9900012    2    1    2    0    0 -0.22472450656E+02 -0.62425107205E+01 -0.38537431099E+02  0.46142316807E+02  0.99999913009E+01 0.  0.
        -12    1    1    2    0    0  0.22472450656E+02  0.62425107205E+01  0.38537431099E+02  0.45045683193E+02  0.00000000000E+00 0.  1.
         11    1    3    3    0    0 -0.13053178969E+02 -0.46284681052E+01 -0.28173759074E+02  0.31393771656E+02  0.51100000000E-03 0. -1.
        -11    1    3    3    0    0 -0.44389528294E+01  0.13742614427E+01 -0.52389040361E+01  0.70027860523E+01  0.51100000000E-03 0.  1.
        -12    1    3    3    0    0 -0.49803188580E+01 -0.29883040580E+01 -0.51247679896E+01  0.77457590988E+01  0.00000000000E+00 0.  1.
</event>
<event>
 7    1  0.2031146E-008  0.4614232E+02  0.7816164E-02  0.1320468E+00
        -11   -1    0    0    0    0  0.00000000000E+00  0.00000000000E+00  0.45593999997E+02  0.45594000000E+02  0.51100000000E-03 0.  1.
         11   -1    0    0    0    0 -0.00000000000E+00 -0.00000000000E+00 -0.45593999997E+02  0.45594000000E+02  0.51100000000E-03 0. -1.
    9900012    2    1    2    0    0 -0.10261347690E+02 -0.33614886695E+02 -0.28175478843E+02  0.46142317943E+02  0.10000001662E+02 0.  0.
        -12    1    1    2    0    0  0.10261347690E+02  0.33614886695E+02  0.28175478843E+02  0.45045682057E+02  0.00000000000E+00 0.  1.
         11    1    3    3    0    0 -0.78364829920E+01 -0.12789646836E+02 -0.87551400843E+01  0.17367728983E+02  0.51100000000E-03 0. -1.
        -11    1    3    3    0    0  0.24626896549E+00 -0.26216996156E+01 -0.12457658443E+01  0.29130551106E+01  0.51100000000E-03 0.  1.
        -12    1    3    3    0    0 -0.26711336635E+01 -0.18203540243E+02 -0.18174572915E+02  0.25861533849E+02  0.00000000000E+00 0.  1.
</event>
<event>
 7    1  0.2031146E-008  0.4614231E+02  0.7816164E-02  0.1320468E+00
        -11   -1    0    0    0    0  0.00000000000E+00  0.00000000000E+00  0.45593999997E+02  0.45594000000E+02  0.51100000000E-03 0. -1.
         11   -1    0    0    0    0 -0.00000000000E+00 -0.00000000000E+00 -0.45593999997E+02  0.45594000000E+02  0.51100000000E-03 0.  1.
    9900012    2    1    2    0    0 -0.21528774255E+02 -0.23780891222E+01  0.39496465583E+02  0.46142309614E+02  0.99999257110E+01 0.  0.
        -12    1    1    2    0    0  0.21528774255E+02  0.23780891222E+01 -0.39496465583E+02  0.45045690386E+02  0.00000000000E+00 0.  1.
         11    1    3    3    0    0 -0.60665922536E+01  0.19293578831E+01  0.11343459099E+02  0.13007691110E+02  0.51100000000E-03 0. -1.
        -11    1    3    3    0    0 -0.12843627658E+02 -0.68639308456E+00  0.18930756099E+02  0.22886752360E+02  0.51100000000E-03 0.  1.
        -12    1    3    3    0    0 -0.26185543436E+01 -0.36210539207E+01  0.92222503850E+01  0.10247866144E+02  0.00000000000E+00 0.  1.
</event>
<event>
 7    1  0.2031146E-008  0.4614232E+02  0.7816164E-02  0.1320468E+00
        -11   -1    0    0    0    0  0.00000000000E+00  0.00000000000E+00  0.45593999997E+02  0.45594000000E+02  0.51100000000E-03 0.  1.
         11   -1    0    0    0    0 -0.00000000000E+00 -0.00000000000E+00 -0.45593999997E+02  0.45594000000E+02  0.51100000000E-03 0. -1.
    9900012    2    1    2    0    0  0.96523847593E+01  0.27825045934E+02 -0.34083893723E+02  0.46142317364E+02  0.99999963828E+01 0.  0.
        -12    1    1    2    0    0 -0.96523847593E+01 -0.27825045934E+02  0.34083893723E+02  0.45045682636E+02  0.00000000000E+00 0.  1.
         11    1    3    3    0    0  0.72115564445E+00  0.32640674093E+01 -0.20430402427E+01  0.39176798249E+01  0.51100000000E-03 0. -1.
        -11    1    3    3    0    0  0.48858724264E+00 -0.70285789500E+00 -0.83112329087E+00  0.11931022169E+01  0.51100000000E-03 0.  1.
         12    1    3    3    0    0  0.84426418722E+01  0.25263836420E+02 -0.31209730189E+02  0.41031535323E+02  0.00000000000E+00 0. -1.
</event>
<event>
 7    1  0.2031146E-008  0.4614232E+02  0.7816164E-02  0.1320468E+00
        -11   -1    0    0    0    0  0.00000000000E+00  0.00000000000E+00  0.45593999997E+02  0.45594000000E+02  0.51100000000E-03 0. -1.
         11   -1    0    0    0    0 -0.00000000000E+00 -0.00000000000E+00 -0.45593999997E+02  0.45594000000E+02  0.51100000000E-03 0.  1.
    9900012    2    1    2    0    0 -0.28491300591E+02 -0.13151683379E+02  0.32317061648E+02  0.46142318091E+02  0.10000003005E+02 0.  0.
        -12    1    1    2    0    0  0.28491300591E+02  0.13151683379E+02 -0.32317061648E+02  0.45045681909E+02  0.00000000000E+00 0.  1.
         11    1    3    3    0    0 -0.73412887207E+01 -0.36045157604E+01  0.11060348597E+02  0.13755666661E+02  0.51100000000E-03 0. -1.
        -11    1    3    3    0    0 -0.28632394509E+01  0.10206531063E+01  0.44787854688E+01  0.54128913210E+01  0.51100000000E-03 0.  1.
        -12    1    3    3    0    0 -0.18286772420E+02 -0.10567820725E+02  0.16777927582E+02  0.26973760108E+02  0.00000000000E+00 0.  1.
</event>
<event>
 7    1  0.2031146E-008  0.4614232E+02  0.7816164E-02  0.1320468E+00
        -11   -1    0    0    0    0  0.00000000000E+00  0.00000000000E+00  0.45593999997E+02  0.45594000000E+02  0.51100000000E-03 0. -1.
         11   -1    0    0    0    0 -0.00000000000E+00 -0.00000000000E+00 -0.45593999997E+02  0.45594000000E+02  0.51100000000E-03 0.  1.
    9900012    2    1    2    0    0 -0.34585345821E+02  0.28740834376E+02  0.26328294040E+01  0.46142317667E+02  0.99999991428E+01 0.  0.
        -12    1    1    2    0    0  0.34585345821E+02 -0.28740834376E+02 -0.26328294040E+01  0.45045682333E+02  0.00000000000E+00 0.  1.
         11    1    3    3    0    0 -0.23586724981E+02  0.16716473790E+02 -0.12290006926E+01  0.28935869337E+02  0.51100000000E-03 0. -1.
        -11    1    3    3    0    0 -0.75638605581E+01  0.92733976611E+01  0.11146837228E+01  0.12018752464E+02  0.51100000000E-03 0.  1.
         12    1    3    3    0    0 -0.34347602820E+01  0.27509629243E+01  0.27471463738E+01  0.51876958666E+01  0.00000000000E+00 0. -1.
</event>
<event>
 7    1  0.2031146E-008  0.4614232E+02  0.7816164E-02  0.1320468E+00
        -11   -1    0    0    0    0  0.00000000000E+00  0.00000000000E+00  0.45593999997E+02  0.45594000000E+02  0.51100000000E-03 0. -1.
         11   -1    0    0    0    0 -0.00000000000E+00 -0.00000000000E+00 -0.45593999997E+02  0.45594000000E+02  0.51100000000E-03 0.  1.
    9900012    2    1    2    0    0 -0.10972086311E+02  0.36628320550E+02  0.23813713069E+02  0.46142317916E+02  0.10000001408E+02 0.  0.
        -12    1    1    2    0    0  0.10972086311E+02 -0.36628320550E+02 -0.23813713069E+02  0.45045682084E+02  0.00000000000E+00 0.  1.
         11    1    3    3    0    0 -0.62095577950E+01  0.26961746300E+02  0.17165810590E+02  0.32560089451E+02  0.51100000000E-03 0. -1.
        -11    1    3    3    0    0 -0.14812703486E+01 -0.11254057289E+00  0.46706458236E+00  0.15572337048E+01  0.51100000000E-03 0.  1.
        -12    1    3    3    0    0 -0.32812581677E+01  0.97791148220E+01  0.61808378969E+01  0.12024994760E+02  0.00000000000E+00 0.  1.
</event>
<event>
 7    1  0.2031146E-008  0.4614232E+02  0.7816164E-02  0.1320468E+00
        -11   -1    0    0    0    0  0.00000000000E+00  0.00000000000E+00  0.45593999997E+02  0.45594000000E+02  0.51100000000E-03 0.  1.
         11   -1    0    0    0    0 -0.00000000000E+00 -0.00000000000E+00 -0.45593999997E+02  0.45594000000E+02  0.51100000000E-03 0. -1.
    9900012    2    1    2    0    0 -0.38753546317E+01 -0.11113255103E+02 -0.43480922843E+02  0.46142318034E+02  0.10000002489E+02 0.  0.
        -12    1    1    2    0    0  0.38753546317E+01  0.11113255103E+02  0.43480922843E+02  0.45045681966E+02  0.00000000000E+00 0.  1.
         11    1    3    3    0    0 -0.24339804903E+01 -0.65153501233E+01 -0.13213530173E+02  0.14932227836E+02  0.51100000000E-03 0. -1.
        -11    1    3    3    0    0 -0.18384290795E+00 -0.41900990750E+01 -0.93108156161E+01  0.10211856647E+02  0.51100000000E-03 0.  1.
        -12    1    3    3    0    0 -0.12575312334E+01 -0.40780590481E+00 -0.20956577054E+02  0.20998233551E+02  0.00000000000E+00 0.  1.
</event>
<event>
 7    1  0.2031146E-008  0.4614232E+02  0.7816164E-02  0.1320468E+00
        -11   -1    0    0    0    0  0.00000000000E+00  0.00000000000E+00  0.45593999997E+02  0.45594000000E+02  0.51100000000E-03 0. -1.
         11   -1    0    0    0    0 -0.00000000000E+00 -0.00000000000E+00 -0.45593999997E+02  0.45594000000E+02  0.51100000000E-03 0.  1.
    9900012    2    1    2    0    0  0.35339466310E+02 -0.20604940301E+02 -0.18859269920E+02  0.46142317568E+02  0.99999982351E+01 0.  0.
        -12    1    1    2    0    0 -0.35339466310E+02  0.20604940301E+02  0.18859269920E+02  0.45045682432E+02  0.00000000000E+00 0.  1.
         11    1    3    3    0    0  0.48232121371E+01 -0.20473006339E+00 -0.28829416198E+01  0.56228678059E+01  0.51100000000E-03 0. -1.
        -11    1    3    3    0    0  0.15973528123E+01 -0.37309425392E+00  0.44367768997E+00  0.16992896995E+01  0.51100000000E-03 0.  1.
         12    1    3    3    0    0  0.28918901361E+02 -0.20027115983E+02 -0.16420005990E+02  0.38820160062E+02  0.00000000000E+00 0. -1.
</event>
<event>
 7    1  0.2031146E-008  0.4614232E+02  0.7816164E-02  0.1320468E+00
        -11   -1    0    0    0    0  0.00000000000E+00  0.00000000000E+00  0.45593999997E+02  0.45594000000E+02  0.51100000000E-03 0.  1.
         11   -1    0    0    0    0 -0.00000000000E+00 -0.00000000000E+00 -0.45593999997E+02  0.45594000000E+02  0.51100000000E-03 0. -1.
    9900012    2    1    2    0    0  0.36936818919E+02 -0.24202515966E+02 -0.88894957023E+01  0.46142317579E+02  0.99999983399E+01 0.  0.
        -12    1    1    2    0    0 -0.36936818919E+02  0.24202515966E+02  0.88894957023E+01  0.45045682421E+02  0.00000000000E+00 0.  1.
         11    1    3    3    0    0  0.10141567689E+02 -0.77430599978E+01 -0.66532486542E+01  0.14389999695E+02  0.51100000000E-03 0. -1.
        -11    1    3    3    0    0  0.81280751397E+01 -0.67616715930E+01  0.20748833049E+00  0.10574916542E+02  0.51100000000E-03 0.  1.
         12    1    3    3    0    0  0.18667176090E+02 -0.96977843752E+01 -0.24437353786E+01  0.21177401341E+02  0.00000000000E+00 0. -1.
</event>
<event>
 7    1  0.2031146E-008  0.4614232E+02  0.7816164E-02  0.1320468E+00
        -11   -1    0    0    0    0  0.00000000000E+00  0.00000000000E+00  0.45593999997E+02  0.45594000000E+02  0.51100000000E-03 0.  1.
         11   -1    0    0    0    0 -0.00000000000E+00 -0.00000000000E+00 -0.45593999997E+02  0.45594000000E+02  0.51100000000E-03 0. -1.
    9900012    2    1    2    0    0 -0.43915208227E+02  0.75379064741E+01 -0.66142134887E+01  0.46142319101E+02  0.10000012217E+02 0.  0.
        -12    1    1    2    0    0  0.43915208227E+02 -0.75379064741E+01  0.66142134887E+01  0.45045680899E+02  0.00000000000E+00 0.  1.
         11    1    3    3    0    0 -0.30553711611E+02  0.60900882507E+01 -0.41086725818E+01  0.31424507296E+02  0.51100000000E-03 0. -1.
        -11    1    3    3    0    0 -0.76716067254E+00  0.17080139107E+01  0.82946819254E-02  0.18724091646E+01  0.51100000000E-03 0.  1.
         12    1    3    3    0    0 -0.12594335943E+02 -0.26019568732E+00 -0.25138355888E+01  0.12845402641E+02  0.00000000000E+00 0. -1.
</event>
<event>
 7    1  0.2031146E-008  0.4614232E+02  0.7816164E-02  0.1320468E+00
        -11   -1    0    0    0    0  0.00000000000E+00  0.00000000000E+00  0.45593999997E+02  0.45594000000E+02  0.51100000000E-03 0.  1.
         11   -1    0    0    0    0 -0.00000000000E+00 -0.00000000000E+00 -0.45593999997E+02  0.45594000000E+02  0.51100000000E-03 0. -1.
    9900012    2    1    2    0    0 -0.17644747387E+02  0.39866002727E+02 -0.11334822582E+02  0.46142317779E+02  0.10000000163E+02 0.  0.
        -12    1    1    2    0    0  0.17644747387E+02 -0.39866002727E+02  0.11334822582E+02  0.45045682221E+02  0.00000000000E+00 0.  1.
         11    1    3    3    0    0 -0.78964320179E+01  0.26123973485E+02 -0.68955905354E+01  0.28148975085E+02  0.51100000000E-03 0. -1.
        -11    1    3    3    0    0 -0.15017335276E+01  0.82670408492E+00  0.66988319503E+00  0.18404855305E+01  0.51100000000E-03 0.  1.
         12    1    3    3    0    0 -0.82465818411E+01  0.12915325158E+02 -0.51091152416E+01  0.16152857163E+02  0.00000000000E+00 0. -1.
</event>
<event>
 7    1  0.2031146E-008  0.4614232E+02  0.7816164E-02  0.1320468E+00
        -11   -1    0    0    0    0  0.00000000000E+00  0.00000000000E+00  0.45593999997E+02  0.45594000000E+02  0.51100000000E-03 0. -1.
         11   -1    0    0    0    0 -0.00000000000E+00 -0.00000000000E+00 -0.45593999997E+02  0.45594000000E+02  0.51100000000E-03 0.  1.
    9900012    2    1    2    0    0 -0.38728250582E+02 -0.22845517564E+02 -0.27052550005E+01  0.46142317959E+02  0.10000001807E+02 0.  0.
        -12    1    1    2    0    0  0.38728250582E+02  0.22845517564E+02  0.27052550005E+01  0.45045682041E+02  0.00000000000E+00 0.  1.
         11    1    3    3    0    0 -0.53181100632E+01 -0.47438961586E+01  0.30863198369E+00  0.71331689571E+01  0.51100000000E-03 0. -1.
        -11    1    3    3    0    0 -0.15845163935E+01 -0.28476038804E+01 -0.17389312616E+01  0.36937003472E+01  0.51100000000E-03 0.  1.
        -12    1    3    3    0    0 -0.31825624125E+02 -0.15254017525E+02 -0.12749557226E+01  0.35315448655E+02  0.00000000000E+00 0.  1.
</event>
<event>
 7    1  0.2031146E-008  0.4614232E+02  0.7816164E-02  0.1320468E+00
        -11   -1    0    0    0    0  0.00000000000E+00  0.00000000000E+00  0.45593999997E+02  0.45594000000E+02  0.51100000000E-03 0. -1.
         11   -1    0    0    0    0 -0.00000000000E+00 -0.00000000000E+00 -0.45593999997E+02  0.45594000000E+02  0.51100000000E-03 0.  1.
    9900012    2    1    2    0    0 -0.22814291938E+02  0.27998667084E+02  0.26920183161E+02  0.46142317227E+02  0.99999951254E+01 0.  0.
        -12    1    1    2    0    0  0.22814291938E+02 -0.27998667084E+02 -0.26920183161E+02  0.45045682773E+02  0.00000000000E+00 0.  1.
         11    1    3    3    0    0 -0.84783647589E+01  0.58787176042E+01  0.67213668671E+01  0.12313357076E+02  0.51100000000E-03 0. -1.
        -11    1    3    3    0    0 -0.20326220323E+01  0.65162083717E+01  0.26627464595E+01  0.73268508131E+01  0.51100000000E-03 0.  1.
         12    1    3    3    0    0 -0.12303305146E+02  0.15603741108E+02  0.17536069835E+02  0.26502109337E+02  0.00000000000E+00 0. -1.
</event>
<event>
 7    1  0.2031146E-008  0.4614232E+02  0.7816164E-02  0.1320468E+00
        -11   -1    0    0    0    0  0.00000000000E+00  0.00000000000E+00  0.45593999997E+02  0.45594000000E+02  0.51100000000E-03 0.  1.
         11   -1    0    0    0    0 -0.00000000000E+00 -0.00000000000E+00 -0.45593999997E+02  0.45594000000E+02  0.51100000000E-03 0. -1.
    9900012    2    1    2    0    0 -0.21255757165E+02  0.31843960744E+02 -0.23733275254E+02  0.46142318710E+02  0.10000008657E+02 0.  0.
        -12    1    1    2    0    0  0.21255757165E+02 -0.31843960744E+02  0.23733275254E+02  0.45045681290E+02  0.00000000000E+00 0.  1.
         11    1    3    3    0    0 -0.10718743467E+01  0.61320311821E+00 -0.66186529349E+00  0.14010705218E+01  0.51100000000E-03 0.  1.
        -11    1    3    3    0    0 -0.71269070834E+01  0.11917526977E+02 -0.14020713507E+02  0.19733237477E+02  0.51100000000E-03 0. -1.
        -12    1    3    3    0    0 -0.13056975735E+02  0.19313230649E+02 -0.90506964538E+01  0.25008010711E+02  0.00000000000E+00 0.  1.
</event>
<event>
 7    1  0.2031146E-008  0.4614232E+02  0.7816164E-02  0.1320468E+00
        -11   -1    0    0    0    0  0.00000000000E+00  0.00000000000E+00  0.45593999997E+02  0.45594000000E+02  0.51100000000E-03 0.  1.
         11   -1    0    0    0    0 -0.00000000000E+00 -0.00000000000E+00 -0.45593999997E+02  0.45594000000E+02  0.51100000000E-03 0. -1.
    9900012    2    1    2    0    0  0.25485612307E+02  0.18602334457E+02 -0.32148875723E+02  0.46142317719E+02  0.99999996161E+01 0.  0.
        -12    1    1    2    0    0 -0.25485612307E+02 -0.18602334457E+02  0.32148875723E+02  0.45045682281E+02  0.00000000000E+00 0.  1.
         11    1    3    3    0    0  0.62314096570E+01  0.74129171987E+01 -0.10858904030E+02  0.14549831776E+02  0.51100000000E-03 0. -1.
        -11    1    3    3    0    0  0.37761896550E+01  0.46756438453E+01 -0.88329724507E+01  0.10683756655E+02  0.51100000000E-03 0.  1.
         12    1    3    3    0    0  0.15478012995E+02  0.65137734129E+01 -0.12456999242E+02  0.20908729289E+02  0.00000000000E+00 0. -1.
</event>
<event>
 7    1  0.2031146E-008  0.4614232E+02  0.7816164E-02  0.1320468E+00
        -11   -1    0    0    0    0  0.00000000000E+00  0.00000000000E+00  0.45593999997E+02  0.45594000000E+02  0.51100000000E-03 0. -1.
         11   -1    0    0    0    0 -0.00000000000E+00 -0.00000000000E+00 -0.45593999997E+02  0.45594000000E+02  0.51100000000E-03 0.  1.
    9900012    2    1    2    0    0 -0.90675261759E+01  0.20201394406E+02  0.39227504471E+02  0.46142317922E+02  0.10000001466E+02 0.  0.
        -12    1    1    2    0    0  0.90675261759E+01 -0.20201394406E+02 -0.39227504471E+02  0.45045682078E+02  0.00000000000E+00 0.  1.
         11    1    3    3    0    0 -0.85902715968E+00  0.71969236834E+01  0.10871903173E+02  0.13066442402E+02  0.51100000000E-03 0. -1.
        -11    1    3    3    0    0 -0.12818606841E+01  0.69981159666E+01  0.77371183698E+01  0.10510936915E+02  0.51100000000E-03 0.  1.
         12    1    3    3    0    0 -0.69266383321E+01  0.60063547556E+01  0.20618482928E+02  0.22564938606E+02  0.00000000000E+00 0. -1.
</event>
<event>
 7    1  0.2031146E-008  0.4614232E+02  0.7816164E-02  0.1320468E+00
        -11   -1    0    0    0    0  0.00000000000E+00  0.00000000000E+00  0.45593999997E+02  0.45594000000E+02  0.51100000000E-03 0.  1.
         11   -1    0    0    0    0 -0.00000000000E+00 -0.00000000000E+00 -0.45593999997E+02  0.45594000000E+02  0.51100000000E-03 0. -1.
    9900012    2    1    2    0    0  0.34186706753E+02  0.23183552137E+02 -0.17969571377E+02  0.46142317590E+02  0.99999984437E+01 0.  0.
        -12    1    1    2    0    0 -0.34186706753E+02 -0.23183552137E+02  0.17969571377E+02  0.45045682410E+02  0.00000000000E+00 0.  1.
         11    1    3    3    0    0  0.61144245970E+01  0.72398394318E+01 -0.22288976891E+01  0.97349601088E+01  0.51100000000E-03 0. -1.
        -11    1    3    3    0    0  0.21187531579E+01  0.21155616197E+01  0.11766764491E+00  0.29964248442E+01  0.51100000000E-03 0.  1.
         12    1    3    3    0    0  0.25953528998E+02  0.13828151085E+02 -0.15858341333E+02  0.33410932637E+02  0.00000000000E+00 0. -1.
</event>
<event>
 7    1  0.2031146E-008  0.4614232E+02  0.7816164E-02  0.1320468E+00
        -11   -1    0    0    0    0  0.00000000000E+00  0.00000000000E+00  0.45593999997E+02  0.45594000000E+02  0.51100000000E-03 0.  1.
         11   -1    0    0    0    0 -0.00000000000E+00 -0.00000000000E+00 -0.45593999997E+02  0.45594000000E+02  0.51100000000E-03 0. -1.
    9900012    2    1    2    0    0  0.12681662757E+02 -0.36569075284E+02 -0.23043255447E+02  0.46142318087E+02  0.10000002970E+02 0.  0.
        -12    1    1    2    0    0 -0.12681662757E+02  0.36569075284E+02  0.23043255447E+02  0.45045681913E+02  0.00000000000E+00 0.  1.
         11    1    3    3    0    0  0.29057696041E+01 -0.33137864074E+01 -0.34206691559E+01  0.55790371106E+01  0.51100000000E-03 0.  1.
        -11    1    3    3    0    0  0.56133297577E+01 -0.28540525945E+02 -0.17390815497E+02  0.33889696901E+02  0.51100000000E-03 0. -1.
        -12    1    3    3    0    0  0.41625633948E+01 -0.47147629323E+01 -0.22317707944E+01  0.66735840748E+01  0.00000000000E+00 0.  1.
</event>
<event>
 7    1  0.2031146E-008  0.4614232E+02  0.7816164E-02  0.1320468E+00
        -11   -1    0    0    0    0  0.00000000000E+00  0.00000000000E+00  0.45593999997E+02  0.45594000000E+02  0.51100000000E-03 0.  1.
         11   -1    0    0    0    0 -0.00000000000E+00 -0.00000000000E+00 -0.45593999997E+02  0.45594000000E+02  0.51100000000E-03 0. -1.
    9900012    2    1    2    0    0  0.73132807765E+01 -0.30432312559E+02 -0.32396045487E+02  0.46142317781E+02  0.10000000178E+02 0.  0.
        -12    1    1    2    0    0 -0.73132807765E+01  0.30432312559E+02  0.32396045487E+02  0.45045682219E+02  0.00000000000E+00 0.  1.
         11    1    3    3    0    0  0.39391528609E+01 -0.13199289920E+02 -0.11290838670E+02  0.17810705146E+02  0.51100000000E-03 0. -1.
        -11    1    3    3    0    0  0.52461991783E+01 -0.14821808791E+02 -0.16369850680E+02  0.22697590912E+02  0.51100000000E-03 0.  1.
        -12    1    3    3    0    0 -0.18720712627E+01 -0.24112138488E+01 -0.47353561363E+01  0.56340217229E+01  0.00000000000E+00 0.  1.
</event>
<event>
 7    1  0.2031146E-008  0.4614232E+02  0.7816164E-02  0.1320468E+00
        -11   -1    0    0    0    0  0.00000000000E+00  0.00000000000E+00  0.45593999997E+02  0.45594000000E+02  0.51100000000E-03 0. -1.
         11   -1    0    0    0    0 -0.00000000000E+00 -0.00000000000E+00 -0.45593999997E+02  0.45594000000E+02  0.51100000000E-03 0.  1.
    9900012    2    1    2    0    0 -0.34570449878E+01 -0.11583080436E+02  0.43393485475E+02  0.46142317698E+02  0.99999994225E+01 0.  0.
        -12    1    1    2    0    0  0.34570449878E+01  0.11583080436E+02 -0.43393485475E+02  0.45045682302E+02  0.00000000000E+00 0.  1.
         11    1    3    3    0    0  0.58504115081E+00 -0.55421239412E+01  0.15109380226E+02  0.16104371519E+02  0.51100000000E-03 0. -1.
        -11    1    3    3    0    0  0.18516849253E+01 -0.17180105892E+01  0.10722487454E+02  0.11015989965E+02  0.51100000000E-03 0.  1.
        -12    1    3    3    0    0 -0.58937710638E+01 -0.43229459053E+01  0.17561617794E+02  0.19021956214E+02  0.00000000000E+00 0.  1.
</event>
<event>
 7    1  0.2031146E-008  0.4614232E+02  0.7816164E-02  0.1320468E+00
        -11   -1    0    0    0    0  0.00000000000E+00  0.00000000000E+00  0.45593999997E+02  0.45594000000E+02  0.51100000000E-03 0.  1.
         11   -1    0    0    0    0 -0.00000000000E+00 -0.00000000000E+00 -0.45593999997E+02  0.45594000000E+02  0.51100000000E-03 0. -1.
    9900012    2    1    2    0    0  0.34248111693E+02  0.25001229273E+02 -0.15202594611E+02  0.46142317603E+02  0.99999985594E+01 0.  0.
        -12    1    1    2    0    0 -0.34248111693E+02 -0.25001229273E+02  0.15202594611E+02  0.45045682397E+02  0.00000000000E+00 0.  1.
         11    1    3    3    0    0  0.18082411316E+02  0.94261734222E+01 -0.63898652233E+01  0.21369527889E+02  0.51100000000E-03 0. -1.
        -11    1    3    3    0    0  0.18436720853E+01 -0.71321999675E-02 -0.15130620158E+01  0.23850648945E+01  0.51100000000E-03 0.  1.
        -12    1    3    3    0    0  0.14322028292E+02  0.15582188051E+02 -0.72996673723E+01  0.22387724819E+02  0.00000000000E+00 0.  1.
</event>
<event>
 7    1  0.2031146E-008  0.4614232E+02  0.7816164E-02  0.1320468E+00
        -11   -1    0    0    0    0  0.00000000000E+00  0.00000000000E+00  0.45593999997E+02  0.45594000000E+02  0.51100000000E-03 0.  1.
         11   -1    0    0    0    0 -0.00000000000E+00 -0.00000000000E+00 -0.45593999997E+02  0.45594000000E+02  0.51100000000E-03 0. -1.
    9900012    2    1    2    0    0  0.73439691745E+01  0.32823135279E+02 -0.29963667469E+02  0.46142318065E+02  0.10000002774E+02 0.  0.
        -12    1    1    2    0    0 -0.73439691745E+01 -0.32823135279E+02  0.29963667469E+02  0.45045681935E+02  0.00000000000E+00 0.  1.
         11    1    3    3    0    0  0.27972049970E+01  0.13140422577E+02 -0.15859080136E+02  0.20784741622E+02  0.51100000000E-03 0. -1.
        -11    1    3    3    0    0 -0.13214923418E+01  0.17295543283E+01 -0.12439676226E+01  0.25070213184E+01  0.51100000000E-03 0.  1.
        -12    1    3    3    0    0  0.58682565192E+01  0.17953158373E+02 -0.12860619711E+02  0.22850555125E+02  0.00000000000E+00 0.  1.
</event>
<event>
 7    1  0.2031146E-008  0.4614232E+02  0.7816164E-02  0.1320468E+00
        -11   -1    0    0    0    0  0.00000000000E+00  0.00000000000E+00  0.45593999997E+02  0.45594000000E+02  0.51100000000E-03 0.  1.
         11   -1    0    0    0    0 -0.00000000000E+00 -0.00000000000E+00 -0.45593999997E+02  0.45594000000E+02  0.51100000000E-03 0. -1.
    9900012    2    1    2    0    0  0.13056610824E+02 -0.43075810955E+02 -0.17643849294E+01  0.46142316191E+02  0.99999856783E+01 0.  0.
        -12    1    1    2    0    0 -0.13056610824E+02  0.43075810955E+02  0.17643849294E+01  0.45045683809E+02  0.00000000000E+00 0.  1.
         11    1    3    3    0    0 -0.57629340257E+00 -0.54572501269E+00 -0.41447514785E-01  0.79476287842E+00  0.51100000000E-03 0. -1.
        -11    1    3    3    0    0  0.23907110463E+01 -0.27592086010E+01  0.13776368127E+01  0.39021295288E+01  0.51100000000E-03 0.  1.
         12    1    3    3    0    0  0.11242193180E+02 -0.39770877342E+02 -0.31005742273E+01  0.41445423783E+02  0.00000000000E+00 0. -1.
</event>
<event>
 7    1  0.2031146E-008  0.4614232E+02  0.7816164E-02  0.1320468E+00
        -11   -1    0    0    0    0  0.00000000000E+00  0.00000000000E+00  0.45593999997E+02  0.45594000000E+02  0.51100000000E-03 0.  1.
         11   -1    0    0    0    0 -0.00000000000E+00 -0.00000000000E+00 -0.45593999997E+02  0.45594000000E+02  0.51100000000E-03 0. -1.
    9900012    2    1    2    0    0 -0.27547810102E+02 -0.29799437900E+02 -0.19550578133E+02  0.46142318233E+02  0.10000004300E+02 0.  0.
        -12    1    1    2    0    0  0.27547810102E+02  0.29799437900E+02  0.19550578133E+02  0.45045681767E+02  0.00000000000E+00 0.  1.
         11    1    3    3    0    0 -0.89174461011E+01 -0.79944787782E+01 -0.39239636445E+01  0.12602778537E+02  0.51100000000E-03 0. -1.
        -11    1    3    3    0    0 -0.98569406859E+01 -0.59926073977E+01 -0.71139793731E+01  0.13552834607E+02  0.51100000000E-03 0.  1.
         12    1    3    3    0    0 -0.87734233149E+01 -0.15812351724E+02 -0.85126351154E+01  0.19986705089E+02  0.00000000000E+00 0. -1.
</event>
<event>
 7    1  0.2031146E-008  0.4614232E+02  0.7816164E-02  0.1320468E+00
        -11   -1    0    0    0    0  0.00000000000E+00  0.00000000000E+00  0.45593999997E+02  0.45594000000E+02  0.51100000000E-03 0.  1.
         11   -1    0    0    0    0 -0.00000000000E+00 -0.00000000000E+00 -0.45593999997E+02  0.45594000000E+02  0.51100000000E-03 0. -1.
    9900012    2    1    2    0    0  0.28341193861E+01  0.28975124699E+02 -0.34373294921E+02  0.46142317768E+02  0.10000000062E+02 0.  0.
        -12    1    1    2    0    0 -0.28341193861E+01 -0.28975124699E+02  0.34373294921E+02  0.45045682232E+02  0.00000000000E+00 0.  1.
         11    1    3    3    0    0  0.97655586056E+00  0.66927305757E+01 -0.50338697371E+01  0.84312602082E+01  0.51100000000E-03 0. -1.
        -11    1    3    3    0    0 -0.18800481541E+01  0.11413082269E+01 -0.32435265766E+01  0.39188812746E+01  0.51100000000E-03 0.  1.
         12    1    3    3    0    0  0.37376116796E+01  0.21141085896E+02 -0.26095898608E+02  0.33792176285E+02  0.00000000000E+00 0. -1.
</event>
<event>
 7    1  0.2031146E-008  0.4614232E+02  0.7816164E-02  0.1320468E+00
        -11   -1    0    0    0    0  0.00000000000E+00  0.00000000000E+00  0.45593999997E+02  0.45594000000E+02  0.51100000000E-03 0.  1.
         11   -1    0    0    0    0 -0.00000000000E+00 -0.00000000000E+00 -0.45593999997E+02  0.45594000000E+02  0.51100000000E-03 0. -1.
    9900012    2    1    2    0    0  0.42500778353E+02  0.14031538891E+02  0.50905009866E+01  0.46142318248E+02  0.10000004436E+02 0.  0.
        -12    1    1    2    0    0 -0.42500778353E+02 -0.14031538891E+02 -0.50905009866E+01  0.45045681752E+02  0.00000000000E+00 0.  1.
         11    1    3    3    0    0  0.22746817729E+02  0.59356137817E+01  0.13238168977E+00  0.23508865412E+02  0.51100000000E-03 0.  1.
        -11    1    3    3    0    0  0.11733667827E+02  0.18628519468E+01  0.19481091077E+01  0.12039281848E+02  0.51100000000E-03 0. -1.
        -12    1    3    3    0    0  0.80202927965E+01  0.62330731623E+01  0.30100101891E+01  0.10594170988E+02  0.00000000000E+00 0.  1.
</event>
<event>
 7    1  0.2031146E-008  0.4614232E+02  0.7816164E-02  0.1320468E+00
        -11   -1    0    0    0    0  0.00000000000E+00  0.00000000000E+00  0.45593999997E+02  0.45594000000E+02  0.51100000000E-03 0. -1.
         11   -1    0    0    0    0 -0.00000000000E+00 -0.00000000000E+00 -0.45593999997E+02  0.45594000000E+02  0.51100000000E-03 0.  1.
    9900012    2    1    2    0    0  0.44050422023E+02  0.92937097438E+01 -0.15168369887E+01  0.46142317458E+02  0.99999972352E+01 0.  0.
        -12    1    1    2    0    0 -0.44050422023E+02 -0.92937097438E+01  0.15168369887E+01  0.45045682542E+02  0.00000000000E+00 0.  1.
         11    1    3    3    0    0  0.18138003664E+02  0.35005605830E+00  0.14140009485E+01  0.18196403906E+02  0.51100000000E-03 0. -1.
        -11    1    3    3    0    0  0.12906992175E+02  0.31249395817E+01  0.50588035240E+00  0.13289530074E+02  0.51100000000E-03 0.  1.
        -12    1    3    3    0    0  0.13005426184E+02  0.58187141038E+01 -0.34367182896E+01  0.14656383478E+02  0.00000000000E+00 0.  1.
</event>
<event>
 7    1  0.2031146E-008  0.4614232E+02  0.7816164E-02  0.1320468E+00
        -11   -1    0    0    0    0  0.00000000000E+00  0.00000000000E+00  0.45593999997E+02  0.45594000000E+02  0.51100000000E-03 0.  1.
         11   -1    0    0    0    0 -0.00000000000E+00 -0.00000000000E+00 -0.45593999997E+02  0.45594000000E+02  0.51100000000E-03 0. -1.
    9900012    2    1    2    0    0 -0.17725039993E+02  0.35765293966E+02 -0.20875349954E+02  0.46142317289E+02  0.99999956927E+01 0.  0.
        -12    1    1    2    0    0  0.17725039993E+02 -0.35765293966E+02  0.20875349954E+02  0.45045682711E+02  0.00000000000E+00 0.  1.
         11    1    3    3    0    0 -0.32421606685E+01  0.75224845662E+01 -0.87892293887E+00  0.82384395151E+01  0.51100000000E-03 0.  1.
        -11    1    3    3    0    0 -0.99660080194E+01  0.22888148357E+02 -0.13653301478E+02  0.28453493504E+02  0.51100000000E-03 0. -1.
        -12    1    3    3    0    0 -0.45168713049E+01  0.53546610424E+01 -0.63431255375E+01  0.94503842698E+01  0.00000000000E+00 0.  1.
</event>
<event>
 7    1  0.2031146E-008  0.4614232E+02  0.7816164E-02  0.1320468E+00
        -11   -1    0    0    0    0  0.00000000000E+00  0.00000000000E+00  0.45593999997E+02  0.45594000000E+02  0.51100000000E-03 0.  1.
         11   -1    0    0    0    0 -0.00000000000E+00 -0.00000000000E+00 -0.45593999997E+02  0.45594000000E+02  0.51100000000E-03 0. -1.
    9900012    2    1    2    0    0  0.32785145525E+01  0.41508333433E+02  0.17187870995E+02  0.46142319726E+02  0.10000017915E+02 0.  0.
        -12    1    1    2    0    0 -0.32785145525E+01 -0.41508333433E+02 -0.17187870995E+02  0.45045680274E+02  0.00000000000E+00 0.  1.
         11    1    3    3    0    0  0.56217881337E+01  0.28363010871E+02  0.11616214974E+02  0.31160894373E+02  0.51100000000E-03 0. -1.
        -11    1    3    3    0    0 -0.78089411433E+00  0.11021416573E+02  0.33847844010E+01  0.11555872299E+02  0.51100000000E-03 0.  1.
        -12    1    3    3    0    0 -0.15623794668E+01  0.21239059887E+01  0.21868716198E+01  0.34255530545E+01  0.00000000000E+00 0.  1.
</event>
<event>
 7    1  0.2031146E-008  0.4614232E+02  0.7816164E-02  0.1320468E+00
        -11   -1    0    0    0    0  0.00000000000E+00  0.00000000000E+00  0.45593999997E+02  0.45594000000E+02  0.51100000000E-03 0.  1.
         11   -1    0    0    0    0 -0.00000000000E+00 -0.00000000000E+00 -0.45593999997E+02  0.45594000000E+02  0.51100000000E-03 0. -1.
    9900012    2    1    2    0    0  0.34905782675E+02 -0.95232116525E+01 -0.26832968682E+02  0.46142318380E+02  0.10000005641E+02 0.  0.
        -12    1    1    2    0    0 -0.34905782675E+02  0.95232116525E+01  0.26832968682E+02  0.45045681620E+02  0.00000000000E+00 0.  1.
         11    1    3    3    0    0  0.20568703373E+02 -0.64462143420E+01 -0.99367097970E+01  0.23735278377E+02  0.51100000000E-03 0. -1.
        -11    1    3    3    0    0  0.10335326205E+02 -0.16373204196E+01 -0.12011293784E+02  0.15930190349E+02  0.51100000000E-03 0.  1.
         12    1    3    3    0    0  0.40017530973E+01 -0.14396768909E+01 -0.48849651007E+01  0.64768496538E+01  0.00000000000E+00 0. -1.
</event>
<event>
 7    1  0.2031146E-008  0.4614232E+02  0.7816164E-02  0.1320468E+00
        -11   -1    0    0    0    0  0.00000000000E+00  0.00000000000E+00  0.45593999997E+02  0.45594000000E+02  0.51100000000E-03 0. -1.
         11   -1    0    0    0    0 -0.00000000000E+00 -0.00000000000E+00 -0.45593999997E+02  0.45594000000E+02  0.51100000000E-03 0.  1.
    9900012    2    1    2    0    0 -0.16528171846E+02  0.32295980051E+02  0.26700237982E+02  0.46142317628E+02  0.99999987902E+01 0.  0.
        -12    1    1    2    0    0  0.16528171846E+02 -0.32295980051E+02 -0.26700237982E+02  0.45045682372E+02  0.00000000000E+00 0.  1.
         11    1    3    3    0    0 -0.61104445938E+00  0.28255906948E+01  0.47018090869E+01  0.55194516989E+01  0.51100000000E-03 0. -1.
        -11    1    3    3    0    0 -0.40042792448E+00  0.93436675734E+00  0.25945768334E+01  0.27866131712E+01  0.51100000000E-03 0.  1.
         12    1    3    3    0    0 -0.15516699462E+02  0.28536022599E+02  0.19403852061E+02  0.37836252758E+02  0.00000000000E+00 0. -1.
</event>
<event>
 7    1  0.2031146E-008  0.4614232E+02  0.7816164E-02  0.1320468E+00
        -11   -1    0    0    0    0  0.00000000000E+00  0.00000000000E+00  0.45593999997E+02  0.45594000000E+02  0.51100000000E-03 0. -1.
         11   -1    0    0    0    0 -0.00000000000E+00 -0.00000000000E+00 -0.45593999997E+02  0.45594000000E+02  0.51100000000E-03 0.  1.
    9900012    2    1    2    0    0  0.51895039461E+01  0.38695542111E+02  0.22468592725E+02  0.46142316639E+02  0.99999897648E+01 0.  0.
        -12    1    1    2    0    0 -0.51895039461E+01 -0.38695542111E+02 -0.22468592725E+02  0.45045683361E+02  0.00000000000E+00 0.  1.
         11    1    3    3    0    0  0.36033346604E+01  0.17261894933E+02  0.60179857210E+01  0.18632584087E+02  0.51100000000E-03 0. -1.
        -11    1    3    3    0    0  0.32118229632E+00  0.20199787170E+02  0.14436748013E+02  0.24830510531E+02  0.51100000000E-03 0.  1.
        -12    1    3    3    0    0  0.12649869894E+01  0.12338600078E+01  0.20138589906E+01  0.26792220207E+01  0.00000000000E+00 0.  1.
</event>
<event>
 7    1  0.2031146E-008  0.4614232E+02  0.7816164E-02  0.1320468E+00
        -11   -1    0    0    0    0  0.00000000000E+00  0.00000000000E+00  0.45593999997E+02  0.45594000000E+02  0.51100000000E-03 0.  1.
         11   -1    0    0    0    0 -0.00000000000E+00 -0.00000000000E+00 -0.45593999997E+02  0.45594000000E+02  0.51100000000E-03 0. -1.
    9900012    2    1    2    0    0 -0.37174489735E+02 -0.12025444725E+02 -0.22417838887E+02  0.46142317540E+02  0.99999979836E+01 0.  0.
        -12    1    1    2    0    0  0.37174489735E+02  0.12025444725E+02  0.22417838887E+02  0.45045682460E+02  0.00000000000E+00 0.  1.
         11    1    3    3    0    0 -0.20159359562E+02 -0.96397494089E+01 -0.11651825467E+02  0.25200983782E+02  0.51100000000E-03 0. -1.
        -11    1    3    3    0    0 -0.13534973693E+02 -0.39952268497E+01 -0.81058756701E+01  0.16274598953E+02  0.51100000000E-03 0.  1.
        -12    1    3    3    0    0 -0.34801564810E+01  0.16095315338E+01 -0.26601377500E+01  0.46667348050E+01  0.00000000000E+00 0.  1.
</event>
<event>
 7    1  0.2031146E-008  0.4614232E+02  0.7816164E-02  0.1320468E+00
        -11   -1    0    0    0    0  0.00000000000E+00  0.00000000000E+00  0.45593999997E+02  0.45594000000E+02  0.51100000000E-03 0.  1.
         11   -1    0    0    0    0 -0.00000000000E+00 -0.00000000000E+00 -0.45593999997E+02  0.45594000000E+02  0.51100000000E-03 0. -1.
    9900012    2    1    2    0    0  0.43199126242E+02  0.12543454842E+02 -0.23686797290E+01  0.46142318619E+02  0.10000007821E+02 0.  0.
        -12    1    1    2    0    0 -0.43199126242E+02 -0.12543454842E+02  0.23686797290E+01  0.45045681381E+02  0.00000000000E+00 0.  1.
         11    1    3    3    0    0  0.16865528019E+02  0.85221075172E+01 -0.93327446741E-01  0.18896588639E+02  0.51100000000E-03 0. -1.
        -11    1    3    3    0    0  0.66180012109E+01  0.42526939965E+00 -0.27987104265E+01  0.71980257295E+01  0.51100000000E-03 0.  1.
         12    1    3    3    0    0  0.19715597012E+02  0.35960779251E+01  0.52335814424E+00  0.20047704251E+02  0.00000000000E+00 0. -1.
</event>
<event>
 7    1  0.2031146E-008  0.4614232E+02  0.7816164E-02  0.1320468E+00
        -11   -1    0    0    0    0  0.00000000000E+00  0.00000000000E+00  0.45593999997E+02  0.45594000000E+02  0.51100000000E-03 0.  1.
         11   -1    0    0    0    0 -0.00000000000E+00 -0.00000000000E+00 -0.45593999997E+02  0.45594000000E+02  0.51100000000E-03 0. -1.
    9900012    2    1    2    0    0 -0.78157037210E+01  0.24728411382E+01 -0.44293491977E+02  0.46142316527E+02  0.99999887510E+01 0.  0.
        -12    1    1    2    0    0  0.78157037210E+01 -0.24728411382E+01  0.44293491977E+02  0.45045683473E+02  0.00000000000E+00 0.  1.
         11    1    3    3    0    0 -0.58892902496E-01  0.11882305536E+01 -0.48103842958E+00  0.12832608676E+01  0.51100000000E-03 0. -1.
        -11    1    3    3    0    0 -0.20240689041E+01  0.14917600361E+01 -0.47199935812E+01  0.53479475129E+01  0.51100000000E-03 0.  1.
         12    1    3    3    0    0 -0.57327419143E+01 -0.20714945151E+00 -0.39092459967E+02  0.39511108147E+02  0.00000000000E+00 0. -1.
</event>
<event>
 7    1  0.2031146E-008  0.4614232E+02  0.7816164E-02  0.1320468E+00
        -11   -1    0    0    0    0  0.00000000000E+00  0.00000000000E+00  0.45593999997E+02  0.45594000000E+02  0.51100000000E-03 0.  1.
         11   -1    0    0    0    0 -0.00000000000E+00 -0.00000000000E+00 -0.45593999997E+02  0.45594000000E+02  0.51100000000E-03 0. -1.
    9900012    2    1    2    0    0 -0.12537075512E+02 -0.10602288576E+02 -0.41946710806E+02  0.46142319487E+02  0.10000015739E+02 0.  0.
        -12    1    1    2    0    0  0.12537075512E+02  0.10602288576E+02  0.41946710806E+02  0.45045680513E+02  0.00000000000E+00 0.  1.
         11    1    3    3    0    0 -0.52699063182E+00  0.41349994038E-01  0.65673129923E-01  0.53267454336E+00  0.51100000000E-03 0. -1.
        -11    1    3    3    0    0 -0.35038162267E+01  0.69692803902E+00 -0.89055372085E+01  0.95953650308E+01  0.51100000000E-03 0.  1.
         12    1    3    3    0    0 -0.85062686531E+01 -0.11340566609E+02 -0.33106846727E+02  0.36014279913E+02  0.00000000000E+00 0. -1.
</event>
<event>
 7    1  0.2031146E-008  0.4614232E+02  0.7816164E-02  0.1320468E+00
        -11   -1    0    0    0    0  0.00000000000E+00  0.00000000000E+00  0.45593999997E+02  0.45594000000E+02  0.51100000000E-03 0.  1.
         11   -1    0    0    0    0 -0.00000000000E+00 -0.00000000000E+00 -0.45593999997E+02  0.45594000000E+02  0.51100000000E-03 0. -1.
    9900012    2    1    2    0    0  0.14776049785E+02  0.34133026614E+02 -0.25410988151E+02  0.46142317944E+02  0.10000001668E+02 0.  0.
        -12    1    1    2    0    0 -0.14776049785E+02 -0.34133026614E+02  0.25410988151E+02  0.45045682056E+02  0.00000000000E+00 0.  1.
         11    1    3    3    0    0  0.35876284041E+01  0.15696951373E+02 -0.82364378443E+01  0.18086024124E+02  0.51100000000E-03 0. -1.
        -11    1    3    3    0    0  0.20660081717E+00  0.47266436598E+00 -0.20982969248E+01  0.21607743395E+01  0.51100000000E-03 0.  1.
         12    1    3    3    0    0  0.10981820563E+02  0.17963410874E+02 -0.15076253382E+02  0.25895519481E+02  0.00000000000E+00 0. -1.
</event>
<event>
 7    1  0.2031146E-008  0.4614232E+02  0.7816164E-02  0.1320468E+00
        -11   -1    0    0    0    0  0.00000000000E+00  0.00000000000E+00  0.45593999997E+02  0.45594000000E+02  0.51100000000E-03 0.  1.
         11   -1    0    0    0    0 -0.00000000000E+00 -0.00000000000E+00 -0.45593999997E+02  0.45594000000E+02  0.51100000000E-03 0. -1.
    9900012    2    1    2    0    0 -0.28900294760E+02  0.27192154884E+02 -0.21318375793E+02  0.46142317954E+02  0.10000001763E+02 0.  0.
        -12    1    1    2    0    0  0.28900294760E+02 -0.27192154884E+02  0.21318375793E+02  0.45045682046E+02  0.00000000000E+00 0.  1.
         11    1    3    3    0    0 -0.65863677496E+00 -0.92902450296E-02 -0.17499708392E+01  0.18698360648E+01  0.51100000000E-03 0. -1.
        -11    1    3    3    0    0 -0.79258781562E+01  0.11629088564E+02 -0.79271086202E+01  0.16152222655E+02  0.51100000000E-03 0.  1.
         12    1    3    3    0    0 -0.20315779829E+02  0.15572356565E+02 -0.11641296334E+02  0.28120259234E+02  0.00000000000E+00 0. -1.
</event>
<event>
 7    1  0.2031146E-008  0.4614232E+02  0.7816164E-02  0.1320468E+00
        -11   -1    0    0    0    0  0.00000000000E+00  0.00000000000E+00  0.45593999997E+02  0.45594000000E+02  0.51100000000E-03 0.  1.
         11   -1    0    0    0    0 -0.00000000000E+00 -0.00000000000E+00 -0.45593999997E+02  0.45594000000E+02  0.51100000000E-03 0. -1.
    9900012    2    1    2    0    0 -0.10446109174E+01 -0.12867528799E+02 -0.43156097217E+02  0.46142320558E+02  0.10000025506E+02 0.  0.
        -12    1    1    2    0    0  0.10446109174E+01  0.12867528799E+02  0.43156097217E+02  0.45045679442E+02  0.00000000000E+00 0.  1.
         11    1    3    3    0    0 -0.51078077610E+00  0.63154428127E+00 -0.93762164030E-01  0.81764098782E+00  0.51100000000E-03 0.  1.
        -11    1    3    3    0    0 -0.23299176628E+01 -0.88895894508E+01 -0.27482391858E+02  0.28978184543E+02  0.51100000000E-03 0. -1.
        -12    1    3    3    0    0  0.17960875214E+01 -0.46094836293E+01 -0.15579943195E+02  0.16346495027E+02  0.00000000000E+00 0.  1.
</event>
<event>
 7    1  0.2031146E-008  0.4614232E+02  0.7816164E-02  0.1320468E+00
        -11   -1    0    0    0    0  0.00000000000E+00  0.00000000000E+00  0.45593999997E+02  0.45594000000E+02  0.51100000000E-03 0.  1.
         11   -1    0    0    0    0 -0.00000000000E+00 -0.00000000000E+00 -0.45593999997E+02  0.45594000000E+02  0.51100000000E-03 0. -1.
    9900012    2    1    2    0    0  0.14994612004E+02  0.61528745085E+01 -0.42028765556E+02  0.46142318874E+02  0.10000010151E+02 0.  0.
        -12    1    1    2    0    0 -0.14994612004E+02 -0.61528745085E+01  0.42028765556E+02  0.45045681126E+02  0.00000000000E+00 0.  1.
         11    1    3    3    0    0  0.61364601077E+01  0.32571439869E+01 -0.14535564124E+02  0.16110485849E+02  0.51100000000E-03 0. -1.
        -11    1    3    3    0    0  0.87824583700E+01  0.56900286959E+00 -0.15585357010E+02  0.17898566777E+02  0.51100000000E-03 0.  1.
         12    1    3    3    0    0  0.75693526686E-01  0.23267276520E+01 -0.11907844422E+02  0.12133266249E+02  0.00000000000E+00 0. -1.
</event>
<event>
 7    1  0.2031146E-008  0.4614232E+02  0.7816164E-02  0.1320468E+00
        -11   -1    0    0    0    0  0.00000000000E+00  0.00000000000E+00  0.45593999997E+02  0.45594000000E+02  0.51100000000E-03 0.  1.
         11   -1    0    0    0    0 -0.00000000000E+00 -0.00000000000E+00 -0.45593999997E+02  0.45594000000E+02  0.51100000000E-03 0. -1.
    9900012    2    1    2    0    0 -0.20764900883E+02 -0.21405760941E+02 -0.33759825653E+02  0.46142317207E+02  0.99999949474E+01 0.  0.
        -12    1    1    2    0    0  0.20764900883E+02  0.21405760941E+02  0.33759825653E+02  0.45045682793E+02  0.00000000000E+00 0.  1.
         11    1    3    3    0    0 -0.40319293021E+01 -0.57928629743E+00 -0.35625200657E+01  0.54114301244E+01  0.51100000000E-03 0.  1.
        -11    1    3    3    0    0 -0.11818693510E+02 -0.13930472034E+02 -0.16441696356E+02  0.24577814115E+02  0.51100000000E-03 0. -1.
        -12    1    3    3    0    0 -0.49142780709E+01 -0.68960026098E+01 -0.13755609232E+02  0.16153072967E+02  0.00000000000E+00 0.  1.
</event>
<event>
 7    1  0.2031146E-008  0.4614232E+02  0.7816164E-02  0.1320468E+00
        -11   -1    0    0    0    0  0.00000000000E+00  0.00000000000E+00  0.45593999997E+02  0.45594000000E+02  0.51100000000E-03 0.  1.
         11   -1    0    0    0    0 -0.00000000000E+00 -0.00000000000E+00 -0.45593999997E+02  0.45594000000E+02  0.51100000000E-03 0. -1.
    9900012    2    1    2    0    0  0.24922086919E+02  0.31873790625E+02 -0.19800620161E+02  0.46142317589E+02  0.99999984268E+01 0.  0.
        -12    1    1    2    0    0 -0.24922086919E+02 -0.31873790625E+02  0.19800620161E+02  0.45045682411E+02  0.00000000000E+00 0.  1.
         11    1    3    3    0    0  0.49940637715E+01  0.10241305053E+02 -0.40166828525E+01  0.12081338649E+02  0.51100000000E-03 0. -1.
        -11    1    3    3    0    0 -0.34839856539E+00  0.17837417128E+00 -0.94218275108E+00  0.10202487456E+01  0.51100000000E-03 0.  1.
         12    1    3    3    0    0  0.20276421713E+02  0.21454111400E+02 -0.14841754557E+02  0.33040730194E+02  0.00000000000E+00 0. -1.
</event>
<event>
 7    1  0.2031146E-008  0.4614232E+02  0.7816164E-02  0.1320468E+00
        -11   -1    0    0    0    0  0.00000000000E+00  0.00000000000E+00  0.45593999997E+02  0.45594000000E+02  0.51100000000E-03 0.  1.
         11   -1    0    0    0    0 -0.00000000000E+00 -0.00000000000E+00 -0.45593999997E+02  0.45594000000E+02  0.51100000000E-03 0. -1.
    9900012    2    1    2    0    0 -0.14773546962E+02 -0.38261910756E+01 -0.42381789702E+02  0.46142317340E+02  0.99999961600E+01 0.  0.
        -12    1    1    2    0    0  0.14773546962E+02  0.38261910756E+01  0.42381789702E+02  0.45045682660E+02  0.00000000000E+00 0.  1.
         11    1    3    3    0    0 -0.55273542788E+01 -0.21575367868E+01 -0.11915104334E+02  0.13310759628E+02  0.51100000000E-03 0. -1.
        -11    1    3    3    0    0  0.33878616196E+00 -0.24561115250E+01 -0.44479724609E+01  0.50923196248E+01  0.51100000000E-03 0.  1.
        -12    1    3    3    0    0 -0.95849788451E+01  0.78745723617E+00 -0.26018712907E+02  0.27739238088E+02  0.00000000000E+00 0.  1.
</event>
<event>
 7    1  0.2031146E-008  0.4614232E+02  0.7816164E-02  0.1320468E+00
        -11   -1    0    0    0    0  0.00000000000E+00  0.00000000000E+00  0.45593999997E+02  0.45594000000E+02  0.51100000000E-03 0.  1.
         11   -1    0    0    0    0 -0.00000000000E+00 -0.00000000000E+00 -0.45593999997E+02  0.45594000000E+02  0.51100000000E-03 0. -1.
    9900012    2    1    2    0    0 -0.21358530616E+00 -0.44787797614E+02  0.48084395801E+01  0.46142317354E+02  0.99999962889E+01 0.  0.
        -12    1    1    2    0    0  0.21358530616E+00  0.44787797614E+02 -0.48084395801E+01  0.45045682646E+02  0.00000000000E+00 0.  1.
         11    1    3    3    0    0 -0.18362421567E+01 -0.57520238115E+01  0.97587268822E+00  0.61163625588E+01  0.51100000000E-03 0. -1.
        -11    1    3    3    0    0 -0.81495313567E+00 -0.95515265765E-01  0.16989412469E+00  0.83793559063E+00  0.51100000000E-03 0.  1.
         12    1    3    3    0    0  0.24376099862E+01 -0.38940258537E+02  0.36626727672E+01  0.39188019205E+02  0.00000000000E+00 0. -1.
</event>
<event>
 7    1  0.2031146E-008  0.4614231E+02  0.7816164E-02  0.1320468E+00
        -11   -1    0    0    0    0  0.00000000000E+00  0.00000000000E+00  0.45593999997E+02  0.45594000000E+02  0.51100000000E-03 0. -1.
         11   -1    0    0    0    0 -0.00000000000E+00 -0.00000000000E+00 -0.45593999997E+02  0.45594000000E+02  0.51100000000E-03 0.  1.
    9900012    2    1    2    0    0  0.37021468138E+02 -0.98903956729E+01  0.23679208707E+02  0.46142312585E+02  0.99999528026E+01 0.  0.
        -12    1    1    2    0    0 -0.37021468138E+02  0.98903956729E+01 -0.23679208707E+02  0.45045687415E+02  0.00000000000E+00 0.  1.
         11    1    3    3    0    0  0.99798256040E+01 -0.10460965518E+01  0.57030238716E+01  0.11541911394E+02  0.51100000000E-03 0. -1.
        -11    1    3    3    0    0  0.91791972971E+01  0.53591314268E+00  0.38354251413E+01  0.99626980377E+01  0.51100000000E-03 0.  1.
        -12    1    3    3    0    0  0.17862445237E+02 -0.93802122637E+01  0.14140759695E+02  0.24637703154E+02  0.00000000000E+00 0.  1.
</event>
<event>
 7    1  0.2031146E-008  0.4614232E+02  0.7816164E-02  0.1320468E+00
        -11   -1    0    0    0    0  0.00000000000E+00  0.00000000000E+00  0.45593999997E+02  0.45594000000E+02  0.51100000000E-03 0.  1.
         11   -1    0    0    0    0 -0.00000000000E+00 -0.00000000000E+00 -0.45593999997E+02  0.45594000000E+02  0.51100000000E-03 0. -1.
    9900012    2    1    2    0    0 -0.13411029740E+02  0.37868476966E+02 -0.20377341296E+02  0.46142319800E+02  0.10000018591E+02 0.  0.
        -12    1    1    2    0    0  0.13411029740E+02 -0.37868476966E+02  0.20377341296E+02  0.45045680200E+02  0.00000000000E+00 0.  1.
         11    1    3    3    0    0 -0.10051450025E+02  0.22292413729E+02 -0.13856850299E+02  0.28106861403E+02  0.51100000000E-03 0. -1.
        -11    1    3    3    0    0 -0.45017504340E+01  0.83463683547E+01 -0.33262313253E+01  0.10049449576E+02  0.51100000000E-03 0.  1.
        -12    1    3    3    0    0  0.11421707189E+01  0.72296948826E+01 -0.31942596717E+01  0.79860088215E+01  0.00000000000E+00 0.  1.
</event>
<event>
 7    1  0.2031146E-008  0.4614232E+02  0.7816164E-02  0.1320468E+00
        -11   -1    0    0    0    0  0.00000000000E+00  0.00000000000E+00  0.45593999997E+02  0.45594000000E+02  0.51100000000E-03 0. -1.
         11   -1    0    0    0    0 -0.00000000000E+00 -0.00000000000E+00 -0.45593999997E+02  0.45594000000E+02  0.51100000000E-03 0.  1.
    9900012    2    1    2    0    0 -0.12763554410E+02 -0.41673735293E+02 -0.11380022655E+02  0.46142318186E+02  0.10000003873E+02 0.  0.
        -12    1    1    2    0    0  0.12763554410E+02  0.41673735293E+02  0.11380022655E+02  0.45045681814E+02  0.00000000000E+00 0.  1.
         11    1    3    3    0    0 -0.79505269162E+01 -0.24591271605E+02 -0.88305854243E+01  0.27311549876E+02  0.51100000000E-03 0. -1.
        -11    1    3    3    0    0 -0.50878913648E+01 -0.74602458326E+01 -0.13403460943E+01  0.91289886810E+01  0.51100000000E-03 0.  1.
         12    1    3    3    0    0  0.27486387054E+00 -0.96222178552E+01 -0.12090911368E+01  0.97017796294E+01  0.00000000000E+00 0. -1.
</event>
<event>
 7    1  0.2031146E-008  0.4614232E+02  0.7816164E-02  0.1320468E+00
        -11   -1    0    0    0    0  0.00000000000E+00  0.00000000000E+00  0.45593999997E+02  0.45594000000E+02  0.51100000000E-03 0.  1.
         11   -1    0    0    0    0 -0.00000000000E+00 -0.00000000000E+00 -0.45593999997E+02  0.45594000000E+02  0.51100000000E-03 0. -1.
    9900012    2    1    2    0    0 -0.65065171640E+00 -0.21716978173E+02 -0.39459636690E+02  0.46142318561E+02  0.10000007292E+02 0.  0.
        -12    1    1    2    0    0  0.65065171640E+00  0.21716978173E+02  0.39459636690E+02  0.45045681439E+02  0.00000000000E+00 0.  1.
         11    1    3    3    0    0 -0.80816266448E+00 -0.90612453048E+01 -0.15920312654E+02  0.18336184135E+02  0.51100000000E-03 0. -1.
        -11    1    3    3    0    0 -0.33286726088E+01 -0.39780258856E+01 -0.60146397399E+01  0.79423323240E+01  0.51100000000E-03 0.  1.
        -12    1    3    3    0    0  0.34861835569E+01 -0.86777069825E+01 -0.17524684296E+02  0.19863802101E+02  0.00000000000E+00 0.  1.
</event>
<event>
 7    1  0.2031146E-008  0.4614232E+02  0.7816164E-02  0.1320468E+00
        -11   -1    0    0    0    0  0.00000000000E+00  0.00000000000E+00  0.45593999997E+02  0.45594000000E+02  0.51100000000E-03 0. -1.
         11   -1    0    0    0    0 -0.00000000000E+00 -0.00000000000E+00 -0.45593999997E+02  0.45594000000E+02  0.51100000000E-03 0.  1.
    9900012    2    1    2    0    0 -0.20814974669E+02  0.35172532696E+02  0.18940520980E+02  0.46142316947E+02  0.99999925759E+01 0.  0.
        -12    1    1    2    0    0  0.20814974669E+02 -0.35172532696E+02 -0.18940520980E+02  0.45045683053E+02  0.00000000000E+00 0.  1.
         11    1    3    3    0    0 -0.12574098598E+01  0.63447857888E+01  0.33029538030E+01  0.72627054427E+01  0.51100000000E-03 0. -1.
        -11    1    3    3    0    0 -0.64581254086E+00  0.23545673552E+01 -0.60606930007E+00  0.25156274616E+01  0.51100000000E-03 0.  1.
         12    1    3    3    0    0 -0.18911752269E+02  0.26473179552E+02  0.16243636477E+02  0.36363984043E+02  0.00000000000E+00 0. -1.
</event>
<event>
 7    1  0.2031146E-008  0.4614232E+02  0.7816164E-02  0.1320468E+00
        -11   -1    0    0    0    0  0.00000000000E+00  0.00000000000E+00  0.45593999997E+02  0.45594000000E+02  0.51100000000E-03 0. -1.
         11   -1    0    0    0    0 -0.00000000000E+00 -0.00000000000E+00 -0.45593999997E+02  0.45594000000E+02  0.51100000000E-03 0.  1.
    9900012    2    1    2    0    0  0.29744150840E+02  0.33616503290E+02  0.37854636304E+01  0.46142317215E+02  0.99999950225E+01 0.  0.
        -12    1    1    2    0    0 -0.29744150840E+02 -0.33616503290E+02 -0.37854636304E+01  0.45045682785E+02  0.00000000000E+00 0.  1.
         11    1    3    3    0    0  0.14616997472E+02  0.17269681371E+02  0.40978690096E+00  0.22628884978E+02  0.51100000000E-03 0. -1.
        -11    1    3    3    0    0  0.91237932079E+01  0.10494257444E+02 -0.12078955964E+01  0.13958225311E+02  0.51100000000E-03 0.  1.
         12    1    3    3    0    0  0.60033601602E+01  0.58525644742E+01  0.45835723258E+01  0.95552069262E+01  0.00000000000E+00 0. -1.
</event>
<event>
 7    1  0.2031146E-008  0.4614232E+02  0.7816164E-02  0.1320468E+00
        -11   -1    0    0    0    0  0.00000000000E+00  0.00000000000E+00  0.45593999997E+02  0.45594000000E+02  0.51100000000E-03 0. -1.
         11   -1    0    0    0    0 -0.00000000000E+00 -0.00000000000E+00 -0.45593999997E+02  0.45594000000E+02  0.51100000000E-03 0.  1.
    9900012    2    1    2    0    0  0.41961681964E+02  0.82175923254E+01  0.14170458426E+02  0.46142317977E+02  0.10000001972E+02 0.  0.
        -12    1    1    2    0    0 -0.41961681964E+02 -0.82175923254E+01 -0.14170458426E+02  0.45045682023E+02  0.00000000000E+00 0.  1.
         11    1    3    3    0    0  0.18579127824E+02  0.11602658621E+01  0.53828932174E+01  0.19377970668E+02  0.51100000000E-03 0. -1.
        -11    1    3    3    0    0  0.13923460065E+02  0.56804824847E+01  0.23014599423E+01  0.15212736097E+02  0.51100000000E-03 0.  1.
        -12    1    3    3    0    0  0.94590940756E+01  0.13768439786E+01  0.64861052664E+01  0.11551611212E+02  0.00000000000E+00 0.  1.
</event>
<event>
 7    1  0.2031146E-008  0.4614232E+02  0.7816164E-02  0.1320468E+00
        -11   -1    0    0    0    0  0.00000000000E+00  0.00000000000E+00  0.45593999997E+02  0.45594000000E+02  0.51100000000E-03 0.  1.
         11   -1    0    0    0    0 -0.00000000000E+00 -0.00000000000E+00 -0.45593999997E+02  0.45594000000E+02  0.51100000000E-03 0. -1.
    9900012    2    1    2    0    0 -0.13748345308E+01 -0.54227968816E+01 -0.44696941387E+02  0.46142318017E+02  0.10000002331E+02 0.  0.
        -12    1    1    2    0    0  0.13748345308E+01  0.54227968816E+01  0.44696941387E+02  0.45045681983E+02  0.00000000000E+00 0.  1.
         11    1    3    3    0    0  0.22173196094E+01  0.43451841019E+00 -0.16498798305E+02  0.16652797311E+02  0.51100000000E-03 0. -1.
        -11    1    3    3    0    0 -0.52632719644E+00 -0.33288933529E+01 -0.55329685294E+01  0.64786026487E+01  0.51100000000E-03 0.  1.
         12    1    3    3    0    0 -0.30658269438E+01 -0.25284219389E+01 -0.22665174552E+02  0.23010918057E+02  0.00000000000E+00 0. -1.
</event>
<event>
 7    1  0.2031146E-008  0.4614232E+02  0.7816164E-02  0.1320468E+00
        -11   -1    0    0    0    0  0.00000000000E+00  0.00000000000E+00  0.45593999997E+02  0.45594000000E+02  0.51100000000E-03 0.  1.
         11   -1    0    0    0    0 -0.00000000000E+00 -0.00000000000E+00 -0.45593999997E+02  0.45594000000E+02  0.51100000000E-03 0. -1.
    9900012    2    1    2    0    0 -0.29917182980E+02 -0.11034223352E+02 -0.31817002213E+02  0.46142317052E+02  0.99999935350E+01 0.  0.
        -12    1    1    2    0    0  0.29917182980E+02  0.11034223352E+02  0.31817002213E+02  0.45045682948E+02  0.00000000000E+00 0.  1.
         11    1    3    3    0    0 -0.36501870368E+01 -0.23404792897E+01 -0.59722451084E+01  0.73803401416E+01  0.51100000000E-03 0. -1.
        -11    1    3    3    0    0 -0.90033985203E+01  0.54138312830E+00 -0.56960409296E+01  0.10667669058E+02  0.51100000000E-03 0.  1.
        -12    1    3    3    0    0 -0.17263597423E+02 -0.92351271902E+01 -0.20148716175E+02  0.28094307852E+02  0.00000000000E+00 0.  1.
</event>
<event>
 7    1  0.2031146E-008  0.4614232E+02  0.7816164E-02  0.1320468E+00
        -11   -1    0    0    0    0  0.00000000000E+00  0.00000000000E+00  0.45593999997E+02  0.45594000000E+02  0.51100000000E-03 0.  1.
         11   -1    0    0    0    0 -0.00000000000E+00 -0.00000000000E+00 -0.45593999997E+02  0.45594000000E+02  0.51100000000E-03 0. -1.
    9900012    2    1    2    0    0  0.17092344331E+02  0.22181726746E+02 -0.35283653806E+02  0.46142318053E+02  0.10000002664E+02 0.  0.
        -12    1    1    2    0    0 -0.17092344331E+02 -0.22181726746E+02  0.35283653806E+02  0.45045681947E+02  0.00000000000E+00 0.  1.
         11    1    3    3    0    0  0.58414608115E+00  0.34531642761E+01 -0.44590187490E+01  0.56699575507E+01  0.51100000000E-03 0. -1.
        -11    1    3    3    0    0  0.64289978605E+00  0.50868408247E+01 -0.43240444066E+01  0.67072073176E+01  0.51100000000E-03 0.  1.
        -12    1    3    3    0    0  0.15865298464E+02  0.13641721645E+02 -0.26500590651E+02  0.33765153185E+02  0.00000000000E+00 0.  1.
</event>
<event>
 7    1  0.2031146E-008  0.4614232E+02  0.7816164E-02  0.1320468E+00
        -11   -1    0    0    0    0  0.00000000000E+00  0.00000000000E+00  0.45593999997E+02  0.45594000000E+02  0.51100000000E-03 0.  1.
         11   -1    0    0    0    0 -0.00000000000E+00 -0.00000000000E+00 -0.45593999997E+02  0.45594000000E+02  0.51100000000E-03 0. -1.
    9900012    2    1    2    0    0 -0.32320287094E+02  0.86937421111E+01 -0.30148489597E+02  0.46142317247E+02  0.99999953083E+01 0.  0.
        -12    1    1    2    0    0  0.32320287094E+02 -0.86937421111E+01  0.30148489597E+02  0.45045682753E+02  0.00000000000E+00 0.  1.
         11    1    3    3    0    0 -0.22732770881E+01  0.45969668047E+00 -0.88974668000E+00  0.24841012807E+01  0.51100000000E-03 0.  1.
        -11    1    3    3    0    0 -0.29812633167E+02  0.73771785437E+01 -0.29648790090E+02  0.42688014872E+02  0.51100000000E-03 0. -1.
        -12    1    3    3    0    0 -0.23437683880E+00  0.85686688689E+00  0.39004717368E+00  0.97020109365E+00  0.00000000000E+00 0.  1.
</event>
<event>
 7    1  0.2608487E-008  0.4614232E+02  0.7816164E-02  0.1320468E+00
        -11   -1    0    0    0    0  0.00000000000E+00  0.00000000000E+00  0.45593999997E+02  0.45594000000E+02  0.51100000000E-03 0.  1.
         11   -1    0    0    0    0 -0.00000000000E+00 -0.00000000000E+00 -0.45593999997E+02  0.45594000000E+02  0.51100000000E-03 0. -1.
    9900012    2    1    2    0    0 -0.43291051147E+02 -0.56186320747E+01 -0.11109875564E+02  0.46142317955E+02  0.10000001772E+02 0.  0.
        -12    1    1    2    0    0  0.43291051147E+02  0.56186320747E+01  0.11109875564E+02  0.45045682045E+02  0.00000000000E+00 0.  1.
         11    1    3    3    0    0 -0.13364888363E+02 -0.33825320323E+00 -0.34522019618E+01  0.13807691872E+02  0.51100000000E-03 0. -1.
        -11    1    3    3    0    0 -0.22427870017E+02 -0.33556937059E+00 -0.52857617897E+01  0.23044765963E+02  0.51100000000E-03 0.  1.
        -12    1    3    3    0    0 -0.74982927663E+01 -0.49448095009E+01 -0.23719118125E+01  0.92898601204E+01  0.00000000000E+00 0.  1.
</event>
<event>
 7    1  0.2031146E-008  0.4614232E+02  0.7816164E-02  0.1320468E+00
        -11   -1    0    0    0    0  0.00000000000E+00  0.00000000000E+00  0.45593999997E+02  0.45594000000E+02  0.51100000000E-03 0.  1.
         11   -1    0    0    0    0 -0.00000000000E+00 -0.00000000000E+00 -0.45593999997E+02  0.45594000000E+02  0.51100000000E-03 0. -1.
    9900012    2    1    2    0    0  0.80880475724E+01 -0.25576611902E+02 -0.36187482673E+02  0.46142317719E+02  0.99999996151E+01 0.  0.
        -12    1    1    2    0    0 -0.80880475724E+01  0.25576611902E+02  0.36187482673E+02  0.45045682281E+02  0.00000000000E+00 0.  1.
         11    1    3    3    0    0  0.11704235612E+01 -0.31143500557E+00 -0.14218266677E+01  0.18677458097E+01  0.51100000000E-03 0. -1.
        -11    1    3    3    0    0  0.44093087357E+01 -0.11057875717E+02 -0.97107454285E+01  0.15362851165E+02  0.51100000000E-03 0.  1.
         12    1    3    3    0    0  0.25083152755E+01 -0.14207301180E+02 -0.25054910577E+02  0.28911720744E+02  0.00000000000E+00 0. -1.
</event>
<event>
 7    1  0.2031146E-008  0.4614232E+02  0.7816164E-02  0.1320468E+00
        -11   -1    0    0    0    0  0.00000000000E+00  0.00000000000E+00  0.45593999997E+02  0.45594000000E+02  0.51100000000E-03 0.  1.
         11   -1    0    0    0    0 -0.00000000000E+00 -0.00000000000E+00 -0.45593999997E+02  0.45594000000E+02  0.51100000000E-03 0. -1.
    9900012    2    1    2    0    0  0.41004627042E+02  0.18316639707E+02 -0.34978251421E+01  0.46142317524E+02  0.99999978385E+01 0.  0.
        -12    1    1    2    0    0 -0.41004627042E+02 -0.18316639707E+02  0.34978251421E+01  0.45045682476E+02  0.00000000000E+00 0.  1.
         11    1    3    3    0    0  0.30524563841E+01 -0.15633268277E+00 -0.81928628622E+00  0.31643577807E+01  0.51100000000E-03 0. -1.
        -11    1    3    3    0    0  0.12341291898E+02  0.35854556718E+01  0.19378680593E+01  0.12996857735E+02  0.51100000000E-03 0.  1.
         12    1    3    3    0    0  0.25610878759E+02  0.14887516718E+02 -0.46164069152E+01  0.29981102009E+02  0.00000000000E+00 0. -1.
</event>
<event>
 7    1  0.2031146E-008  0.4614232E+02  0.7816164E-02  0.1320468E+00
        -11   -1    0    0    0    0  0.00000000000E+00  0.00000000000E+00  0.45593999997E+02  0.45594000000E+02  0.51100000000E-03 0.  1.
         11   -1    0    0    0    0 -0.00000000000E+00 -0.00000000000E+00 -0.45593999997E+02  0.45594000000E+02  0.51100000000E-03 0. -1.
    9900012    2    1    2    0    0  0.93281214003E+01  0.21631065010E+02 -0.38395268478E+02  0.46142318033E+02  0.10000002483E+02 0.  0.
        -12    1    1    2    0    0 -0.93281214003E+01 -0.21631065010E+02  0.38395268478E+02  0.45045681967E+02  0.00000000000E+00 0.  1.
         11    1    3    3    0    0  0.54940656213E+01  0.73636257332E+01 -0.22177724374E+02  0.24005399386E+02  0.51100000000E-03 0.  1.
        -11    1    3    3    0    0  0.85787512511E+00  0.85486021486E+01 -0.85788901711E+01  0.12141330457E+02  0.51100000000E-03 0. -1.
         12    1    3    3    0    0  0.29761806539E+01  0.57188371279E+01 -0.76386539332E+01  0.99955881914E+01  0.00000000000E+00 0. -1.
</event>
<event>
 7    1  0.2031146E-008  0.4614232E+02  0.7816164E-02  0.1320468E+00
        -11   -1    0    0    0    0  0.00000000000E+00  0.00000000000E+00  0.45593999997E+02  0.45594000000E+02  0.51100000000E-03 0.  1.
         11   -1    0    0    0    0 -0.00000000000E+00 -0.00000000000E+00 -0.45593999997E+02  0.45594000000E+02  0.51100000000E-03 0. -1.
    9900012    2    1    2    0    0 -0.25856081020E+02 -0.52148003388E+01 -0.36515509303E+02  0.46142317766E+02  0.10000000041E+02 0.  0.
        -12    1    1    2    0    0  0.25856081020E+02  0.52148003388E+01  0.36515509303E+02  0.45045682234E+02  0.00000000000E+00 0.  1.
         11    1    3    3    0    0 -0.59529242820E+01  0.15247750253E+01 -0.67664923045E+01  0.91404411684E+01  0.51100000000E-03 0. -1.
        -11    1    3    3    0    0 -0.11109096219E+02 -0.24828790046E+01 -0.10844581519E+02  0.15722011816E+02  0.51100000000E-03 0.  1.
        -12    1    3    3    0    0 -0.87940605193E+01 -0.42566963595E+01 -0.18904435479E+02  0.21279864781E+02  0.00000000000E+00 0.  1.
</event>
<event>
 7    1  0.2031146E-008  0.4614232E+02  0.7816164E-02  0.1320468E+00
        -11   -1    0    0    0    0  0.00000000000E+00  0.00000000000E+00  0.45593999997E+02  0.45594000000E+02  0.51100000000E-03 0.  1.
         11   -1    0    0    0    0 -0.00000000000E+00 -0.00000000000E+00 -0.45593999997E+02  0.45594000000E+02  0.51100000000E-03 0. -1.
    9900012    2    1    2    0    0  0.42676997928E+02 -0.77059488744E-01 -0.14414623177E+02  0.46142318169E+02  0.10000003719E+02 0.  0.
        -12    1    1    2    0    0 -0.42676997928E+02  0.77059488744E-01  0.14414623177E+02  0.45045681831E+02  0.00000000000E+00 0.  1.
         11    1    3    3    0    0 -0.10116872146E+00  0.78555071220E+00 -0.48438570348E+00  0.92841521018E+00  0.51100000000E-03 0. -1.
        -11    1    3    3    0    0  0.30673730164E+02 -0.20792085634E+01 -0.85427612213E+01  0.31908926650E+02  0.51100000000E-03 0.  1.
         12    1    3    3    0    0  0.12104436485E+02  0.12165983625E+01 -0.53874762523E+01  0.13304976308E+02  0.00000000000E+00 0. -1.
</event>
<event>
 7    1  0.2031146E-008  0.4614232E+02  0.7816164E-02  0.1320468E+00
        -11   -1    0    0    0    0  0.00000000000E+00  0.00000000000E+00  0.45593999997E+02  0.45594000000E+02  0.51100000000E-03 0. -1.
         11   -1    0    0    0    0 -0.00000000000E+00 -0.00000000000E+00 -0.45593999997E+02  0.45594000000E+02  0.51100000000E-03 0.  1.
    9900012    2    1    2    0    0  0.39718810627E+02  0.16200755097E+02  0.13750094004E+02  0.46142317982E+02  0.10000002013E+02 0.  0.
        -12    1    1    2    0    0 -0.39718810627E+02 -0.16200755097E+02 -0.13750094004E+02  0.45045682018E+02  0.00000000000E+00 0.  1.
         11    1    3    3    0    0  0.21716177680E+02  0.11710513659E+02  0.63953613993E+01  0.25487823580E+02  0.51100000000E-03 0. -1.
        -11    1    3    3    0    0  0.15933312782E+02  0.50146746744E+01  0.78601296344E+01  0.18460743659E+02  0.51100000000E-03 0.  1.
        -12    1    3    3    0    0  0.20693201648E+01 -0.52443323555E+00 -0.50539702947E+00  0.21937507425E+01  0.00000000000E+00 0.  1.
</event>
<event>
 7    1  0.2031146E-008  0.4614232E+02  0.7816164E-02  0.1320468E+00
        -11   -1    0    0    0    0  0.00000000000E+00  0.00000000000E+00  0.45593999997E+02  0.45594000000E+02  0.51100000000E-03 0. -1.
         11   -1    0    0    0    0 -0.00000000000E+00 -0.00000000000E+00 -0.45593999997E+02  0.45594000000E+02  0.51100000000E-03 0.  1.
    9900012    2    1    2    0    0  0.27958765236E+02 -0.32535439566E+02  0.13742860991E+02  0.46142316417E+02  0.99999877416E+01 0.  0.
        -12    1    1    2    0    0 -0.27958765236E+02  0.32535439566E+02 -0.13742860991E+02  0.45045683583E+02  0.00000000000E+00 0.  1.
         11    1    3    3    0    0  0.80151548575E+01 -0.13616220223E+02  0.52024904702E+01  0.16634604531E+02  0.51100000000E-03 0. -1.
        -11    1    3    3    0    0 -0.14883413002E+00 -0.19205005232E+01  0.59244135435E+00  0.20153066460E+01  0.51100000000E-03 0.  1.
        -12    1    3    3    0    0  0.20092444509E+02 -0.16998718820E+02  0.79479291663E+01  0.27492405240E+02  0.00000000000E+00 0.  1.
</event>
<event>
 7    1  0.2031146E-008  0.4614232E+02  0.7816164E-02  0.1320468E+00
        -11   -1    0    0    0    0  0.00000000000E+00  0.00000000000E+00  0.45593999997E+02  0.45594000000E+02  0.51100000000E-03 0.  1.
         11   -1    0    0    0    0 -0.00000000000E+00 -0.00000000000E+00 -0.45593999997E+02  0.45594000000E+02  0.51100000000E-03 0. -1.
    9900012    2    1    2    0    0 -0.14349557032E+02  0.36711269128E+02 -0.21805649738E+02  0.46142318426E+02  0.10000006062E+02 0.  0.
        -12    1    1    2    0    0  0.14349557032E+02 -0.36711269128E+02  0.21805649738E+02  0.45045681574E+02  0.00000000000E+00 0.  1.
         11    1    3    3    0    0 -0.39256918028E+01  0.97965185274E+01 -0.75257429242E+01  0.12962238935E+02  0.51100000000E-03 0. -1.
        -11    1    3    3    0    0 -0.68616647867E+01  0.77759212159E+01 -0.36138686757E+01  0.10982141934E+02  0.51100000000E-03 0.  1.
        -12    1    3    3    0    0 -0.35622004422E+01  0.19138829384E+02 -0.10666038138E+02  0.22197937556E+02  0.00000000000E+00 0.  1.
</event>
<event>
 7    1  0.2031146E-008  0.4614231E+02  0.7816164E-02  0.1320468E+00
        -11   -1    0    0    0    0  0.00000000000E+00  0.00000000000E+00  0.45593999997E+02  0.45594000000E+02  0.51100000000E-03 0.  1.
         11   -1    0    0    0    0 -0.00000000000E+00 -0.00000000000E+00 -0.45593999997E+02  0.45594000000E+02  0.51100000000E-03 0. -1.
    9900012    2    1    2    0    0 -0.19329328431E+02 -0.35878550200E+02 -0.19189075753E+02  0.46142312856E+02  0.99999552721E+01 0.  0.
        -12    1    1    2    0    0  0.19329328431E+02  0.35878550200E+02  0.19189075753E+02  0.45045687144E+02  0.00000000000E+00 0.  1.
         11    1    3    3    0    0 -0.98762722371E+01 -0.15739015247E+02 -0.95336458842E+01  0.20884150889E+02  0.51100000000E-03 0. -1.
        -11    1    3    3    0    0 -0.13689692062E+01 -0.39028729130E+01  0.95492021857E+00  0.42448046536E+01  0.51100000000E-03 0.  1.
        -12    1    3    3    0    0 -0.80840869875E+01 -0.16236662040E+02 -0.10610350087E+02  0.21013357314E+02  0.00000000000E+00 0.  1.
</event>
<event>
 7    1  0.2031146E-008  0.4614232E+02  0.7816164E-02  0.1320468E+00
        -11   -1    0    0    0    0  0.00000000000E+00  0.00000000000E+00  0.45593999997E+02  0.45594000000E+02  0.51100000000E-03 0.  1.
         11   -1    0    0    0    0 -0.00000000000E+00 -0.00000000000E+00 -0.45593999997E+02  0.45594000000E+02  0.51100000000E-03 0. -1.
    9900012    2    1    2    0    0 -0.17507795045E+02  0.45499752185E+01 -0.41253949406E+02  0.46142317594E+02  0.99999984735E+01 0.  0.
        -12    1    1    2    0    0  0.17507795045E+02 -0.45499752185E+01  0.41253949406E+02  0.45045682406E+02  0.00000000000E+00 0.  1.
         11    1    3    3    0    0 -0.10087414291E+02  0.63669243750E+01 -0.29467958013E+02  0.31790788017E+02  0.51100000000E-03 0. -1.
        -11    1    3    3    0    0 -0.26258295332E+01 -0.78237749857E+00 -0.69187997016E+01  0.74415646782E+01  0.51100000000E-03 0.  1.
        -12    1    3    3    0    0 -0.47945512209E+01 -0.10345716580E+01 -0.48671916924E+01  0.69099648983E+01  0.00000000000E+00 0.  1.
</event>
<event>
 7    1  0.2031146E-008  0.4614232E+02  0.7816164E-02  0.1320468E+00
        -11   -1    0    0    0    0  0.00000000000E+00  0.00000000000E+00  0.45593999997E+02  0.45594000000E+02  0.51100000000E-03 0.  1.
         11   -1    0    0    0    0 -0.00000000000E+00 -0.00000000000E+00 -0.45593999997E+02  0.45594000000E+02  0.51100000000E-03 0. -1.
    9900012    2    1    2    0    0 -0.35321526801E+01 -0.41026782585E+02 -0.18260355570E+02  0.46142316773E+02  0.99999909920E+01 0.  0.
        -12    1    1    2    0    0  0.35321526801E+01  0.41026782585E+02  0.18260355570E+02  0.45045683227E+02  0.00000000000E+00 0.  1.
         11    1    3    3    0    0  0.26017773716E-01 -0.20791521050E+02 -0.64494630924E+01  0.21768867654E+02  0.51100000000E-03 0. -1.
        -11    1    3    3    0    0 -0.41453429012E+01 -0.75474470386E+01 -0.44394028914E+01  0.96879369766E+01  0.51100000000E-03 0.  1.
         12    1    3    3    0    0  0.58717244734E+00 -0.12687814496E+02 -0.73714895857E+01  0.14685512143E+02  0.00000000000E+00 0. -1.
</event>
<event>
 7    1  0.2031146E-008  0.4614232E+02  0.7816164E-02  0.1320468E+00
        -11   -1    0    0    0    0  0.00000000000E+00  0.00000000000E+00  0.45593999997E+02  0.45594000000E+02  0.51100000000E-03 0. -1.
         11   -1    0    0    0    0 -0.00000000000E+00 -0.00000000000E+00 -0.45593999997E+02  0.45594000000E+02  0.51100000000E-03 0.  1.
    9900012    2    1    2    0    0 -0.33737094974E+02 -0.26037385371E+02  0.14593717356E+02  0.46142316516E+02  0.99999886503E+01 0.  0.
        -12    1    1    2    0    0  0.33737094974E+02  0.26037385371E+02 -0.14593717356E+02  0.45045683484E+02  0.00000000000E+00 0.  1.
         11    1    3    3    0    0  0.86927459997E-01 -0.16627134060E+01  0.99390780711E+00  0.19390784522E+01  0.51100000000E-03 0.  1.
        -11    1    3    3    0    0 -0.31064068720E+02 -0.20460828475E+02  0.12859845823E+02  0.39357305576E+02  0.51100000000E-03 0. -1.
        -12    1    3    3    0    0 -0.27599537140E+01 -0.39138434902E+01  0.73996372537E+00  0.48459324886E+01  0.00000000000E+00 0.  1.
</event>
<event>
 7    1  0.2031146E-008  0.4614232E+02  0.7816164E-02  0.1320468E+00
        -11   -1    0    0    0    0  0.00000000000E+00  0.00000000000E+00  0.45593999997E+02  0.45594000000E+02  0.51100000000E-03 0. -1.
         11   -1    0    0    0    0 -0.00000000000E+00 -0.00000000000E+00 -0.45593999997E+02  0.45594000000E+02  0.51100000000E-03 0.  1.
    9900012    2    1    2    0    0  0.93193016606E+01 -0.90221603246E+01  0.43137741418E+02  0.46142317687E+02  0.99999993241E+01 0.  0.
        -12    1    1    2    0    0 -0.93193016606E+01  0.90221603246E+01 -0.43137741418E+02  0.45045682313E+02  0.00000000000E+00 0.  1.
         11    1    3    3    0    0  0.27243987382E+01 -0.45133554870E+01  0.24547134538E+02  0.25106862419E+02  0.51100000000E-03 0. -1.
        -11    1    3    3    0    0  0.70588465792E+01 -0.41311527152E+01  0.18715280300E+02  0.20424383828E+02  0.51100000000E-03 0.  1.
         12    1    3    3    0    0 -0.46394365672E+00 -0.37765212235E+00 -0.12467342040E+00  0.61107143927E+00  0.00000000000E+00 0. -1.
</event>
<event>
 7    1  0.2031146E-008  0.4614232E+02  0.7816164E-02  0.1320468E+00
        -11   -1    0    0    0    0  0.00000000000E+00  0.00000000000E+00  0.45593999997E+02  0.45594000000E+02  0.51100000000E-03 0.  1.
         11   -1    0    0    0    0 -0.00000000000E+00 -0.00000000000E+00 -0.45593999997E+02  0.45594000000E+02  0.51100000000E-03 0. -1.
    9900012    2    1    2    0    0  0.94208766928E+01  0.23033188446E+02 -0.37547739714E+02  0.46142318239E+02  0.10000004361E+02 0.  0.
        -12    1    1    2    0    0 -0.94208766928E+01 -0.23033188446E+02  0.37547739714E+02  0.45045681761E+02  0.00000000000E+00 0.  1.
         11    1    3    3    0    0  0.29265428174E+01  0.13925712201E+02 -0.21299066715E+02  0.25615236801E+02  0.51100000000E-03 0. -1.
        -11    1    3    3    0    0 -0.21310759392E+00 -0.16525253467E+00 -0.30326555886E+01  0.30446220500E+01  0.51100000000E-03 0.  1.
        -12    1    3    3    0    0  0.67074414694E+01  0.92727287790E+01 -0.13216017410E+02  0.17482459388E+02  0.00000000000E+00 0.  1.
</event>
<event>
 7    1  0.2031146E-008  0.4614232E+02  0.7816164E-02  0.1320468E+00
        -11   -1    0    0    0    0  0.00000000000E+00  0.00000000000E+00  0.45593999997E+02  0.45594000000E+02  0.51100000000E-03 0.  1.
         11   -1    0    0    0    0 -0.00000000000E+00 -0.00000000000E+00 -0.45593999997E+02  0.45594000000E+02  0.51100000000E-03 0. -1.
    9900012    2    1    2    0    0  0.33508816522E+02 -0.29090234833E+02 -0.77479579579E+01  0.46142318743E+02  0.10000008956E+02 0.  0.
        -12    1    1    2    0    0 -0.33508816522E+02  0.29090234833E+02  0.77479579579E+01  0.45045681257E+02  0.00000000000E+00 0.  1.
         11    1    3    3    0    0  0.15415488869E+02 -0.87711321931E+01 -0.71139734724E-01  0.17736265620E+02  0.51100000000E-03 0. -1.
        -11    1    3    3    0    0  0.43868279763E-01 -0.69039085983E-01 -0.27631327027E+00  0.28816680206E+00  0.51100000000E-03 0.  1.
         12    1    3    3    0    0  0.18049459374E+02 -0.20250063554E+02 -0.74005049529E+01  0.28117886321E+02  0.00000000000E+00 0. -1.
</event>
<event>
 7    1  0.2031146E-008  0.4614232E+02  0.7816164E-02  0.1320468E+00
        -11   -1    0    0    0    0  0.00000000000E+00  0.00000000000E+00  0.45593999997E+02  0.45594000000E+02  0.51100000000E-03 0.  1.
         11   -1    0    0    0    0 -0.00000000000E+00 -0.00000000000E+00 -0.45593999997E+02  0.45594000000E+02  0.51100000000E-03 0. -1.
    9900012    2    1    2    0    0 -0.10326489181E+02 -0.43083318957E+02 -0.81427722236E+01  0.46142317736E+02  0.99999997667E+01 0.  0.
        -12    1    1    2    0    0  0.10326489181E+02  0.43083318957E+02  0.81427722236E+01  0.45045682264E+02  0.00000000000E+00 0.  1.
         11    1    3    3    0    0 -0.62818492956E-01 -0.19022678030E+02 -0.22657739935E+01  0.19157242956E+02  0.51100000000E-03 0. -1.
        -11    1    3    3    0    0 -0.88593561452E+01 -0.21468765111E+02 -0.61477573973E+01  0.24024799437E+02  0.51100000000E-03 0.  1.
         12    1    3    3    0    0 -0.14043145428E+01 -0.25918758156E+01  0.27075916713E+00  0.29602753428E+01  0.00000000000E+00 0. -1.
</event>
<event>
 7    1  0.2031146E-008  0.4614232E+02  0.7816164E-02  0.1320468E+00
        -11   -1    0    0    0    0  0.00000000000E+00  0.00000000000E+00  0.45593999997E+02  0.45594000000E+02  0.51100000000E-03 0.  1.
         11   -1    0    0    0    0 -0.00000000000E+00 -0.00000000000E+00 -0.45593999997E+02  0.45594000000E+02  0.51100000000E-03 0. -1.
    9900012    2    1    2    0    0 -0.29582995478E+02 -0.21129311120E+01 -0.33904209588E+02  0.46142317331E+02  0.99999960782E+01 0.  0.
        -12    1    1    2    0    0  0.29582995478E+02  0.21129311120E+01  0.33904209588E+02  0.45045682669E+02  0.00000000000E+00 0.  1.
         11    1    3    3    0    0 -0.11877847656E+02 -0.26686270381E+01 -0.13767570160E+02  0.18377998356E+02  0.51100000000E-03 0.  1.
        -11    1    3    3    0    0 -0.50207166885E+01 -0.27214494728E+01 -0.85077511064E+01  0.10246741553E+02  0.51100000000E-03 0. -1.
         12    1    3    3    0    0 -0.12684431134E+02  0.32771453989E+01 -0.11628888321E+02  0.17517577422E+02  0.00000000000E+00 0. -1.
</event>
<event>
 7    1  0.2031146E-008  0.4614232E+02  0.7816164E-02  0.1320468E+00
        -11   -1    0    0    0    0  0.00000000000E+00  0.00000000000E+00  0.45593999997E+02  0.45594000000E+02  0.51100000000E-03 0. -1.
         11   -1    0    0    0    0 -0.00000000000E+00 -0.00000000000E+00 -0.45593999997E+02  0.45594000000E+02  0.51100000000E-03 0.  1.
    9900012    2    1    2    0    0  0.10620787137E+02  0.43586618508E+02  0.40643679450E+01  0.46142317419E+02  0.99999968840E+01 0.  0.
        -12    1    1    2    0    0 -0.10620787137E+02 -0.43586618508E+02 -0.40643679450E+01  0.45045682581E+02  0.00000000000E+00 0.  1.
         11    1    3    3    0    0  0.58533153071E+01  0.21408119543E+02  0.61650497140E+01  0.23034251033E+02  0.51100000000E-03 0. -1.
        -11    1    3    3    0    0 -0.10333112609E+00  0.28847334713E+01 -0.13709271297E+01  0.31955916476E+01  0.51100000000E-03 0.  1.
         12    1    3    3    0    0  0.48708029563E+01  0.19293765494E+02 -0.72975463924E+00  0.19912474738E+02  0.00000000000E+00 0. -1.
</event>
<event>
 7    1  0.2031146E-008  0.4614232E+02  0.7816164E-02  0.1320468E+00
        -11   -1    0    0    0    0  0.00000000000E+00  0.00000000000E+00  0.45593999997E+02  0.45594000000E+02  0.51100000000E-03 0.  1.
         11   -1    0    0    0    0 -0.00000000000E+00 -0.00000000000E+00 -0.45593999997E+02  0.45594000000E+02  0.51100000000E-03 0. -1.
    9900012    2    1    2    0    0 -0.40053879521E+02  0.14869133863E+01 -0.20556976026E+02  0.46142318304E+02  0.10000004953E+02 0.  0.
        -12    1    1    2    0    0  0.40053879521E+02 -0.14869133863E+01  0.20556976026E+02  0.45045681696E+02  0.00000000000E+00 0.  1.
         11    1    3    3    0    0  0.18523155501E+00 -0.18571375064E+00 -0.41602834639E+00  0.49181314772E+00  0.51100000000E-03 0. -1.
        -11    1    3    3    0    0 -0.10536071940E+02  0.13557700817E+01 -0.18981137797E+01  0.10791189027E+02  0.51100000000E-03 0.  1.
         12    1    3    3    0    0 -0.29703039136E+02  0.31685705523E+00 -0.18242833900E+02  0.34859316130E+02  0.00000000000E+00 0. -1.
</event>
<event>
 7    1  0.2031146E-008  0.4614232E+02  0.7816164E-02  0.1320468E+00
        -11   -1    0    0    0    0  0.00000000000E+00  0.00000000000E+00  0.45593999997E+02  0.45594000000E+02  0.51100000000E-03 0.  1.
         11   -1    0    0    0    0 -0.00000000000E+00 -0.00000000000E+00 -0.45593999997E+02  0.45594000000E+02  0.51100000000E-03 0. -1.
    9900012    2    1    2    0    0  0.58114038058E+01  0.38127612271E+01 -0.44506220827E+02  0.46142320355E+02  0.10000023657E+02 0.  0.
        -12    1    1    2    0    0 -0.58114038058E+01 -0.38127612271E+01  0.44506220827E+02  0.45045679645E+02  0.00000000000E+00 0.  1.
         11    1    3    3    0    0 -0.13949121955E+01 -0.76874871844E+00 -0.16467716461E+02  0.16544559237E+02  0.51100000000E-03 0.  1.
        -11    1    3    3    0    0  0.19897209990E+01  0.20860917017E+01 -0.15812563862E+02  0.16073205791E+02  0.51100000000E-03 0. -1.
         12    1    3    3    0    0  0.52165950022E+01  0.24954182438E+01 -0.12225940503E+02  0.13524555328E+02  0.00000000000E+00 0. -1.
</event>
<event>
 7    1  0.2031146E-008  0.4614231E+02  0.7816164E-02  0.1320468E+00
        -11   -1    0    0    0    0  0.00000000000E+00  0.00000000000E+00  0.45593999997E+02  0.45594000000E+02  0.51100000000E-03 0.  1.
         11   -1    0    0    0    0 -0.00000000000E+00 -0.00000000000E+00 -0.45593999997E+02  0.45594000000E+02  0.51100000000E-03 0. -1.
    9900012    2    1    2    0    0 -0.13728844853E+02  0.92575367420E+01 -0.41891893148E+02  0.46142313425E+02  0.99999604561E+01 0.  0.
        -12    1    1    2    0    0  0.13728844853E+02 -0.92575367420E+01  0.41891893148E+02  0.45045686575E+02  0.00000000000E+00 0.  1.
         11    1    3    3    0    0  0.21504588443E+00  0.24951262812E+01 -0.11134561863E+02  0.11412728334E+02  0.51100000000E-03 0. -1.
        -11    1    3    3    0    0 -0.20473173093E+01  0.17814975459E+01 -0.25967537658E+01  0.37561112940E+01  0.51100000000E-03 0.  1.
         12    1    3    3    0    0 -0.11896573429E+02  0.49809129149E+01 -0.28160577519E+02  0.30973473797E+02  0.00000000000E+00 0. -1.
</event>
<event>
 7    1  0.2031146E-008  0.4614232E+02  0.7816164E-02  0.1320468E+00
        -11   -1    0    0    0    0  0.00000000000E+00  0.00000000000E+00  0.45593999997E+02  0.45594000000E+02  0.51100000000E-03 0.  1.
         11   -1    0    0    0    0 -0.00000000000E+00 -0.00000000000E+00 -0.45593999997E+02  0.45594000000E+02  0.51100000000E-03 0. -1.
    9900012    2    1    2    0    0  0.44494534265E+02 -0.18215706842E+00 -0.70225867794E+01  0.46142317790E+02  0.10000000264E+02 0.  0.
        -12    1    1    2    0    0 -0.44494534265E+02  0.18215706842E+00  0.70225867794E+01  0.45045682210E+02  0.00000000000E+00 0.  1.
         11    1    3    3    0    0  0.10069809145E+02 -0.86583876703E+00 -0.24889517719E+01  0.10408919933E+02  0.51100000000E-03 0. -1.
        -11    1    3    3    0    0  0.28450348677E+02 -0.24625926427E+01 -0.24245439631E+01  0.28659468175E+02  0.51100000000E-03 0.  1.
         12    1    3    3    0    0  0.59743764425E+01  0.31462743413E+01 -0.21090910444E+01  0.70739296816E+01  0.00000000000E+00 0. -1.
</event>
<event>
 7    1  0.2031146E-008  0.4614232E+02  0.7816164E-02  0.1320468E+00
        -11   -1    0    0    0    0  0.00000000000E+00  0.00000000000E+00  0.45593999997E+02  0.45594000000E+02  0.51100000000E-03 0.  1.
         11   -1    0    0    0    0 -0.00000000000E+00 -0.00000000000E+00 -0.45593999997E+02  0.45594000000E+02  0.51100000000E-03 0. -1.
    9900012    2    1    2    0    0 -0.16146475423E+02  0.33442577406E+02 -0.25495074853E+02  0.46142317700E+02  0.99999994415E+01 0.  0.
        -12    1    1    2    0    0  0.16146475423E+02 -0.33442577406E+02  0.25495074853E+02  0.45045682300E+02  0.00000000000E+00 0.  1.
         11    1    3    3    0    0 -0.15526868634E+01  0.92676520680E+01 -0.31194697839E+01  0.99010758680E+01  0.51100000000E-03 0. -1.
        -11    1    3    3    0    0 -0.52375065624E+01  0.55731115570E+01 -0.68620137706E+01  0.10275129229E+02  0.51100000000E-03 0.  1.
         12    1    3    3    0    0 -0.93562819971E+01  0.18601813781E+02 -0.15513591299E+02  0.25966112603E+02  0.00000000000E+00 0. -1.
</event>
<event>
 7    1  0.2031146E-008  0.4614232E+02  0.7816164E-02  0.1320468E+00
        -11   -1    0    0    0    0  0.00000000000E+00  0.00000000000E+00  0.45593999997E+02  0.45594000000E+02  0.51100000000E-03 0. -1.
         11   -1    0    0    0    0 -0.00000000000E+00 -0.00000000000E+00 -0.45593999997E+02  0.45594000000E+02  0.51100000000E-03 0.  1.
    9900012    2    1    2    0    0 -0.50281147684E+01 -0.42921727765E+02 -0.12710502889E+02  0.46142317231E+02  0.99999951681E+01 0.  0.
        -12    1    1    2    0    0  0.50281147684E+01  0.42921727765E+02  0.12710502889E+02  0.45045682769E+02  0.00000000000E+00 0.  1.
         11    1    3    3    0    0  0.45882500470E+00 -0.80832799541E+01 -0.82828949433E+00  0.81385501749E+01  0.51100000000E-03 0. -1.
        -11    1    3    3    0    0 -0.65957913704E+01 -0.25445045232E+02 -0.63354547517E+01  0.27038727371E+02  0.51100000000E-03 0.  1.
         12    1    3    3    0    0  0.11088515974E+01 -0.93934025785E+01 -0.55467586425E+01  0.10965039686E+02  0.00000000000E+00 0. -1.
</event>
<event>
 7    1  0.2031146E-008  0.4614232E+02  0.7816164E-02  0.1320468E+00
        -11   -1    0    0    0    0  0.00000000000E+00  0.00000000000E+00  0.45593999997E+02  0.45594000000E+02  0.51100000000E-03 0.  1.
         11   -1    0    0    0    0 -0.00000000000E+00 -0.00000000000E+00 -0.45593999997E+02  0.45594000000E+02  0.51100000000E-03 0. -1.
    9900012    2    1    2    0    0  0.27171465779E+02  0.24464319010E+02  0.26312017065E+02  0.46142315420E+02  0.99999786538E+01 0.  0.
        -12    1    1    2    0    0 -0.27171465779E+02 -0.24464319010E+02 -0.26312017065E+02  0.45045684580E+02  0.00000000000E+00 0.  1.
         11    1    3    3    0    0  0.10617921090E+02  0.81932651638E+01  0.66669592977E+01  0.14977255719E+02  0.51100000000E-03 0. -1.
        -11    1    3    3    0    0  0.27936789273E+01  0.15374220076E+01  0.60828499334E+01  0.68679962108E+01  0.51100000000E-03 0.  1.
        -12    1    3    3    0    0  0.13759865762E+02  0.14733631839E+02  0.13562207834E+02  0.24297063491E+02  0.00000000000E+00 0.  1.
</event>
<event>
 7    1  0.2031146E-008  0.4614231E+02  0.7816164E-02  0.1320468E+00
        -11   -1    0    0    0    0  0.00000000000E+00  0.00000000000E+00  0.45593999997E+02  0.45594000000E+02  0.51100000000E-03 0.  1.
         11   -1    0    0    0    0 -0.00000000000E+00 -0.00000000000E+00 -0.45593999997E+02  0.45594000000E+02  0.51100000000E-03 0. -1.
    9900012    2    1    2    0    0 -0.23751677945E+02  0.24203458129E+02 -0.29650703449E+02  0.46142314239E+02  0.99999678849E+01 0.  0.
        -12    1    1    2    0    0  0.23751677945E+02 -0.24203458129E+02  0.29650703449E+02  0.45045685761E+02  0.00000000000E+00 0.  1.
         11    1    3    3    0    0 -0.20080917271E+02  0.15884454399E+02 -0.18866141117E+02  0.31803937035E+02  0.51100000000E-03 0. -1.
        -11    1    3    3    0    0 -0.23571124949E+01  0.23225201700E+01 -0.38844908015E+01  0.51028764733E+01  0.51100000000E-03 0.  1.
        -12    1    3    3    0    0 -0.13136481791E+01  0.59964835605E+01 -0.69000715306E+01  0.92355007313E+01  0.00000000000E+00 0.  1.
</event>
<event>
 7    1  0.2031146E-008  0.4614232E+02  0.7816164E-02  0.1320468E+00
        -11   -1    0    0    0    0  0.00000000000E+00  0.00000000000E+00  0.45593999997E+02  0.45594000000E+02  0.51100000000E-03 0.  1.
         11   -1    0    0    0    0 -0.00000000000E+00 -0.00000000000E+00 -0.45593999997E+02  0.45594000000E+02  0.51100000000E-03 0. -1.
    9900012    2    1    2    0    0 -0.11138839375E+02  0.41740471371E+01 -0.43446712869E+02  0.46142320171E+02  0.10000021971E+02 0.  0.
        -12    1    1    2    0    0  0.11138839375E+02 -0.41740471371E+01  0.43446712869E+02  0.45045679829E+02  0.00000000000E+00 0.  1.
         11    1    3    3    0    0 -0.63606971025E+01 -0.99652361389E+00 -0.23246932197E+02  0.24122010360E+02  0.51100000000E-03 0. -1.
        -11    1    3    3    0    0 -0.58751106009E+00 -0.10193382015E+01 -0.17000912817E+01  0.20674937103E+01  0.51100000000E-03 0.  1.
         12    1    3    3    0    0 -0.41906312129E+01  0.61899089525E+01 -0.18499689390E+02  0.19952816101E+02  0.00000000000E+00 0. -1.
</event>
<event>
 7    1  0.2031146E-008  0.4614232E+02  0.7816164E-02  0.1320468E+00
        -11   -1    0    0    0    0  0.00000000000E+00  0.00000000000E+00  0.45593999997E+02  0.45594000000E+02  0.51100000000E-03 0.  1.
         11   -1    0    0    0    0 -0.00000000000E+00 -0.00000000000E+00 -0.45593999997E+02  0.45594000000E+02  0.51100000000E-03 0. -1.
    9900012    2    1    2    0    0  0.24202209325E+02  0.35324454034E+02 -0.13983904671E+02  0.46142316756E+02  0.99999908370E+01 0.  0.
        -12    1    1    2    0    0 -0.24202209325E+02 -0.35324454034E+02  0.13983904671E+02  0.45045683244E+02  0.00000000000E+00 0.  1.
         11    1    3    3    0    0  0.18542268396E+02  0.28146329806E+02 -0.10207555783E+02  0.35216839639E+02  0.51100000000E-03 0. -1.
        -11    1    3    3    0    0  0.32234576344E+01  0.26752802182E+01  0.54687693162E+00  0.42245565455E+01  0.51100000000E-03 0.  1.
         12    1    3    3    0    0  0.24364832949E+01  0.45028440102E+01 -0.43232258195E+01  0.67009205721E+01  0.00000000000E+00 0. -1.
</event>
<event>
 7    1  0.2031146E-008  0.4614232E+02  0.7816164E-02  0.1320468E+00
        -11   -1    0    0    0    0  0.00000000000E+00  0.00000000000E+00  0.45593999997E+02  0.45594000000E+02  0.51100000000E-03 0. -1.
         11   -1    0    0    0    0 -0.00000000000E+00 -0.00000000000E+00 -0.45593999997E+02  0.45594000000E+02  0.51100000000E-03 0.  1.
    9900012    2    1    2    0    0  0.37275997886E+02  0.15401232528E+02 -0.20060298167E+02  0.46142317140E+02  0.99999943326E+01 0.  0.
        -12    1    1    2    0    0 -0.37275997886E+02 -0.15401232528E+02  0.20060298167E+02  0.45045682860E+02  0.00000000000E+00 0.  1.
         11    1    3    3    0    0  0.15597086625E+02  0.89728165731E+01 -0.63744484495E+01  0.19089634406E+02  0.51100000000E-03 0. -1.
        -11    1    3    3    0    0  0.53156238341E+01 -0.91873288293E+00 -0.29541924516E+01  0.61503804889E+01  0.51100000000E-03 0.  1.
        -12    1    3    3    0    0  0.16363287427E+02  0.73471488378E+01 -0.10731657266E+02  0.20902302245E+02  0.00000000000E+00 0.  1.
</event>
<event>
 7    1  0.2031146E-008  0.4614232E+02  0.7816164E-02  0.1320468E+00
        -11   -1    0    0    0    0  0.00000000000E+00  0.00000000000E+00  0.45593999997E+02  0.45594000000E+02  0.51100000000E-03 0.  1.
         11   -1    0    0    0    0 -0.00000000000E+00 -0.00000000000E+00 -0.45593999997E+02  0.45594000000E+02  0.51100000000E-03 0. -1.
    9900012    2    1    2    0    0 -0.20279396128E+02  0.34031745090E+02 -0.21440613575E+02  0.46142317725E+02  0.99999996729E+01 0.  0.
        -12    1    1    2    0    0  0.20279396128E+02 -0.34031745090E+02  0.21440613575E+02  0.45045682275E+02  0.00000000000E+00 0.  1.
         11    1    3    3    0    0 -0.10210002849E+02  0.16844387214E+02 -0.11102147484E+02  0.22610511223E+02  0.51100000000E-03 0. -1.
        -11    1    3    3    0    0 -0.23959908944E+00  0.46741824262E+01 -0.24200890950E+00  0.46865720576E+01  0.51100000000E-03 0.  1.
         12    1    3    3    0    0 -0.98297941895E+01  0.12513175450E+02 -0.10096457181E+02  0.18845234444E+02  0.00000000000E+00 0. -1.
</event>
<event>
 7    1  0.2031146E-008  0.4614232E+02  0.7816164E-02  0.1320468E+00
        -11   -1    0    0    0    0  0.00000000000E+00  0.00000000000E+00  0.45593999997E+02  0.45594000000E+02  0.51100000000E-03 0.  1.
         11   -1    0    0    0    0 -0.00000000000E+00 -0.00000000000E+00 -0.45593999997E+02  0.45594000000E+02  0.51100000000E-03 0. -1.
    9900012    2    1    2    0    0 -0.39191033591E+02  0.80118771689E+01 -0.20711982342E+02  0.46142317607E+02  0.99999985956E+01 0.  0.
        -12    1    1    2    0    0  0.39191033591E+02 -0.80118771689E+01  0.20711982342E+02  0.45045682393E+02  0.00000000000E+00 0.  1.
         11    1    3    3    0    0 -0.99469603508E+01 -0.17575293063E+00 -0.52123381337E+01  0.11231267889E+02  0.51100000000E-03 0. -1.
        -11    1    3    3    0    0 -0.20264104201E+02  0.72505390720E+01 -0.73339155790E+01  0.22737426281E+02  0.51100000000E-03 0.  1.
        -12    1    3    3    0    0 -0.89799690391E+01  0.93709102752E+00 -0.81657286292E+01  0.12173623437E+02  0.00000000000E+00 0.  1.
</event>
<event>
 7    1  0.2031146E-008  0.4614232E+02  0.7816164E-02  0.1320468E+00
        -11   -1    0    0    0    0  0.00000000000E+00  0.00000000000E+00  0.45593999997E+02  0.45594000000E+02  0.51100000000E-03 0.  1.
         11   -1    0    0    0    0 -0.00000000000E+00 -0.00000000000E+00 -0.45593999997E+02  0.45594000000E+02  0.51100000000E-03 0. -1.
    9900012    2    1    2    0    0 -0.12762319738E+02  0.26303671254E+02 -0.34268842410E+02  0.46142317780E+02  0.10000000172E+02 0.  0.
        -12    1    1    2    0    0  0.12762319738E+02 -0.26303671254E+02  0.34268842410E+02  0.45045682220E+02  0.00000000000E+00 0.  1.
         11    1    3    3    0    0 -0.31568399676E+01  0.13391663820E+02 -0.12245590909E+02  0.18418924925E+02  0.51100000000E-03 0. -1.
        -11    1    3    3    0    0 -0.64316420005E+00  0.44417371694E+01 -0.52960366123E+01  0.69419516946E+01  0.51100000000E-03 0.  1.
        -12    1    3    3    0    0 -0.89623155701E+01  0.84702702654E+01 -0.16727214889E+02  0.20781441160E+02  0.00000000000E+00 0.  1.
</event>
<event>
 7    1  0.2031146E-008  0.4614232E+02  0.7816164E-02  0.1320468E+00
        -11   -1    0    0    0    0  0.00000000000E+00  0.00000000000E+00  0.45593999997E+02  0.45594000000E+02  0.51100000000E-03 0. -1.
         11   -1    0    0    0    0 -0.00000000000E+00 -0.00000000000E+00 -0.45593999997E+02  0.45594000000E+02  0.51100000000E-03 0.  1.
    9900012    2    1    2    0    0 -0.41725173998E+02 -0.26775574891E+01  0.16761682616E+02  0.46142318038E+02  0.10000002528E+02 0.  0.
        -12    1    1    2    0    0  0.41725173998E+02  0.26775574891E+01 -0.16761682616E+02  0.45045681962E+02  0.00000000000E+00 0.  1.
         11    1    3    3    0    0 -0.27003533123E+02 -0.27039587424E+01  0.86619333850E+01  0.28487388161E+02  0.51100000000E-03 0. -1.
        -11    1    3    3    0    0 -0.13622070658E+02  0.15278750023E+01  0.63743809645E+01  0.15117140734E+02  0.51100000000E-03 0.  1.
        -12    1    3    3    0    0 -0.10995702171E+01 -0.15014737490E+01  0.17253682664E+01  0.25377891433E+01  0.00000000000E+00 0.  1.
</event>
<event>
 7    1  0.2031146E-008  0.4614230E+02  0.7816164E-02  0.1320468E+00
        -11   -1    0    0    0    0  0.00000000000E+00  0.00000000000E+00  0.45593999997E+02  0.45594000000E+02  0.51100000000E-03 0.  1.
         11   -1    0    0    0    0 -0.00000000000E+00 -0.00000000000E+00 -0.45593999997E+02  0.45594000000E+02  0.51100000000E-03 0. -1.
    9900012    2    1    2    0    0 -0.25050058782E+02  0.20954607395E+02 -0.31024403755E+02  0.46142304930E+02  0.99998829920E+01 0.  0.
        -12    1    1    2    0    0  0.25050058782E+02 -0.20954607395E+02  0.31024403755E+02  0.45045695070E+02  0.00000000000E+00 0.  1.
         11    1    3    3    0    0 -0.13082904074E+02  0.82204534922E+01 -0.13973139364E+02  0.20832351249E+02  0.51100000000E-03 0. -1.
        -11    1    3    3    0    0 -0.46091171963E+01  0.44103608056E+01 -0.21683410887E+01  0.67377256625E+01  0.51100000000E-03 0.  1.
         12    1    3    3    0    0 -0.73580375118E+01  0.83237930971E+01 -0.14882923302E+02  0.18572228018E+02  0.00000000000E+00 0. -1.
</event>
<event>
 7    1  0.2031146E-008  0.4614231E+02  0.7816164E-02  0.1320468E+00
        -11   -1    0    0    0    0  0.00000000000E+00  0.00000000000E+00  0.45593999997E+02  0.45594000000E+02  0.51100000000E-03 0. -1.
         11   -1    0    0    0    0 -0.00000000000E+00 -0.00000000000E+00 -0.45593999997E+02  0.45594000000E+02  0.51100000000E-03 0.  1.
    9900012    2    1    2    0    0  0.18715345457E+02  0.32727359956E+02 -0.24652982200E+02  0.46142314561E+02  0.99999708229E+01 0.  0.
        -12    1    1    2    0    0 -0.18715345457E+02 -0.32727359956E+02  0.24652982200E+02  0.45045685439E+02  0.00000000000E+00 0.  1.
         11    1    3    3    0    0  0.14508170091E+02  0.19102367885E+02 -0.13512375220E+02  0.27531286613E+02  0.51100000000E-03 0. -1.
        -11    1    3    3    0    0  0.48062619899E+01  0.90902731888E+01 -0.84098204366E+01  0.13283760800E+02  0.51100000000E-03 0.  1.
         12    1    3    3    0    0 -0.59908662403E+00  0.45347188824E+01 -0.27307865433E+01  0.53272671484E+01  0.00000000000E+00 0. -1.
</event>
<event>
 7    1  0.2031146E-008  0.4614232E+02  0.7816164E-02  0.1320468E+00
        -11   -1    0    0    0    0  0.00000000000E+00  0.00000000000E+00  0.45593999997E+02  0.45594000000E+02  0.51100000000E-03 0.  1.
         11   -1    0    0    0    0 -0.00000000000E+00 -0.00000000000E+00 -0.45593999997E+02  0.45594000000E+02  0.51100000000E-03 0. -1.
    9900012    2    1    2    0    0 -0.97700629292E+01  0.68402486887E+01 -0.43438121001E+02  0.46142317767E+02  0.10000000050E+02 0.  0.
        -12    1    1    2    0    0  0.97700629292E+01 -0.68402486887E+01  0.43438121001E+02  0.45045682233E+02  0.00000000000E+00 0.  1.
         11    1    3    3    0    0 -0.10027656946E+02  0.40192103907E+01 -0.26643883529E+02  0.28750730178E+02  0.51100000000E-03 0.  1.
        -11    1    3    3    0    0 -0.13973464423E+01  0.24441777539E+01 -0.10029887867E+02  0.10417544473E+02  0.51100000000E-03 0. -1.
        -12    1    3    3    0    0  0.16549404592E+01  0.37686054420E+00 -0.67643496052E+01  0.69740431154E+01  0.00000000000E+00 0.  1.
</event>
<event>
 7    1  0.2031146E-008  0.4614232E+02  0.7816164E-02  0.1320468E+00
        -11   -1    0    0    0    0  0.00000000000E+00  0.00000000000E+00  0.45593999997E+02  0.45594000000E+02  0.51100000000E-03 0.  1.
         11   -1    0    0    0    0 -0.00000000000E+00 -0.00000000000E+00 -0.45593999997E+02  0.45594000000E+02  0.51100000000E-03 0. -1.
    9900012    2    1    2    0    0 -0.30024490781E+02  0.24087935166E+01 -0.33493898702E+02  0.46142316710E+02  0.99999904131E+01 0.  0.
        -12    1    1    2    0    0  0.30024490781E+02 -0.24087935166E+01  0.33493898702E+02  0.45045683290E+02  0.00000000000E+00 0.  1.
         11    1    3    3    0    0 -0.69628879020E+01 -0.13126264608E+01 -0.95545610362E+01  0.11895143253E+02  0.51100000000E-03 0. -1.
        -11    1    3    3    0    0 -0.21346954740E+01 -0.18300891213E+01 -0.32938782410E+01  0.43307949716E+01  0.51100000000E-03 0.  1.
        -12    1    3    3    0    0 -0.20926907405E+02  0.55515090988E+01 -0.20645459424E+02  0.29916378485E+02  0.00000000000E+00 0.  1.
</event>
<event>
 7    1  0.2031146E-008  0.4614232E+02  0.7816164E-02  0.1320468E+00
        -11   -1    0    0    0    0  0.00000000000E+00  0.00000000000E+00  0.45593999997E+02  0.45594000000E+02  0.51100000000E-03 0.  1.
         11   -1    0    0    0    0 -0.00000000000E+00 -0.00000000000E+00 -0.45593999997E+02  0.45594000000E+02  0.51100000000E-03 0. -1.
    9900012    2    1    2    0    0  0.25454666676E+02  0.30544106764E+02 -0.21171467207E+02  0.46142317218E+02  0.99999950469E+01 0.  0.
        -12    1    1    2    0    0 -0.25454666676E+02 -0.30544106764E+02  0.21171467207E+02  0.45045682782E+02  0.00000000000E+00 0.  1.
         11    1    3    3    0    0  0.49968106212E+01  0.46885711004E+01 -0.61332243159E+01  0.91960456783E+01  0.51100000000E-03 0. -1.
        -11    1    3    3    0    0 -0.43584543804E+00  0.11100151310E+01 -0.13064411314E+01  0.17688650395E+01  0.51100000000E-03 0.  1.
         12    1    3    3    0    0  0.20893701493E+02  0.24745520533E+02 -0.13731801760E+02  0.35177406500E+02  0.00000000000E+00 0. -1.
</event>
<event>
 7    1  0.2031146E-008  0.4614232E+02  0.7816164E-02  0.1320468E+00
        -11   -1    0    0    0    0  0.00000000000E+00  0.00000000000E+00  0.45593999997E+02  0.45594000000E+02  0.51100000000E-03 0.  1.
         11   -1    0    0    0    0 -0.00000000000E+00 -0.00000000000E+00 -0.45593999997E+02  0.45594000000E+02  0.51100000000E-03 0. -1.
    9900012    2    1    2    0    0 -0.36316565873E+02  0.20061076635E+02 -0.17543478545E+02  0.46142318830E+02  0.10000009751E+02 0.  0.
        -12    1    1    2    0    0  0.36316565873E+02 -0.20061076635E+02  0.17543478545E+02  0.45045681170E+02  0.00000000000E+00 0.  1.
         11    1    3    3    0    0 -0.11000708793E+02  0.80621461492E+01 -0.49356941036E+01  0.14504305259E+02  0.51100000000E-03 0. -1.
        -11    1    3    3    0    0 -0.25198979512E+02  0.12692318010E+02 -0.11844651578E+02  0.30600314968E+02  0.51100000000E-03 0.  1.
        -12    1    3    3    0    0 -0.11687756733E+00 -0.69338752355E+00 -0.76313286373E+00  0.10376986033E+01  0.00000000000E+00 0.  1.
</event>
<event>
 7    1  0.2031146E-008  0.4614232E+02  0.7816164E-02  0.1320468E+00
        -11   -1    0    0    0    0  0.00000000000E+00  0.00000000000E+00  0.45593999997E+02  0.45594000000E+02  0.51100000000E-03 0. -1.
         11   -1    0    0    0    0 -0.00000000000E+00 -0.00000000000E+00 -0.45593999997E+02  0.45594000000E+02  0.51100000000E-03 0.  1.
    9900012    2    1    2    0    0  0.12040555175E+02  0.30732327177E+02  0.30653915525E+02  0.46142318302E+02  0.10000004935E+02 0.  0.
        -12    1    1    2    0    0 -0.12040555175E+02 -0.30732327177E+02 -0.30653915525E+02  0.45045681698E+02  0.00000000000E+00 0.  1.
         11    1    3    3    0    0  0.40690959369E+01  0.16413499179E+02  0.13424947266E+02  0.21591426687E+02  0.51100000000E-03 0. -1.
        -11    1    3    3    0    0  0.83474780263E+00  0.70918121111E+01  0.53558615492E+01  0.89261333235E+01  0.51100000000E-03 0.  1.
         12    1    3    3    0    0  0.71367114350E+01  0.72270158870E+01  0.11873106709E+02  0.15624758292E+02  0.00000000000E+00 0. -1.
</event>
<event>
 7    1  0.2031146E-008  0.4614232E+02  0.7816164E-02  0.1320468E+00
        -11   -1    0    0    0    0  0.00000000000E+00  0.00000000000E+00  0.45593999997E+02  0.45594000000E+02  0.51100000000E-03 0. -1.
         11   -1    0    0    0    0 -0.00000000000E+00 -0.00000000000E+00 -0.45593999997E+02  0.45594000000E+02  0.51100000000E-03 0.  1.
    9900012    2    1    2    0    0 -0.42775326970E+02  0.98366276306E+01  0.10130433069E+02  0.46142317469E+02  0.99999973381E+01 0.  0.
        -12    1    1    2    0    0  0.42775326970E+02 -0.98366276306E+01 -0.10130433069E+02  0.45045682531E+02  0.00000000000E+00 0.  1.
         11    1    3    3    0    0 -0.82156272471E+01  0.20139918184E+01  0.32743551434E+01  0.90705069303E+01  0.51100000000E-03 0. -1.
        -11    1    3    3    0    0 -0.10526004340E+02  0.22584890319E+00  0.53787539423E+01  0.11822807168E+02  0.51100000000E-03 0.  1.
         12    1    3    3    0    0 -0.24033695382E+02  0.75967869090E+01  0.14773239831E+01  0.25249003371E+02  0.00000000000E+00 0. -1.
</event>
<event>
 7    1  0.2031146E-008  0.4614232E+02  0.7816164E-02  0.1320468E+00
        -11   -1    0    0    0    0  0.00000000000E+00  0.00000000000E+00  0.45593999997E+02  0.45594000000E+02  0.51100000000E-03 0.  1.
         11   -1    0    0    0    0 -0.00000000000E+00 -0.00000000000E+00 -0.45593999997E+02  0.45594000000E+02  0.51100000000E-03 0. -1.
    9900012    2    1    2    0    0  0.37320635607E+02 -0.96560860433E+01 -0.23303300187E+02  0.46142316085E+02  0.99999847134E+01 0.  0.
        -12    1    1    2    0    0 -0.37320635607E+02  0.96560860433E+01  0.23303300187E+02  0.45045683915E+02  0.00000000000E+00 0.  1.
         11    1    3    3    0    0  0.41048245167E+01 -0.30010603159E+01 -0.21431144650E+01  0.55180510331E+01  0.51100000000E-03 0.  1.
        -11    1    3    3    0    0  0.16092378080E+01 -0.10209047966E+01 -0.34937788409E+01  0.39797466976E+01  0.51100000000E-03 0. -1.
         12    1    3    3    0    0  0.31606573282E+02 -0.56341209308E+01 -0.17666406881E+02  0.36644518354E+02  0.00000000000E+00 0. -1.
</event>
<event>
 7    1  0.2031146E-008  0.4614232E+02  0.7816164E-02  0.1320468E+00
        -11   -1    0    0    0    0  0.00000000000E+00  0.00000000000E+00  0.45593999997E+02  0.45594000000E+02  0.51100000000E-03 0. -1.
         11   -1    0    0    0    0 -0.00000000000E+00 -0.00000000000E+00 -0.45593999997E+02  0.45594000000E+02  0.51100000000E-03 0.  1.
    9900012    2    1    2    0    0 -0.23411708470E+02  0.76683447907E+01  0.37712091326E+02  0.46142318326E+02  0.10000005147E+02 0.  0.
        -12    1    1    2    0    0  0.23411708470E+02 -0.76683447907E+01 -0.37712091326E+02  0.45045681674E+02  0.00000000000E+00 0.  1.
         11    1    3    3    0    0 -0.10290304143E+02  0.72936038503E+00  0.14266610981E+02  0.17605638729E+02  0.51100000000E-03 0. -1.
        -11    1    3    3    0    0 -0.24101302079E+01  0.30369350810E+01  0.10980498587E+02  0.11644872338E+02  0.51100000000E-03 0.  1.
         12    1    3    3    0    0 -0.10711274119E+02  0.39020493246E+01  0.12464981758E+02  0.16891807258E+02  0.00000000000E+00 0. -1.
</event>
<event>
 7    1  0.2031146E-008  0.4614232E+02  0.7816164E-02  0.1320468E+00
        -11   -1    0    0    0    0  0.00000000000E+00  0.00000000000E+00  0.45593999997E+02  0.45594000000E+02  0.51100000000E-03 0.  1.
         11   -1    0    0    0    0 -0.00000000000E+00 -0.00000000000E+00 -0.45593999997E+02  0.45594000000E+02  0.51100000000E-03 0. -1.
    9900012    2    1    2    0    0 -0.13932327241E+02  0.29370154580E+02 -0.31183293236E+02  0.46142317638E+02  0.99999988771E+01 0.  0.
        -12    1    1    2    0    0  0.13932327241E+02 -0.29370154580E+02  0.31183293236E+02  0.45045682362E+02  0.00000000000E+00 0.  1.
         11    1    3    3    0    0 -0.84259788488E+01  0.17516214838E+02 -0.21652864876E+02  0.29097447644E+02  0.51100000000E-03 0. -1.
        -11    1    3    3    0    0 -0.36155627335E+01  0.21163253927E+01 -0.32763076867E+01  0.53183944350E+01  0.51100000000E-03 0.  1.
         12    1    3    3    0    0 -0.18907856583E+01  0.97376143498E+01 -0.62541206730E+01  0.11726475558E+02  0.00000000000E+00 0. -1.
</event>
<event>
 7    1  0.2031146E-008  0.4614232E+02  0.7816164E-02  0.1320468E+00
        -11   -1    0    0    0    0  0.00000000000E+00  0.00000000000E+00  0.45593999997E+02  0.45594000000E+02  0.51100000000E-03 0.  1.
         11   -1    0    0    0    0 -0.00000000000E+00 -0.00000000000E+00 -0.45593999997E+02  0.45594000000E+02  0.51100000000E-03 0. -1.
    9900012    2    1    2    0    0  0.23338327217E+02 -0.61326077962E+00 -0.38523498093E+02  0.46142317506E+02  0.99999976693E+01 0.  0.
        -12    1    1    2    0    0 -0.23338327217E+02  0.61326077962E+00  0.38523498093E+02  0.45045682494E+02  0.00000000000E+00 0.  1.
         11    1    3    3    0    0  0.18397691149E+02  0.14221321349E+01 -0.32927099950E+02  0.37745084591E+02  0.51100000000E-03 0. -1.
        -11    1    3    3    0    0  0.19813843029E+01 -0.18905410727E+01 -0.44401872325E+01  0.52168277932E+01  0.51100000000E-03 0.  1.
        -12    1    3    3    0    0  0.29592517650E+01 -0.14485184177E+00 -0.11562109107E+01  0.31804051212E+01  0.00000000000E+00 0.  1.
</event>
<event>
 7    1  0.2031146E-008  0.4614232E+02  0.7816164E-02  0.1320468E+00
        -11   -1    0    0    0    0  0.00000000000E+00  0.00000000000E+00  0.45593999997E+02  0.45594000000E+02  0.51100000000E-03 0.  1.
         11   -1    0    0    0    0 -0.00000000000E+00 -0.00000000000E+00 -0.45593999997E+02  0.45594000000E+02  0.51100000000E-03 0. -1.
    9900012    2    1    2    0    0 -0.15679152808E+02 -0.21870956269E+02 -0.36123939012E+02  0.46142317292E+02  0.99999957204E+01 0.  0.
        -12    1    1    2    0    0  0.15679152808E+02  0.21870956269E+02  0.36123939012E+02  0.45045682708E+02  0.00000000000E+00 0.  1.
         11    1    3    3    0    0 -0.19992847777E+01 -0.77969849362E+01 -0.86828356459E+01  0.11839837365E+02  0.51100000000E-03 0. -1.
        -11    1    3    3    0    0 -0.54799796405E+01 -0.98837709905E+01 -0.13675902072E+02  0.17741178191E+02  0.51100000000E-03 0.  1.
        -12    1    3    3    0    0 -0.81998883900E+01 -0.41902003421E+01 -0.13765201294E+02  0.16561301736E+02  0.00000000000E+00 0.  1.
</event>
<event>
 7    1  0.2031146E-008  0.4614232E+02  0.7816164E-02  0.1320468E+00
        -11   -1    0    0    0    0  0.00000000000E+00  0.00000000000E+00  0.45593999997E+02  0.45594000000E+02  0.51100000000E-03 0.  1.
         11   -1    0    0    0    0 -0.00000000000E+00 -0.00000000000E+00 -0.45593999997E+02  0.45594000000E+02  0.51100000000E-03 0. -1.
    9900012    2    1    2    0    0 -0.11596225512E+02 -0.43252692759E+02  0.48832003448E+01  0.46142317381E+02  0.99999965317E+01 0.  0.
        -12    1    1    2    0    0  0.11596225512E+02  0.43252692759E+02 -0.48832003448E+01  0.45045682619E+02  0.00000000000E+00 0.  1.
         11    1    3    3    0    0 -0.10296031230E+01 -0.20090611974E+02  0.46877802099E-01  0.20117031836E+02  0.51100000000E-03 0. -1.
        -11    1    3    3    0    0 -0.13934849541E+01 -0.18230507032E+01 -0.25445616740E-01  0.22947683814E+01  0.51100000000E-03 0.  1.
        -12    1    3    3    0    0 -0.91731374348E+01 -0.21339030082E+02  0.48617681595E+01  0.23730517164E+02  0.00000000000E+00 0.  1.
</event>
<event>
 7    1  0.2031146E-008  0.4614230E+02  0.7816164E-02  0.1320468E+00
        -11   -1    0    0    0    0  0.00000000000E+00  0.00000000000E+00  0.45593999997E+02  0.45594000000E+02  0.51100000000E-03 0. -1.
         11   -1    0    0    0    0 -0.00000000000E+00 -0.00000000000E+00 -0.45593999997E+02  0.45594000000E+02  0.51100000000E-03 0.  1.
    9900012    2    1    2    0    0  0.14478689313E+02 -0.41101924992E+02  0.11406750965E+02  0.46142304869E+02  0.99998824360E+01 0.  0.
        -12    1    1    2    0    0 -0.14478689313E+02  0.41101924992E+02 -0.11406750965E+02  0.45045695131E+02  0.00000000000E+00 0.  1.
         11    1    3    3    0    0 -0.72668403715E+00 -0.34425974232E+01  0.38125028919E+00  0.35390533695E+01  0.51100000000E-03 0. -1.
        -11    1    3    3    0    0  0.99196800109E+01 -0.29950547697E+02  0.64773361239E+01  0.32208558527E+02  0.51100000000E-03 0.  1.
        -12    1    3    3    0    0  0.52856933396E+01 -0.77087798719E+01  0.45481645521E+01  0.10394692972E+02  0.00000000000E+00 0.  1.
</event>
<event>
 7    1  0.2031146E-008  0.4614232E+02  0.7816164E-02  0.1320468E+00
        -11   -1    0    0    0    0  0.00000000000E+00  0.00000000000E+00  0.45593999997E+02  0.45594000000E+02  0.51100000000E-03 0.  1.
         11   -1    0    0    0    0 -0.00000000000E+00 -0.00000000000E+00 -0.45593999997E+02  0.45594000000E+02  0.51100000000E-03 0. -1.
    9900012    2    1    2    0    0 -0.30541528391E+02  0.18412501320E+02  0.27519237048E+02  0.46142316866E+02  0.99999918396E+01 0.  0.
        -12    1    1    2    0    0  0.30541528391E+02 -0.18412501320E+02 -0.27519237048E+02  0.45045683134E+02  0.00000000000E+00 0.  1.
         11    1    3    3    0    0 -0.15345428365E+02  0.96854324319E+01  0.18242510627E+02  0.25730895191E+02  0.51100000000E-03 0. -1.
        -11    1    3    3    0    0 -0.63399321654E+01  0.35334430161E+01  0.65792564993E+01  0.97962531488E+01  0.51100000000E-03 0.  1.
        -12    1    3    3    0    0 -0.88561678601E+01  0.51936258720E+01  0.26974699216E+01  0.10615168526E+02  0.00000000000E+00 0.  1.
</event>
<event>
 7    1  0.2031146E-008  0.4614232E+02  0.7816164E-02  0.1320468E+00
        -11   -1    0    0    0    0  0.00000000000E+00  0.00000000000E+00  0.45593999997E+02  0.45594000000E+02  0.51100000000E-03 0.  1.
         11   -1    0    0    0    0 -0.00000000000E+00 -0.00000000000E+00 -0.45593999997E+02  0.45594000000E+02  0.51100000000E-03 0. -1.
    9900012    2    1    2    0    0 -0.14597250558E+02 -0.35682524793E+02 -0.23297880071E+02  0.46142317463E+02  0.99999972788E+01 0.  0.
        -12    1    1    2    0    0  0.14597250558E+02  0.35682524793E+02  0.23297880071E+02  0.45045682537E+02  0.00000000000E+00 0.  1.
         11    1    3    3    0    0 -0.10734989468E+02 -0.24928122026E+02 -0.18583573168E+02  0.32893775378E+02  0.51100000000E-03 0. -1.
        -11    1    3    3    0    0 -0.17177573152E+01 -0.35247962769E+00 -0.51266594697E+00  0.18269533973E+01  0.51100000000E-03 0.  1.
         12    1    3    3    0    0 -0.21445037747E+01 -0.10401923139E+02 -0.42016409557E+01  0.11421588688E+02  0.00000000000E+00 0. -1.
</event>
<event>
 7    1  0.2031146E-008  0.4614232E+02  0.7816164E-02  0.1320468E+00
        -11   -1    0    0    0    0  0.00000000000E+00  0.00000000000E+00  0.45593999997E+02  0.45594000000E+02  0.51100000000E-03 0.  1.
         11   -1    0    0    0    0 -0.00000000000E+00 -0.00000000000E+00 -0.45593999997E+02  0.45594000000E+02  0.51100000000E-03 0. -1.
    9900012    2    1    2    0    0 -0.66324463720E+01 -0.28070256061E+02 -0.34600361921E+02  0.46142315797E+02  0.99999820923E+01 0.  0.
        -12    1    1    2    0    0  0.66324463720E+01  0.28070256061E+02  0.34600361921E+02  0.45045684203E+02  0.00000000000E+00 0.  1.
         11    1    3    3    0    0 -0.21044276485E+01 -0.14595191839E+02 -0.20779244202E+02  0.25479898556E+02  0.51100000000E-03 0. -1.
        -11    1    3    3    0    0 -0.55058881503E+01 -0.10883958892E+02 -0.92117056040E+01  0.15284988907E+02  0.51100000000E-03 0.  1.
        -12    1    3    3    0    0  0.97786942677E+00 -0.25911053301E+01 -0.46094121148E+01  0.53774283344E+01  0.00000000000E+00 0.  1.
</event>
<event>
 7    1  0.2289471E-008  0.4614232E+02  0.7816164E-02  0.1320468E+00
        -11   -1    0    0    0    0  0.00000000000E+00  0.00000000000E+00  0.45593999997E+02  0.45594000000E+02  0.51100000000E-03 0.  1.
         11   -1    0    0    0    0 -0.00000000000E+00 -0.00000000000E+00 -0.45593999997E+02  0.45594000000E+02  0.51100000000E-03 0. -1.
    9900012    2    1    2    0    0  0.94865482815E+01 -0.38161471854E+02 -0.21973182398E+02  0.46142320107E+02  0.10000021390E+02 0.  0.
        -12    1    1    2    0    0 -0.94865482815E+01  0.38161471854E+02  0.21973182398E+02  0.45045679893E+02  0.00000000000E+00 0.  1.
         11    1    3    3    0    0  0.33009960475E+01 -0.16414305839E+02 -0.11052724851E+02  0.20062121971E+02  0.51100000000E-03 0. -1.
        -11    1    3    3    0    0  0.52732988386E+01 -0.21860033271E+02 -0.95521206813E+01  0.24431777361E+02  0.51100000000E-03 0.  1.
        -12    1    3    3    0    0  0.91225339536E+00  0.11286725568E+00 -0.13683368653E+01  0.16484207751E+01  0.00000000000E+00 0.  1.
</event>
<event>
 7    1  0.2031146E-008  0.4614232E+02  0.7816164E-02  0.1320468E+00
        -11   -1    0    0    0    0  0.00000000000E+00  0.00000000000E+00  0.45593999997E+02  0.45594000000E+02  0.51100000000E-03 0.  1.
         11   -1    0    0    0    0 -0.00000000000E+00 -0.00000000000E+00 -0.45593999997E+02  0.45594000000E+02  0.51100000000E-03 0. -1.
    9900012    2    1    2    0    0  0.39209082497E+02 -0.22057425874E+02  0.22872103145E+01  0.46142317438E+02  0.99999970580E+01 0.  0.
        -12    1    1    2    0    0 -0.39209082497E+02  0.22057425874E+02 -0.22872103145E+01  0.45045682562E+02  0.00000000000E+00 0.  1.
         11    1    3    3    0    0  0.17957560986E+02 -0.10381207180E+02  0.34530131386E+01  0.21027761628E+02  0.51100000000E-03 0. -1.
        -11    1    3    3    0    0  0.80262103388E+01 -0.80387117017E+01 -0.15067021473E+00  0.11360617941E+02  0.51100000000E-03 0.  1.
        -12    1    3    3    0    0  0.13225311172E+02 -0.36375069924E+01 -0.10151326093E+01  0.13753937870E+02  0.00000000000E+00 0.  1.
</event>
<event>
 7    1  0.2031146E-008  0.4614232E+02  0.7816164E-02  0.1320468E+00
        -11   -1    0    0    0    0  0.00000000000E+00  0.00000000000E+00  0.45593999997E+02  0.45594000000E+02  0.51100000000E-03 0. -1.
         11   -1    0    0    0    0 -0.00000000000E+00 -0.00000000000E+00 -0.45593999997E+02  0.45594000000E+02  0.51100000000E-03 0.  1.
    9900012    2    1    2    0    0 -0.22116422170E+02 -0.16237567003E+02  0.35725604319E+02  0.46142317458E+02  0.99999972321E+01 0.  0.
        -12    1    1    2    0    0  0.22116422170E+02  0.16237567003E+02 -0.35725604319E+02  0.45045682542E+02  0.00000000000E+00 0.  1.
         11    1    3    3    0    0 -0.80105189005E+01 -0.57846279260E+01  0.94129142575E+01  0.13646731784E+02  0.51100000000E-03 0. -1.
        -11    1    3    3    0    0 -0.42117643932E+01  0.52308441420E+00  0.49558587849E+01  0.65248075194E+01  0.51100000000E-03 0.  1.
        -12    1    3    3    0    0 -0.98941388762E+01 -0.10976023491E+02  0.21356831276E+02  0.25970778154E+02  0.00000000000E+00 0.  1.
</event>
<event>
 7    1  0.2031146E-008  0.4614232E+02  0.7816164E-02  0.1320468E+00
        -11   -1    0    0    0    0  0.00000000000E+00  0.00000000000E+00  0.45593999997E+02  0.45594000000E+02  0.51100000000E-03 0.  1.
         11   -1    0    0    0    0 -0.00000000000E+00 -0.00000000000E+00 -0.45593999997E+02  0.45594000000E+02  0.51100000000E-03 0. -1.
    9900012    2    1    2    0    0 -0.11392801230E+02 -0.39070062287E+02  0.19309257664E+02  0.46142321866E+02  0.10000037434E+02 0.  0.
        -12    1    1    2    0    0  0.11392801230E+02  0.39070062287E+02 -0.19309257664E+02  0.45045678134E+02  0.00000000000E+00 0.  1.
         11    1    3    3    0    0 -0.10659363646E+01 -0.97009820890E+01  0.17518516453E+01  0.99153546721E+01  0.51100000000E-03 0. -1.
        -11    1    3    3    0    0 -0.21973081379E+01 -0.12198778839E+02  0.45535760090E+01  0.13205052933E+02  0.51100000000E-03 0.  1.
        -12    1    3    3    0    0 -0.81295567276E+01 -0.17170301359E+02  0.13003830010E+02  0.23021914261E+02  0.00000000000E+00 0.  1.
</event>
<event>
 7    1  0.2031146E-008  0.4614232E+02  0.7816164E-02  0.1320468E+00
        -11   -1    0    0    0    0  0.00000000000E+00  0.00000000000E+00  0.45593999997E+02  0.45594000000E+02  0.51100000000E-03 0.  1.
         11   -1    0    0    0    0 -0.00000000000E+00 -0.00000000000E+00 -0.45593999997E+02  0.45594000000E+02  0.51100000000E-03 0. -1.
    9900012    2    1    2    0    0  0.12331819759E+02 -0.57237243525E+01 -0.42945065377E+02  0.46142318306E+02  0.10000004965E+02 0.  0.
        -12    1    1    2    0    0 -0.12331819759E+02  0.57237243525E+01  0.42945065377E+02  0.45045681694E+02  0.00000000000E+00 0.  1.
         11    1    3    3    0    0  0.67592613808E+00 -0.11120434617E+01 -0.23250771455E+01  0.26644888438E+01  0.51100000000E-03 0. -1.
        -11    1    3    3    0    0  0.10220977991E+02 -0.49899917184E+01 -0.21703922853E+02  0.24503646176E+02  0.51100000000E-03 0.  1.
         12    1    3    3    0    0  0.14349156300E+01  0.37831082752E+00 -0.18916065379E+02  0.18974183286E+02  0.00000000000E+00 0. -1.
</event>
<event>
 7    1  0.2031146E-008  0.4614232E+02  0.7816164E-02  0.1320468E+00
        -11   -1    0    0    0    0  0.00000000000E+00  0.00000000000E+00  0.45593999997E+02  0.45594000000E+02  0.51100000000E-03 0. -1.
         11   -1    0    0    0    0 -0.00000000000E+00 -0.00000000000E+00 -0.45593999997E+02  0.45594000000E+02  0.51100000000E-03 0.  1.
    9900012    2    1    2    0    0 -0.19838275256E+02 -0.36039164636E+01  0.40281112825E+02  0.46142318416E+02  0.10000005969E+02 0.  0.
        -12    1    1    2    0    0  0.19838275256E+02  0.36039164636E+01 -0.40281112825E+02  0.45045681584E+02  0.00000000000E+00 0.  1.
         11    1    3    3    0    0 -0.51941141240E+01 -0.28695132917E+00  0.89961085677E+01  0.10391878185E+02  0.51100000000E-03 0. -1.
        -11    1    3    3    0    0 -0.42734260410E+01 -0.51021655306E+01  0.10097713334E+02  0.12093720605E+02  0.51100000000E-03 0.  1.
        -12    1    3    3    0    0 -0.10370735091E+02  0.17852003962E+01  0.21187290923E+02  0.23656719626E+02  0.00000000000E+00 0.  1.
</event>
<event>
 7    1  0.2031146E-008  0.4614232E+02  0.7816164E-02  0.1320468E+00
        -11   -1    0    0    0    0  0.00000000000E+00  0.00000000000E+00  0.45593999997E+02  0.45594000000E+02  0.51100000000E-03 0. -1.
         11   -1    0    0    0    0 -0.00000000000E+00 -0.00000000000E+00 -0.45593999997E+02  0.45594000000E+02  0.51100000000E-03 0.  1.
    9900012    2    1    2    0    0  0.31103359057E+00  0.43983140864E+02  0.97210982637E+01  0.46142321255E+02  0.10000031856E+02 0.  0.
        -12    1    1    2    0    0 -0.31103359057E+00 -0.43983140864E+02 -0.97210982637E+01  0.45045678745E+02  0.00000000000E+00 0.  1.
         11    1    3    3    0    0 -0.73894343650E+00  0.25120636649E+01  0.65576242570E+00  0.26993565676E+01  0.51100000000E-03 0. -1.
        -11    1    3    3    0    0  0.28358380208E+01  0.39966177879E+02  0.91796471965E+01  0.41104784082E+02  0.51100000000E-03 0.  1.
        -12    1    3    3    0    0 -0.17858609937E+01  0.15048993201E+01 -0.11431135841E+00  0.23381806045E+01  0.00000000000E+00 0.  1.
</event>
<event>
 7    1  0.2031146E-008  0.4614232E+02  0.7816164E-02  0.1320468E+00
        -11   -1    0    0    0    0  0.00000000000E+00  0.00000000000E+00  0.45593999997E+02  0.45594000000E+02  0.51100000000E-03 0.  1.
         11   -1    0    0    0    0 -0.00000000000E+00 -0.00000000000E+00 -0.45593999997E+02  0.45594000000E+02  0.51100000000E-03 0. -1.
    9900012    2    1    2    0    0 -0.13060770727E+02 -0.17343721714E+02 -0.39468027729E+02  0.46142316214E+02  0.99999858949E+01 0.  0.
        -12    1    1    2    0    0  0.13060770727E+02  0.17343721714E+02  0.39468027729E+02  0.45045683786E+02  0.00000000000E+00 0.  1.
         11    1    3    3    0    0 -0.37955297524E+01 -0.64228358713E+01 -0.74687617803E+01  0.10556574706E+02  0.51100000000E-03 0.  1.
        -11    1    3    3    0    0 -0.69709124611E+01 -0.35614191942E+01 -0.14978963745E+02  0.16901085242E+02  0.51100000000E-03 0. -1.
         12    1    3    3    0    0 -0.22943285134E+01 -0.73594666487E+01 -0.17020302204E+02  0.18684656266E+02  0.00000000000E+00 0. -1.
</event>
<event>
 7    1  0.2031146E-008  0.4614232E+02  0.7816164E-02  0.1320468E+00
        -11   -1    0    0    0    0  0.00000000000E+00  0.00000000000E+00  0.45593999997E+02  0.45594000000E+02  0.51100000000E-03 0.  1.
         11   -1    0    0    0    0 -0.00000000000E+00 -0.00000000000E+00 -0.45593999997E+02  0.45594000000E+02  0.51100000000E-03 0. -1.
    9900012    2    1    2    0    0  0.24579260338E+02  0.24544943808E+02 -0.28679595565E+02  0.46142317553E+02  0.99999981065E+01 0.  0.
        -12    1    1    2    0    0 -0.24579260338E+02 -0.24544943808E+02  0.28679595565E+02  0.45045682447E+02  0.00000000000E+00 0.  1.
         11    1    3    3    0    0  0.64707639943E+01  0.64040619382E+01 -0.86817939247E+01  0.12579997694E+02  0.51100000000E-03 0. -1.
        -11    1    3    3    0    0  0.69507321920E+01  0.21599937633E+01 -0.37512326655E+01  0.81884063062E+01  0.51100000000E-03 0.  1.
        -12    1    3    3    0    0  0.11157764152E+02  0.15980888107E+02 -0.16246568974E+02  0.25373913553E+02  0.00000000000E+00 0.  1.
</event>
<event>
 7    1  0.2031146E-008  0.4614232E+02  0.7816164E-02  0.1320468E+00
        -11   -1    0    0    0    0  0.00000000000E+00  0.00000000000E+00  0.45593999997E+02  0.45594000000E+02  0.51100000000E-03 0.  1.
         11   -1    0    0    0    0 -0.00000000000E+00 -0.00000000000E+00 -0.45593999997E+02  0.45594000000E+02  0.51100000000E-03 0. -1.
    9900012    2    1    2    0    0  0.25137549243E+02  0.16394309652E+02 -0.33592316652E+02  0.46142317533E+02  0.99999979180E+01 0.  0.
        -12    1    1    2    0    0 -0.25137549243E+02 -0.16394309652E+02  0.33592316652E+02  0.45045682467E+02  0.00000000000E+00 0.  1.
         11    1    3    3    0    0  0.14273572726E+02  0.10769542545E+02 -0.15798779600E+02  0.23860414122E+02  0.51100000000E-03 0. -1.
        -11    1    3    3    0    0  0.67101826621E+01  0.37955721577E+00 -0.89349107688E+01  0.11180485041E+02  0.51100000000E-03 0.  1.
         12    1    3    3    0    0  0.41537938549E+01  0.52452098915E+01 -0.88586262833E+01  0.11101418370E+02  0.00000000000E+00 0. -1.
</event>
<event>
 7    1  0.2031146E-008  0.4614232E+02  0.7816164E-02  0.1320468E+00
        -11   -1    0    0    0    0  0.00000000000E+00  0.00000000000E+00  0.45593999997E+02  0.45594000000E+02  0.51100000000E-03 0.  1.
         11   -1    0    0    0    0 -0.00000000000E+00 -0.00000000000E+00 -0.45593999997E+02  0.45594000000E+02  0.51100000000E-03 0. -1.
    9900012    2    1    2    0    0 -0.38412683161E+02 -0.19169511988E+02 -0.13642184534E+02  0.46142316341E+02  0.99999870509E+01 0.  0.
        -12    1    1    2    0    0  0.38412683161E+02  0.19169511988E+02  0.13642184534E+02  0.45045683659E+02  0.00000000000E+00 0.  1.
         11    1    3    3    0    0 -0.70263721266E+01 -0.25626140983E+01 -0.31836796941E+01  0.81285123445E+01  0.51100000000E-03 0. -1.
        -11    1    3    3    0    0 -0.41010741476E+01  0.31423215079E-01 -0.32995124514E+01  0.52637039488E+01  0.51100000000E-03 0.  1.
         12    1    3    3    0    0 -0.27285236886E+02 -0.16638321105E+02 -0.71589923883E+01  0.32750100048E+02  0.00000000000E+00 0. -1.
</event>
<event>
 7    1  0.2031146E-008  0.4614232E+02  0.7816164E-02  0.1320468E+00
        -11   -1    0    0    0    0  0.00000000000E+00  0.00000000000E+00  0.45593999997E+02  0.45594000000E+02  0.51100000000E-03 0.  1.
         11   -1    0    0    0    0 -0.00000000000E+00 -0.00000000000E+00 -0.45593999997E+02  0.45594000000E+02  0.51100000000E-03 0. -1.
    9900012    2    1    2    0    0  0.17680692709E+02 -0.11524659724E+02 -0.39795587981E+02  0.46142317641E+02  0.99999989061E+01 0.  0.
        -12    1    1    2    0    0 -0.17680692709E+02  0.11524659724E+02  0.39795587981E+02  0.45045682359E+02  0.00000000000E+00 0.  1.
         11    1    3    3    0    0  0.17965212640E+01 -0.30310583080E+01 -0.19230956365E+01  0.40141126301E+01  0.51100000000E-03 0. -1.
        -11    1    3    3    0    0  0.47098119508E+01 -0.65076831858E+00 -0.11115782402E+02  0.12089931625E+02  0.51100000000E-03 0.  1.
         12    1    3    3    0    0  0.11174359494E+02 -0.78428330976E+01 -0.26756709942E+02  0.30038273386E+02  0.00000000000E+00 0. -1.
</event>
<event>
 7    1  0.2031146E-008  0.4614232E+02  0.7816164E-02  0.1320468E+00
        -11   -1    0    0    0    0  0.00000000000E+00  0.00000000000E+00  0.45593999997E+02  0.45594000000E+02  0.51100000000E-03 0. -1.
         11   -1    0    0    0    0 -0.00000000000E+00 -0.00000000000E+00 -0.45593999997E+02  0.45594000000E+02  0.51100000000E-03 0.  1.
    9900012    2    1    2    0    0  0.34637929399E+01  0.41420870490E+02  0.17361655210E+02  0.46142318239E+02  0.10000004354E+02 0.  0.
        -12    1    1    2    0    0 -0.34637929399E+01 -0.41420870490E+02 -0.17361655210E+02  0.45045681761E+02  0.00000000000E+00 0.  1.
         11    1    3    3    0    0  0.55615092482E+01  0.30850620060E+02  0.12863094146E+02  0.33884367110E+02  0.51100000000E-03 0. -1.
        -11    1    3    3    0    0  0.90128968553E+00  0.30561710625E+01  0.47262763370E+00  0.32211615609E+01  0.51100000000E-03 0.  1.
        -12    1    3    3    0    0 -0.29990059938E+01  0.75140793682E+01  0.40259334304E+01  0.90367895676E+01  0.00000000000E+00 0.  1.
</event>
<event>
 7    1  0.2031146E-008  0.4614232E+02  0.7816164E-02  0.1320468E+00
        -11   -1    0    0    0    0  0.00000000000E+00  0.00000000000E+00  0.45593999997E+02  0.45594000000E+02  0.51100000000E-03 0.  1.
         11   -1    0    0    0    0 -0.00000000000E+00 -0.00000000000E+00 -0.45593999997E+02  0.45594000000E+02  0.51100000000E-03 0. -1.
    9900012    2    1    2    0    0  0.93422375711E+01  0.43811871103E+02 -0.47282176432E+01  0.46142317694E+02  0.99999993861E+01 0.  0.
        -12    1    1    2    0    0 -0.93422375711E+01 -0.43811871103E+02  0.47282176432E+01  0.45045682306E+02  0.00000000000E+00 0.  1.
         11    1    3    3    0    0  0.40921248832E+01  0.35009585779E+02 -0.49560252167E+01  0.35594645225E+02  0.51100000000E-03 0. -1.
        -11    1    3    3    0    0  0.33789705731E-01  0.16221377209E+01  0.39997552121E+00  0.16710634963E+01  0.51100000000E-03 0.  1.
         12    1    3    3    0    0  0.52163229822E+01  0.71801476030E+01 -0.17216794768E+00  0.88766089729E+01  0.00000000000E+00 0. -1.
</event>
<event>
 7    1  0.2031146E-008  0.4614232E+02  0.7816164E-02  0.1320468E+00
        -11   -1    0    0    0    0  0.00000000000E+00  0.00000000000E+00  0.45593999997E+02  0.45594000000E+02  0.51100000000E-03 0.  1.
         11   -1    0    0    0    0 -0.00000000000E+00 -0.00000000000E+00 -0.45593999997E+02  0.45594000000E+02  0.51100000000E-03 0. -1.
    9900012    2    1    2    0    0  0.18804117594E+02 -0.14863851385E+02 -0.38139017087E+02  0.46142317178E+02  0.99999946867E+01 0.  0.
        -12    1    1    2    0    0 -0.18804117594E+02  0.14863851385E+02  0.38139017087E+02  0.45045682822E+02  0.00000000000E+00 0.  1.
         11    1    3    3    0    0  0.14236839661E+01  0.28063617174E+00 -0.13189864873E+00  0.14570621850E+01  0.51100000000E-03 0. -1.
        -11    1    3    3    0    0  0.12089824110E+02 -0.13092414412E+02 -0.29190454465E+02  0.34200260149E+02  0.51100000000E-03 0.  1.
         12    1    3    3    0    0  0.52906095173E+01 -0.20520731448E+01 -0.88166639739E+01  0.10484994844E+02  0.00000000000E+00 0. -1.
</event>
<event>
 7    1  0.2031146E-008  0.4614232E+02  0.7816164E-02  0.1320468E+00
        -11   -1    0    0    0    0  0.00000000000E+00  0.00000000000E+00  0.45593999997E+02  0.45594000000E+02  0.51100000000E-03 0. -1.
         11   -1    0    0    0    0 -0.00000000000E+00 -0.00000000000E+00 -0.45593999997E+02  0.45594000000E+02  0.51100000000E-03 0.  1.
    9900012    2    1    2    0    0  0.22782455043E+02  0.20433414586E+02  0.33053725396E+02  0.46142318165E+02  0.10000003686E+02 0.  0.
        -12    1    1    2    0    0 -0.22782455043E+02 -0.20433414586E+02 -0.33053725396E+02  0.45045681835E+02  0.00000000000E+00 0.  1.
         11    1    3    3    0    0  0.81238019294E+01  0.52405897091E+01  0.10548732320E+02  0.14308588055E+02  0.51100000000E-03 0. -1.
        -11    1    3    3    0    0  0.56851626334E+01  0.11436558049E+02  0.13349435151E+02  0.18474938520E+02  0.51100000000E-03 0.  1.
         12    1    3    3    0    0  0.89734904800E+01  0.37562668271E+01  0.91555579241E+01  0.13358791591E+02  0.00000000000E+00 0. -1.
</event>
<event>
 7    1  0.2031146E-008  0.4614232E+02  0.7816164E-02  0.1320468E+00
        -11   -1    0    0    0    0  0.00000000000E+00  0.00000000000E+00  0.45593999997E+02  0.45594000000E+02  0.51100000000E-03 0. -1.
         11   -1    0    0    0    0 -0.00000000000E+00 -0.00000000000E+00 -0.45593999997E+02  0.45594000000E+02  0.51100000000E-03 0.  1.
    9900012    2    1    2    0    0  0.12981793760E+02 -0.35760814329E+02  0.24119508507E+02  0.46142317618E+02  0.99999986940E+01 0.  0.
        -12    1    1    2    0    0 -0.12981793760E+02  0.35760814329E+02 -0.24119508507E+02  0.45045682382E+02  0.00000000000E+00 0.  1.
         11    1    3    3    0    0  0.48160932817E+01 -0.11936173223E+02  0.11640487939E+02  0.17354191005E+02  0.51100000000E-03 0. -1.
        -11    1    3    3    0    0  0.65904683789E+01 -0.11756831234E+02  0.43901359437E+01  0.14175000811E+02  0.51100000000E-03 0.  1.
         12    1    3    3    0    0  0.15752320993E+01 -0.12067809871E+02  0.80888846243E+01  0.14613125802E+02  0.00000000000E+00 0. -1.
</event>
<event>
 7    1  0.2031146E-008  0.4614232E+02  0.7816164E-02  0.1320468E+00
        -11   -1    0    0    0    0  0.00000000000E+00  0.00000000000E+00  0.45593999997E+02  0.45594000000E+02  0.51100000000E-03 0. -1.
         11   -1    0    0    0    0 -0.00000000000E+00 -0.00000000000E+00 -0.45593999997E+02  0.45594000000E+02  0.51100000000E-03 0.  1.
    9900012    2    1    2    0    0  0.38426712748E+02  0.71035852476E+01  0.22406255791E+02  0.46142317915E+02  0.10000001399E+02 0.  0.
        -12    1    1    2    0    0 -0.38426712748E+02 -0.71035852476E+01 -0.22406255791E+02  0.45045682085E+02  0.00000000000E+00 0.  1.
         11    1    3    3    0    0  0.11118915296E+02  0.24851313789E+00  0.98892839689E+01  0.14882539226E+02  0.51100000000E-03 0. -1.
        -11    1    3    3    0    0  0.11887056849E+01 -0.70554198081E+00  0.15740257348E+00  0.13912535798E+01  0.51100000000E-03 0.  1.
        -12    1    3    3    0    0  0.26119091767E+02  0.75606140905E+01  0.12359569249E+02  0.29868525108E+02  0.00000000000E+00 0.  1.
</event>
<event>
 7    1  0.2031146E-008  0.4614231E+02  0.7816164E-02  0.1320468E+00
        -11   -1    0    0    0    0  0.00000000000E+00  0.00000000000E+00  0.45593999997E+02  0.45594000000E+02  0.51100000000E-03 0. -1.
         11   -1    0    0    0    0 -0.00000000000E+00 -0.00000000000E+00 -0.45593999997E+02  0.45594000000E+02  0.51100000000E-03 0.  1.
    9900012    2    1    2    0    0  0.31449220392E+01 -0.44551641091E+02 -0.58629957526E+01  0.46142312329E+02  0.99999504691E+01 0.  0.
        -12    1    1    2    0    0 -0.31449220392E+01  0.44551641091E+02  0.58629957526E+01  0.45045687671E+02  0.00000000000E+00 0.  1.
         11    1    3    3    0    0 -0.16127326033E+01 -0.23109460080E+02 -0.14183826160E+01  0.23209046968E+02  0.51100000000E-03 0. -1.
        -11    1    3    3    0    0  0.50122617660E+01 -0.21611533401E+02 -0.44517335069E+01  0.22627396568E+02  0.51100000000E-03 0.  1.
        -12    1    3    3    0    0 -0.25460712357E+00  0.16935239022E+00  0.71203702863E-02  0.30586879396E+00  0.00000000000E+00 0.  1.
</event>
<event>
 7    1  0.2031146E-008  0.4614232E+02  0.7816164E-02  0.1320468E+00
        -11   -1    0    0    0    0  0.00000000000E+00  0.00000000000E+00  0.45593999997E+02  0.45594000000E+02  0.51100000000E-03 0. -1.
         11   -1    0    0    0    0 -0.00000000000E+00 -0.00000000000E+00 -0.45593999997E+02  0.45594000000E+02  0.51100000000E-03 0.  1.
    9900012    2    1    2    0    0 -0.41248555975E+02  0.17833638129E+02  0.31034813674E+01  0.46142316350E+02  0.99999871303E+01 0.  0.
        -12    1    1    2    0    0  0.41248555975E+02 -0.17833638129E+02 -0.31034813674E+01  0.45045683650E+02  0.00000000000E+00 0.  1.
         11    1    3    3    0    0 -0.13372143749E+02  0.50576823463E+01  0.13150051478E+01  0.14357005885E+02  0.51100000000E-03 0. -1.
        -11    1    3    3    0    0 -0.24132396419E+02  0.82743152207E+01  0.33371440069E+01  0.25728843341E+02  0.51100000000E-03 0.  1.
        -12    1    3    3    0    0 -0.37440158063E+01  0.45016405619E+01 -0.15486677873E+01  0.60564671238E+01  0.00000000000E+00 0.  1.
</event>
<event>
 7    1  0.2031146E-008  0.4614232E+02  0.7816164E-02  0.1320468E+00
        -11   -1    0    0    0    0  0.00000000000E+00  0.00000000000E+00  0.45593999997E+02  0.45594000000E+02  0.51100000000E-03 0.  1.
         11   -1    0    0    0    0 -0.00000000000E+00 -0.00000000000E+00 -0.45593999997E+02  0.45594000000E+02  0.51100000000E-03 0. -1.
    9900012    2    1    2    0    0 -0.40449529470E+02 -0.13216469300E+02 -0.14774089392E+02  0.46142320824E+02  0.10000027927E+02 0.  0.
        -12    1    1    2    0    0  0.40449529470E+02  0.13216469300E+02  0.14774089392E+02  0.45045679176E+02  0.00000000000E+00 0.  1.
         11    1    3    3    0    0 -0.17491885170E+02 -0.98845193897E+01 -0.68150069690E+01  0.21215892406E+02  0.51100000000E-03 0. -1.
        -11    1    3    3    0    0 -0.42306241851E-01  0.31355764572E+00  0.14550292617E+00  0.34825217578E+00  0.51100000000E-03 0.  1.
        -12    1    3    3    0    0 -0.22915338058E+02 -0.36455075563E+01 -0.81045853494E+01  0.24578176242E+02  0.00000000000E+00 0.  1.
</event>
<event>
 7    1  0.2031146E-008  0.4614232E+02  0.7816164E-02  0.1320468E+00
        -11   -1    0    0    0    0  0.00000000000E+00  0.00000000000E+00  0.45593999997E+02  0.45594000000E+02  0.51100000000E-03 0.  1.
         11   -1    0    0    0    0 -0.00000000000E+00 -0.00000000000E+00 -0.45593999997E+02  0.45594000000E+02  0.51100000000E-03 0. -1.
    9900012    2    1    2    0    0 -0.18180944349E+02  0.24989834731E+02 -0.32773082312E+02  0.46142317615E+02  0.99999986677E+01 0.  0.
        -12    1    1    2    0    0  0.18180944349E+02 -0.24989834731E+02  0.32773082312E+02  0.45045682385E+02  0.00000000000E+00 0.  1.
         11    1    3    3    0    0 -0.14083153980E+02  0.17058689355E+02 -0.20934720717E+02  0.30456471238E+02  0.51100000000E-03 0. -1.
        -11    1    3    3    0    0 -0.32319744419E+01  0.36466231994E+01 -0.96207574091E+01  0.10784363353E+02  0.51100000000E-03 0.  1.
         12    1    3    3    0    0 -0.86581592726E+00  0.42845221773E+01 -0.22176041863E+01  0.49014830240E+01  0.00000000000E+00 0. -1.
</event>
<event>
 7    1  0.2031146E-008  0.4614232E+02  0.7816164E-02  0.1320468E+00
        -11   -1    0    0    0    0  0.00000000000E+00  0.00000000000E+00  0.45593999997E+02  0.45594000000E+02  0.51100000000E-03 0.  1.
         11   -1    0    0    0    0 -0.00000000000E+00 -0.00000000000E+00 -0.45593999997E+02  0.45594000000E+02  0.51100000000E-03 0. -1.
    9900012    2    1    2    0    0 -0.12228017515E+02  0.37573582386E+02 -0.21629030826E+02  0.46142317853E+02  0.10000000836E+02 0.  0.
        -12    1    1    2    0    0  0.12228017515E+02 -0.37573582386E+02  0.21629030826E+02  0.45045682147E+02  0.00000000000E+00 0.  1.
         11    1    3    3    0    0 -0.96294819925E+01  0.27221458250E+02 -0.17304662639E+02  0.33662829085E+02  0.51100000000E-03 0. -1.
        -11    1    3    3    0    0  0.10481211300E+01  0.19761176569E+01 -0.21200207706E+01  0.30818966930E+01  0.51100000000E-03 0.  1.
         12    1    3    3    0    0 -0.36466566522E+01  0.83760064791E+01 -0.22043474170E+01  0.93975920752E+01  0.00000000000E+00 0. -1.
</event>
<event>
 7    1  0.2031146E-008  0.4614232E+02  0.7816164E-02  0.1320468E+00
        -11   -1    0    0    0    0  0.00000000000E+00  0.00000000000E+00  0.45593999997E+02  0.45594000000E+02  0.51100000000E-03 0.  1.
         11   -1    0    0    0    0 -0.00000000000E+00 -0.00000000000E+00 -0.45593999997E+02  0.45594000000E+02  0.51100000000E-03 0. -1.
    9900012    2    1    2    0    0  0.18661897337E+01  0.25544502807E+02 -0.37055488642E+02  0.46142317340E+02  0.99999961633E+01 0.  0.
        -12    1    1    2    0    0 -0.18661897337E+01 -0.25544502807E+02  0.37055488642E+02  0.45045682660E+02  0.00000000000E+00 0.  1.
         11    1    3    3    0    0  0.27173043105E+00  0.98435207304E+01 -0.19799021955E+02  0.22112666245E+02  0.51100000000E-03 0. -1.
        -11    1    3    3    0    0 -0.29313139718E+00  0.90564033066E+01 -0.61525079065E+01  0.10952521201E+02  0.51100000000E-03 0.  1.
        -12    1    3    3    0    0  0.18875906998E+01  0.66445787700E+01 -0.11103958780E+02  0.13077129894E+02  0.00000000000E+00 0.  1.
</event>
<event>
 7    1  0.2031146E-008  0.4614232E+02  0.7816164E-02  0.1320468E+00
        -11   -1    0    0    0    0  0.00000000000E+00  0.00000000000E+00  0.45593999997E+02  0.45594000000E+02  0.51100000000E-03 0. -1.
         11   -1    0    0    0    0 -0.00000000000E+00 -0.00000000000E+00 -0.45593999997E+02  0.45594000000E+02  0.51100000000E-03 0.  1.
    9900012    2    1    2    0    0  0.87894263014E+01  0.44179828908E+02  0.46277625152E-01  0.46142318313E+02  0.10000005028E+02 0.  0.
        -12    1    1    2    0    0 -0.87894263014E+01 -0.44179828908E+02 -0.46277625152E-01  0.45045681687E+02  0.00000000000E+00 0.  1.
         11    1    3    3    0    0  0.54544959082E+00  0.34505675318E+01  0.52100751029E+00  0.35320504858E+01  0.51100000000E-03 0. -1.
        -11    1    3    3    0    0 -0.94842176841E+00  0.13520547977E+02  0.23355189561E+01  0.13753522113E+02  0.51100000000E-03 0.  1.
        -12    1    3    3    0    0  0.91923984789E+01  0.27208713399E+02 -0.28102488412E+01  0.28856745714E+02  0.00000000000E+00 0.  1.
</event>
<event>
 7    1  0.2031146E-008  0.4614232E+02  0.7816164E-02  0.1320468E+00
        -11   -1    0    0    0    0  0.00000000000E+00  0.00000000000E+00  0.45593999997E+02  0.45594000000E+02  0.51100000000E-03 0.  1.
         11   -1    0    0    0    0 -0.00000000000E+00 -0.00000000000E+00 -0.45593999997E+02  0.45594000000E+02  0.51100000000E-03 0. -1.
    9900012    2    1    2    0    0  0.60380999836E+01  0.42973352160E+02 -0.12080804641E+02  0.46142317765E+02  0.10000000035E+02 0.  0.
        -12    1    1    2    0    0 -0.60380999836E+01 -0.42973352160E+02  0.12080804641E+02  0.45045682235E+02  0.00000000000E+00 0.  1.
         11    1    3    3    0    0  0.52665909667E+01  0.27556199523E+02 -0.56035503469E+01  0.28609105007E+02  0.51100000000E-03 0. -1.
        -11    1    3    3    0    0  0.12702718925E+01  0.14256432486E+02 -0.41788312080E+01  0.14910469088E+02  0.51100000000E-03 0.  1.
        -12    1    3    3    0    0 -0.49876287568E+00  0.11607201512E+01 -0.22984230861E+01  0.26227436700E+01  0.00000000000E+00 0.  1.
</event>
<event>
 7    1  0.2031146E-008  0.4614232E+02  0.7816164E-02  0.1320468E+00
        -11   -1    0    0    0    0  0.00000000000E+00  0.00000000000E+00  0.45593999997E+02  0.45594000000E+02  0.51100000000E-03 0. -1.
         11   -1    0    0    0    0 -0.00000000000E+00 -0.00000000000E+00 -0.45593999997E+02  0.45594000000E+02  0.51100000000E-03 0.  1.
    9900012    2    1    2    0    0  0.16482409820E+00 -0.18146571334E+02 -0.41228485049E+02  0.46142320989E+02  0.10000029435E+02 0.  0.
        -12    1    1    2    0    0 -0.16482409820E+00  0.18146571334E+02  0.41228485049E+02  0.45045679011E+02  0.00000000000E+00 0.  1.
         11    1    3    3    0    0 -0.24000053178E+01 -0.34902669465E+01 -0.11595743096E+02  0.12345171003E+02  0.51100000000E-03 0. -1.
        -11    1    3    3    0    0  0.21313760295E+00 -0.69378584625E+01 -0.20332176411E+02  0.21484336284E+02  0.51100000000E-03 0.  1.
         12    1    3    3    0    0  0.23516918131E+01 -0.77184459246E+01 -0.93005655416E+01  0.12312813702E+02  0.00000000000E+00 0. -1.
</event>
<event>
 7    1  0.2031146E-008  0.4614232E+02  0.7816164E-02  0.1320468E+00
        -11   -1    0    0    0    0  0.00000000000E+00  0.00000000000E+00  0.45593999997E+02  0.45594000000E+02  0.51100000000E-03 0.  1.
         11   -1    0    0    0    0 -0.00000000000E+00 -0.00000000000E+00 -0.45593999997E+02  0.45594000000E+02  0.51100000000E-03 0. -1.
    9900012    2    1    2    0    0 -0.29689061596E+02 -0.20273610679E+02 -0.27141366514E+02  0.46142318246E+02  0.10000004421E+02 0.  0.
        -12    1    1    2    0    0  0.29689061596E+02  0.20273610679E+02  0.27141366514E+02  0.45045681754E+02  0.00000000000E+00 0.  1.
         11    1    3    3    0    0 -0.20429425243E+02 -0.12797669169E+02 -0.14634516903E+02  0.28201255950E+02  0.51100000000E-03 0. -1.
        -11    1    3    3    0    0 -0.78846169466E+01 -0.34551897598E+01 -0.81290493165E+01  0.11840057589E+02  0.51100000000E-03 0.  1.
        -12    1    3    3    0    0 -0.13750194065E+01 -0.40207517504E+01 -0.43778002950E+01  0.61010047066E+01  0.00000000000E+00 0.  1.
</event>
<event>
 7    1  0.2031146E-008  0.4614232E+02  0.7816164E-02  0.1320468E+00
        -11   -1    0    0    0    0  0.00000000000E+00  0.00000000000E+00  0.45593999997E+02  0.45594000000E+02  0.51100000000E-03 0.  1.
         11   -1    0    0    0    0 -0.00000000000E+00 -0.00000000000E+00 -0.45593999997E+02  0.45594000000E+02  0.51100000000E-03 0. -1.
    9900012    2    1    2    0    0 -0.15130319051E+02  0.10498465785E+02 -0.41109234206E+02  0.46142317905E+02  0.10000001309E+02 0.  0.
        -12    1    1    2    0    0  0.15130319051E+02 -0.10498465785E+02  0.41109234206E+02  0.45045682095E+02  0.00000000000E+00 0.  1.
         11    1    3    3    0    0 -0.30346070932E+01  0.62512773089E+00 -0.10622846934E+02  0.11065464389E+02  0.51100000000E-03 0. -1.
        -11    1    3    3    0    0 -0.11432140796E+02  0.74620683095E+01 -0.19464800144E+02  0.23775086783E+02  0.51100000000E-03 0.  1.
         12    1    3    3    0    0 -0.66357116155E+00  0.24112697448E+01 -0.11021587127E+02  0.11301766732E+02  0.00000000000E+00 0. -1.
</event>
<event>
 7    1  0.2031146E-008  0.4614232E+02  0.7816164E-02  0.1320468E+00
        -11   -1    0    0    0    0  0.00000000000E+00  0.00000000000E+00  0.45593999997E+02  0.45594000000E+02  0.51100000000E-03 0. -1.
         11   -1    0    0    0    0 -0.00000000000E+00 -0.00000000000E+00 -0.45593999997E+02  0.45594000000E+02  0.51100000000E-03 0.  1.
    9900012    2    1    2    0    0  0.39473242199E+01  0.18536231001E+02  0.40864902769E+02  0.46142317560E+02  0.99999981618E+01 0.  0.
        -12    1    1    2    0    0 -0.39473242199E+01 -0.18536231001E+02 -0.40864902769E+02  0.45045682440E+02  0.00000000000E+00 0.  1.
         11    1    3    3    0    0 -0.50898303981E+00  0.11167379123E+02  0.24117031051E+02  0.26581960184E+02  0.51100000000E-03 0. -1.
        -11    1    3    3    0    0  0.12742832704E+01  0.19739733146E+01  0.89363907605E+00  0.25137540769E+01  0.51100000000E-03 0.  1.
         12    1    3    3    0    0  0.31820239893E+01  0.53948785636E+01  0.15854232641E+02  0.17046603299E+02  0.00000000000E+00 0. -1.
</event>
<event>
 7    1  0.2031146E-008  0.4614232E+02  0.7816164E-02  0.1320468E+00
        -11   -1    0    0    0    0  0.00000000000E+00  0.00000000000E+00  0.45593999997E+02  0.45594000000E+02  0.51100000000E-03 0.  1.
         11   -1    0    0    0    0 -0.00000000000E+00 -0.00000000000E+00 -0.45593999997E+02  0.45594000000E+02  0.51100000000E-03 0. -1.
    9900012    2    1    2    0    0  0.10896329841E+02  0.35352025928E+02 -0.25702486318E+02  0.46142317142E+02  0.99999943556E+01 0.  0.
        -12    1    1    2    0    0 -0.10896329841E+02 -0.35352025928E+02  0.25702486318E+02  0.45045682858E+02  0.00000000000E+00 0.  1.
         11    1    3    3    0    0  0.40167667768E+01  0.21445310593E+02 -0.12005048446E+02  0.24902950633E+02  0.51100000000E-03 0.  1.
        -11    1    3    3    0    0  0.22847236002E+01  0.72874849704E+01 -0.39680330826E+01  0.86065490139E+01  0.51100000000E-03 0. -1.
         12    1    3    3    0    0  0.45948394637E+01  0.66192303648E+01 -0.97294047896E+01  0.12632817496E+02  0.00000000000E+00 0. -1.
</event>
<event>
 7    1  0.2031146E-008  0.4614232E+02  0.7816164E-02  0.1320468E+00
        -11   -1    0    0    0    0  0.00000000000E+00  0.00000000000E+00  0.45593999997E+02  0.45594000000E+02  0.51100000000E-03 0.  1.
         11   -1    0    0    0    0 -0.00000000000E+00 -0.00000000000E+00 -0.45593999997E+02  0.45594000000E+02  0.51100000000E-03 0. -1.
    9900012    2    1    2    0    0 -0.17325280809E+02  0.24951217072E+01 -0.41505692514E+02  0.46142317649E+02  0.99999989743E+01 0.  0.
        -12    1    1    2    0    0  0.17325280809E+02 -0.24951217072E+01  0.41505692514E+02  0.45045682351E+02  0.00000000000E+00 0.  1.
         11    1    3    3    0    0 -0.26700449294E+01 -0.18470556401E+01 -0.59046036148E+01  0.67383305478E+01  0.51100000000E-03 0. -1.
        -11    1    3    3    0    0 -0.68934692407E+01 -0.16328413153E+01 -0.15598409317E+02  0.17131738453E+02  0.51100000000E-03 0.  1.
         12    1    3    3    0    0 -0.77617666387E+01  0.59750186626E+01 -0.20002679582E+02  0.22272248648E+02  0.00000000000E+00 0. -1.
</event>
<event>
 7    1  0.2031146E-008  0.4614232E+02  0.7816164E-02  0.1320468E+00
        -11   -1    0    0    0    0  0.00000000000E+00  0.00000000000E+00  0.45593999997E+02  0.45594000000E+02  0.51100000000E-03 0.  1.
         11   -1    0    0    0    0 -0.00000000000E+00 -0.00000000000E+00 -0.45593999997E+02  0.45594000000E+02  0.51100000000E-03 0. -1.
    9900012    2    1    2    0    0 -0.17713992686E+02  0.19652916183E+02 -0.36456700824E+02  0.46142315564E+02  0.99999799617E+01 0.  0.
        -12    1    1    2    0    0  0.17713992686E+02 -0.19652916183E+02  0.36456700824E+02  0.45045684436E+02  0.00000000000E+00 0.  1.
         11    1    3    3    0    0 -0.76606960259E+01  0.43947065143E+01 -0.11189908516E+02  0.14255306444E+02  0.51100000000E-03 0.  1.
        -11    1    3    3    0    0 -0.97760137203E+01  0.97482875820E+01 -0.19639931471E+02  0.24006800360E+02  0.51100000000E-03 0. -1.
        -12    1    3    3    0    0 -0.27728293964E+00  0.55099220871E+01 -0.56268608364E+01  0.78802087603E+01  0.00000000000E+00 0.  1.
</event>
<event>
 7    1  0.2031146E-008  0.4614232E+02  0.7816164E-02  0.1320468E+00
        -11   -1    0    0    0    0  0.00000000000E+00  0.00000000000E+00  0.45593999997E+02  0.45594000000E+02  0.51100000000E-03 0. -1.
         11   -1    0    0    0    0 -0.00000000000E+00 -0.00000000000E+00 -0.45593999997E+02  0.45594000000E+02  0.51100000000E-03 0.  1.
    9900012    2    1    2    0    0 -0.31330753841E+02 -0.32156528949E+02  0.36681125257E+01  0.46142317190E+02  0.99999947937E+01 0.  0.
        -12    1    1    2    0    0  0.31330753841E+02  0.32156528949E+02 -0.36681125257E+01  0.45045682810E+02  0.00000000000E+00 0.  1.
         11    1    3    3    0    0 -0.13383632064E+02 -0.19713422384E+02  0.44122918729E+01  0.24232394623E+02  0.51100000000E-03 0. -1.
        -11    1    3    3    0    0 -0.54246832820E+01 -0.43419747948E+01 -0.80943324055E+00  0.69953639119E+01  0.51100000000E-03 0.  1.
        -12    1    3    3    0    0 -0.12522438495E+02 -0.81011317702E+01  0.65253893438E-01  0.14914558656E+02  0.00000000000E+00 0.  1.
</event>
<event>
 7    1  0.2031146E-008  0.4614232E+02  0.7816164E-02  0.1320468E+00
        -11   -1    0    0    0    0  0.00000000000E+00  0.00000000000E+00  0.45593999997E+02  0.45594000000E+02  0.51100000000E-03 0.  1.
         11   -1    0    0    0    0 -0.00000000000E+00 -0.00000000000E+00 -0.45593999997E+02  0.45594000000E+02  0.51100000000E-03 0. -1.
    9900012    2    1    2    0    0 -0.68085064826E+01 -0.19056730133E+02 -0.40244240058E+02  0.46142316724E+02  0.99999905447E+01 0.  0.
        -12    1    1    2    0    0  0.68085064826E+01  0.19056730133E+02  0.40244240058E+02  0.45045683276E+02  0.00000000000E+00 0.  1.
         11    1    3    3    0    0  0.92126998198E+00 -0.78466954040E+01 -0.17505653455E+02  0.19205917585E+02  0.51100000000E-03 0. -1.
        -11    1    3    3    0    0 -0.17010174616E+01 -0.23700626934E+01 -0.18156147371E+01  0.34361482375E+01  0.51100000000E-03 0.  1.
         12    1    3    3    0    0 -0.60287590030E+01 -0.88399720360E+01 -0.20922971866E+02  0.23500250902E+02  0.00000000000E+00 0. -1.
</event>
<event>
 7    1  0.2031146E-008  0.4614231E+02  0.7816164E-02  0.1320468E+00
        -11   -1    0    0    0    0  0.00000000000E+00  0.00000000000E+00  0.45593999997E+02  0.45594000000E+02  0.51100000000E-03 0.  1.
         11   -1    0    0    0    0 -0.00000000000E+00 -0.00000000000E+00 -0.45593999997E+02  0.45594000000E+02  0.51100000000E-03 0. -1.
    9900012    2    1    2    0    0  0.16524345483E+02  0.20532009804E+02 -0.36530767037E+02  0.46142308080E+02  0.99999117219E+01 0.  0.
        -12    1    1    2    0    0 -0.16524345483E+02 -0.20532009804E+02  0.36530767037E+02  0.45045691920E+02  0.00000000000E+00 0.  1.
         11    1    3    3    0    0  0.85130926293E+01  0.11524472993E+02 -0.23527413631E+02  0.27546785952E+02  0.51100000000E-03 0. -1.
        -11    1    3    3    0    0  0.17739822762E+00  0.39175518908E+01 -0.32929486353E+01  0.51207610688E+01  0.51100000000E-03 0.  1.
         12    1    3    3    0    0  0.78338546263E+01  0.50899849202E+01 -0.97104047704E+01  0.13474761059E+02  0.00000000000E+00 0. -1.
</event>
<event>
 7    1  0.2031146E-008  0.4614232E+02  0.7816164E-02  0.1320468E+00
        -11   -1    0    0    0    0  0.00000000000E+00  0.00000000000E+00  0.45593999997E+02  0.45594000000E+02  0.51100000000E-03 0.  1.
         11   -1    0    0    0    0 -0.00000000000E+00 -0.00000000000E+00 -0.45593999997E+02  0.45594000000E+02  0.51100000000E-03 0. -1.
    9900012    2    1    2    0    0 -0.67513145278E+01  0.44218231213E+02 -0.53180142360E+01  0.46142317689E+02  0.99999993419E+01 0.  0.
        -12    1    1    2    0    0  0.67513145278E+01 -0.44218231213E+02  0.53180142360E+01  0.45045682311E+02  0.00000000000E+00 0.  1.
         11    1    3    3    0    0 -0.46525900254E+01  0.37255177801E+02 -0.51340206993E+01  0.37893970968E+02  0.51100000000E-03 0. -1.
        -11    1    3    3    0    0 -0.20092988904E+01  0.61931219015E+01 -0.15362459433E+01  0.66897004998E+01  0.51100000000E-03 0.  1.
        -12    1    3    3    0    0 -0.89425612002E-01  0.76993151024E+00  0.13522524066E+01  0.15586462208E+01  0.00000000000E+00 0.  1.
</event>
<event>
 7    1  0.2031146E-008  0.4614232E+02  0.7816164E-02  0.1320468E+00
        -11   -1    0    0    0    0  0.00000000000E+00  0.00000000000E+00  0.45593999997E+02  0.45594000000E+02  0.51100000000E-03 0.  1.
         11   -1    0    0    0    0 -0.00000000000E+00 -0.00000000000E+00 -0.45593999997E+02  0.45594000000E+02  0.51100000000E-03 0. -1.
    9900012    2    1    2    0    0 -0.33513067258E+02  0.62060450007E+01 -0.29452894373E+02  0.46142315872E+02  0.99999827736E+01 0.  0.
        -12    1    1    2    0    0  0.33513067258E+02 -0.62060450007E+01  0.29452894373E+02  0.45045684128E+02  0.00000000000E+00 0.  1.
         11    1    3    3    0    0 -0.18975572290E+01  0.27363221404E+01 -0.39004339263E+01  0.51285053737E+01  0.51100000000E-03 0. -1.
        -11    1    3    3    0    0 -0.70616257787E+01  0.71740290384E+00 -0.35815310656E+01  0.79503830474E+01  0.51100000000E-03 0.  1.
         12    1    3    3    0    0 -0.24553884250E+02  0.27523199565E+01 -0.21970929381E+02  0.33063427451E+02  0.00000000000E+00 0. -1.
</event>
<event>
 7    1  0.2031146E-008  0.4614232E+02  0.7816164E-02  0.1320468E+00
        -11   -1    0    0    0    0  0.00000000000E+00  0.00000000000E+00  0.45593999997E+02  0.45594000000E+02  0.51100000000E-03 0.  1.
         11   -1    0    0    0    0 -0.00000000000E+00 -0.00000000000E+00 -0.45593999997E+02  0.45594000000E+02  0.51100000000E-03 0. -1.
    9900012    2    1    2    0    0 -0.19677434075E+02 -0.37286159912E+02  0.15863620956E+02  0.46142316493E+02  0.99999884378E+01 0.  0.
        -12    1    1    2    0    0  0.19677434075E+02  0.37286159912E+02 -0.15863620956E+02  0.45045683507E+02  0.00000000000E+00 0.  1.
         11    1    3    3    0    0 -0.10439142538E+02 -0.21989105428E+02  0.74899022384E+01  0.25467530117E+02  0.51100000000E-03 0. -1.
        -11    1    3    3    0    0 -0.31535949305E+01 -0.56682475161E+01 -0.85310172200E-01  0.64870231212E+01  0.51100000000E-03 0.  1.
         12    1    3    3    0    0 -0.60846966064E+01 -0.96288069677E+01  0.84590288899E+01  0.14187763255E+02  0.00000000000E+00 0. -1.
</event>
<event>
 7    1  0.2051778E-008  0.4614232E+02  0.7816164E-02  0.1320468E+00
        -11   -1    0    0    0    0  0.00000000000E+00  0.00000000000E+00  0.45593999997E+02  0.45594000000E+02  0.51100000000E-03 0.  1.
         11   -1    0    0    0    0 -0.00000000000E+00 -0.00000000000E+00 -0.45593999997E+02  0.45594000000E+02  0.51100000000E-03 0. -1.
    9900012    2    1    2    0    0 -0.19192411708E+02  0.32547718273E+02 -0.24523680635E+02  0.46142317145E+02  0.99999943847E+01 0.  0.
        -12    1    1    2    0    0  0.19192411708E+02 -0.32547718273E+02  0.24523680635E+02  0.45045682855E+02  0.00000000000E+00 0.  1.
         11    1    3    3    0    0 -0.12429164663E+02  0.18206713134E+02 -0.17202961813E+02  0.27962661404E+02  0.51100000000E-03 0. -1.
        -11    1    3    3    0    0 -0.70044950928E+01  0.10337947766E+02 -0.65314419898E+01  0.14092403991E+02  0.51100000000E-03 0.  1.
        -12    1    3    3    0    0  0.24124804844E+00  0.40030573732E+01 -0.78927683175E+00  0.40872517504E+01  0.00000000000E+00 0.  1.
</event>
<event>
 7    1  0.2031146E-008  0.4614232E+02  0.7816164E-02  0.1320468E+00
        -11   -1    0    0    0    0  0.00000000000E+00  0.00000000000E+00  0.45593999997E+02  0.45594000000E+02  0.51100000000E-03 0.  1.
         11   -1    0    0    0    0 -0.00000000000E+00 -0.00000000000E+00 -0.45593999997E+02  0.45594000000E+02  0.51100000000E-03 0. -1.
    9900012    2    1    2    0    0  0.23380904736E+02 -0.25702365757E+02 -0.28667670416E+02  0.46142316091E+02  0.99999847689E+01 0.  0.
        -12    1    1    2    0    0 -0.23380904736E+02  0.25702365757E+02  0.28667670416E+02  0.45045683909E+02  0.00000000000E+00 0.  1.
         11    1    3    3    0    0  0.16928239971E+02 -0.14608070914E+02 -0.22509435196E+02  0.31727523027E+02  0.51100000000E-03 0. -1.
        -11    1    3    3    0    0  0.16584962853E+01 -0.50677102857E+01 -0.25023462059E+01  0.58901641967E+01  0.51100000000E-03 0.  1.
         12    1    3    3    0    0  0.47941684798E+01 -0.60265845574E+01 -0.36558890143E+01  0.85246288673E+01  0.00000000000E+00 0. -1.
</event>
<event>
 7    1  0.2031146E-008  0.4614232E+02  0.7816164E-02  0.1320468E+00
        -11   -1    0    0    0    0  0.00000000000E+00  0.00000000000E+00  0.45593999997E+02  0.45594000000E+02  0.51100000000E-03 0.  1.
         11   -1    0    0    0    0 -0.00000000000E+00 -0.00000000000E+00 -0.45593999997E+02  0.45594000000E+02  0.51100000000E-03 0. -1.
    9900012    2    1    2    0    0 -0.36642683176E+02  0.12123075246E+02 -0.23226240761E+02  0.46142318258E+02  0.10000004527E+02 0.  0.
        -12    1    1    2    0    0  0.36642683176E+02 -0.12123075246E+02  0.23226240761E+02  0.45045681742E+02  0.00000000000E+00 0.  1.
         11    1    3    3    0    0 -0.54865529666E+01  0.32523456803E+01 -0.20871817828E+01  0.67109123028E+01  0.51100000000E-03 0. -1.
        -11    1    3    3    0    0 -0.20041187547E+01  0.28839498936E+01 -0.18873411519E+01  0.39869431719E+01  0.51100000000E-03 0.  1.
         12    1    3    3    0    0 -0.29152011455E+02  0.59867796718E+01 -0.19251717826E+02  0.35444462783E+02  0.00000000000E+00 0. -1.
</event>
<event>
 7    1  0.2031146E-008  0.4614232E+02  0.7816164E-02  0.1320468E+00
        -11   -1    0    0    0    0  0.00000000000E+00  0.00000000000E+00  0.45593999997E+02  0.45594000000E+02  0.51100000000E-03 0.  1.
         11   -1    0    0    0    0 -0.00000000000E+00 -0.00000000000E+00 -0.45593999997E+02  0.45594000000E+02  0.51100000000E-03 0. -1.
    9900012    2    1    2    0    0  0.39086751358E+02  0.90628359710E+01 -0.20474486019E+02  0.46142315353E+02  0.99999780381E+01 0.  0.
        -12    1    1    2    0    0 -0.39086751358E+02 -0.90628359710E+01  0.20474486019E+02  0.45045684647E+02  0.00000000000E+00 0.  1.
         11    1    3    3    0    0  0.21895581697E+02  0.58590232936E+01 -0.14820401096E+02  0.27081154715E+02  0.51100000000E-03 0. -1.
        -11    1    3    3    0    0  0.67678829600E+01  0.34948969825E+01 -0.11528045260E+01  0.77037330701E+01  0.51100000000E-03 0.  1.
         12    1    3    3    0    0  0.10423286702E+02 -0.29108430514E+00 -0.45012803974E+01  0.11357427568E+02  0.00000000000E+00 0. -1.
</event>
<event>
 7    1  0.2031146E-008  0.4614232E+02  0.7816164E-02  0.1320468E+00
        -11   -1    0    0    0    0  0.00000000000E+00  0.00000000000E+00  0.45593999997E+02  0.45594000000E+02  0.51100000000E-03 0.  1.
         11   -1    0    0    0    0 -0.00000000000E+00 -0.00000000000E+00 -0.45593999997E+02  0.45594000000E+02  0.51100000000E-03 0. -1.
    9900012    2    1    2    0    0  0.27131379736E+02  0.82225461645E+01 -0.35005592721E+02  0.46142317037E+02  0.99999934008E+01 0.  0.
        -12    1    1    2    0    0 -0.27131379736E+02 -0.82225461645E+01  0.35005592721E+02  0.45045682963E+02  0.00000000000E+00 0.  1.
         11    1    3    3    0    0  0.16908500823E+02  0.65956460903E+01 -0.17515603267E+02  0.25222932136E+02  0.51100000000E-03 0.  1.
        -11    1    3    3    0    0  0.52297188842E+01  0.28503075055E+01 -0.12008382023E+02  0.13404307202E+02  0.51100000000E-03 0. -1.
        -12    1    3    3    0    0  0.49931600287E+01 -0.12234074313E+01 -0.54816074305E+01  0.75150777000E+01  0.00000000000E+00 0.  1.
</event>
<event>
 7    1  0.2031146E-008  0.4614232E+02  0.7816164E-02  0.1320468E+00
        -11   -1    0    0    0    0  0.00000000000E+00  0.00000000000E+00  0.45593999997E+02  0.45594000000E+02  0.51100000000E-03 0.  1.
         11   -1    0    0    0    0 -0.00000000000E+00 -0.00000000000E+00 -0.45593999997E+02  0.45594000000E+02  0.51100000000E-03 0. -1.
    9900012    2    1    2    0    0 -0.15325585124E+02  0.38622805086E+02 -0.17393068309E+02  0.46142318106E+02  0.10000003141E+02 0.  0.
        -12    1    1    2    0    0  0.15325585124E+02 -0.38622805086E+02  0.17393068309E+02  0.45045681894E+02  0.00000000000E+00 0.  1.
         11    1    3    3    0    0 -0.95875468413E+00  0.61711911624E+01 -0.56033675390E+01  0.83905029018E+01  0.51100000000E-03 0. -1.
        -11    1    3    3    0    0 -0.22045931764E+01  0.10815475299E+02 -0.33223070977E+01  0.11527031783E+02  0.51100000000E-03 0.  1.
         12    1    3    3    0    0 -0.12162237264E+02  0.21636138625E+02 -0.84673936728E+01  0.26224783421E+02  0.00000000000E+00 0. -1.
</event>
<event>
 7    1  0.2031146E-008  0.4614231E+02  0.7816164E-02  0.1320468E+00
        -11   -1    0    0    0    0  0.00000000000E+00  0.00000000000E+00  0.45593999997E+02  0.45594000000E+02  0.51100000000E-03 0. -1.
         11   -1    0    0    0    0 -0.00000000000E+00 -0.00000000000E+00 -0.45593999997E+02  0.45594000000E+02  0.51100000000E-03 0.  1.
    9900012    2    1    2    0    0  0.26743294439E+02 -0.33408847466E+02  0.14062679138E+02  0.46142313958E+02  0.99999653174E+01 0.  0.
        -12    1    1    2    0    0 -0.26743294439E+02  0.33408847466E+02 -0.14062679138E+02  0.45045686042E+02  0.00000000000E+00 0.  1.
         11    1    3    3    0    0  0.57629664175E+01 -0.62412026428E+01  0.47663878970E+01  0.97407826279E+01  0.51100000000E-03 0. -1.
        -11    1    3    3    0    0  0.52026033913E+01 -0.78280385912E+01 -0.89544795875E+00  0.94417740674E+01  0.51100000000E-03 0.  1.
        -12    1    3    3    0    0  0.15777724631E+02 -0.19339606232E+02  0.10191739200E+02  0.26959757262E+02  0.00000000000E+00 0.  1.
</event>
<event>
 7    1  0.2031146E-008  0.4614232E+02  0.7816164E-02  0.1320468E+00
        -11   -1    0    0    0    0  0.00000000000E+00  0.00000000000E+00  0.45593999997E+02  0.45594000000E+02  0.51100000000E-03 0.  1.
         11   -1    0    0    0    0 -0.00000000000E+00 -0.00000000000E+00 -0.45593999997E+02  0.45594000000E+02  0.51100000000E-03 0. -1.
    9900012    2    1    2    0    0  0.41100715111E+01  0.75957228386E+01 -0.44210019452E+02  0.46142317486E+02  0.99999974892E+01 0.  0.
        -12    1    1    2    0    0 -0.41100715111E+01 -0.75957228386E+01  0.44210019452E+02  0.45045682514E+02  0.00000000000E+00 0.  1.
         11    1    3    3    0    0  0.46232680218E+01  0.61399699317E+01 -0.24209290628E+02  0.25400070688E+02  0.51100000000E-03 0. -1.
        -11    1    3    3    0    0 -0.26233746748E+01 -0.13427732048E+00 -0.12926683787E+02  0.13190878631E+02  0.51100000000E-03 0.  1.
        -12    1    3    3    0    0  0.21101781640E+01  0.15900302274E+01 -0.70740450366E+01  0.75513681666E+01  0.00000000000E+00 0.  1.
</event>
<event>
 7    1  0.2031146E-008  0.4614232E+02  0.7816164E-02  0.1320468E+00
        -11   -1    0    0    0    0  0.00000000000E+00  0.00000000000E+00  0.45593999997E+02  0.45594000000E+02  0.51100000000E-03 0. -1.
         11   -1    0    0    0    0 -0.00000000000E+00 -0.00000000000E+00 -0.45593999997E+02  0.45594000000E+02  0.51100000000E-03 0.  1.
    9900012    2    1    2    0    0 -0.22529511140E+02 -0.19741051512E+02  0.33642612505E+02  0.46142319151E+02  0.10000012671E+02 0.  0.
        -12    1    1    2    0    0  0.22529511140E+02  0.19741051512E+02 -0.33642612505E+02  0.45045680849E+02  0.00000000000E+00 0.  1.
         11    1    3    3    0    0 -0.46312745824E+01 -0.94269711148E+01  0.10755396612E+02  0.15033131584E+02  0.51100000000E-03 0. -1.
        -11    1    3    3    0    0 -0.28388413567E+01 -0.18798646694E+01  0.17763994111E+01  0.38403784388E+01  0.51100000000E-03 0.  1.
        -12    1    3    3    0    0 -0.15059395201E+02 -0.84342157282E+01  0.21110816481E+02  0.27268809128E+02  0.00000000000E+00 0.  1.
</event>
<event>
 7    1  0.2229382E-008  0.4614232E+02  0.7816164E-02  0.1320468E+00
        -11   -1    0    0    0    0  0.00000000000E+00  0.00000000000E+00  0.45593999997E+02  0.45594000000E+02  0.51100000000E-03 0. -1.
         11   -1    0    0    0    0 -0.00000000000E+00 -0.00000000000E+00 -0.45593999997E+02  0.45594000000E+02  0.51100000000E-03 0.  1.
    9900012    2    1    2    0    0  0.22320779750E+02 -0.38000661645E+02 -0.93191050017E+01  0.46142320828E+02  0.10000027962E+02 0.  0.
        -12    1    1    2    0    0 -0.22320779750E+02  0.38000661645E+02  0.93191050017E+01  0.45045679172E+02  0.00000000000E+00 0.  1.
         11    1    3    3    0    0  0.56465478976E+01 -0.75456897162E+01 -0.15798316436E+01  0.95559826672E+01  0.51100000000E-03 0. -1.
        -11    1    3    3    0    0  0.15202382788E+02 -0.29436423557E+02 -0.90776194458E+01  0.34351399525E+02  0.51100000000E-03 0.  1.
        -12    1    3    3    0    0  0.14718490642E+01 -0.10185483714E+01  0.13383460877E+01  0.22349386352E+01  0.00000000000E+00 0.  1.
</event>
<event>
 7    1  0.2031146E-008  0.4614232E+02  0.7816164E-02  0.1320468E+00
        -11   -1    0    0    0    0  0.00000000000E+00  0.00000000000E+00  0.45593999997E+02  0.45594000000E+02  0.51100000000E-03 0. -1.
         11   -1    0    0    0    0 -0.00000000000E+00 -0.00000000000E+00 -0.45593999997E+02  0.45594000000E+02  0.51100000000E-03 0.  1.
    9900012    2    1    2    0    0  0.23800303354E+02  0.37347155348E+02  0.82370454551E+01  0.46142319073E+02  0.10000011966E+02 0.  0.
        -12    1    1    2    0    0 -0.23800303354E+02 -0.37347155348E+02 -0.82370454551E+01  0.45045680927E+02  0.00000000000E+00 0.  1.
         11    1    3    3    0    0  0.14462364934E+02  0.19281476543E+02  0.21641231522E+01  0.24199561286E+02  0.51100000000E-03 0. -1.
        -11    1    3    3    0    0  0.50128414528E+01  0.56384332494E+01  0.42484053687E+01  0.86584904791E+01  0.51100000000E-03 0.  1.
         12    1    3    3    0    0  0.43250969668E+01  0.12427245555E+02  0.18245169343E+01  0.13284267308E+02  0.00000000000E+00 0. -1.
</event>
<event>
 7    1  0.2031146E-008  0.4614232E+02  0.7816164E-02  0.1320468E+00
        -11   -1    0    0    0    0  0.00000000000E+00  0.00000000000E+00  0.45593999997E+02  0.45594000000E+02  0.51100000000E-03 0. -1.
         11   -1    0    0    0    0 -0.00000000000E+00 -0.00000000000E+00 -0.45593999997E+02  0.45594000000E+02  0.51100000000E-03 0.  1.
    9900012    2    1    2    0    0 -0.18669582079E+02  0.38754486670E+02  0.13365994120E+02  0.46142319509E+02  0.10000015937E+02 0.  0.
        -12    1    1    2    0    0  0.18669582079E+02 -0.38754486670E+02 -0.13365994120E+02  0.45045680491E+02  0.00000000000E+00 0.  1.
         11    1    3    3    0    0 -0.18896835042E+00  0.67877586100E+00 -0.34294166209E+00  0.78361658460E+00  0.51100000000E-03 0. -1.
        -11    1    3    3    0    0 -0.27160806659E+01  0.24019474434E+01 -0.85704024313E+00  0.37257165678E+01  0.51100000000E-03 0.  1.
         12    1    3    3    0    0 -0.15764533063E+02  0.35673763366E+02  0.14565976026E+02  0.41632986356E+02  0.00000000000E+00 0. -1.
</event>
<event>
 7    1  0.2031146E-008  0.4614232E+02  0.7816164E-02  0.1320468E+00
        -11   -1    0    0    0    0  0.00000000000E+00  0.00000000000E+00  0.45593999997E+02  0.45594000000E+02  0.51100000000E-03 0.  1.
         11   -1    0    0    0    0 -0.00000000000E+00 -0.00000000000E+00 -0.45593999997E+02  0.45594000000E+02  0.51100000000E-03 0. -1.
    9900012    2    1    2    0    0  0.29039318960E+02 -0.26307330097E+02 -0.22220616631E+02  0.46142318010E+02  0.10000002271E+02 0.  0.
        -12    1    1    2    0    0 -0.29039318960E+02  0.26307330097E+02  0.22220616631E+02  0.45045681990E+02  0.00000000000E+00 0.  1.
         11    1    3    3    0    0  0.58505681984E+01 -0.97983077566E+01 -0.49365642880E+01  0.12434052049E+02  0.51100000000E-03 0.  1.
        -11    1    3    3    0    0  0.23099976545E+02 -0.16738914312E+02 -0.17421421204E+02  0.33426128788E+02  0.51100000000E-03 0. -1.
        -12    1    3    3    0    0  0.88774216283E-01  0.22989197188E+00  0.13736886100E+00  0.28213717264E+00  0.00000000000E+00 0.  1.
</event>
<event>
 7    1  0.2031146E-008  0.4614232E+02  0.7816164E-02  0.1320468E+00
        -11   -1    0    0    0    0  0.00000000000E+00  0.00000000000E+00  0.45593999997E+02  0.45594000000E+02  0.51100000000E-03 0.  1.
         11   -1    0    0    0    0 -0.00000000000E+00 -0.00000000000E+00 -0.45593999997E+02  0.45594000000E+02  0.51100000000E-03 0. -1.
    9900012    2    1    2    0    0 -0.14080161271E+02  0.36696993547E+02 -0.22004389071E+02  0.46142318573E+02  0.10000007403E+02 0.  0.
        -12    1    1    2    0    0  0.14080161271E+02 -0.36696993547E+02  0.22004389071E+02  0.45045681427E+02  0.00000000000E+00 0.  1.
         11    1    3    3    0    0 -0.51611604224E+01  0.12465654664E+02 -0.71255301066E+01  0.15257893127E+02  0.51100000000E-03 0. -1.
        -11    1    3    3    0    0 -0.20712810406E+01  0.16561959016E+02 -0.10428528104E+02  0.19681028690E+02  0.51100000000E-03 0.  1.
        -12    1    3    3    0    0 -0.68477198080E+01  0.76693798667E+01 -0.44503308607E+01  0.11203396756E+02  0.00000000000E+00 0.  1.
</event>
<event>
 7    1  0.2031146E-008  0.4614232E+02  0.7816164E-02  0.1320468E+00
        -11   -1    0    0    0    0  0.00000000000E+00  0.00000000000E+00  0.45593999997E+02  0.45594000000E+02  0.51100000000E-03 0.  1.
         11   -1    0    0    0    0 -0.00000000000E+00 -0.00000000000E+00 -0.45593999997E+02  0.45594000000E+02  0.51100000000E-03 0. -1.
    9900012    2    1    2    0    0  0.47530403028E+01  0.13538219266E+02 -0.42699400371E+02  0.46142316909E+02  0.99999922338E+01 0.  0.
        -12    1    1    2    0    0 -0.47530403028E+01 -0.13538219266E+02  0.42699400371E+02  0.45045683091E+02  0.00000000000E+00 0.  1.
         11    1    3    3    0    0  0.31420191101E+01  0.48012580926E+01 -0.14291069358E+02  0.15399968410E+02  0.51100000000E-03 0. -1.
        -11    1    3    3    0    0  0.12452526405E+01  0.85874284966E+01 -0.15006077098E+02  0.17334270462E+02  0.51100000000E-03 0.  1.
        -12    1    3    3    0    0  0.36576855226E+00  0.14953267717E+00 -0.13402253915E+02  0.13408078037E+02  0.00000000000E+00 0.  1.
</event>
<event>
 7    1  0.2031146E-008  0.4614231E+02  0.7816164E-02  0.1320468E+00
        -11   -1    0    0    0    0  0.00000000000E+00  0.00000000000E+00  0.45593999997E+02  0.45594000000E+02  0.51100000000E-03 0.  1.
         11   -1    0    0    0    0 -0.00000000000E+00 -0.00000000000E+00 -0.45593999997E+02  0.45594000000E+02  0.51100000000E-03 0. -1.
    9900012    2    1    2    0    0  0.80727453798E+01 -0.10915296085E+02 -0.42951147564E+02  0.46142312263E+02  0.99999498682E+01 0.  0.
        -12    1    1    2    0    0 -0.80727453798E+01  0.10915296085E+02  0.42951147564E+02  0.45045687737E+02  0.00000000000E+00 0.  1.
         11    1    3    3    0    0  0.26301142162E+01 -0.30349090986E+01 -0.54895965417E+01  0.68017530445E+01  0.51100000000E-03 0.  1.
        -11    1    3    3    0    0  0.63771622238E+01 -0.30302498007E+01 -0.21129232246E+02  0.22277680926E+02  0.51100000000E-03 0. -1.
         12    1    3    3    0    0 -0.93453106015E+00 -0.48501371860E+01 -0.16332318776E+02  0.17062878293E+02  0.00000000000E+00 0. -1.
</event>
<event>
 7    1  0.2031146E-008  0.4614232E+02  0.7816164E-02  0.1320468E+00
        -11   -1    0    0    0    0  0.00000000000E+00  0.00000000000E+00  0.45593999997E+02  0.45594000000E+02  0.51100000000E-03 0.  1.
         11   -1    0    0    0    0 -0.00000000000E+00 -0.00000000000E+00 -0.45593999997E+02  0.45594000000E+02  0.51100000000E-03 0. -1.
    9900012    2    1    2    0    0 -0.28215761197E+02  0.89211133115E+00 -0.35102545059E+02  0.46142315277E+02  0.99999773493E+01 0.  0.
        -12    1    1    2    0    0  0.28215761197E+02 -0.89211133115E+00  0.35102545059E+02  0.45045684723E+02  0.00000000000E+00 0.  1.
         11    1    3    3    0    0 -0.63429525394E+01  0.32745639826E+00 -0.26724999759E+01  0.68907569245E+01  0.51100000000E-03 0.  1.
        -11    1    3    3    0    0 -0.99616528216E+01 -0.10905979208E+01 -0.13240261078E+02  0.16605072853E+02  0.51100000000E-03 0. -1.
        -12    1    3    3    0    0 -0.11911155836E+02  0.16552528537E+01 -0.19189784005E+02  0.22646485500E+02  0.00000000000E+00 0.  1.
</event>
<event>
 7    1  0.2031146E-008  0.4614232E+02  0.7816164E-02  0.1320468E+00
        -11   -1    0    0    0    0  0.00000000000E+00  0.00000000000E+00  0.45593999997E+02  0.45594000000E+02  0.51100000000E-03 0. -1.
         11   -1    0    0    0    0 -0.00000000000E+00 -0.00000000000E+00 -0.45593999997E+02  0.45594000000E+02  0.51100000000E-03 0.  1.
    9900012    2    1    2    0    0 -0.37877457616E+02  0.22037587668E+02  0.10428627531E+02  0.46142319432E+02  0.10000015236E+02 0.  0.
        -12    1    1    2    0    0  0.37877457616E+02 -0.22037587668E+02 -0.10428627531E+02  0.45045680568E+02  0.00000000000E+00 0.  1.
         11    1    3    3    0    0 -0.15780832991E+02  0.92820783193E+01 -0.25536517575E+00  0.18310021284E+02  0.51100000000E-03 0. -1.
        -11    1    3    3    0    0 -0.20075612688E+01  0.14456628937E+01  0.20560443914E+01  0.32167626973E+01  0.51100000000E-03 0.  1.
         12    1    3    3    0    0 -0.20089063357E+02  0.11309846455E+02  0.86279483152E+01  0.24615535450E+02  0.00000000000E+00 0. -1.
</event>
<event>
 7    1  0.2031146E-008  0.4614232E+02  0.7816164E-02  0.1320468E+00
        -11   -1    0    0    0    0  0.00000000000E+00  0.00000000000E+00  0.45593999997E+02  0.45594000000E+02  0.51100000000E-03 0.  1.
         11   -1    0    0    0    0 -0.00000000000E+00 -0.00000000000E+00 -0.45593999997E+02  0.45594000000E+02  0.51100000000E-03 0. -1.
    9900012    2    1    2    0    0  0.44552719158E+02 -0.19838936143E+01 -0.63429432090E+01  0.46142317112E+02  0.99999940842E+01 0.  0.
        -12    1    1    2    0    0 -0.44552719158E+02  0.19838936143E+01  0.63429432090E+01  0.45045682888E+02  0.00000000000E+00 0.  1.
         11    1    3    3    0    0  0.20602109346E+02 -0.35125788543E+01 -0.99061908482E+00  0.20922868975E+02  0.51100000000E-03 0. -1.
        -11    1    3    3    0    0  0.20366074251E+02 -0.11410241537E+00 -0.28892280466E+01  0.20570309641E+02  0.51100000000E-03 0.  1.
         12    1    3    3    0    0  0.35845355605E+01  0.16427876554E+01 -0.24630960776E+01  0.46491384958E+01  0.00000000000E+00 0. -1.
</event>
<event>
 7    1  0.2031146E-008  0.4614232E+02  0.7816164E-02  0.1320468E+00
        -11   -1    0    0    0    0  0.00000000000E+00  0.00000000000E+00  0.45593999997E+02  0.45594000000E+02  0.51100000000E-03 0.  1.
         11   -1    0    0    0    0 -0.00000000000E+00 -0.00000000000E+00 -0.45593999997E+02  0.45594000000E+02  0.51100000000E-03 0. -1.
    9900012    2    1    2    0    0  0.11322844449E+02  0.40353518054E+02 -0.16507581052E+02  0.46142318099E+02  0.10000003081E+02 0.  0.
        -12    1    1    2    0    0 -0.11322844449E+02 -0.40353518054E+02  0.16507581052E+02  0.45045681901E+02  0.00000000000E+00 0.  1.
         11    1    3    3    0    0  0.43665152409E+01  0.15678678779E+02 -0.60639473819E+01  0.17368329848E+02  0.51100000000E-03 0. -1.
        -11    1    3    3    0    0  0.29286679480E+00  0.10011231655E+02 -0.90866396038E+00  0.10056649575E+02  0.51100000000E-03 0.  1.
         12    1    3    3    0    0  0.66634624132E+01  0.14663607619E+02 -0.95349697092E+01  0.18717338676E+02  0.00000000000E+00 0. -1.
</event>
<event>
 7    1  0.2031146E-008  0.4614232E+02  0.7816164E-02  0.1320468E+00
        -11   -1    0    0    0    0  0.00000000000E+00  0.00000000000E+00  0.45593999997E+02  0.45594000000E+02  0.51100000000E-03 0.  1.
         11   -1    0    0    0    0 -0.00000000000E+00 -0.00000000000E+00 -0.45593999997E+02  0.45594000000E+02  0.51100000000E-03 0. -1.
    9900012    2    1    2    0    0  0.19511353551E+02  0.85481602433E+01 -0.39690673459E+02  0.46142317404E+02  0.99999967438E+01 0.  0.
        -12    1    1    2    0    0 -0.19511353551E+02 -0.85481602433E+01  0.39690673459E+02  0.45045682596E+02  0.00000000000E+00 0.  1.
         11    1    3    3    0    0  0.55587958093E+01  0.67952571546E+00 -0.14810605033E+02  0.15834013634E+02  0.51100000000E-03 0. -1.
        -11    1    3    3    0    0  0.10275762676E+02  0.48512533646E+01 -0.21963336518E+02  0.24728811314E+02  0.51100000000E-03 0.  1.
        -12    1    3    3    0    0  0.36767950661E+01  0.30173811633E+01 -0.29167319078E+01  0.55794924558E+01  0.00000000000E+00 0.  1.
</event>
<event>
 7    1  0.2031146E-008  0.4614232E+02  0.7816164E-02  0.1320468E+00
        -11   -1    0    0    0    0  0.00000000000E+00  0.00000000000E+00  0.45593999997E+02  0.45594000000E+02  0.51100000000E-03 0.  1.
         11   -1    0    0    0    0 -0.00000000000E+00 -0.00000000000E+00 -0.45593999997E+02  0.45594000000E+02  0.51100000000E-03 0. -1.
    9900012    2    1    2    0    0 -0.22708541785E+02  0.32094909508E+02  0.21985279661E+02  0.46142316432E+02  0.99999878808E+01 0.  0.
        -12    1    1    2    0    0  0.22708541785E+02 -0.32094909508E+02 -0.21985279661E+02  0.45045683568E+02  0.00000000000E+00 0.  1.
         11    1    3    3    0    0 -0.15430705793E+02  0.18913605065E+02  0.12129344287E+02  0.27257148253E+02  0.51100000000E-03 0. -1.
        -11    1    3    3    0    0 -0.60491001796E+01  0.12922826256E+02  0.10250698344E+02  0.17568946134E+02  0.51100000000E-03 0.  1.
        -12    1    3    3    0    0 -0.12287358124E+01  0.25847818673E+00 -0.39476296999E+00  0.13162220451E+01  0.00000000000E+00 0.  1.
</event>
<event>
 7    1  0.2031146E-008  0.4614232E+02  0.7816164E-02  0.1320468E+00
        -11   -1    0    0    0    0  0.00000000000E+00  0.00000000000E+00  0.45593999997E+02  0.45594000000E+02  0.51100000000E-03 0.  1.
         11   -1    0    0    0    0 -0.00000000000E+00 -0.00000000000E+00 -0.45593999997E+02  0.45594000000E+02  0.51100000000E-03 0. -1.
    9900012    2    1    2    0    0 -0.63025691594E+01  0.35606197852E+02 -0.26862422992E+02  0.46142317937E+02  0.10000001607E+02 0.  0.
        -12    1    1    2    0    0  0.63025691594E+01 -0.35606197852E+02  0.26862422992E+02  0.45045682063E+02  0.00000000000E+00 0.  1.
         11    1    3    3    0    0 -0.53380565971E+00  0.13093821923E+02 -0.67416982667E+01  0.14737150906E+02  0.51100000000E-03 0. -1.
        -11    1    3    3    0    0 -0.61748167413E+01  0.21102451848E+02 -0.16473717715E+02  0.27474082540E+02  0.51100000000E-03 0.  1.
        -12    1    3    3    0    0  0.40605324160E+00  0.14099240806E+01 -0.36470070100E+01  0.39310844915E+01  0.00000000000E+00 0.  1.
</event>
<event>
 7    1  0.2031146E-008  0.4614232E+02  0.7816164E-02  0.1320468E+00
        -11   -1    0    0    0    0  0.00000000000E+00  0.00000000000E+00  0.45593999997E+02  0.45594000000E+02  0.51100000000E-03 0.  1.
         11   -1    0    0    0    0 -0.00000000000E+00 -0.00000000000E+00 -0.45593999997E+02  0.45594000000E+02  0.51100000000E-03 0. -1.
    9900012    2    1    2    0    0 -0.31154168553E+02 -0.15788720116E+02 -0.28447276031E+02  0.46142318579E+02  0.10000007454E+02 0.  0.
        -12    1    1    2    0    0  0.31154168553E+02  0.15788720116E+02  0.28447276031E+02  0.45045681421E+02  0.00000000000E+00 0.  1.
         11    1    3    3    0    0 -0.79562766756E+01 -0.44891289072E+01 -0.35455456645E+01  0.97992607479E+01  0.51100000000E-03 0.  1.
        -11    1    3    3    0    0 -0.71223657159E+01 -0.37463181225E+01 -0.11752787825E+02  0.14243981704E+02  0.51100000000E-03 0. -1.
         12    1    3    3    0    0 -0.16075526162E+02 -0.75532730863E+01 -0.13148942541E+02  0.22099076126E+02  0.00000000000E+00 0. -1.
</event>
<event>
 7    1  0.2031146E-008  0.4614232E+02  0.7816164E-02  0.1320468E+00
        -11   -1    0    0    0    0  0.00000000000E+00  0.00000000000E+00  0.45593999997E+02  0.45594000000E+02  0.51100000000E-03 0.  1.
         11   -1    0    0    0    0 -0.00000000000E+00 -0.00000000000E+00 -0.45593999997E+02  0.45594000000E+02  0.51100000000E-03 0. -1.
    9900012    2    1    2    0    0  0.12285968067E+02 -0.90219432278E+00 -0.43328449525E+02  0.46142317586E+02  0.99999984005E+01 0.  0.
        -12    1    1    2    0    0 -0.12285968067E+02  0.90219432278E+00  0.43328449525E+02  0.45045682414E+02  0.00000000000E+00 0.  1.
         11    1    3    3    0    0  0.68182200194E+01 -0.15581225214E+01 -0.25060179290E+02  0.26017848803E+02  0.51100000000E-03 0. -1.
        -11    1    3    3    0    0  0.20126245683E+01  0.33156935646E+01 -0.64367927928E+01  0.75151036710E+01  0.51100000000E-03 0.  1.
         12    1    3    3    0    0  0.34551234797E+01 -0.26597653660E+01 -0.11831477442E+02  0.12609365111E+02  0.00000000000E+00 0. -1.
</event>
<event>
 7    1  0.2031146E-008  0.4614232E+02  0.7816164E-02  0.1320468E+00
        -11   -1    0    0    0    0  0.00000000000E+00  0.00000000000E+00  0.45593999997E+02  0.45594000000E+02  0.51100000000E-03 0.  1.
         11   -1    0    0    0    0 -0.00000000000E+00 -0.00000000000E+00 -0.45593999997E+02  0.45594000000E+02  0.51100000000E-03 0. -1.
    9900012    2    1    2    0    0  0.28617288564E+02  0.32438028284E+02 -0.12567355039E+02  0.46142319892E+02  0.10000019432E+02 0.  0.
        -12    1    1    2    0    0 -0.28617288564E+02 -0.32438028284E+02  0.12567355039E+02  0.45045680108E+02  0.00000000000E+00 0.  1.
         11    1    3    3    0    0  0.12814972052E+02  0.14695750592E+02 -0.36857543722E+01  0.19843723937E+02  0.51100000000E-03 0. -1.
        -11    1    3    3    0    0  0.31182350946E+01  0.22750129986E+01  0.10007372781E+01  0.39875493238E+01  0.51100000000E-03 0.  1.
         12    1    3    3    0    0  0.12684081417E+02  0.15467264694E+02 -0.98823379451E+01  0.22311046631E+02  0.00000000000E+00 0. -1.
</event>
<event>
 7    1  0.2031146E-008  0.4614232E+02  0.7816164E-02  0.1320468E+00
        -11   -1    0    0    0    0  0.00000000000E+00  0.00000000000E+00  0.45593999997E+02  0.45594000000E+02  0.51100000000E-03 0. -1.
         11   -1    0    0    0    0 -0.00000000000E+00 -0.00000000000E+00 -0.45593999997E+02  0.45594000000E+02  0.51100000000E-03 0.  1.
    9900012    2    1    2    0    0  0.91581099238E+01 -0.19695349122E+02  0.39463093478E+02  0.46142317617E+02  0.99999986904E+01 0.  0.
        -12    1    1    2    0    0 -0.91581099238E+01  0.19695349122E+02 -0.39463093478E+02  0.45045682383E+02  0.00000000000E+00 0.  1.
         11    1    3    3    0    0  0.51538288961E+01 -0.70859582179E+01  0.14422396779E+02  0.16875375115E+02  0.51100000000E-03 0. -1.
        -11    1    3    3    0    0  0.39383115546E+01 -0.22620081980E+01  0.10300609749E+02  0.11257421572E+02  0.51100000000E-03 0.  1.
         12    1    3    3    0    0  0.65969473124E-01 -0.10347382707E+02  0.14740086950E+02  0.18009520930E+02  0.00000000000E+00 0. -1.
</event>
<event>
 7    1  0.2031146E-008  0.4614232E+02  0.7816164E-02  0.1320468E+00
        -11   -1    0    0    0    0  0.00000000000E+00  0.00000000000E+00  0.45593999997E+02  0.45594000000E+02  0.51100000000E-03 0.  1.
         11   -1    0    0    0    0 -0.00000000000E+00 -0.00000000000E+00 -0.45593999997E+02  0.45594000000E+02  0.51100000000E-03 0. -1.
    9900012    2    1    2    0    0  0.24478457718E+02  0.20984216441E+02 -0.31457608716E+02  0.46142318986E+02  0.10000011168E+02 0.  0.
        -12    1    1    2    0    0 -0.24478457718E+02 -0.20984216441E+02  0.31457608716E+02  0.45045681014E+02  0.00000000000E+00 0.  1.
         11    1    3    3    0    0  0.12337562865E+02  0.88590191159E+01 -0.21103451337E+02  0.26001025667E+02  0.51100000000E-03 0. -1.
        -11    1    3    3    0    0  0.99270312423E-01  0.56895392731E+00 -0.46716771706E+00  0.74283854458E+00  0.51100000000E-03 0.  1.
         12    1    3    3    0    0  0.12041624541E+02  0.11556243398E+02 -0.98869896618E+01  0.19398454775E+02  0.00000000000E+00 0. -1.
</event>
<event>
 7    1  0.2031146E-008  0.4614232E+02  0.7816164E-02  0.1320468E+00
        -11   -1    0    0    0    0  0.00000000000E+00  0.00000000000E+00  0.45593999997E+02  0.45594000000E+02  0.51100000000E-03 0. -1.
         11   -1    0    0    0    0 -0.00000000000E+00 -0.00000000000E+00 -0.45593999997E+02  0.45594000000E+02  0.51100000000E-03 0.  1.
    9900012    2    1    2    0    0 -0.42321385913E+02  0.66006041797E+01  0.13944385432E+02  0.46142316897E+02  0.99999921159E+01 0.  0.
        -12    1    1    2    0    0  0.42321385913E+02 -0.66006041797E+01 -0.13944385432E+02  0.45045683103E+02  0.00000000000E+00 0.  1.
         11    1    3    3    0    0 -0.77903800407E-01 -0.69574677420E+00  0.33642659480E+00  0.77673398969E+00  0.51100000000E-03 0.  1.
        -11    1    3    3    0    0 -0.10332145090E+02  0.43584160906E+01  0.29814909954E+01  0.11603374587E+02  0.51100000000E-03 0. -1.
         12    1    3    3    0    0 -0.31911337023E+02  0.29379348633E+01  0.10626467842E+02  0.33762208320E+02  0.00000000000E+00 0. -1.
</event>
<event>
 7    1  0.2031146E-008  0.4614232E+02  0.7816164E-02  0.1320468E+00
        -11   -1    0    0    0    0  0.00000000000E+00  0.00000000000E+00  0.45593999997E+02  0.45594000000E+02  0.51100000000E-03 0.  1.
         11   -1    0    0    0    0 -0.00000000000E+00 -0.00000000000E+00 -0.45593999997E+02  0.45594000000E+02  0.51100000000E-03 0. -1.
    9900012    2    1    2    0    0  0.15241912717E+02  0.12253685457E+02 -0.40578869603E+02  0.46142319088E+02  0.10000012100E+02 0.  0.
        -12    1    1    2    0    0 -0.15241912717E+02 -0.12253685457E+02  0.40578869603E+02  0.45045680912E+02  0.00000000000E+00 0.  1.
         11    1    3    3    0    0  0.34588348214E+01  0.88127830958E+01 -0.15865195474E+02  0.18475202621E+02  0.51100000000E-03 0. -1.
        -11    1    3    3    0    0  0.80351771331E+01  0.17660925716E+01 -0.14717195623E+02  0.16860575370E+02  0.51100000000E-03 0.  1.
        -12    1    3    3    0    0  0.37479007622E+01  0.16748097900E+01 -0.99964785059E+01  0.10806541097E+02  0.00000000000E+00 0.  1.
</event>
<event>
 7    1  0.2031146E-008  0.4614232E+02  0.7816164E-02  0.1320468E+00
        -11   -1    0    0    0    0  0.00000000000E+00  0.00000000000E+00  0.45593999997E+02  0.45594000000E+02  0.51100000000E-03 0.  1.
         11   -1    0    0    0    0 -0.00000000000E+00 -0.00000000000E+00 -0.45593999997E+02  0.45594000000E+02  0.51100000000E-03 0. -1.
    9900012    2    1    2    0    0  0.32615092849E+02 -0.25011249478E+02 -0.18433841038E+02  0.46142318993E+02  0.10000011233E+02 0.  0.
        -12    1    1    2    0    0 -0.32615092849E+02  0.25011249478E+02  0.18433841038E+02  0.45045681007E+02  0.00000000000E+00 0.  1.
         11    1    3    3    0    0  0.22561633565E+02 -0.13012790647E+02 -0.13126682256E+02  0.29166244476E+02  0.51100000000E-03 0. -1.
        -11    1    3    3    0    0  0.60995026552E+01 -0.97149837779E+01 -0.45846775819E+01  0.12353303657E+02  0.51100000000E-03 0.  1.
         12    1    3    3    0    0  0.39539566290E+01 -0.22834750527E+01 -0.72248120022E+00  0.46227708601E+01  0.00000000000E+00 0. -1.
</event>
<event>
 7    1  0.2031146E-008  0.4614231E+02  0.7816164E-02  0.1320468E+00
        -11   -1    0    0    0    0  0.00000000000E+00  0.00000000000E+00  0.45593999997E+02  0.45594000000E+02  0.51100000000E-03 0.  1.
         11   -1    0    0    0    0 -0.00000000000E+00 -0.00000000000E+00 -0.45593999997E+02  0.45594000000E+02  0.51100000000E-03 0. -1.
    9900012    2    1    2    0    0 -0.28402908494E+02 -0.29325075739E+02  0.19037567014E+02  0.46142309465E+02  0.99999243472E+01 0.  0.
        -12    1    1    2    0    0  0.28402908494E+02  0.29325075739E+02 -0.19037567014E+02  0.45045690535E+02  0.00000000000E+00 0.  1.
         11    1    3    3    0    0 -0.19765401641E+02 -0.15688190314E+02  0.12301283565E+02  0.28073332452E+02  0.51100000000E-03 0. -1.
        -11    1    3    3    0    0 -0.67342471053E+00 -0.22543465585E+01  0.27441978694E+01  0.36147201073E+01  0.51100000000E-03 0.  1.
         12    1    3    3    0    0 -0.79640821421E+01 -0.11382538866E+02  0.39920855791E+01  0.14454256905E+02  0.00000000000E+00 0. -1.
</event>
<event>
 7    1  0.2031146E-008  0.4614232E+02  0.7816164E-02  0.1320468E+00
        -11   -1    0    0    0    0  0.00000000000E+00  0.00000000000E+00  0.45593999997E+02  0.45594000000E+02  0.51100000000E-03 0. -1.
         11   -1    0    0    0    0 -0.00000000000E+00 -0.00000000000E+00 -0.45593999997E+02  0.45594000000E+02  0.51100000000E-03 0.  1.
    9900012    2    1    2    0    0  0.44733684641E+02 -0.52805006452E+01  0.35678364231E+00  0.46142317374E+02  0.99999964714E+01 0.  0.
        -12    1    1    2    0    0 -0.44733684641E+02  0.52805006452E+01 -0.35678364231E+00  0.45045682626E+02  0.00000000000E+00 0.  1.
         11    1    3    3    0    0  0.61385036247E+01 -0.29076793501E+01 -0.26184101950E+01  0.72795534316E+01  0.51100000000E-03 0.  1.
        -11    1    3    3    0    0  0.19160561577E+02 -0.18952727860E+01  0.45347733766E+00  0.19259408631E+02  0.51100000000E-03 0. -1.
        -12    1    3    3    0    0  0.19434619440E+02 -0.47754850912E+00  0.25217164996E+01  0.19603355311E+02  0.00000000000E+00 0.  1.
</event>
<event>
 7    1  0.2031146E-008  0.4614232E+02  0.7816164E-02  0.1320468E+00
        -11   -1    0    0    0    0  0.00000000000E+00  0.00000000000E+00  0.45593999997E+02  0.45594000000E+02  0.51100000000E-03 0.  1.
         11   -1    0    0    0    0 -0.00000000000E+00 -0.00000000000E+00 -0.45593999997E+02  0.45594000000E+02  0.51100000000E-03 0. -1.
    9900012    2    1    2    0    0  0.91554208317E+01  0.61042709708E+01 -0.43680997699E+02  0.46142318579E+02  0.10000007461E+02 0.  0.
        -12    1    1    2    0    0 -0.91554208317E+01 -0.61042709708E+01  0.43680997699E+02  0.45045681421E+02  0.00000000000E+00 0.  1.
         11    1    3    3    0    0  0.49449630697E+01 -0.93836443969E+00 -0.17288131469E+02  0.18005906740E+02  0.51100000000E-03 0. -1.
        -11    1    3    3    0    0  0.27390040160E+01  0.55089190627E+00 -0.49485952279E+01  0.56828003557E+01  0.51100000000E-03 0.  1.
        -12    1    3    3    0    0  0.14714537460E+01  0.64917435042E+01 -0.21444271002E+02  0.22453611484E+02  0.00000000000E+00 0.  1.
</event>
<event>
 7    1  0.2031146E-008  0.4614232E+02  0.7816164E-02  0.1320468E+00
        -11   -1    0    0    0    0  0.00000000000E+00  0.00000000000E+00  0.45593999997E+02  0.45594000000E+02  0.51100000000E-03 0. -1.
         11   -1    0    0    0    0 -0.00000000000E+00 -0.00000000000E+00 -0.45593999997E+02  0.45594000000E+02  0.51100000000E-03 0.  1.
    9900012    2    1    2    0    0  0.43539111748E+02 -0.64237087286E+01  0.96018324350E+01  0.46142317945E+02  0.10000001679E+02 0.  0.
        -12    1    1    2    0    0 -0.43539111748E+02  0.64237087286E+01 -0.96018324350E+01  0.45045682055E+02  0.00000000000E+00 0.  1.
         11    1    3    3    0    0  0.24923222840E+02 -0.36752335707E+01  0.27816147507E+01  0.25345843040E+02  0.51100000000E-03 0. -1.
        -11    1    3    3    0    0  0.51695781070E+01 -0.33701280686E+01  0.17740305941E+01  0.64210190635E+01  0.51100000000E-03 0.  1.
         12    1    3    3    0    0  0.13446310801E+02  0.62165291077E+00  0.50461870902E+01  0.14375455842E+02  0.00000000000E+00 0. -1.
</event>
<event>
 7    1  0.2031146E-008  0.4614232E+02  0.7816164E-02  0.1320468E+00
        -11   -1    0    0    0    0  0.00000000000E+00  0.00000000000E+00  0.45593999997E+02  0.45594000000E+02  0.51100000000E-03 0.  1.
         11   -1    0    0    0    0 -0.00000000000E+00 -0.00000000000E+00 -0.45593999997E+02  0.45594000000E+02  0.51100000000E-03 0. -1.
    9900012    2    1    2    0    0 -0.89818319047E+01 -0.56950987628E+01 -0.43772205451E+02  0.46142318472E+02  0.10000006479E+02 0.  0.
        -12    1    1    2    0    0  0.89818319047E+01  0.56950987628E+01  0.43772205451E+02  0.45045681528E+02  0.00000000000E+00 0.  1.
         11    1    3    3    0    0 -0.16994069647E+01 -0.47471654452E+01 -0.19706736405E+02  0.20341559030E+02  0.51100000000E-03 0. -1.
        -11    1    3    3    0    0 -0.50912839827E+01 -0.27380817915E+01 -0.20196681884E+02  0.21007718198E+02  0.51100000000E-03 0.  1.
         12    1    3    3    0    0 -0.21911409573E+01  0.17901484739E+01 -0.38687871626E+01  0.47930412436E+01  0.00000000000E+00 0. -1.
</event>
<event>
 7    1  0.2031146E-008  0.4614232E+02  0.7816164E-02  0.1320468E+00
        -11   -1    0    0    0    0  0.00000000000E+00  0.00000000000E+00  0.45593999997E+02  0.45594000000E+02  0.51100000000E-03 0. -1.
         11   -1    0    0    0    0 -0.00000000000E+00 -0.00000000000E+00 -0.45593999997E+02  0.45594000000E+02  0.51100000000E-03 0.  1.
    9900012    2    1    2    0    0  0.16219367572E+02 -0.23731921737E+02  0.34682007627E+02  0.46142316002E+02  0.99999839607E+01 0.  0.
        -12    1    1    2    0    0 -0.16219367572E+02  0.23731921737E+02 -0.34682007627E+02  0.45045683998E+02  0.00000000000E+00 0.  1.
         11    1    3    3    0    0  0.18107369468E+01 -0.29344629979E+01  0.38861023476E+01  0.51953472544E+01  0.51100000000E-03 0. -1.
        -11    1    3    3    0    0  0.13523136816E+02 -0.20224017041E+02  0.24370566858E+02  0.34435601111E+02  0.51100000000E-03 0.  1.
         12    1    3    3    0    0  0.88549380856E+00 -0.57344169817E+00  0.64253384221E+01  0.65113676370E+01  0.00000000000E+00 0. -1.
</event>
<event>
 7    1  0.2031146E-008  0.4614232E+02  0.7816164E-02  0.1320468E+00
        -11   -1    0    0    0    0  0.00000000000E+00  0.00000000000E+00  0.45593999997E+02  0.45594000000E+02  0.51100000000E-03 0. -1.
         11   -1    0    0    0    0 -0.00000000000E+00 -0.00000000000E+00 -0.45593999997E+02  0.45594000000E+02  0.51100000000E-03 0.  1.
    9900012    2    1    2    0    0  0.39217810048E+02 -0.21803545526E+02  0.39600493747E+01  0.46142320812E+02  0.10000027823E+02 0.  0.
        -12    1    1    2    0    0 -0.39217810048E+02  0.21803545526E+02 -0.39600493747E+01  0.45045679188E+02  0.00000000000E+00 0.  1.
         11    1    3    3    0    0  0.76703488397E+01 -0.51262102069E+01  0.37227926095E+01  0.99484404548E+01  0.51100000000E-03 0. -1.
        -11    1    3    3    0    0  0.12218874969E+02 -0.71391011575E+01  0.29925686603E+01  0.14464547635E+02  0.51100000000E-03 0.  1.
        -12    1    3    3    0    0  0.19328586239E+02 -0.95382341612E+01 -0.27553118951E+01  0.21729332722E+02  0.00000000000E+00 0.  1.
</event>
<event>
 7    1  0.2031146E-008  0.4614232E+02  0.7816164E-02  0.1320468E+00
        -11   -1    0    0    0    0  0.00000000000E+00  0.00000000000E+00  0.45593999997E+02  0.45594000000E+02  0.51100000000E-03 0.  1.
         11   -1    0    0    0    0 -0.00000000000E+00 -0.00000000000E+00 -0.45593999997E+02  0.45594000000E+02  0.51100000000E-03 0. -1.
    9900012    2    1    2    0    0 -0.10710967324E+02 -0.79889244812E+01 -0.43018203360E+02  0.46142317014E+02  0.99999931840E+01 0.  0.
        -12    1    1    2    0    0  0.10710967324E+02  0.79889244812E+01  0.43018203360E+02  0.45045682986E+02  0.00000000000E+00 0.  1.
         11    1    3    3    0    0 -0.12270667913E+01 -0.45230365159E+01 -0.16855004196E+02  0.17494419651E+02  0.51100000000E-03 0. -1.
        -11    1    3    3    0    0 -0.43106543814E+01 -0.45868405181E+01 -0.12505173265E+02  0.14000007350E+02  0.51100000000E-03 0.  1.
         12    1    3    3    0    0 -0.51732461514E+01  0.11209525528E+01 -0.13658025899E+02  0.14647890013E+02  0.00000000000E+00 0. -1.
</event>
<event>
 7    1  0.2031146E-008  0.4614232E+02  0.7816164E-02  0.1320468E+00
        -11   -1    0    0    0    0  0.00000000000E+00  0.00000000000E+00  0.45593999997E+02  0.45594000000E+02  0.51100000000E-03 0.  1.
         11   -1    0    0    0    0 -0.00000000000E+00 -0.00000000000E+00 -0.45593999997E+02  0.45594000000E+02  0.51100000000E-03 0. -1.
    9900012    2    1    2    0    0 -0.44677115556E+02  0.21992966641E+01 -0.53133582267E+01  0.46142319454E+02  0.10000015435E+02 0.  0.
        -12    1    1    2    0    0  0.44677115556E+02 -0.21992966641E+01  0.53133582267E+01  0.45045680546E+02  0.00000000000E+00 0.  1.
         11    1    3    3    0    0 -0.13397639116E+02 -0.12044178213E+01 -0.81568644383E+00  0.13476375655E+02  0.51100000000E-03 0. -1.
        -11    1    3    3    0    0 -0.84653272655E+00  0.16627773273E+01 -0.11023147642E+00  0.18691167264E+01  0.51100000000E-03 0.  1.
         12    1    3    3    0    0 -0.30432943714E+02  0.17409371581E+01 -0.43874403064E+01  0.30796827072E+02  0.00000000000E+00 0. -1.
</event>
<event>
 7    1  0.2031146E-008  0.4614232E+02  0.7816164E-02  0.1320468E+00
        -11   -1    0    0    0    0  0.00000000000E+00  0.00000000000E+00  0.45593999997E+02  0.45594000000E+02  0.51100000000E-03 0. -1.
         11   -1    0    0    0    0 -0.00000000000E+00 -0.00000000000E+00 -0.45593999997E+02  0.45594000000E+02  0.51100000000E-03 0.  1.
    9900012    2    1    2    0    0 -0.10420686594E+02 -0.32487281447E+02  0.29412571066E+02  0.46142317614E+02  0.99999986552E+01 0.  0.
        -12    1    1    2    0    0  0.10420686594E+02  0.32487281447E+02 -0.29412571066E+02  0.45045682386E+02  0.00000000000E+00 0.  1.
         11    1    3    3    0    0  0.30963653221E+00 -0.10670000479E+00 -0.40143657716E+00  0.51808422067E+00  0.51100000000E-03 0. -1.
        -11    1    3    3    0    0 -0.13119582577E+01 -0.17200554241E+01  0.61343195433E+00  0.22485826993E+01  0.51100000000E-03 0.  1.
         12    1    3    3    0    0 -0.94183648682E+01 -0.30660526018E+02  0.29200575689E+02  0.43375650694E+02  0.00000000000E+00 0. -1.
</event>
<event>
 7    1  0.2031146E-008  0.4614232E+02  0.7816164E-02  0.1320468E+00
        -11   -1    0    0    0    0  0.00000000000E+00  0.00000000000E+00  0.45593999997E+02  0.45594000000E+02  0.51100000000E-03 0.  1.
         11   -1    0    0    0    0 -0.00000000000E+00 -0.00000000000E+00 -0.45593999997E+02  0.45594000000E+02  0.51100000000E-03 0. -1.
    9900012    2    1    2    0    0  0.12465995586E+02 -0.27183291520E+02 -0.33686512829E+02  0.46142317295E+02  0.99999957457E+01 0.  0.
        -12    1    1    2    0    0 -0.12465995586E+02  0.27183291520E+02  0.33686512829E+02  0.45045682705E+02  0.00000000000E+00 0.  1.
         11    1    3    3    0    0  0.10687338408E+02 -0.16081177603E+02 -0.16230244701E+02  0.25223883893E+02  0.51100000000E-03 0. -1.
        -11    1    3    3    0    0 -0.25544267384E+00 -0.16605096715E+01 -0.14269413964E+01  0.22042471137E+01  0.51100000000E-03 0.  1.
        -12    1    3    3    0    0  0.20340998520E+01 -0.94416042459E+01 -0.16029326731E+02  0.18714186287E+02  0.00000000000E+00 0.  1.
</event>
<event>
 7    1  0.2031146E-008  0.4614232E+02  0.7816164E-02  0.1320468E+00
        -11   -1    0    0    0    0  0.00000000000E+00  0.00000000000E+00  0.45593999997E+02  0.45594000000E+02  0.51100000000E-03 0. -1.
         11   -1    0    0    0    0 -0.00000000000E+00 -0.00000000000E+00 -0.45593999997E+02  0.45594000000E+02  0.51100000000E-03 0.  1.
    9900012    2    1    2    0    0  0.32128886488E+02  0.31103815251E+02  0.54222506922E+01  0.46142317935E+02  0.10000001585E+02 0.  0.
        -12    1    1    2    0    0 -0.32128886488E+02 -0.31103815251E+02 -0.54222506922E+01  0.45045682065E+02  0.00000000000E+00 0.  1.
         11    1    3    3    0    0  0.72349549432E+01  0.11202143957E+02 -0.22935678972E+00  0.13337361323E+02  0.51100000000E-03 0.  1.
        -11    1    3    3    0    0  0.13247971703E+02  0.11833232191E+02  0.63317369039E+00  0.17774561810E+02  0.51100000000E-03 0. -1.
        -12    1    3    3    0    0  0.11645959842E+02  0.80684391031E+01  0.50184337915E+01  0.15030394802E+02  0.00000000000E+00 0.  1.
</event>
<event>
 7    1  0.2031146E-008  0.4614232E+02  0.7816164E-02  0.1320468E+00
        -11   -1    0    0    0    0  0.00000000000E+00  0.00000000000E+00  0.45593999997E+02  0.45594000000E+02  0.51100000000E-03 0.  1.
         11   -1    0    0    0    0 -0.00000000000E+00 -0.00000000000E+00 -0.45593999997E+02  0.45594000000E+02  0.51100000000E-03 0. -1.
    9900012    2    1    2    0    0  0.19833470581E+02 -0.37483850719E+02 -0.15189069984E+02  0.46142317998E+02  0.10000002164E+02 0.  0.
        -12    1    1    2    0    0 -0.19833470581E+02  0.37483850719E+02  0.15189069984E+02  0.45045682002E+02  0.00000000000E+00 0.  1.
         11    1    3    3    0    0  0.81652374155E+01 -0.18019117696E+02 -0.93623748032E+01  0.21886383137E+02  0.51100000000E-03 0. -1.
        -11    1    3    3    0    0  0.70375069201E+00 -0.62538083328E+01 -0.24813750146E+01  0.67648064218E+01  0.51100000000E-03 0.  1.
         12    1    3    3    0    0  0.10964482474E+02 -0.13210924690E+02 -0.33453201665E+01  0.17491128439E+02  0.00000000000E+00 0. -1.
</event>
<event>
 7    1  0.2031146E-008  0.4614232E+02  0.7816164E-02  0.1320468E+00
        -11   -1    0    0    0    0  0.00000000000E+00  0.00000000000E+00  0.45593999997E+02  0.45594000000E+02  0.51100000000E-03 0.  1.
         11   -1    0    0    0    0 -0.00000000000E+00 -0.00000000000E+00 -0.45593999997E+02  0.45594000000E+02  0.51100000000E-03 0. -1.
    9900012    2    1    2    0    0 -0.35813646717E+02  0.19700681551E+02 -0.18930909120E+02  0.46142318023E+02  0.10000002384E+02 0.  0.
        -12    1    1    2    0    0  0.35813646717E+02 -0.19700681551E+02  0.18930909120E+02  0.45045681977E+02  0.00000000000E+00 0.  1.
         11    1    3    3    0    0 -0.24776233700E+02  0.16913668023E+02 -0.13473679298E+02  0.32885771337E+02  0.51100000000E-03 0. -1.
        -11    1    3    3    0    0 -0.14544628298E+01 -0.91045961834E+00 -0.22948523555E+00  0.17312026382E+01  0.51100000000E-03 0.  1.
        -12    1    3    3    0    0 -0.95829501869E+01  0.36974731461E+01 -0.52277445859E+01  0.11525344047E+02  0.00000000000E+00 0.  1.
</event>
<event>
 7    1  0.2031146E-008  0.4614232E+02  0.7816164E-02  0.1320468E+00
        -11   -1    0    0    0    0  0.00000000000E+00  0.00000000000E+00  0.45593999997E+02  0.45594000000E+02  0.51100000000E-03 0.  1.
         11   -1    0    0    0    0 -0.00000000000E+00 -0.00000000000E+00 -0.45593999997E+02  0.45594000000E+02  0.51100000000E-03 0. -1.
    9900012    2    1    2    0    0  0.13381868594E+02  0.17490339758E+02 -0.39295382573E+02  0.46142317815E+02  0.10000000494E+02 0.  0.
        -12    1    1    2    0    0 -0.13381868594E+02 -0.17490339758E+02  0.39295382573E+02  0.45045682185E+02  0.00000000000E+00 0.  1.
         11    1    3    3    0    0  0.44920847023E+01  0.30345235774E+01 -0.15381456978E+02  0.16308782215E+02  0.51100000000E-03 0.  1.
        -11    1    3    3    0    0  0.53449975692E+01  0.36702153195E+01 -0.86272091917E+01  0.10792044209E+02  0.51100000000E-03 0. -1.
         12    1    3    3    0    0  0.35447863225E+01  0.10785600861E+02 -0.15286716403E+02  0.19041491392E+02  0.00000000000E+00 0. -1.
</event>
<event>
 7    1  0.2031146E-008  0.4614232E+02  0.7816164E-02  0.1320468E+00
        -11   -1    0    0    0    0  0.00000000000E+00  0.00000000000E+00  0.45593999997E+02  0.45594000000E+02  0.51100000000E-03 0.  1.
         11   -1    0    0    0    0 -0.00000000000E+00 -0.00000000000E+00 -0.45593999997E+02  0.45594000000E+02  0.51100000000E-03 0. -1.
    9900012    2    1    2    0    0  0.30183190382E+02 -0.16559852729E+02 -0.29049265988E+02  0.46142316983E+02  0.99999929018E+01 0.  0.
        -12    1    1    2    0    0 -0.30183190382E+02  0.16559852729E+02  0.29049265988E+02  0.45045683017E+02  0.00000000000E+00 0.  1.
         11    1    3    3    0    0  0.91580392364E+01 -0.47824758256E+01 -0.63507255942E+01  0.12127385271E+02  0.51100000000E-03 0.  1.
        -11    1    3    3    0    0  0.92221806944E+01 -0.91063109854E+01 -0.14212810812E+02  0.19234799400E+02  0.51100000000E-03 0. -1.
         12    1    3    3    0    0  0.11802970451E+02 -0.26710659180E+01 -0.84857295823E+01  0.14780132312E+02  0.00000000000E+00 0. -1.
</event>
<event>
 7    1  0.2031146E-008  0.4614232E+02  0.7816164E-02  0.1320468E+00
        -11   -1    0    0    0    0  0.00000000000E+00  0.00000000000E+00  0.45593999997E+02  0.45594000000E+02  0.51100000000E-03 0. -1.
         11   -1    0    0    0    0 -0.00000000000E+00 -0.00000000000E+00 -0.45593999997E+02  0.45594000000E+02  0.51100000000E-03 0.  1.
    9900012    2    1    2    0    0  0.61449998495E+00 -0.26144157343E+02  0.36677226396E+02  0.46142317527E+02  0.99999978647E+01 0.  0.
        -12    1    1    2    0    0 -0.61449998495E+00  0.26144157343E+02 -0.36677226396E+02  0.45045682473E+02  0.00000000000E+00 0.  1.
         11    1    3    3    0    0 -0.21875054071E+01 -0.12918461799E+02  0.12196850322E+02  0.17900698121E+02  0.51100000000E-03 0. -1.
        -11    1    3    3    0    0 -0.50401449789E+00 -0.53243312650E+01  0.73561316343E+01  0.90947900974E+01  0.51100000000E-03 0.  1.
        -12    1    3    3    0    0  0.33060198899E+01 -0.79013642783E+01  0.17124244439E+02  0.19146829309E+02  0.00000000000E+00 0.  1.
</event>
<event>
 7    1  0.2031146E-008  0.4614232E+02  0.7816164E-02  0.1320468E+00
        -11   -1    0    0    0    0  0.00000000000E+00  0.00000000000E+00  0.45593999997E+02  0.45594000000E+02  0.51100000000E-03 0.  1.
         11   -1    0    0    0    0 -0.00000000000E+00 -0.00000000000E+00 -0.45593999997E+02  0.45594000000E+02  0.51100000000E-03 0. -1.
    9900012    2    1    2    0    0 -0.70423560353E+00 -0.11409244500E+02 -0.43571168707E+02  0.46142317073E+02  0.99999937291E+01 0.  0.
        -12    1    1    2    0    0  0.70423560353E+00  0.11409244500E+02  0.43571168707E+02  0.45045682927E+02  0.00000000000E+00 0.  1.
         11    1    3    3    0    0 -0.17926131915E+01 -0.14176142729E+01 -0.75826189151E+01  0.79195455775E+01  0.51100000000E-03 0. -1.
        -11    1    3    3    0    0  0.29012211138E+01 -0.13605168304E+01 -0.45126523152E+01  0.55346292718E+01  0.51100000000E-03 0.  1.
        -12    1    3    3    0    0 -0.18128435258E+01 -0.86311133965E+01 -0.31475897476E+02  0.32688142224E+02  0.00000000000E+00 0.  1.
</event>
<event>
 7    1  0.2031146E-008  0.4614232E+02  0.7816164E-02  0.1320468E+00
        -11   -1    0    0    0    0  0.00000000000E+00  0.00000000000E+00  0.45593999997E+02  0.45594000000E+02  0.51100000000E-03 0.  1.
         11   -1    0    0    0    0 -0.00000000000E+00 -0.00000000000E+00 -0.45593999997E+02  0.45594000000E+02  0.51100000000E-03 0. -1.
    9900012    2    1    2    0    0 -0.17855708528E+02  0.37713562350E+02 -0.16969805260E+02  0.46142318712E+02  0.10000008667E+02 0.  0.
        -12    1    1    2    0    0  0.17855708528E+02 -0.37713562350E+02  0.16969805260E+02  0.45045681288E+02  0.00000000000E+00 0.  1.
         11    1    3    3    0    0 -0.13376294963E+01  0.64902503670E+00  0.23233422942E-01  0.14869519900E+01  0.51100000000E-03 0. -1.
        -11    1    3    3    0    0 -0.10650995770E+02  0.29982125716E+02 -0.15294662060E+02  0.35302949751E+02  0.51100000000E-03 0.  1.
         12    1    3    3    0    0 -0.58670832616E+01  0.70824115978E+01 -0.16983766226E+01  0.93524169705E+01  0.00000000000E+00 0. -1.
</event>
<event>
 7    1  0.2031146E-008  0.4614232E+02  0.7816164E-02  0.1320468E+00
        -11   -1    0    0    0    0  0.00000000000E+00  0.00000000000E+00  0.45593999997E+02  0.45594000000E+02  0.51100000000E-03 0.  1.
         11   -1    0    0    0    0 -0.00000000000E+00 -0.00000000000E+00 -0.45593999997E+02  0.45594000000E+02  0.51100000000E-03 0. -1.
    9900012    2    1    2    0    0  0.29731326429E+02  0.37616898192E+01 -0.33630512454E+02  0.46142318193E+02  0.10000003940E+02 0.  0.
        -12    1    1    2    0    0 -0.29731326429E+02 -0.37616898192E+01  0.33630512454E+02  0.45045681807E+02  0.00000000000E+00 0.  1.
         11    1    3    3    0    0  0.14613221039E+01 -0.80428610220E+00 -0.35603161960E+01  0.39316904891E+01  0.51100000000E-03 0. -1.
        -11    1    3    3    0    0  0.34333078782E+01  0.32779254498E+01 -0.45102289309E+01  0.65478670964E+01  0.51100000000E-03 0.  1.
         12    1    3    3    0    0  0.24836696446E+02  0.12880504716E+01 -0.25559967327E+02  0.35662760608E+02  0.00000000000E+00 0. -1.
</event>
<event>
 7    1  0.2031146E-008  0.4614232E+02  0.7816164E-02  0.1320468E+00
        -11   -1    0    0    0    0  0.00000000000E+00  0.00000000000E+00  0.45593999997E+02  0.45594000000E+02  0.51100000000E-03 0. -1.
         11   -1    0    0    0    0 -0.00000000000E+00 -0.00000000000E+00 -0.45593999997E+02  0.45594000000E+02  0.51100000000E-03 0.  1.
    9900012    2    1    2    0    0  0.20801264350E+02 -0.32348059109E+02  0.23452589286E+02  0.46142317955E+02  0.10000001767E+02 0.  0.
        -12    1    1    2    0    0 -0.20801264350E+02  0.32348059109E+02 -0.23452589286E+02  0.45045682045E+02  0.00000000000E+00 0.  1.
         11    1    3    3    0    0  0.22016837302E+01 -0.45079522422E+01  0.48102658983E+01  0.69503743021E+01  0.51100000000E-03 0. -1.
        -11    1    3    3    0    0  0.29729315500E+01 -0.11429838447E+02  0.66633603957E+01  0.13560232334E+02  0.51100000000E-03 0.  1.
         12    1    3    3    0    0  0.15626649070E+02 -0.16410268420E+02  0.11978962992E+02  0.25631711319E+02  0.00000000000E+00 0. -1.
</event>
<event>
 7    1  0.2031146E-008  0.4614232E+02  0.7816164E-02  0.1320468E+00
        -11   -1    0    0    0    0  0.00000000000E+00  0.00000000000E+00  0.45593999997E+02  0.45594000000E+02  0.51100000000E-03 0.  1.
         11   -1    0    0    0    0 -0.00000000000E+00 -0.00000000000E+00 -0.45593999997E+02  0.45594000000E+02  0.51100000000E-03 0. -1.
    9900012    2    1    2    0    0  0.44394328754E+02 -0.79792226364E+00 -0.75908144496E+01  0.46142316861E+02  0.99999917877E+01 0.  0.
        -12    1    1    2    0    0 -0.44394328754E+02  0.79792226364E+00  0.75908144496E+01  0.45045683139E+02  0.00000000000E+00 0.  1.
         11    1    3    3    0    0  0.16772316858E+02 -0.29876226367E+00 -0.32867319275E+01  0.17093931049E+02  0.51100000000E-03 0. -1.
        -11    1    3    3    0    0  0.94570941112E+01 -0.73812052414E+00 -0.52788405695E+01  0.10855763859E+02  0.51100000000E-03 0.  1.
         12    1    3    3    0    0  0.18164917785E+02  0.23896052416E+00  0.97475804750E+00  0.18192621953E+02  0.00000000000E+00 0. -1.
</event>
<event>
 7    1  0.2031146E-008  0.4614232E+02  0.7816164E-02  0.1320468E+00
        -11   -1    0    0    0    0  0.00000000000E+00  0.00000000000E+00  0.45593999997E+02  0.45594000000E+02  0.51100000000E-03 0. -1.
         11   -1    0    0    0    0 -0.00000000000E+00 -0.00000000000E+00 -0.45593999997E+02  0.45594000000E+02  0.51100000000E-03 0.  1.
    9900012    2    1    2    0    0  0.33725143901E+02 -0.13170343737E+02  0.26800562873E+02  0.46142318125E+02  0.10000003319E+02 0.  0.
        -12    1    1    2    0    0 -0.33725143901E+02  0.13170343737E+02 -0.26800562873E+02  0.45045681875E+02  0.00000000000E+00 0.  1.
         11    1    3    3    0    0  0.19147636447E+02 -0.77600376224E+01  0.17263747449E+02  0.26923728227E+02  0.51100000000E-03 0. -1.
        -11    1    3    3    0    0  0.13653375139E+02 -0.65343483394E+01  0.92387588752E+01  0.17733218172E+02  0.51100000000E-03 0.  1.
        -12    1    3    3    0    0  0.92413231491E+00  0.11240422249E+01  0.29805654832E+00  0.14853717261E+01  0.00000000000E+00 0.  1.
</event>
<event>
 7    1  0.2031146E-008  0.4614232E+02  0.7816164E-02  0.1320468E+00
        -11   -1    0    0    0    0  0.00000000000E+00  0.00000000000E+00  0.45593999997E+02  0.45594000000E+02  0.51100000000E-03 0.  1.
         11   -1    0    0    0    0 -0.00000000000E+00 -0.00000000000E+00 -0.45593999997E+02  0.45594000000E+02  0.51100000000E-03 0. -1.
    9900012    2    1    2    0    0  0.33295673449E+02  0.30278984044E+02  0.19221822256E+01  0.46142317302E+02  0.99999958143E+01 0.  0.
        -12    1    1    2    0    0 -0.33295673449E+02 -0.30278984044E+02 -0.19221822256E+01  0.45045682698E+02  0.00000000000E+00 0.  1.
         11    1    3    3    0    0  0.42724144936E+01  0.48657012615E+01  0.27826380874E+01  0.70478116716E+01  0.51100000000E-03 0. -1.
        -11    1    3    3    0    0  0.67348363083E+01  0.42110568524E+01 -0.23888642173E+01  0.82944374387E+01  0.51100000000E-03 0.  1.
         12    1    3    3    0    0  0.22288422647E+02  0.21202225931E+02  0.15284083556E+01  0.30800068192E+02  0.00000000000E+00 0. -1.
</event>
<event>
 7    1  0.2031146E-008  0.4614232E+02  0.7816164E-02  0.1320468E+00
        -11   -1    0    0    0    0  0.00000000000E+00  0.00000000000E+00  0.45593999997E+02  0.45594000000E+02  0.51100000000E-03 0.  1.
         11   -1    0    0    0    0 -0.00000000000E+00 -0.00000000000E+00 -0.45593999997E+02  0.45594000000E+02  0.51100000000E-03 0. -1.
    9900012    2    1    2    0    0 -0.39148398257E+02  0.21831664827E+02  0.44603608121E+01  0.46142317701E+02  0.99999994537E+01 0.  0.
        -12    1    1    2    0    0  0.39148398257E+02 -0.21831664827E+02 -0.44603608121E+01  0.45045682299E+02  0.00000000000E+00 0.  1.
         11    1    3    3    0    0 -0.10300142683E+02  0.34495506971E+01 -0.20674773865E+01  0.11057431994E+02  0.51100000000E-03 0. -1.
        -11    1    3    3    0    0 -0.13099548680E+02  0.10751065202E+02  0.38878175364E+01  0.17386739316E+02  0.51100000000E-03 0.  1.
        -12    1    3    3    0    0 -0.15748706894E+02  0.76310489281E+01  0.26400206622E+01  0.17698146391E+02  0.00000000000E+00 0.  1.
</event>
<event>
 7    1  0.2031146E-008  0.4614232E+02  0.7816164E-02  0.1320468E+00
        -11   -1    0    0    0    0  0.00000000000E+00  0.00000000000E+00  0.45593999997E+02  0.45594000000E+02  0.51100000000E-03 0.  1.
         11   -1    0    0    0    0 -0.00000000000E+00 -0.00000000000E+00 -0.45593999997E+02  0.45594000000E+02  0.51100000000E-03 0. -1.
    9900012    2    1    2    0    0  0.24009291591E+02 -0.30399749541E+02 -0.22989618152E+02  0.46142318768E+02  0.10000009185E+02 0.  0.
        -12    1    1    2    0    0 -0.24009291591E+02  0.30399749541E+02  0.22989618152E+02  0.45045681232E+02  0.00000000000E+00 0.  1.
         11    1    3    3    0    0  0.14347676729E+01 -0.34454497454E+01 -0.26453694741E+01  0.45746761786E+01  0.51100000000E-03 0. -1.
        -11    1    3    3    0    0  0.74004946648E+01 -0.57920217155E+01 -0.17224687998E+01  0.95541475739E+01  0.51100000000E-03 0.  1.
        -12    1    3    3    0    0  0.15174029254E+02 -0.21162278080E+02 -0.18621779878E+02  0.32013495016E+02  0.00000000000E+00 0.  1.
</event>
<event>
 7    1  0.2031146E-008  0.4614232E+02  0.7816164E-02  0.1320468E+00
        -11   -1    0    0    0    0  0.00000000000E+00  0.00000000000E+00  0.45593999997E+02  0.45594000000E+02  0.51100000000E-03 0.  1.
         11   -1    0    0    0    0 -0.00000000000E+00 -0.00000000000E+00 -0.45593999997E+02  0.45594000000E+02  0.51100000000E-03 0. -1.
    9900012    2    1    2    0    0 -0.25334475033E+01 -0.22432502835E+02 -0.38980480272E+02  0.46142318942E+02  0.10000010768E+02 0.  0.
        -12    1    1    2    0    0  0.25334475033E+01  0.22432502835E+02  0.38980480272E+02  0.45045681058E+02  0.00000000000E+00 0.  1.
         11    1    3    3    0    0 -0.93728721893E+00 -0.22143447695E+02 -0.37666672346E+02  0.43703420793E+02  0.51100000000E-03 0. -1.
        -11    1    3    3    0    0 -0.13650276792E+01  0.22473579373E+00 -0.12630000336E+01  0.18732261177E+01  0.51100000000E-03 0.  1.
         12    1    3    3    0    0 -0.23113260518E+00 -0.51379093399E+00 -0.50807893309E-01  0.56567203135E+00  0.00000000000E+00 0. -1.
</event>
<event>
 7    1  0.2031146E-008  0.4614232E+02  0.7816164E-02  0.1320468E+00
        -11   -1    0    0    0    0  0.00000000000E+00  0.00000000000E+00  0.45593999997E+02  0.45594000000E+02  0.51100000000E-03 0. -1.
         11   -1    0    0    0    0 -0.00000000000E+00 -0.00000000000E+00 -0.45593999997E+02  0.45594000000E+02  0.51100000000E-03 0.  1.
    9900012    2    1    2    0    0  0.55104560810E+01 -0.42063695361E+02  0.15145754407E+02  0.46142317963E+02  0.10000001841E+02 0.  0.
        -12    1    1    2    0    0 -0.55104560810E+01  0.42063695361E+02 -0.15145754407E+02  0.45045682037E+02  0.00000000000E+00 0.  1.
         11    1    3    3    0    0  0.42769125561E+01 -0.25519445078E+02  0.99613360139E+01  0.27726562599E+02  0.51100000000E-03 0. -1.
        -11    1    3    3    0    0 -0.12083028131E+01 -0.58409673362E+01 -0.62119546059E+00  0.59968974622E+01  0.51100000000E-03 0.  1.
        -12    1    3    3    0    0  0.24418463380E+01 -0.10703282947E+02  0.58056138534E+01  0.12418857902E+02  0.00000000000E+00 0.  1.
</event>
<event>
 7    1  0.2031146E-008  0.4614232E+02  0.7816164E-02  0.1320468E+00
        -11   -1    0    0    0    0  0.00000000000E+00  0.00000000000E+00  0.45593999997E+02  0.45594000000E+02  0.51100000000E-03 0.  1.
         11   -1    0    0    0    0 -0.00000000000E+00 -0.00000000000E+00 -0.45593999997E+02  0.45594000000E+02  0.51100000000E-03 0. -1.
    9900012    2    1    2    0    0 -0.12220819062E+02 -0.41952601423E+02  0.10942775227E+02  0.46142317472E+02  0.99999973674E+01 0.  0.
        -12    1    1    2    0    0  0.12220819062E+02  0.41952601423E+02 -0.10942775227E+02  0.45045682528E+02  0.00000000000E+00 0.  1.
         11    1    3    3    0    0 -0.73332675850E+01 -0.27676276593E+02  0.31061097650E+01  0.28799323215E+02  0.51100000000E-03 0.  1.
        -11    1    3    3    0    0 -0.36372225529E+01 -0.59552088837E+01  0.26859132585E+01  0.74771673140E+01  0.51100000000E-03 0. -1.
        -12    1    3    3    0    0 -0.12503289245E+01 -0.83211159463E+01  0.51507522035E+01  0.98658269432E+01  0.00000000000E+00 0.  1.
</event>
<event>
 7    1  0.2031146E-008  0.4614232E+02  0.7816164E-02  0.1320468E+00
        -11   -1    0    0    0    0  0.00000000000E+00  0.00000000000E+00  0.45593999997E+02  0.45594000000E+02  0.51100000000E-03 0.  1.
         11   -1    0    0    0    0 -0.00000000000E+00 -0.00000000000E+00 -0.45593999997E+02  0.45594000000E+02  0.51100000000E-03 0. -1.
    9900012    2    1    2    0    0 -0.10960999623E+02 -0.11457116538E+02 -0.42162832642E+02  0.46142317760E+02  0.99999999880E+01 0.  0.
        -12    1    1    2    0    0  0.10960999623E+02  0.11457116538E+02  0.42162832642E+02  0.45045682240E+02  0.00000000000E+00 0.  1.
         11    1    3    3    0    0  0.98618668325E-01 -0.19316398264E+01 -0.17044474936E+01  0.25780030218E+01  0.51100000000E-03 0. -1.
        -11    1    3    3    0    0 -0.44343473408E+01 -0.12904285909E+01 -0.63224155112E+01  0.78295325815E+01  0.51100000000E-03 0.  1.
         12    1    3    3    0    0 -0.66252709509E+01 -0.82350481205E+01 -0.34135969637E+02  0.35734782157E+02  0.00000000000E+00 0. -1.
</event>
<event>
 7    1  0.2031146E-008  0.4614232E+02  0.7816164E-02  0.1320468E+00
        -11   -1    0    0    0    0  0.00000000000E+00  0.00000000000E+00  0.45593999997E+02  0.45594000000E+02  0.51100000000E-03 0.  1.
         11   -1    0    0    0    0 -0.00000000000E+00 -0.00000000000E+00 -0.45593999997E+02  0.45594000000E+02  0.51100000000E-03 0. -1.
    9900012    2    1    2    0    0 -0.36498034030E+02 -0.87439031263E+01 -0.24910866041E+02  0.46142316779E+02  0.99999910472E+01 0.  0.
        -12    1    1    2    0    0  0.36498034030E+02  0.87439031263E+01  0.24910866041E+02  0.45045683221E+02  0.00000000000E+00 0.  1.
         11    1    3    3    0    0 -0.12366501009E+02 -0.40344524906E+01 -0.11181473990E+02  0.17153207133E+02  0.51100000000E-03 0. -1.
        -11    1    3    3    0    0 -0.16146055957E+02 -0.61895364337E+01 -0.10620813845E+02  0.20293032578E+02  0.51100000000E-03 0.  1.
         12    1    3    3    0    0 -0.79854770640E+01  0.14800857981E+01 -0.31085782051E+01  0.86960770676E+01  0.00000000000E+00 0. -1.
</event>
<event>
 7    1  0.2031146E-008  0.4614232E+02  0.7816164E-02  0.1320468E+00
        -11   -1    0    0    0    0  0.00000000000E+00  0.00000000000E+00  0.45593999997E+02  0.45594000000E+02  0.51100000000E-03 0.  1.
         11   -1    0    0    0    0 -0.00000000000E+00 -0.00000000000E+00 -0.45593999997E+02  0.45594000000E+02  0.51100000000E-03 0. -1.
    9900012    2    1    2    0    0 -0.12691110997E+02 -0.81890947940E+01 -0.42438047624E+02  0.46142318098E+02  0.10000003070E+02 0.  0.
        -12    1    1    2    0    0  0.12691110997E+02  0.81890947940E+01  0.42438047624E+02  0.45045681902E+02  0.00000000000E+00 0.  1.
         11    1    3    3    0    0 -0.25057694505E+01 -0.60793516193E+01 -0.23550935638E+02  0.24451665922E+02  0.51100000000E-03 0. -1.
        -11    1    3    3    0    0 -0.58599104474E+01 -0.14153245025E+01 -0.85306675593E+01  0.10445763886E+02  0.51100000000E-03 0.  1.
         12    1    3    3    0    0 -0.43254310996E+01 -0.69441867223E+00 -0.10356444427E+02  0.11244888290E+02  0.00000000000E+00 0. -1.
</event>
<event>
 7    1  0.2031146E-008  0.4614232E+02  0.7816164E-02  0.1320468E+00
        -11   -1    0    0    0    0  0.00000000000E+00  0.00000000000E+00  0.45593999997E+02  0.45594000000E+02  0.51100000000E-03 0.  1.
         11   -1    0    0    0    0 -0.00000000000E+00 -0.00000000000E+00 -0.45593999997E+02  0.45594000000E+02  0.51100000000E-03 0. -1.
    9900012    2    1    2    0    0  0.77520362995E+01  0.35778809240E+02 -0.26246832156E+02  0.46142318124E+02  0.10000003311E+02 0.  0.
        -12    1    1    2    0    0 -0.77520362995E+01 -0.35778809240E+02  0.26246832156E+02  0.45045681876E+02  0.00000000000E+00 0.  1.
         11    1    3    3    0    0 -0.27729928770E+00  0.51465042540E+00 -0.10895548503E+00  0.59466924770E+00  0.51100000000E-03 0.  1.
        -11    1    3    3    0    0 -0.14362152067E+01  0.11973322262E+02 -0.10070556920E+02  0.15711119535E+02  0.51100000000E-03 0. -1.
         12    1    3    3    0    0  0.94655507939E+01  0.23290836553E+02 -0.16067319751E+02  0.29836529341E+02  0.00000000000E+00 0. -1.
</event>
<event>
 7    1  0.2031146E-008  0.4614232E+02  0.7816164E-02  0.1320468E+00
        -11   -1    0    0    0    0  0.00000000000E+00  0.00000000000E+00  0.45593999997E+02  0.45594000000E+02  0.51100000000E-03 0. -1.
         11   -1    0    0    0    0 -0.00000000000E+00 -0.00000000000E+00 -0.45593999997E+02  0.45594000000E+02  0.51100000000E-03 0.  1.
    9900012    2    1    2    0    0  0.43941337945E+02 -0.17302022058E+01 -0.97610792681E+01  0.46142318203E+02  0.10000004027E+02 0.  0.
        -12    1    1    2    0    0 -0.43941337945E+02  0.17302022058E+01  0.97610792681E+01  0.45045681797E+02  0.00000000000E+00 0.  1.
         11    1    3    3    0    0  0.93697813551E+01  0.10660335082E+01 -0.35441271692E+01  0.10074227898E+02  0.51100000000E-03 0. -1.
        -11    1    3    3    0    0  0.74907874466E+01  0.25652075385E+01 -0.16117360835E+01  0.80802153282E+01  0.51100000000E-03 0.  1.
         12    1    3    3    0    0  0.27080769144E+02 -0.53614432525E+01 -0.46052160153E+01  0.27987874977E+02  0.00000000000E+00 0. -1.
</event>
<event>
 7    1  0.2031146E-008  0.4614232E+02  0.7816164E-02  0.1320468E+00
        -11   -1    0    0    0    0  0.00000000000E+00  0.00000000000E+00  0.45593999997E+02  0.45594000000E+02  0.51100000000E-03 0.  1.
         11   -1    0    0    0    0 -0.00000000000E+00 -0.00000000000E+00 -0.45593999997E+02  0.45594000000E+02  0.51100000000E-03 0. -1.
    9900012    2    1    2    0    0  0.23433774719E+02  0.38432135312E+02 -0.17154144308E+01  0.46142317977E+02  0.10000001973E+02 0.  0.
        -12    1    1    2    0    0 -0.23433774719E+02 -0.38432135312E+02  0.17154144308E+01  0.45045682023E+02  0.00000000000E+00 0.  1.
         11    1    3    3    0    0  0.64436194637E+00  0.77673803487E+01 -0.61046581880E+00  0.78179325001E+01  0.51100000000E-03 0.  1.
        -11    1    3    3    0    0  0.11148054589E+02  0.15772997828E+02 -0.18821097853E+01  0.19406414381E+02  0.51100000000E-03 0. -1.
        -12    1    3    3    0    0  0.11641358184E+02  0.14891757135E+02  0.77716117330E+00  0.18917971097E+02  0.00000000000E+00 0.  1.
</event>
<event>
 7    1  0.2031146E-008  0.4614232E+02  0.7816164E-02  0.1320468E+00
        -11   -1    0    0    0    0  0.00000000000E+00  0.00000000000E+00  0.45593999997E+02  0.45594000000E+02  0.51100000000E-03 0.  1.
         11   -1    0    0    0    0 -0.00000000000E+00 -0.00000000000E+00 -0.45593999997E+02  0.45594000000E+02  0.51100000000E-03 0. -1.
    9900012    2    1    2    0    0 -0.22567517227E+02  0.33285374323E+02 -0.20295430325E+02  0.46142317968E+02  0.10000001889E+02 0.  0.
        -12    1    1    2    0    0  0.22567517227E+02 -0.33285374323E+02  0.20295430325E+02  0.45045682032E+02  0.00000000000E+00 0.  1.
         11    1    3    3    0    0 -0.72454217074E+01  0.55469103647E+01 -0.52649110091E+01  0.10534877242E+02  0.51100000000E-03 0.  1.
        -11    1    3    3    0    0 -0.12991204108E+02  0.20914496542E+02 -0.14000534859E+02  0.28323180019E+02  0.51100000000E-03 0. -1.
         12    1    3    3    0    0 -0.23308914121E+01  0.68239674164E+01 -0.10299844571E+01  0.72842607077E+01  0.00000000000E+00 0. -1.
</event>
<event>
 7    1  0.2031146E-008  0.4614232E+02  0.7816164E-02  0.1320468E+00
        -11   -1    0    0    0    0  0.00000000000E+00  0.00000000000E+00  0.45593999997E+02  0.45594000000E+02  0.51100000000E-03 0.  1.
         11   -1    0    0    0    0 -0.00000000000E+00 -0.00000000000E+00 -0.45593999997E+02  0.45594000000E+02  0.51100000000E-03 0. -1.
    9900012    2    1    2    0    0 -0.30063351277E+02  0.75910751586E+00 -0.33537027040E+02  0.46142317445E+02  0.99999971147E+01 0.  0.
        -12    1    1    2    0    0  0.30063351277E+02 -0.75910751586E+00  0.33537027040E+02  0.45045682555E+02  0.00000000000E+00 0.  1.
         11    1    3    3    0    0 -0.26005324099E+02  0.22302659239E+01 -0.31095625302E+02  0.40597892566E+02  0.51100000000E-03 0. -1.
        -11    1    3    3    0    0 -0.41519652105E+01 -0.71333621191E+00 -0.21161582530E+01  0.47144235781E+01  0.51100000000E-03 0.  1.
         12    1    3    3    0    0  0.93938032864E-01 -0.75782219614E+00 -0.32524348438E+00  0.83000130067E+00  0.00000000000E+00 0. -1.
</event>
<event>
 7    1  0.2031146E-008  0.4614232E+02  0.7816164E-02  0.1320468E+00
        -11   -1    0    0    0    0  0.00000000000E+00  0.00000000000E+00  0.45593999997E+02  0.45594000000E+02  0.51100000000E-03 0.  1.
         11   -1    0    0    0    0 -0.00000000000E+00 -0.00000000000E+00 -0.45593999997E+02  0.45594000000E+02  0.51100000000E-03 0. -1.
    9900012    2    1    2    0    0 -0.97498679968E+01 -0.34351526979E+02 -0.27459535992E+02  0.46142318202E+02  0.10000004020E+02 0.  0.
        -12    1    1    2    0    0  0.97498679968E+01  0.34351526979E+02  0.27459535992E+02  0.45045681798E+02  0.00000000000E+00 0.  1.
         11    1    3    3    0    0 -0.31579566857E+01 -0.21241869319E+02 -0.16093622540E+02  0.26836437717E+02  0.51100000000E-03 0. -1.
        -11    1    3    3    0    0 -0.14660978222E+01 -0.46103720573E+01 -0.97266389838E+00  0.49346781709E+01  0.51100000000E-03 0.  1.
         12    1    3    3    0    0 -0.51258134889E+01 -0.84992856027E+01 -0.10393249553E+02  0.14371202314E+02  0.00000000000E+00 0. -1.
</event>
<event>
 7    1  0.2031146E-008  0.4614232E+02  0.7816164E-02  0.1320468E+00
        -11   -1    0    0    0    0  0.00000000000E+00  0.00000000000E+00  0.45593999997E+02  0.45594000000E+02  0.51100000000E-03 0.  1.
         11   -1    0    0    0    0 -0.00000000000E+00 -0.00000000000E+00 -0.45593999997E+02  0.45594000000E+02  0.51100000000E-03 0. -1.
    9900012    2    1    2    0    0 -0.16080317565E+02  0.12494579275E+00 -0.42077562614E+02  0.46142317632E+02  0.99999988257E+01 0.  0.
        -12    1    1    2    0    0  0.16080317565E+02 -0.12494579275E+00  0.42077562614E+02  0.45045682368E+02  0.00000000000E+00 0.  1.
         11    1    3    3    0    0 -0.57591970014E+01 -0.61905046330E+00 -0.14544244185E+02  0.15655242341E+02  0.51100000000E-03 0. -1.
        -11    1    3    3    0    0 -0.70790562317E+01 -0.26713807875E+01 -0.21753088534E+02  0.23031417096E+02  0.51100000000E-03 0.  1.
         12    1    3    3    0    0 -0.32420643322E+01  0.34153770436E+01 -0.57802298948E+01  0.74556581950E+01  0.00000000000E+00 0. -1.
</event>
<event>
 7    1  0.2031146E-008  0.4614232E+02  0.7816164E-02  0.1320468E+00
        -11   -1    0    0    0    0  0.00000000000E+00  0.00000000000E+00  0.45593999997E+02  0.45594000000E+02  0.51100000000E-03 0.  1.
         11   -1    0    0    0    0 -0.00000000000E+00 -0.00000000000E+00 -0.45593999997E+02  0.45594000000E+02  0.51100000000E-03 0. -1.
    9900012    2    1    2    0    0  0.16330411667E+02  0.34242610936E+01 -0.41841433999E+02  0.46142317539E+02  0.99999979777E+01 0.  0.
        -12    1    1    2    0    0 -0.16330411667E+02 -0.34242610936E+01  0.41841433999E+02  0.45045682461E+02  0.00000000000E+00 0.  1.
         11    1    3    3    0    0  0.66600583851E+01  0.39238688381E+01 -0.29065523494E+02  0.30075867079E+02  0.51100000000E-03 0. -1.
        -11    1    3    3    0    0  0.41858879547E+01 -0.37910899776E+00 -0.63825837807E+01  0.76421696906E+01  0.51100000000E-03 0.  1.
         12    1    3    3    0    0  0.54844653272E+01 -0.12049874673E+00 -0.63933267248E+01  0.84242807695E+01  0.00000000000E+00 0. -1.
</event>
<event>
 7    1  0.2031146E-008  0.4614232E+02  0.7816164E-02  0.1320468E+00
        -11   -1    0    0    0    0  0.00000000000E+00  0.00000000000E+00  0.45593999997E+02  0.45594000000E+02  0.51100000000E-03 0. -1.
         11   -1    0    0    0    0 -0.00000000000E+00 -0.00000000000E+00 -0.45593999997E+02  0.45594000000E+02  0.51100000000E-03 0.  1.
    9900012    2    1    2    0    0  0.18970307975E+02  0.38739944450E+02  0.12979123766E+02  0.46142317250E+02  0.99999953394E+01 0.  0.
        -12    1    1    2    0    0 -0.18970307975E+02 -0.38739944450E+02 -0.12979123766E+02  0.45045682750E+02  0.00000000000E+00 0.  1.
         11    1    3    3    0    0  0.51174395165E+01  0.97986400699E+01  0.81294188340E+00  0.11084331698E+02  0.51100000000E-03 0. -1.
        -11    1    3    3    0    0  0.40166539011E+01  0.33060912792E+01  0.50471550541E+00  0.52267089177E+01  0.51100000000E-03 0.  1.
        -12    1    3    3    0    0  0.98362145571E+01  0.25635213101E+02  0.11661466377E+02  0.29831276634E+02  0.00000000000E+00 0.  1.
</event>
<event>
 7    1  0.2031146E-008  0.4614232E+02  0.7816164E-02  0.1320468E+00
        -11   -1    0    0    0    0  0.00000000000E+00  0.00000000000E+00  0.45593999997E+02  0.45594000000E+02  0.51100000000E-03 0. -1.
         11   -1    0    0    0    0 -0.00000000000E+00 -0.00000000000E+00 -0.45593999997E+02  0.45594000000E+02  0.51100000000E-03 0.  1.
    9900012    2    1    2    0    0 -0.57618762733E+01  0.19370223693E+02  0.40258026513E+02  0.46142317822E+02  0.10000000558E+02 0.  0.
        -12    1    1    2    0    0  0.57618762733E+01 -0.19370223693E+02 -0.40258026513E+02  0.45045682178E+02  0.00000000000E+00 0.  1.
         11    1    3    3    0    0 -0.51921580562E+01  0.49661685622E+01  0.14168343742E+02  0.15885946624E+02  0.51100000000E-03 0. -1.
        -11    1    3    3    0    0  0.78629723546E-01  0.92477887203E+01  0.11430103544E+02  0.14702892441E+02  0.51100000000E-03 0.  1.
        -12    1    3    3    0    0 -0.64834794069E+00  0.51562664108E+01  0.14659579227E+02  0.15553478757E+02  0.00000000000E+00 0.  1.
</event>
<event>
 7    1  0.2031146E-008  0.4614232E+02  0.7816164E-02  0.1320468E+00
        -11   -1    0    0    0    0  0.00000000000E+00  0.00000000000E+00  0.45593999997E+02  0.45594000000E+02  0.51100000000E-03 0. -1.
         11   -1    0    0    0    0 -0.00000000000E+00 -0.00000000000E+00 -0.45593999997E+02  0.45594000000E+02  0.51100000000E-03 0.  1.
    9900012    2    1    2    0    0  0.14829730152E+02  0.27077245362E+02  0.32802671071E+02  0.46142319384E+02  0.10000014795E+02 0.  0.
        -12    1    1    2    0    0 -0.14829730152E+02 -0.27077245362E+02 -0.32802671071E+02  0.45045680616E+02  0.00000000000E+00 0.  1.
         11    1    3    3    0    0  0.17360547967E+01  0.21978320139E+01  0.10666434033E+01  0.29970118834E+01  0.51100000000E-03 0. -1.
        -11    1    3    3    0    0  0.24719947669E+01  0.79857076437E+00  0.12907421481E+01  0.29007738532E+01  0.51100000000E-03 0.  1.
         12    1    3    3    0    0  0.10621680588E+02  0.24080842584E+02  0.30445285520E+02  0.40244533647E+02  0.00000000000E+00 0. -1.
</event>
<event>
 7    1  0.2031146E-008  0.4614232E+02  0.7816164E-02  0.1320468E+00
        -11   -1    0    0    0    0  0.00000000000E+00  0.00000000000E+00  0.45593999997E+02  0.45594000000E+02  0.51100000000E-03 0. -1.
         11   -1    0    0    0    0 -0.00000000000E+00 -0.00000000000E+00 -0.45593999997E+02  0.45594000000E+02  0.51100000000E-03 0.  1.
    9900012    2    1    2    0    0 -0.33732201687E+02  0.23913694310E+02 -0.17871410456E+02  0.46142317434E+02  0.99999970146E+01 0.  0.
        -12    1    1    2    0    0  0.33732201687E+02 -0.23913694310E+02  0.17871410456E+02  0.45045682566E+02  0.00000000000E+00 0.  1.
         11    1    3    3    0    0 -0.17977500547E+02  0.81646583965E+01 -0.67251885628E+01  0.20858579389E+02  0.51100000000E-03 0. -1.
        -11    1    3    3    0    0 -0.81977289915E+01  0.91549396274E+01 -0.38385921184E+01  0.12874411439E+02  0.51100000000E-03 0.  1.
         12    1    3    3    0    0 -0.75569721478E+01  0.65940962861E+01 -0.73076297747E+01  0.12409326605E+02  0.00000000000E+00 0. -1.
</event>
<event>
 7    1  0.2031146E-008  0.4614232E+02  0.7816164E-02  0.1320468E+00
        -11   -1    0    0    0    0  0.00000000000E+00  0.00000000000E+00  0.45593999997E+02  0.45594000000E+02  0.51100000000E-03 0.  1.
         11   -1    0    0    0    0 -0.00000000000E+00 -0.00000000000E+00 -0.45593999997E+02  0.45594000000E+02  0.51100000000E-03 0. -1.
    9900012    2    1    2    0    0 -0.30225901186E+02  0.21506183503E+01 -0.33329915893E+02  0.46142317018E+02  0.99999932274E+01 0.  0.
        -12    1    1    2    0    0  0.30225901186E+02 -0.21506183503E+01  0.33329915893E+02  0.45045682982E+02  0.00000000000E+00 0.  1.
         11    1    3    3    0    0 -0.24879225698E+01  0.64195848303E+00 -0.52068274797E+01  0.58062829824E+01  0.51100000000E-03 0. -1.
        -11    1    3    3    0    0 -0.41964277510E+01  0.30899530108E+01 -0.65075249541E+01  0.83370076627E+01  0.51100000000E-03 0.  1.
         12    1    3    3    0    0 -0.23541550866E+02 -0.15812931436E+01 -0.21615563460E+02  0.31999026373E+02  0.00000000000E+00 0. -1.
</event>
<event>
 7    1  0.2031146E-008  0.4614232E+02  0.7816164E-02  0.1320468E+00
        -11   -1    0    0    0    0  0.00000000000E+00  0.00000000000E+00  0.45593999997E+02  0.45594000000E+02  0.51100000000E-03 0. -1.
         11   -1    0    0    0    0 -0.00000000000E+00 -0.00000000000E+00 -0.45593999997E+02  0.45594000000E+02  0.51100000000E-03 0.  1.
    9900012    2    1    2    0    0 -0.35456919991E+02 -0.57186281426E+01  0.27188557953E+02  0.46142316892E+02  0.99999920732E+01 0.  0.
        -12    1    1    2    0    0  0.35456919991E+02  0.57186281426E+01 -0.27188557953E+02  0.45045683108E+02  0.00000000000E+00 0.  1.
         11    1    3    3    0    0 -0.28706162429E+02 -0.73401744484E+00  0.21720278110E+02  0.36004902783E+02  0.51100000000E-03 0. -1.
        -11    1    3    3    0    0 -0.37791301006E+01 -0.20513415268E+01  0.21706779087E+01  0.48168111050E+01  0.51100000000E-03 0.  1.
         12    1    3    3    0    0 -0.29716274617E+01 -0.29332691710E+01  0.32976019347E+01  0.53206030035E+01  0.00000000000E+00 0. -1.
</event>
<event>
 7    1  0.2031146E-008  0.4614232E+02  0.7816164E-02  0.1320468E+00
        -11   -1    0    0    0    0  0.00000000000E+00  0.00000000000E+00  0.45593999997E+02  0.45594000000E+02  0.51100000000E-03 0.  1.
         11   -1    0    0    0    0 -0.00000000000E+00 -0.00000000000E+00 -0.45593999997E+02  0.45594000000E+02  0.51100000000E-03 0. -1.
    9900012    2    1    2    0    0  0.98671319328E-01  0.29637448876E+02 -0.33922343117E+02  0.46142317915E+02  0.10000001408E+02 0.  0.
        -12    1    1    2    0    0 -0.98671319328E-01 -0.29637448876E+02  0.33922343117E+02  0.45045682085E+02  0.00000000000E+00 0.  1.
         11    1    3    3    0    0 -0.25821177644E+01  0.20810661017E+02 -0.28665998314E+02  0.35517466178E+02  0.51100000000E-03 0. -1.
        -11    1    3    3    0    0  0.14603745818E+01  0.41965507666E+01 -0.26341969567E+01  0.51655325111E+01  0.51100000000E-03 0.  1.
         12    1    3    3    0    0  0.12204145020E+01  0.46302370921E+01 -0.26221478471E+01  0.54593192266E+01  0.00000000000E+00 0. -1.
</event>
<event>
 7    1  0.2031146E-008  0.4614232E+02  0.7816164E-02  0.1320468E+00
        -11   -1    0    0    0    0  0.00000000000E+00  0.00000000000E+00  0.45593999997E+02  0.45594000000E+02  0.51100000000E-03 0. -1.
         11   -1    0    0    0    0 -0.00000000000E+00 -0.00000000000E+00 -0.45593999997E+02  0.45594000000E+02  0.51100000000E-03 0.  1.
    9900012    2    1    2    0    0  0.35287568420E+02 -0.26035126002E+02  0.10299187015E+02  0.46142317364E+02  0.99999963830E+01 0.  0.
        -12    1    1    2    0    0 -0.35287568420E+02  0.26035126002E+02 -0.10299187015E+02  0.45045682636E+02  0.00000000000E+00 0.  1.
         11    1    3    3    0    0  0.14212304962E+02 -0.61282071643E+01  0.34182237759E+01  0.15850198404E+02  0.51100000000E-03 0. -1.
        -11    1    3    3    0    0  0.10145356134E+02 -0.90565719369E+01  0.46357414019E+00  0.13607521728E+02  0.51100000000E-03 0.  1.
         12    1    3    3    0    0  0.10929907323E+02 -0.10850346901E+02  0.64173890991E+01  0.16684597233E+02  0.00000000000E+00 0. -1.
</event>
<event>
 7    1  0.2031146E-008  0.4614232E+02  0.7816164E-02  0.1320468E+00
        -11   -1    0    0    0    0  0.00000000000E+00  0.00000000000E+00  0.45593999997E+02  0.45594000000E+02  0.51100000000E-03 0.  1.
         11   -1    0    0    0    0 -0.00000000000E+00 -0.00000000000E+00 -0.45593999997E+02  0.45594000000E+02  0.51100000000E-03 0. -1.
    9900012    2    1    2    0    0  0.97902644191E+01  0.32248842675E+01 -0.43850476461E+02  0.46142318278E+02  0.10000004718E+02 0.  0.
        -12    1    1    2    0    0 -0.97902644191E+01 -0.32248842675E+01  0.43850476461E+02  0.45045681722E+02  0.00000000000E+00 0.  1.
         11    1    3    3    0    0  0.13922004019E+01 -0.64560648887E+00 -0.47105020826E+01  0.49541759990E+01  0.51100000000E-03 0. -1.
        -11    1    3    3    0    0  0.28363438612E+01 -0.90727597643E+00 -0.27060439659E+01  0.40237632141E+01  0.51100000000E-03 0.  1.
         12    1    3    3    0    0  0.55617201561E+01  0.47777667329E+01 -0.36433930412E+02  0.37164379065E+02  0.00000000000E+00 0. -1.
</event>
<event>
 7    1  0.2031146E-008  0.4614232E+02  0.7816164E-02  0.1320468E+00
        -11   -1    0    0    0    0  0.00000000000E+00  0.00000000000E+00  0.45593999997E+02  0.45594000000E+02  0.51100000000E-03 0. -1.
         11   -1    0    0    0    0 -0.00000000000E+00 -0.00000000000E+00 -0.45593999997E+02  0.45594000000E+02  0.51100000000E-03 0.  1.
    9900012    2    1    2    0    0  0.92700149164E+00 -0.72105060475E+01  0.44455177105E+02  0.46142317624E+02  0.99999987518E+01 0.  0.
        -12    1    1    2    0    0 -0.92700149164E+00  0.72105060475E+01 -0.44455177105E+02  0.45045682376E+02  0.00000000000E+00 0.  1.
         11    1    3    3    0    0 -0.57700541876E+00  0.45255634994E+00  0.59180768972E+01  0.59633360567E+01  0.51100000000E-03 0. -1.
        -11    1    3    3    0    0  0.18419078748E+01 -0.85615247697E+01  0.22977357937E+02  0.24589658579E+02  0.51100000000E-03 0.  1.
         12    1    3    3    0    0 -0.33790096442E+00  0.89846237219E+00  0.15559742272E+02  0.15589322989E+02  0.00000000000E+00 0. -1.
</event>
<event>
 7    1  0.2031146E-008  0.4614232E+02  0.7816164E-02  0.1320468E+00
        -11   -1    0    0    0    0  0.00000000000E+00  0.00000000000E+00  0.45593999997E+02  0.45594000000E+02  0.51100000000E-03 0.  1.
         11   -1    0    0    0    0 -0.00000000000E+00 -0.00000000000E+00 -0.45593999997E+02  0.45594000000E+02  0.51100000000E-03 0. -1.
    9900012    2    1    2    0    0 -0.91356215881E+01 -0.13998390758E+02 -0.41829403404E+02  0.46142317468E+02  0.99999973273E+01 0.  0.
        -12    1    1    2    0    0  0.91356215881E+01  0.13998390758E+02  0.41829403404E+02  0.45045682532E+02  0.00000000000E+00 0.  1.
         11    1    3    3    0    0  0.73537444328E+00 -0.17802211612E+01 -0.40185326426E+01  0.44562953017E+01  0.51100000000E-03 0. -1.
        -11    1    3    3    0    0 -0.33045806645E+01 -0.15894433627E+00 -0.12028381266E+02  0.12475074061E+02  0.51100000000E-03 0.  1.
         12    1    3    3    0    0 -0.65664153669E+01 -0.12059225261E+02 -0.25782489495E+02  0.29210948106E+02  0.00000000000E+00 0. -1.
</event>
<event>
 7    1  0.2031146E-008  0.4614232E+02  0.7816164E-02  0.1320468E+00
        -11   -1    0    0    0    0  0.00000000000E+00  0.00000000000E+00  0.45593999997E+02  0.45594000000E+02  0.51100000000E-03 0.  1.
         11   -1    0    0    0    0 -0.00000000000E+00 -0.00000000000E+00 -0.45593999997E+02  0.45594000000E+02  0.51100000000E-03 0. -1.
    9900012    2    1    2    0    0 -0.11823950317E+02 -0.22687923990E+02 -0.37075137546E+02  0.46142317408E+02  0.99999967816E+01 0.  0.
        -12    1    1    2    0    0  0.11823950317E+02  0.22687923990E+02  0.37075137546E+02  0.45045682592E+02  0.00000000000E+00 0.  1.
         11    1    3    3    0    0  0.20959142523E-01 -0.90108797120E+01 -0.11828617578E+02  0.14869854960E+02  0.51100000000E-03 0. -1.
        -11    1    3    3    0    0 -0.33281215883E+01 -0.24691603721E+01 -0.38230480898E+01  0.56381595586E+01  0.51100000000E-03 0.  1.
        -12    1    3    3    0    0 -0.85167878708E+01 -0.11207883906E+02 -0.21423471879E+02  0.25634302890E+02  0.00000000000E+00 0.  1.
</event>
<event>
 7    1  0.2031146E-008  0.4614231E+02  0.7816164E-02  0.1320468E+00
        -11   -1    0    0    0    0  0.00000000000E+00  0.00000000000E+00  0.45593999997E+02  0.45594000000E+02  0.51100000000E-03 0.  1.
         11   -1    0    0    0    0 -0.00000000000E+00 -0.00000000000E+00 -0.45593999997E+02  0.45594000000E+02  0.51100000000E-03 0. -1.
    9900012    2    1    2    0    0 -0.55772684682E+00 -0.23022408790E+02 -0.38713970192E+02  0.46142313705E+02  0.99999630160E+01 0.  0.
        -12    1    1    2    0    0  0.55772684682E+00  0.23022408790E+02  0.38713970192E+02  0.45045686295E+02  0.00000000000E+00 0.  1.
         11    1    3    3    0    0 -0.33698073649E+01 -0.21292346340E+02 -0.33900337133E+02  0.40174027335E+02  0.51100000000E-03 0. -1.
        -11    1    3    3    0    0  0.15432026948E+01 -0.15544988598E+01 -0.25010765016E+01  0.33246541459E+01  0.51100000000E-03 0.  1.
         12    1    3    3    0    0  0.12688778232E+01 -0.17556358996E+00 -0.23125565575E+01  0.26436322240E+01  0.00000000000E+00 0. -1.
</event>
<event>
 7    1  0.2031146E-008  0.4614232E+02  0.7816164E-02  0.1320468E+00
        -11   -1    0    0    0    0  0.00000000000E+00  0.00000000000E+00  0.45593999997E+02  0.45594000000E+02  0.51100000000E-03 0. -1.
         11   -1    0    0    0    0 -0.00000000000E+00 -0.00000000000E+00 -0.45593999997E+02  0.45594000000E+02  0.51100000000E-03 0.  1.
    9900012    2    1    2    0    0 -0.30721214135E+02 -0.21315452918E+02  0.25119158188E+02  0.46142316088E+02  0.99999847392E+01 0.  0.
        -12    1    1    2    0    0  0.30721214135E+02  0.21315452918E+02 -0.25119158188E+02  0.45045683912E+02  0.00000000000E+00 0.  1.
         11    1    3    3    0    0 -0.12290131377E+02 -0.10489442978E+02  0.13369963494E+02  0.20972164107E+02  0.51100000000E-03 0. -1.
        -11    1    3    3    0    0 -0.55913337667E+01 -0.25463740369E+00  0.23912049462E+01  0.60865191082E+01  0.51100000000E-03 0.  1.
        -12    1    3    3    0    0 -0.12839748992E+02 -0.10571372536E+02  0.93579897482E+01  0.19083632872E+02  0.00000000000E+00 0.  1.
</event>
<event>
 7    1  0.2031146E-008  0.4614232E+02  0.7816164E-02  0.1320468E+00
        -11   -1    0    0    0    0  0.00000000000E+00  0.00000000000E+00  0.45593999997E+02  0.45594000000E+02  0.51100000000E-03 0.  1.
         11   -1    0    0    0    0 -0.00000000000E+00 -0.00000000000E+00 -0.45593999997E+02  0.45594000000E+02  0.51100000000E-03 0. -1.
    9900012    2    1    2    0    0 -0.38129546265E+02  0.25974754110E+01 -0.23843326509E+02  0.46142318788E+02  0.10000009361E+02 0.  0.
        -12    1    1    2    0    0  0.38129546265E+02 -0.25974754110E+01  0.23843326509E+02  0.45045681212E+02  0.00000000000E+00 0.  1.
         11    1    3    3    0    0 -0.13319156178E+02 -0.20635453650E+01 -0.80750598816E+01  0.15711929643E+02  0.51100000000E-03 0. -1.
        -11    1    3    3    0    0 -0.19145370391E+02  0.14931358998E+01 -0.95715117315E+01  0.21456665615E+02  0.51100000000E-03 0.  1.
        -12    1    3    3    0    0 -0.56650196960E+01  0.31678848761E+01 -0.61967548957E+01  0.89737235294E+01  0.00000000000E+00 0.  1.
</event>
<event>
 7    1  0.2031146E-008  0.4614232E+02  0.7816164E-02  0.1320468E+00
        -11   -1    0    0    0    0  0.00000000000E+00  0.00000000000E+00  0.45593999997E+02  0.45594000000E+02  0.51100000000E-03 0.  1.
         11   -1    0    0    0    0 -0.00000000000E+00 -0.00000000000E+00 -0.45593999997E+02  0.45594000000E+02  0.51100000000E-03 0. -1.
    9900012    2    1    2    0    0  0.65142080937E+01  0.27357921352E+02 -0.35188389036E+02  0.46142317735E+02  0.99999997631E+01 0.  0.
        -12    1    1    2    0    0 -0.65142080937E+01 -0.27357921352E+02  0.35188389036E+02  0.45045682265E+02  0.00000000000E+00 0.  1.
         11    1    3    3    0    0  0.48126653649E+01  0.15649889924E+02 -0.19005498950E+02  0.25085649147E+02  0.51100000000E-03 0. -1.
        -11    1    3    3    0    0  0.10793524036E+01  0.12369980422E+02 -0.14122908140E+02  0.18805263939E+02  0.51100000000E-03 0.  1.
        -12    1    3    3    0    0  0.62219032512E+00 -0.66194899423E+00 -0.20599819465E+01  0.22514046485E+01  0.00000000000E+00 0.  1.
</event>
<event>
 7    1  0.2031146E-008  0.4614232E+02  0.7816164E-02  0.1320468E+00
        -11   -1    0    0    0    0  0.00000000000E+00  0.00000000000E+00  0.45593999997E+02  0.45594000000E+02  0.51100000000E-03 0. -1.
         11   -1    0    0    0    0 -0.00000000000E+00 -0.00000000000E+00 -0.45593999997E+02  0.45594000000E+02  0.51100000000E-03 0.  1.
    9900012    2    1    2    0    0  0.42644746119E+02  0.22166486182E-01  0.14509949640E+02  0.46142317616E+02  0.99999986798E+01 0.  0.
        -12    1    1    2    0    0 -0.42644746119E+02 -0.22166486182E-01 -0.14509949640E+02  0.45045682384E+02  0.00000000000E+00 0.  1.
         11    1    3    3    0    0  0.16582702472E+02  0.15198469548E+01  0.27961170022E+01  0.16885325777E+02  0.51100000000E-03 0. -1.
        -11    1    3    3    0    0  0.16181186688E+02 -0.33250768926E+01  0.53549093428E+01  0.17365540397E+02  0.51100000000E-03 0.  1.
        -12    1    3    3    0    0  0.98808569590E+01  0.18273964240E+01  0.63589232946E+01  0.11891451442E+02  0.00000000000E+00 0.  1.
</event>
<event>
 7    1  0.2031146E-008  0.4614232E+02  0.7816164E-02  0.1320468E+00
        -11   -1    0    0    0    0  0.00000000000E+00  0.00000000000E+00  0.45593999997E+02  0.45594000000E+02  0.51100000000E-03 0. -1.
         11   -1    0    0    0    0 -0.00000000000E+00 -0.00000000000E+00 -0.45593999997E+02  0.45594000000E+02  0.51100000000E-03 0.  1.
    9900012    2    1    2    0    0  0.38396041509E+02  0.23516275852E+02  0.13573490054E+01  0.46142316191E+02  0.99999856839E+01 0.  0.
        -12    1    1    2    0    0 -0.38396041509E+02 -0.23516275852E+02 -0.13573490054E+01  0.45045683809E+02  0.00000000000E+00 0.  1.
         11    1    3    3    0    0  0.15425401620E+02  0.10459165342E+02 -0.27453160343E+01  0.18838097440E+02  0.51100000000E-03 0. -1.
        -11    1    3    3    0    0  0.62824717303E+01  0.57537335629E+01  0.30815734936E+01  0.90593044110E+01  0.51100000000E-03 0.  1.
         12    1    3    3    0    0  0.16688168159E+02  0.73033769475E+01  0.10210915461E+01  0.18244914340E+02  0.00000000000E+00 0. -1.
</event>
<event>
 7    1  0.2031146E-008  0.4614232E+02  0.7816164E-02  0.1320468E+00
        -11   -1    0    0    0    0  0.00000000000E+00  0.00000000000E+00  0.45593999997E+02  0.45594000000E+02  0.51100000000E-03 0. -1.
         11   -1    0    0    0    0 -0.00000000000E+00 -0.00000000000E+00 -0.45593999997E+02  0.45594000000E+02  0.51100000000E-03 0.  1.
    9900012    2    1    2    0    0  0.37693595318E+02 -0.20568009798E+02  0.13611147447E+02  0.46142317745E+02  0.99999998497E+01 0.  0.
        -12    1    1    2    0    0 -0.37693595318E+02  0.20568009798E+02 -0.13611147447E+02  0.45045682255E+02  0.00000000000E+00 0.  1.
         11    1    3    3    0    0  0.11295870294E+02 -0.96184901320E+01  0.47662862613E+01  0.15582988260E+02  0.51100000000E-03 0. -1.
        -11    1    3    3    0    0  0.10225073200E+02 -0.62884748326E+01  0.11693684653E+01  0.12060864834E+02  0.51100000000E-03 0.  1.
         12    1    3    3    0    0  0.16172651824E+02 -0.46610448331E+01  0.76754927199E+01  0.18498464651E+02  0.00000000000E+00 0. -1.
</event>
<event>
 7    1  0.2272361E-008  0.4614232E+02  0.7816164E-02  0.1320468E+00
        -11   -1    0    0    0    0  0.00000000000E+00  0.00000000000E+00  0.45593999997E+02  0.45594000000E+02  0.51100000000E-03 0.  1.
         11   -1    0    0    0    0 -0.00000000000E+00 -0.00000000000E+00 -0.45593999997E+02  0.45594000000E+02  0.51100000000E-03 0. -1.
    9900012    2    1    2    0    0 -0.16767593464E+01 -0.39320073387E+02 -0.21914237443E+02  0.46142317679E+02  0.99999992480E+01 0.  0.
        -12    1    1    2    0    0  0.16767593464E+01  0.39320073387E+02  0.21914237443E+02  0.45045682321E+02  0.00000000000E+00 0.  1.
         11    1    3    3    0    0 -0.31641717149E+01 -0.24631299021E+02 -0.12099167466E+02  0.27624314068E+02  0.51100000000E-03 0. -1.
        -11    1    3    3    0    0 -0.19962869194E+01 -0.66064378758E+01 -0.43683634908E+01  0.81677893411E+01  0.51100000000E-03 0.  1.
        -12    1    3    3    0    0  0.34836992880E+01 -0.80823364901E+01 -0.54467064866E+01  0.10350214269E+02  0.00000000000E+00 0.  1.
</event>
<event>
 7    1  0.2031146E-008  0.4614232E+02  0.7816164E-02  0.1320468E+00
        -11   -1    0    0    0    0  0.00000000000E+00  0.00000000000E+00  0.45593999997E+02  0.45594000000E+02  0.51100000000E-03 0.  1.
         11   -1    0    0    0    0 -0.00000000000E+00 -0.00000000000E+00 -0.45593999997E+02  0.45594000000E+02  0.51100000000E-03 0. -1.
    9900012    2    1    2    0    0  0.37996516385E+02 -0.22146864389E+02  0.97413975601E+01  0.46142315567E+02  0.99999799910E+01 0.  0.
        -12    1    1    2    0    0 -0.37996516385E+02  0.22146864389E+02 -0.97413975601E+01  0.45045684433E+02  0.00000000000E+00 0.  1.
         11    1    3    3    0    0  0.36378649525E+01 -0.53591875428E+01  0.10668650368E+01  0.65645375922E+01  0.51100000000E-03 0. -1.
        -11    1    3    3    0    0  0.49311042056E+01 -0.44979551362E+01  0.22737643599E+01  0.70510562131E+01  0.51100000000E-03 0.  1.
         12    1    3    3    0    0  0.29427547227E+02 -0.12289721710E+02  0.64007681635E+01  0.32526721762E+02  0.00000000000E+00 0. -1.
</event>
<event>
 7    1  0.2031146E-008  0.4614232E+02  0.7816164E-02  0.1320468E+00
        -11   -1    0    0    0    0  0.00000000000E+00  0.00000000000E+00  0.45593999997E+02  0.45594000000E+02  0.51100000000E-03 0.  1.
         11   -1    0    0    0    0 -0.00000000000E+00 -0.00000000000E+00 -0.45593999997E+02  0.45594000000E+02  0.51100000000E-03 0. -1.
    9900012    2    1    2    0    0  0.24481994699E+01 -0.63602299073E+01 -0.44527150553E+02  0.46142319391E+02  0.10000014866E+02 0.  0.
        -12    1    1    2    0    0 -0.24481994699E+01  0.63602299073E+01  0.44527150553E+02  0.45045680609E+02  0.00000000000E+00 0.  1.
         11    1    3    3    0    0  0.16058829933E+01 -0.20994252346E+01 -0.15057538565E+02  0.15287770092E+02  0.51100000000E-03 0. -1.
        -11    1    3    3    0    0 -0.64918772540E+00  0.66206370929E+00 -0.20451942865E+02  0.20472951430E+02  0.51100000000E-03 0.  1.
        -12    1    3    3    0    0  0.14915042020E+01 -0.49228683820E+01 -0.90176691236E+01  0.10381597869E+02  0.00000000000E+00 0.  1.
</event>
<event>
 7    1  0.2031146E-008  0.4614232E+02  0.7816164E-02  0.1320468E+00
        -11   -1    0    0    0    0  0.00000000000E+00  0.00000000000E+00  0.45593999997E+02  0.45594000000E+02  0.51100000000E-03 0. -1.
         11   -1    0    0    0    0 -0.00000000000E+00 -0.00000000000E+00 -0.45593999997E+02  0.45594000000E+02  0.51100000000E-03 0.  1.
    9900012    2    1    2    0    0  0.37450165116E+02  0.14873030325E+02  0.20134339698E+02  0.46142317261E+02  0.99999954435E+01 0.  0.
        -12    1    1    2    0    0 -0.37450165116E+02 -0.14873030325E+02 -0.20134339698E+02  0.45045682739E+02  0.00000000000E+00 0.  1.
         11    1    3    3    0    0  0.42152594021E+01 -0.64640224910E+00  0.37991873345E+01  0.57113984591E+01  0.51100000000E-03 0.  1.
        -11    1    3    3    0    0  0.18430838054E+02  0.61901169288E+01  0.76227708975E+01  0.20883485709E+02  0.51100000000E-03 0. -1.
        -12    1    3    3    0    0  0.14804067660E+02  0.93293156454E+01  0.87123814664E+01  0.19547433093E+02  0.00000000000E+00 0.  1.
</event>
<event>
 7    1  0.2031146E-008  0.4614232E+02  0.7816164E-02  0.1320468E+00
        -11   -1    0    0    0    0  0.00000000000E+00  0.00000000000E+00  0.45593999997E+02  0.45594000000E+02  0.51100000000E-03 0. -1.
         11   -1    0    0    0    0 -0.00000000000E+00 -0.00000000000E+00 -0.45593999997E+02  0.45594000000E+02  0.51100000000E-03 0.  1.
    9900012    2    1    2    0    0  0.28337697043E+02 -0.27082416072E+02  0.22195295436E+02  0.46142317926E+02  0.10000001501E+02 0.  0.
        -12    1    1    2    0    0 -0.28337697043E+02  0.27082416072E+02 -0.22195295436E+02  0.45045682074E+02  0.00000000000E+00 0.  1.
         11    1    3    3    0    0  0.28099202495E+01 -0.64097137533E+01  0.29255244627E+01  0.75854318170E+01  0.51100000000E-03 0. -1.
        -11    1    3    3    0    0  0.12994776906E+02 -0.67028254578E+01  0.80548762548E+01  0.16693505555E+02  0.51100000000E-03 0.  1.
         12    1    3    3    0    0  0.12532999888E+02 -0.13969876861E+02  0.11214894719E+02  0.21863380554E+02  0.00000000000E+00 0. -1.
</event>
<event>
 7    1  0.2031146E-008  0.4614232E+02  0.7816164E-02  0.1320468E+00
        -11   -1    0    0    0    0  0.00000000000E+00  0.00000000000E+00  0.45593999997E+02  0.45594000000E+02  0.51100000000E-03 0. -1.
         11   -1    0    0    0    0 -0.00000000000E+00 -0.00000000000E+00 -0.45593999997E+02  0.45594000000E+02  0.51100000000E-03 0.  1.
    9900012    2    1    2    0    0  0.38359675015E+02 -0.13038343360E+02 -0.19688839187E+02  0.46142318150E+02  0.10000003544E+02 0.  0.
        -12    1    1    2    0    0 -0.38359675015E+02  0.13038343360E+02  0.19688839187E+02  0.45045681850E+02  0.00000000000E+00 0.  1.
         11    1    3    3    0    0  0.14675266754E+01 -0.58507596649E+00 -0.21845049065E+01  0.26959247722E+01  0.51100000000E-03 0. -1.
        -11    1    3    3    0    0  0.21099761190E+02 -0.54914634729E+01 -0.56954425781E+01  0.22534288535E+02  0.51100000000E-03 0.  1.
         12    1    3    3    0    0  0.15792387149E+02 -0.69618039203E+01 -0.11808891703E+02  0.20912104842E+02  0.00000000000E+00 0. -1.
</event>
<event>
 7    1  0.2031146E-008  0.4614232E+02  0.7816164E-02  0.1320468E+00
        -11   -1    0    0    0    0  0.00000000000E+00  0.00000000000E+00  0.45593999997E+02  0.45594000000E+02  0.51100000000E-03 0.  1.
         11   -1    0    0    0    0 -0.00000000000E+00 -0.00000000000E+00 -0.45593999997E+02  0.45594000000E+02  0.51100000000E-03 0. -1.
    9900012    2    1    2    0    0 -0.75192121535E+01 -0.40200887064E+02 -0.18880246336E+02  0.46142316812E+02  0.99999913446E+01 0.  0.
        -12    1    1    2    0    0  0.75192121535E+01  0.40200887064E+02  0.18880246336E+02  0.45045683188E+02  0.00000000000E+00 0.  1.
         11    1    3    3    0    0 -0.43299891424E+01 -0.18563247291E+02 -0.11736261991E+02  0.22384878864E+02  0.51100000000E-03 0. -1.
        -11    1    3    3    0    0  0.97066190979E+00 -0.79202588916E+01 -0.60583012002E+00  0.80024818556E+01  0.51100000000E-03 0.  1.
        -12    1    3    3    0    0 -0.41598849209E+01 -0.13717380882E+02 -0.65381542245E+01  0.15754956093E+02  0.00000000000E+00 0.  1.
</event>
<event>
 7    1  0.2031146E-008  0.4614231E+02  0.7816164E-02  0.1320468E+00
        -11   -1    0    0    0    0  0.00000000000E+00  0.00000000000E+00  0.45593999997E+02  0.45594000000E+02  0.51100000000E-03 0. -1.
         11   -1    0    0    0    0 -0.00000000000E+00 -0.00000000000E+00 -0.45593999997E+02  0.45594000000E+02  0.51100000000E-03 0.  1.
    9900012    2    1    2    0    0  0.10436354586E+02 -0.28350683436E+02  0.33413104856E+02  0.46142308481E+02  0.99999153762E+01 0.  0.
        -12    1    1    2    0    0 -0.10436354586E+02  0.28350683436E+02 -0.33413104856E+02  0.45045691519E+02  0.00000000000E+00 0.  1.
         11    1    3    3    0    0  0.46116813737E+01 -0.49362043446E+01  0.60935573978E+01  0.90975359546E+01  0.51100000000E-03 0. -1.
        -11    1    3    3    0    0 -0.88166741356E+00 -0.59854158138E+01  0.44022717937E+01  0.74821478934E+01  0.51100000000E-03 0.  1.
         12    1    3    3    0    0  0.67063406258E+01 -0.17429063278E+02  0.22917275664E+02  0.29562624633E+02  0.00000000000E+00 0. -1.
</event>
<event>
 7    1  0.2031146E-008  0.4614232E+02  0.7816164E-02  0.1320468E+00
        -11   -1    0    0    0    0  0.00000000000E+00  0.00000000000E+00  0.45593999997E+02  0.45594000000E+02  0.51100000000E-03 0.  1.
         11   -1    0    0    0    0 -0.00000000000E+00 -0.00000000000E+00 -0.45593999997E+02  0.45594000000E+02  0.51100000000E-03 0. -1.
    9900012    2    1    2    0    0  0.18111760555E+02  0.39639790971E+01 -0.41053189748E+02  0.46142318863E+02  0.10000010044E+02 0.  0.
        -12    1    1    2    0    0 -0.18111760555E+02 -0.39639790971E+01  0.41053189748E+02  0.45045681137E+02  0.00000000000E+00 0.  1.
         11    1    3    3    0    0  0.27796615156E+01  0.22132539017E+01 -0.10251636265E+02  0.10849933518E+02  0.51100000000E-03 0.  1.
        -11    1    3    3    0    0  0.10965484548E+02  0.45970695263E+01 -0.23289201834E+02  0.26148839782E+02  0.51100000000E-03 0. -1.
        -12    1    3    3    0    0  0.43666144915E+01 -0.28463443310E+01 -0.75123516487E+01  0.91435455630E+01  0.00000000000E+00 0.  1.
</event>
<event>
 7    1  0.2031146E-008  0.4614232E+02  0.7816164E-02  0.1320468E+00
        -11   -1    0    0    0    0  0.00000000000E+00  0.00000000000E+00  0.45593999997E+02  0.45594000000E+02  0.51100000000E-03 0.  1.
         11   -1    0    0    0    0 -0.00000000000E+00 -0.00000000000E+00 -0.45593999997E+02  0.45594000000E+02  0.51100000000E-03 0. -1.
    9900012    2    1    2    0    0  0.15611024258E+01 -0.24100982681E+02 -0.38023927666E+02  0.46142317831E+02  0.10000000634E+02 0.  0.
        -12    1    1    2    0    0 -0.15611024258E+01  0.24100982681E+02  0.38023927666E+02  0.45045682169E+02  0.00000000000E+00 0.  1.
         11    1    3    3    0    0  0.30420816903E+01 -0.88735838182E+01 -0.12093209377E+02  0.15304916337E+02  0.51100000000E-03 0. -1.
        -11    1    3    3    0    0  0.14943003152E+01 -0.52353059397E+01 -0.47308226887E+01  0.72126309546E+01  0.51100000000E-03 0.  1.
         12    1    3    3    0    0 -0.29752795796E+01 -0.99920929235E+01 -0.21199895600E+02  0.23624770539E+02  0.00000000000E+00 0. -1.
</event>
<event>
 7    1  0.2031146E-008  0.4614232E+02  0.7816164E-02  0.1320468E+00
        -11   -1    0    0    0    0  0.00000000000E+00  0.00000000000E+00  0.45593999997E+02  0.45594000000E+02  0.51100000000E-03 0.  1.
         11   -1    0    0    0    0 -0.00000000000E+00 -0.00000000000E+00 -0.45593999997E+02  0.45594000000E+02  0.51100000000E-03 0. -1.
    9900012    2    1    2    0    0 -0.39749308239E+02 -0.18947961431E+02 -0.94910734984E+01  0.46142320695E+02  0.10000026753E+02 0.  0.
        -12    1    1    2    0    0  0.39749308239E+02  0.18947961431E+02  0.94910734984E+01  0.45045679305E+02  0.00000000000E+00 0.  1.
         11    1    3    3    0    0 -0.19252573437E+02 -0.93956008724E+01 -0.69331781715E+01  0.22516835025E+02  0.51100000000E-03 0. -1.
        -11    1    3    3    0    0 -0.14153703608E+01  0.87137035964E-01 -0.17225906353E+01  0.22311846358E+01  0.51100000000E-03 0.  1.
         12    1    3    3    0    0 -0.19081364441E+02 -0.96394975949E+01 -0.83530469157E+00  0.21394301034E+02  0.00000000000E+00 0. -1.
</event>
<event>
 7    1  0.2031146E-008  0.4614232E+02  0.7816164E-02  0.1320468E+00
        -11   -1    0    0    0    0  0.00000000000E+00  0.00000000000E+00  0.45593999997E+02  0.45594000000E+02  0.51100000000E-03 0.  1.
         11   -1    0    0    0    0 -0.00000000000E+00 -0.00000000000E+00 -0.45593999997E+02  0.45594000000E+02  0.51100000000E-03 0. -1.
    9900012    2    1    2    0    0  0.22243403577E+02 -0.30726636331E+02 -0.24294409295E+02  0.46142317567E+02  0.99999982280E+01 0.  0.
        -12    1    1    2    0    0 -0.22243403577E+02  0.30726636331E+02  0.24294409295E+02  0.45045682433E+02  0.00000000000E+00 0.  1.
         11    1    3    3    0    0  0.10692164224E+02 -0.13658648400E+02 -0.11308595585E+02  0.20706650774E+02  0.51100000000E-03 0. -1.
        -11    1    3    3    0    0  0.12412259147E+02 -0.14193476570E+02 -0.10870714854E+02  0.21764452576E+02  0.51100000000E-03 0.  1.
         12    1    3    3    0    0 -0.86101979403E+00 -0.28745113612E+01 -0.21150988561E+01  0.36712142163E+01  0.00000000000E+00 0. -1.
</event>
<event>
 7    1  0.2031146E-008  0.4614232E+02  0.7816164E-02  0.1320468E+00
        -11   -1    0    0    0    0  0.00000000000E+00  0.00000000000E+00  0.45593999997E+02  0.45594000000E+02  0.51100000000E-03 0.  1.
         11   -1    0    0    0    0 -0.00000000000E+00 -0.00000000000E+00 -0.45593999997E+02  0.45594000000E+02  0.51100000000E-03 0. -1.
    9900012    2    1    2    0    0  0.31947433591E+01  0.25718902220E+02 -0.36843521491E+02  0.46142318827E+02  0.10000009717E+02 0.  0.
        -12    1    1    2    0    0 -0.31947433591E+01 -0.25718902220E+02  0.36843521491E+02  0.45045681173E+02  0.00000000000E+00 0.  1.
         11    1    3    3    0    0  0.98588817857E+00  0.92823731246E+01 -0.18494844277E+02  0.20716990404E+02  0.51100000000E-03 0. -1.
        -11    1    3    3    0    0 -0.18480598453E+01  0.27241526874E+01 -0.37490979980E+01  0.49891952373E+01  0.51100000000E-03 0.  1.
         12    1    3    3    0    0  0.40569150259E+01  0.13712376408E+02 -0.14599579216E+02  0.20436133185E+02  0.00000000000E+00 0. -1.
</event>
<event>
 7    1  0.2031146E-008  0.4614232E+02  0.7816164E-02  0.1320468E+00
        -11   -1    0    0    0    0  0.00000000000E+00  0.00000000000E+00  0.45593999997E+02  0.45594000000E+02  0.51100000000E-03 0.  1.
         11   -1    0    0    0    0 -0.00000000000E+00 -0.00000000000E+00 -0.45593999997E+02  0.45594000000E+02  0.51100000000E-03 0. -1.
    9900012    2    1    2    0    0  0.27218181621E+02 -0.12299277422E+02 -0.33719608366E+02  0.46142316254E+02  0.99999862556E+01 0.  0.
        -12    1    1    2    0    0 -0.27218181621E+02  0.12299277422E+02  0.33719608366E+02  0.45045683746E+02  0.00000000000E+00 0.  1.
         11    1    3    3    0    0  0.18269272691E+02 -0.55120056697E+01 -0.24200209618E+02  0.30818803951E+02  0.51100000000E-03 0. -1.
        -11    1    3    3    0    0  0.32379782076E+00 -0.15076707676E+01 -0.27543797986E+01  0.31566635088E+01  0.51100000000E-03 0.  1.
         12    1    3    3    0    0  0.86251111089E+01 -0.52796009844E+01 -0.67650189495E+01  0.12166848794E+02  0.00000000000E+00 0. -1.
</event>
<event>
 7    1  0.2031146E-008  0.4614232E+02  0.7816164E-02  0.1320468E+00
        -11   -1    0    0    0    0  0.00000000000E+00  0.00000000000E+00  0.45593999997E+02  0.45594000000E+02  0.51100000000E-03 0.  1.
         11   -1    0    0    0    0 -0.00000000000E+00 -0.00000000000E+00 -0.45593999997E+02  0.45594000000E+02  0.51100000000E-03 0. -1.
    9900012    2    1    2    0    0 -0.61797911038E+01 -0.48189682633E+01 -0.44358779286E+02  0.46142316823E+02  0.99999914421E+01 0.  0.
        -12    1    1    2    0    0  0.61797911038E+01  0.48189682633E+01  0.44358779286E+02  0.45045683177E+02  0.00000000000E+00 0.  1.
         11    1    3    3    0    0 -0.46290147628E+01 -0.41360725403E+01 -0.30463926188E+02  0.31089960965E+02  0.51100000000E-03 0. -1.
        -11    1    3    3    0    0 -0.11206633443E+01 -0.74106645945E+00 -0.20907594435E+00  0.13596980695E+01  0.51100000000E-03 0.  1.
         12    1    3    3    0    0 -0.43011299670E+00  0.58170736493E-01 -0.13685777153E+02  0.13692657788E+02  0.00000000000E+00 0. -1.
</event>
<event>
 7    1  0.2031146E-008  0.4614232E+02  0.7816164E-02  0.1320468E+00
        -11   -1    0    0    0    0  0.00000000000E+00  0.00000000000E+00  0.45593999997E+02  0.45594000000E+02  0.51100000000E-03 0.  1.
         11   -1    0    0    0    0 -0.00000000000E+00 -0.00000000000E+00 -0.45593999997E+02  0.45594000000E+02  0.51100000000E-03 0. -1.
    9900012    2    1    2    0    0  0.23216092075E+02  0.91446900654E+01 -0.37503349902E+02  0.46142317171E+02  0.99999946172E+01 0.  0.
        -12    1    1    2    0    0 -0.23216092075E+02 -0.91446900654E+01  0.37503349902E+02  0.45045682829E+02  0.00000000000E+00 0.  1.
         11    1    3    3    0    0  0.55634016436E+01  0.17182934352E+01 -0.79419425155E+01  0.98477622513E+01  0.51100000000E-03 0. -1.
        -11    1    3    3    0    0  0.18297478004E+02  0.57140390480E+01 -0.26148294463E+02  0.32421925408E+02  0.51100000000E-03 0.  1.
        -12    1    3    3    0    0 -0.64478757274E+00  0.17123575822E+01 -0.34131129238E+01  0.38726295116E+01  0.00000000000E+00 0.  1.
</event>
<event>
 7    1  0.2031146E-008  0.4614231E+02  0.7816164E-02  0.1320468E+00
        -11   -1    0    0    0    0  0.00000000000E+00  0.00000000000E+00  0.45593999997E+02  0.45594000000E+02  0.51100000000E-03 0.  1.
         11   -1    0    0    0    0 -0.00000000000E+00 -0.00000000000E+00 -0.45593999997E+02  0.45594000000E+02  0.51100000000E-03 0. -1.
    9900012    2    1    2    0    0 -0.43144306208E+02 -0.71891282047E+01 -0.10770302821E+02  0.46142310468E+02  0.99999334971E+01 0.  0.
        -12    1    1    2    0    0  0.43144306208E+02  0.71891282047E+01  0.10770302821E+02  0.45045689532E+02  0.00000000000E+00 0.  1.
         11    1    3    3    0    0 -0.14840632135E+02 -0.19205443744E+01 -0.50502718769E+01  0.15793609440E+02  0.51100000000E-03 0. -1.
        -11    1    3    3    0    0 -0.14800105908E+02  0.11368639899E+01 -0.33364037562E+01  0.15214045646E+02  0.51100000000E-03 0.  1.
        -12    1    3    3    0    0 -0.13503568165E+02 -0.64054478202E+01 -0.23836271882E+01  0.15134655382E+02  0.00000000000E+00 0.  1.
</event>
<event>
 7    1  0.2031146E-008  0.4614232E+02  0.7816164E-02  0.1320468E+00
        -11   -1    0    0    0    0  0.00000000000E+00  0.00000000000E+00  0.45593999997E+02  0.45594000000E+02  0.51100000000E-03 0. -1.
         11   -1    0    0    0    0 -0.00000000000E+00 -0.00000000000E+00 -0.45593999997E+02  0.45594000000E+02  0.51100000000E-03 0.  1.
    9900012    2    1    2    0    0  0.45208753037E+00  0.43098783659E+02 -0.13092126317E+02  0.46142319769E+02  0.10000018307E+02 0.  0.
        -12    1    1    2    0    0 -0.45208753037E+00 -0.43098783659E+02  0.13092126317E+02  0.45045680231E+02  0.00000000000E+00 0.  1.
         11    1    3    3    0    0  0.30539649378E+01  0.97260237816E+01 -0.14485873507E+01  0.10296632751E+02  0.51100000000E-03 0. -1.
        -11    1    3    3    0    0 -0.81988589735E+00  0.47837790079E+00 -0.18481041258E+00  0.96706434654E+00  0.51100000000E-03 0.  1.
         12    1    3    3    0    0 -0.17819915101E+01  0.32894381976E+02 -0.11458728554E+02  0.34878622671E+02  0.00000000000E+00 0. -1.
</event>
<event>
 7    1  0.2031146E-008  0.4614232E+02  0.7816164E-02  0.1320468E+00
        -11   -1    0    0    0    0  0.00000000000E+00  0.00000000000E+00  0.45593999997E+02  0.45594000000E+02  0.51100000000E-03 0.  1.
         11   -1    0    0    0    0 -0.00000000000E+00 -0.00000000000E+00 -0.45593999997E+02  0.45594000000E+02  0.51100000000E-03 0. -1.
    9900012    2    1    2    0    0  0.30180544078E+02 -0.27746258730E+02 -0.18665293095E+02  0.46142320066E+02  0.10000021019E+02 0.  0.
        -12    1    1    2    0    0 -0.30180544078E+02  0.27746258730E+02  0.18665293095E+02  0.45045679934E+02  0.00000000000E+00 0.  1.
         11    1    3    3    0    0  0.86854629162E+01 -0.97035711817E+01 -0.81752634105E+01  0.15376328945E+02  0.51100000000E-03 0. -1.
        -11    1    3    3    0    0  0.10512514653E+02 -0.12637839158E+02 -0.79700386890E+01  0.18268811124E+02  0.51100000000E-03 0.  1.
         12    1    3    3    0    0  0.10982566509E+02 -0.54048483902E+01 -0.25199909956E+01  0.12497179997E+02  0.00000000000E+00 0. -1.
</event>
<event>
 7    1  0.2031146E-008  0.4614233E+02  0.7816164E-02  0.1320468E+00
        -11   -1    0    0    0    0  0.00000000000E+00  0.00000000000E+00  0.45593999997E+02  0.45594000000E+02  0.51100000000E-03 0. -1.
         11   -1    0    0    0    0 -0.00000000000E+00 -0.00000000000E+00 -0.45593999997E+02  0.45594000000E+02  0.51100000000E-03 0.  1.
    9900012    2    1    2    0    0 -0.43678971904E+02  0.80351767915E+01 -0.75296772962E+01  0.46142326591E+02  0.10000080520E+02 0.  0.
        -12    1    1    2    0    0  0.43678971904E+02 -0.80351767915E+01  0.75296772962E+01  0.45045673409E+02  0.00000000000E+00 0.  1.
         11    1    3    3    0    0 -0.37024762343E+01  0.22763464169E+01 -0.27784260638E+00  0.43551440907E+01  0.51100000000E-03 0. -1.
        -11    1    3    3    0    0 -0.25724417417E+02  0.66864552611E+01 -0.70714324413E+01  0.27503808689E+02  0.51100000000E-03 0.  1.
        -12    1    3    3    0    0 -0.14252078253E+02 -0.92762488647E+00 -0.18040224855E+00  0.14283373811E+02  0.00000000000E+00 0.  1.
</event>
<event>
 7    1  0.2031146E-008  0.4614232E+02  0.7816164E-02  0.1320468E+00
        -11   -1    0    0    0    0  0.00000000000E+00  0.00000000000E+00  0.45593999997E+02  0.45594000000E+02  0.51100000000E-03 0.  1.
         11   -1    0    0    0    0 -0.00000000000E+00 -0.00000000000E+00 -0.45593999997E+02  0.45594000000E+02  0.51100000000E-03 0. -1.
    9900012    2    1    2    0    0  0.29029564876E+02 -0.19091337030E+02 -0.28669124580E+02  0.46142317736E+02  0.99999997703E+01 0.  0.
        -12    1    1    2    0    0 -0.29029564876E+02  0.19091337030E+02  0.28669124580E+02  0.45045682264E+02  0.00000000000E+00 0.  1.
         11    1    3    3    0    0  0.18751497184E+01 -0.18172906429E+01 -0.20132675538E+01  0.32972683015E+01  0.51100000000E-03 0. -1.
        -11    1    3    3    0    0  0.14920279778E+02 -0.13528330220E+02 -0.20156915181E+02  0.28494415191E+02  0.51100000000E-03 0.  1.
        -12    1    3    3    0    0  0.12234135380E+02 -0.37457161669E+01 -0.64989418446E+01  0.14350634244E+02  0.00000000000E+00 0.  1.
</event>
<event>
 7    1  0.2031146E-008  0.4614232E+02  0.7816164E-02  0.1320468E+00
        -11   -1    0    0    0    0  0.00000000000E+00  0.00000000000E+00  0.45593999997E+02  0.45594000000E+02  0.51100000000E-03 0.  1.
         11   -1    0    0    0    0 -0.00000000000E+00 -0.00000000000E+00 -0.45593999997E+02  0.45594000000E+02  0.51100000000E-03 0. -1.
    9900012    2    1    2    0    0 -0.19738085736E+02 -0.37273954005E+02 -0.15816885864E+02  0.46142317032E+02  0.99999933481E+01 0.  0.
        -12    1    1    2    0    0  0.19738085736E+02  0.37273954005E+02  0.15816885864E+02  0.45045682968E+02  0.00000000000E+00 0.  1.
         11    1    3    3    0    0 -0.83529310007E+00 -0.72061063177E+01 -0.10126862056E+01  0.73246990680E+01  0.51100000000E-03 0. -1.
        -11    1    3    3    0    0 -0.30901463541E+01 -0.69991283441E+01 -0.13018197335E+01  0.77608979472E+01  0.51100000000E-03 0.  1.
         12    1    3    3    0    0 -0.15812646282E+02 -0.23068719343E+02 -0.13502379925E+02  0.31056720016E+02  0.00000000000E+00 0. -1.
</event>
<event>
 7    1  0.2031146E-008  0.4614231E+02  0.7816164E-02  0.1320468E+00
        -11   -1    0    0    0    0  0.00000000000E+00  0.00000000000E+00  0.45593999997E+02  0.45594000000E+02  0.51100000000E-03 0. -1.
         11   -1    0    0    0    0 -0.00000000000E+00 -0.00000000000E+00 -0.45593999997E+02  0.45594000000E+02  0.51100000000E-03 0.  1.
    9900012    2    1    2    0    0  0.30645583717E+02  0.31874949367E+02 -0.85993940153E+01  0.46142314569E+02  0.99999708943E+01 0.  0.
        -12    1    1    2    0    0 -0.30645583717E+02 -0.31874949367E+02  0.85993940153E+01  0.45045685431E+02  0.00000000000E+00 0.  1.
         11    1    3    3    0    0  0.24758041892E+02  0.24746787333E+02 -0.67674321348E+01  0.35653362529E+02  0.51100000000E-03 0. -1.
        -11    1    3    3    0    0  0.52210767731E+01  0.29194006986E+01 -0.40650046023E+00  0.59956472540E+01  0.51100000000E-03 0.  1.
         12    1    3    3    0    0  0.66646505132E+00  0.42087613354E+01 -0.14254614203E+01  0.44933047865E+01  0.00000000000E+00 0. -1.
</event>
<event>
 7    1  0.2031146E-008  0.4614232E+02  0.7816164E-02  0.1320468E+00
        -11   -1    0    0    0    0  0.00000000000E+00  0.00000000000E+00  0.45593999997E+02  0.45594000000E+02  0.51100000000E-03 0.  1.
         11   -1    0    0    0    0 -0.00000000000E+00 -0.00000000000E+00 -0.45593999997E+02  0.45594000000E+02  0.51100000000E-03 0. -1.
    9900012    2    1    2    0    0  0.27207633711E+00 -0.44445915626E+02 -0.73212024501E+01  0.46142318224E+02  0.10000004218E+02 0.  0.
        -12    1    1    2    0    0 -0.27207633711E+00  0.44445915626E+02  0.73212024501E+01  0.45045681776E+02  0.00000000000E+00 0.  1.
         11    1    3    3    0    0 -0.18586478856E+01 -0.34407462825E+02 -0.36938705270E+01  0.34655053740E+02  0.51100000000E-03 0. -1.
        -11    1    3    3    0    0 -0.36821365728E+00 -0.17199210258E+01  0.55857151189E+00  0.18454571324E+01  0.51100000000E-03 0.  1.
         12    1    3    3    0    0  0.24989378800E+01 -0.83185317755E+01 -0.41859034350E+01  0.96418073511E+01  0.00000000000E+00 0. -1.
</event>
<event>
 7    1  0.2031146E-008  0.4614232E+02  0.7816164E-02  0.1320468E+00
        -11   -1    0    0    0    0  0.00000000000E+00  0.00000000000E+00  0.45593999997E+02  0.45594000000E+02  0.51100000000E-03 0. -1.
         11   -1    0    0    0    0 -0.00000000000E+00 -0.00000000000E+00 -0.45593999997E+02  0.45594000000E+02  0.51100000000E-03 0.  1.
    9900012    2    1    2    0    0 -0.21840237645E+02  0.33866453691E+02  0.20129103528E+02  0.46142317911E+02  0.10000001364E+02 0.  0.
        -12    1    1    2    0    0  0.21840237645E+02 -0.33866453691E+02 -0.20129103528E+02  0.45045682089E+02  0.00000000000E+00 0.  1.
         11    1    3    3    0    0 -0.51476607390E+01  0.32261597443E+01  0.26812315320E+01  0.66404458110E+01  0.51100000000E-03 0. -1.
        -11    1    3    3    0    0 -0.26932272525E+01  0.52987287657E+01  0.57706330240E+01  0.82843349355E+01  0.51100000000E-03 0.  1.
        -12    1    3    3    0    0 -0.13999349654E+02  0.25341565181E+02  0.11677238972E+02  0.31217537164E+02  0.00000000000E+00 0.  1.
</event>
<event>
 7    1  0.2031146E-008  0.4614232E+02  0.7816164E-02  0.1320468E+00
        -11   -1    0    0    0    0  0.00000000000E+00  0.00000000000E+00  0.45593999997E+02  0.45594000000E+02  0.51100000000E-03 0.  1.
         11   -1    0    0    0    0 -0.00000000000E+00 -0.00000000000E+00 -0.45593999997E+02  0.45594000000E+02  0.51100000000E-03 0. -1.
    9900012    2    1    2    0    0 -0.11958146912E+02 -0.15401593134E+01 -0.43402121590E+02  0.46142317334E+02  0.99999961089E+01 0.  0.
        -12    1    1    2    0    0  0.11958146912E+02  0.15401593134E+01  0.43402121590E+02  0.45045682666E+02  0.00000000000E+00 0.  1.
         11    1    3    3    0    0 -0.11098412827E+02 -0.12084455449E+01 -0.40637460225E+02  0.42143069201E+02  0.51100000000E-03 0. -1.
        -11    1    3    3    0    0  0.38047962724E+00 -0.11398712425E+01 -0.19996855704E+01  0.23329838915E+01  0.51100000000E-03 0.  1.
        -12    1    3    3    0    0 -0.12402137128E+01  0.80815747407E+00 -0.76497579466E+00  0.16662642415E+01  0.00000000000E+00 0.  1.
</event>
<event>
 7    1  0.2031146E-008  0.4614232E+02  0.7816164E-02  0.1320468E+00
        -11   -1    0    0    0    0  0.00000000000E+00  0.00000000000E+00  0.45593999997E+02  0.45594000000E+02  0.51100000000E-03 0. -1.
         11   -1    0    0    0    0 -0.00000000000E+00 -0.00000000000E+00 -0.45593999997E+02  0.45594000000E+02  0.51100000000E-03 0.  1.
    9900012    2    1    2    0    0  0.33785734772E+01 -0.19970646859E+02  0.40235207739E+02  0.46142318337E+02  0.10000005250E+02 0.  0.
        -12    1    1    2    0    0 -0.33785734772E+01  0.19970646859E+02 -0.40235207739E+02  0.45045681663E+02  0.00000000000E+00 0.  1.
         11    1    3    3    0    0 -0.86486336299E+00 -0.19467947321E+01  0.38310449134E+01  0.43834807807E+01  0.51100000000E-03 0. -1.
        -11    1    3    3    0    0  0.13328607430E+01 -0.42991404368E+01  0.26940270679E+01  0.52456561419E+01  0.51100000000E-03 0.  1.
         12    1    3    3    0    0  0.29105760971E+01 -0.13724711691E+02  0.33710135757E+02  0.36513181414E+02  0.00000000000E+00 0. -1.
</event>
<event>
 7    1  0.2031146E-008  0.4614232E+02  0.7816164E-02  0.1320468E+00
        -11   -1    0    0    0    0  0.00000000000E+00  0.00000000000E+00  0.45593999997E+02  0.45594000000E+02  0.51100000000E-03 0.  1.
         11   -1    0    0    0    0 -0.00000000000E+00 -0.00000000000E+00 -0.45593999997E+02  0.45594000000E+02  0.51100000000E-03 0. -1.
    9900012    2    1    2    0    0 -0.36296017675E+02  0.12104352254E+02 -0.23773877913E+02  0.46142317482E+02  0.99999974525E+01 0.  0.
        -12    1    1    2    0    0  0.36296017675E+02 -0.12104352254E+02  0.23773877913E+02  0.45045682518E+02  0.00000000000E+00 0.  1.
         11    1    3    3    0    0 -0.31242929542E+02  0.11717495592E+02 -0.23914243876E+02  0.41052544498E+02  0.51100000000E-03 0. -1.
        -11    1    3    3    0    0 -0.16224748997E+01 -0.35795124206E-01 -0.91558110665E-01  0.16254504729E+01  0.51100000000E-03 0.  1.
         12    1    3    3    0    0 -0.34306132328E+01  0.42265178592E+00  0.23192407365E+00  0.34643225111E+01  0.00000000000E+00 0. -1.
</event>
<event>
 7    1  0.2031146E-008  0.4614232E+02  0.7816164E-02  0.1320468E+00
        -11   -1    0    0    0    0  0.00000000000E+00  0.00000000000E+00  0.45593999997E+02  0.45594000000E+02  0.51100000000E-03 0.  1.
         11   -1    0    0    0    0 -0.00000000000E+00 -0.00000000000E+00 -0.45593999997E+02  0.45594000000E+02  0.51100000000E-03 0. -1.
    9900012    2    1    2    0    0  0.32732591441E+02 -0.28484492300E+02 -0.12096466171E+02  0.46142319432E+02  0.10000015236E+02 0.  0.
        -12    1    1    2    0    0 -0.32732591441E+02  0.28484492300E+02  0.12096466171E+02  0.45045680568E+02  0.00000000000E+00 0.  1.
         11    1    3    3    0    0  0.10693867153E+02 -0.68319403827E+01 -0.54130649677E+01  0.13796212404E+02  0.51100000000E-03 0. -1.
        -11    1    3    3    0    0  0.11046377907E+02 -0.68176209768E+01 -0.96263943030E+00  0.13016493214E+02  0.51100000000E-03 0.  1.
        -12    1    3    3    0    0  0.10992346380E+02 -0.14834930940E+02 -0.57207617735E+01  0.19329613814E+02  0.00000000000E+00 0.  1.
</event>
<event>
 7    1  0.2031146E-008  0.4614232E+02  0.7816164E-02  0.1320468E+00
        -11   -1    0    0    0    0  0.00000000000E+00  0.00000000000E+00  0.45593999997E+02  0.45594000000E+02  0.51100000000E-03 0. -1.
         11   -1    0    0    0    0 -0.00000000000E+00 -0.00000000000E+00 -0.45593999997E+02  0.45594000000E+02  0.51100000000E-03 0.  1.
    9900012    2    1    2    0    0  0.19511236533E+02  0.24025886280E+02  0.32728912386E+02  0.46142320200E+02  0.10000022243E+02 0.  0.
        -12    1    1    2    0    0 -0.19511236533E+02 -0.24025886280E+02 -0.32728912386E+02  0.45045679800E+02  0.00000000000E+00 0.  1.
         11    1    3    3    0    0  0.78511059709E+01  0.95796545334E+01  0.19403640411E+02  0.23019793818E+02  0.51100000000E-03 0. -1.
        -11    1    3    3    0    0  0.58634314173E+00 -0.10988958031E+00  0.56409806565E+00  0.82102429227E+00  0.51100000000E-03 0.  1.
         12    1    3    3    0    0  0.11073787421E+02  0.14556121327E+02  0.12761173909E+02  0.22301502090E+02  0.00000000000E+00 0. -1.
</event>
<event>
 7    1  0.2031146E-008  0.4614232E+02  0.7816164E-02  0.1320468E+00
        -11   -1    0    0    0    0  0.00000000000E+00  0.00000000000E+00  0.45593999997E+02  0.45594000000E+02  0.51100000000E-03 0.  1.
         11   -1    0    0    0    0 -0.00000000000E+00 -0.00000000000E+00 -0.45593999997E+02  0.45594000000E+02  0.51100000000E-03 0. -1.
    9900012    2    1    2    0    0 -0.30059744647E+01 -0.35955589871E+02 -0.26968002851E+02  0.46142317596E+02  0.99999984943E+01 0.  0.
        -12    1    1    2    0    0  0.30059744647E+01  0.35955589871E+02  0.26968002851E+02  0.45045682404E+02  0.00000000000E+00 0.  1.
         11    1    3    3    0    0 -0.12654678828E+01 -0.11762768065E+02 -0.63221790470E+01  0.13413950562E+02  0.51100000000E-03 0. -1.
        -11    1    3    3    0    0 -0.38398916219E+01 -0.15462884215E+02 -0.10039354744E+02  0.18831733852E+02  0.51100000000E-03 0.  1.
         12    1    3    3    0    0  0.20993850400E+01 -0.87299375912E+01 -0.10606469060E+02  0.13896633183E+02  0.00000000000E+00 0. -1.
</event>
<event>
 7    1  0.2031146E-008  0.4614232E+02  0.7816164E-02  0.1320468E+00
        -11   -1    0    0    0    0  0.00000000000E+00  0.00000000000E+00  0.45593999997E+02  0.45594000000E+02  0.51100000000E-03 0.  1.
         11   -1    0    0    0    0 -0.00000000000E+00 -0.00000000000E+00 -0.45593999997E+02  0.45594000000E+02  0.51100000000E-03 0. -1.
    9900012    2    1    2    0    0  0.31846682723E+02  0.27716654966E+02 -0.15706347848E+02  0.46142317347E+02  0.99999962211E+01 0.  0.
        -12    1    1    2    0    0 -0.31846682723E+02 -0.27716654966E+02  0.15706347848E+02  0.45045682653E+02  0.00000000000E+00 0.  1.
         11    1    3    3    0    0  0.75614390144E+00 -0.21703943884E+00  0.46014106623E+00  0.91136698407E+00  0.51100000000E-03 0. -1.
        -11    1    3    3    0    0  0.16254599457E+01  0.86596879358E+00 -0.21621197760E+01  0.28402084736E+01  0.51100000000E-03 0.  1.
         12    1    3    3    0    0  0.29465078876E+02  0.27067725611E+02 -0.14004369138E+02  0.42390741889E+02  0.00000000000E+00 0. -1.
</event>
<event>
 7    1  0.2031146E-008  0.4614232E+02  0.7816164E-02  0.1320468E+00
        -11   -1    0    0    0    0  0.00000000000E+00  0.00000000000E+00  0.45593999997E+02  0.45594000000E+02  0.51100000000E-03 0. -1.
         11   -1    0    0    0    0 -0.00000000000E+00 -0.00000000000E+00 -0.45593999997E+02  0.45594000000E+02  0.51100000000E-03 0.  1.
    9900012    2    1    2    0    0 -0.50892944906E+00 -0.12964673970E+02  0.43136664499E+02  0.46142316473E+02  0.99999882506E+01 0.  0.
        -12    1    1    2    0    0  0.50892944906E+00  0.12964673970E+02 -0.43136664499E+02  0.45045683527E+02  0.00000000000E+00 0.  1.
         11    1    3    3    0    0  0.10281019850E+01 -0.86097280076E+01  0.24130793450E+02  0.25641365074E+02  0.51100000000E-03 0. -1.
        -11    1    3    3    0    0  0.30378902840E+00 -0.11006593185E+00 -0.42099937697E+00  0.53070049902E+00  0.51100000000E-03 0.  1.
         12    1    3    3    0    0 -0.18408204624E+01 -0.42448800302E+01  0.19426870426E+02  0.19970250900E+02  0.00000000000E+00 0. -1.
</event>
<event>
 7    1  0.2031146E-008  0.4614231E+02  0.7816164E-02  0.1320468E+00
        -11   -1    0    0    0    0  0.00000000000E+00  0.00000000000E+00  0.45593999997E+02  0.45594000000E+02  0.51100000000E-03 0. -1.
         11   -1    0    0    0    0 -0.00000000000E+00 -0.00000000000E+00 -0.45593999997E+02  0.45594000000E+02  0.51100000000E-03 0.  1.
    9900012    2    1    2    0    0 -0.39403215732E+02 -0.16707571998E+02  0.14048398746E+02  0.46142313420E+02  0.99999604150E+01 0.  0.
        -12    1    1    2    0    0  0.39403215732E+02  0.16707571998E+02 -0.14048398746E+02  0.45045686580E+02  0.00000000000E+00 0.  1.
         11    1    3    3    0    0 -0.13078812555E+02 -0.53226551327E+01  0.85757208852E+01  0.16520562474E+02  0.51100000000E-03 0. -1.
        -11    1    3    3    0    0 -0.30188186403E+01 -0.30893391074E+01  0.14660574731E+01  0.45614259700E+01  0.51100000000E-03 0.  1.
         12    1    3    3    0    0 -0.23305584537E+02 -0.82955777578E+01  0.40066203879E+01  0.25060324976E+02  0.00000000000E+00 0. -1.
</event>
<event>
 7    1  0.2031146E-008  0.4614232E+02  0.7816164E-02  0.1320468E+00
        -11   -1    0    0    0    0  0.00000000000E+00  0.00000000000E+00  0.45593999997E+02  0.45594000000E+02  0.51100000000E-03 0.  1.
         11   -1    0    0    0    0 -0.00000000000E+00 -0.00000000000E+00 -0.45593999997E+02  0.45594000000E+02  0.51100000000E-03 0. -1.
    9900012    2    1    2    0    0 -0.22499362448E+02 -0.29728993497E+02 -0.25280013839E+02  0.46142318025E+02  0.10000002403E+02 0.  0.
        -12    1    1    2    0    0  0.22499362448E+02  0.29728993497E+02  0.25280013839E+02  0.45045681975E+02  0.00000000000E+00 0.  1.
         11    1    3    3    0    0 -0.18889731208E+02 -0.26085428192E+02 -0.24935427717E+02  0.40731401459E+02  0.51100000000E-03 0. -1.
        -11    1    3    3    0    0 -0.84818636933E+00 -0.41880696767E-01  0.78112176183E-01  0.85280471567E+00  0.51100000000E-03 0.  1.
         12    1    3    3    0    0 -0.27614448703E+01 -0.36016846083E+01 -0.42269829838E+00  0.45581118504E+01  0.00000000000E+00 0. -1.
</event>
<event>
 7    1  0.2031146E-008  0.4614232E+02  0.7816164E-02  0.1320468E+00
        -11   -1    0    0    0    0  0.00000000000E+00  0.00000000000E+00  0.45593999997E+02  0.45594000000E+02  0.51100000000E-03 0.  1.
         11   -1    0    0    0    0 -0.00000000000E+00 -0.00000000000E+00 -0.45593999997E+02  0.45594000000E+02  0.51100000000E-03 0. -1.
    9900012    2    1    2    0    0  0.33814647008E+02 -0.28346631435E+02 -0.90637484445E+01  0.46142318721E+02  0.10000008755E+02 0.  0.
        -12    1    1    2    0    0 -0.33814647008E+02  0.28346631435E+02  0.90637484445E+01  0.45045681279E+02  0.00000000000E+00 0.  1.
         11    1    3    3    0    0  0.14636086784E+02 -0.82932262505E+01 -0.94465928550E+00  0.16848887780E+02  0.51100000000E-03 0.  1.
        -11    1    3    3    0    0  0.50855692327E+01 -0.82660379258E+01 -0.18446335875E+01  0.98789205253E+01  0.51100000000E-03 0. -1.
         12    1    3    3    0    0  0.14092990991E+02 -0.11787367259E+02 -0.62744555715E+01  0.19414510416E+02  0.00000000000E+00 0. -1.
</event>
<event>
 7    1  0.2031146E-008  0.4614232E+02  0.7816164E-02  0.1320468E+00
        -11   -1    0    0    0    0  0.00000000000E+00  0.00000000000E+00  0.45593999997E+02  0.45594000000E+02  0.51100000000E-03 0.  1.
         11   -1    0    0    0    0 -0.00000000000E+00 -0.00000000000E+00 -0.45593999997E+02  0.45594000000E+02  0.51100000000E-03 0. -1.
    9900012    2    1    2    0    0  0.38143761467E+02 -0.22315992573E+02 -0.87271661791E+01  0.46142317711E+02  0.99999995463E+01 0.  0.
        -12    1    1    2    0    0 -0.38143761467E+02  0.22315992573E+02  0.87271661791E+01  0.45045682289E+02  0.00000000000E+00 0.  1.
         11    1    3    3    0    0  0.12553820032E+02 -0.61949028598E+01 -0.42711830912E+01  0.14636195684E+02  0.51100000000E-03 0. -1.
        -11    1    3    3    0    0  0.10073937344E+02 -0.59182241584E+01 -0.54859856529E+01  0.12907580317E+02  0.51100000000E-03 0.  1.
        -12    1    3    3    0    0  0.15516004090E+02 -0.10202865554E+02  0.10300025649E+01  0.18598541710E+02  0.00000000000E+00 0.  1.
</event>
<event>
 7    1  0.2031146E-008  0.4614232E+02  0.7816164E-02  0.1320468E+00
        -11   -1    0    0    0    0  0.00000000000E+00  0.00000000000E+00  0.45593999997E+02  0.45594000000E+02  0.51100000000E-03 0.  1.
         11   -1    0    0    0    0 -0.00000000000E+00 -0.00000000000E+00 -0.45593999997E+02  0.45594000000E+02  0.51100000000E-03 0. -1.
    9900012    2    1    2    0    0  0.15855454616E+01 -0.10972620849E+02 -0.43660063815E+02  0.46142317243E+02  0.99999952759E+01 0.  0.
        -12    1    1    2    0    0 -0.15855454616E+01  0.10972620849E+02  0.43660063815E+02  0.45045682757E+02  0.00000000000E+00 0.  1.
         11    1    3    3    0    0 -0.23415669763E+00 -0.79743919864E+01 -0.15089878718E+02  0.17068983475E+02  0.51100000000E-03 0. -1.
        -11    1    3    3    0    0 -0.11074011859E+01  0.11207657100E+00 -0.61742987630E+01  0.62738237160E+01  0.51100000000E-03 0.  1.
        -12    1    3    3    0    0  0.29271033451E+01 -0.31103054332E+01 -0.22395886335E+02  0.22799510052E+02  0.00000000000E+00 0.  1.
</event>
<event>
 7    1  0.2031146E-008  0.4614232E+02  0.7816164E-02  0.1320468E+00
        -11   -1    0    0    0    0  0.00000000000E+00  0.00000000000E+00  0.45593999997E+02  0.45594000000E+02  0.51100000000E-03 0. -1.
         11   -1    0    0    0    0 -0.00000000000E+00 -0.00000000000E+00 -0.45593999997E+02  0.45594000000E+02  0.51100000000E-03 0.  1.
    9900012    2    1    2    0    0  0.14892151425E+02  0.42231204919E+02 -0.48849413547E+01  0.46142317687E+02  0.99999993238E+01 0.  0.
        -12    1    1    2    0    0 -0.14892151425E+02 -0.42231204919E+02  0.48849413547E+01  0.45045682313E+02  0.00000000000E+00 0.  1.
         11    1    3    3    0    0  0.64315164025E+01  0.27143069208E+02  0.10810090417E+00  0.27894843526E+02  0.51100000000E-03 0. -1.
        -11    1    3    3    0    0  0.21709577056E+01  0.29983845442E+01 -0.22934144400E+01  0.43546661513E+01  0.51100000000E-03 0.  1.
         12    1    3    3    0    0  0.62896773172E+01  0.12089751167E+02 -0.26996278189E+01  0.13892808009E+02  0.00000000000E+00 0. -1.
</event>
<event>
 7    1  0.2031146E-008  0.4614232E+02  0.7816164E-02  0.1320468E+00
        -11   -1    0    0    0    0  0.00000000000E+00  0.00000000000E+00  0.45593999997E+02  0.45594000000E+02  0.51100000000E-03 0.  1.
         11   -1    0    0    0    0 -0.00000000000E+00 -0.00000000000E+00 -0.45593999997E+02  0.45594000000E+02  0.51100000000E-03 0. -1.
    9900012    2    1    2    0    0  0.13407251938E+02 -0.74744258690E+01 -0.42349640787E+02  0.46142317395E+02  0.99999966617E+01 0.  0.
        -12    1    1    2    0    0 -0.13407251938E+02  0.74744258690E+01  0.42349640787E+02  0.45045682605E+02  0.00000000000E+00 0.  1.
         11    1    3    3    0    0  0.15617660094E+01 -0.10004488018E+01 -0.12575102860E+01  0.22408353919E+01  0.51100000000E-03 0.  1.
        -11    1    3    3    0    0  0.15063959247E+01 -0.21218631105E+01 -0.18452586643E+02  0.18635167984E+02  0.51100000000E-03 0. -1.
         12    1    3    3    0    0  0.10339090004E+02 -0.43521139567E+01 -0.22639543858E+02  0.25266314019E+02  0.00000000000E+00 0. -1.
</event>
<event>
 7    1  0.2031146E-008  0.4614232E+02  0.7816164E-02  0.1320468E+00
        -11   -1    0    0    0    0  0.00000000000E+00  0.00000000000E+00  0.45593999997E+02  0.45594000000E+02  0.51100000000E-03 0.  1.
         11   -1    0    0    0    0 -0.00000000000E+00 -0.00000000000E+00 -0.45593999997E+02  0.45594000000E+02  0.51100000000E-03 0. -1.
    9900012    2    1    2    0    0  0.13497260286E+02 -0.42625725702E+02  0.54758166108E+01  0.46142322134E+02  0.10000039878E+02 0.  0.
        -12    1    1    2    0    0 -0.13497260286E+02  0.42625725702E+02 -0.54758166108E+01  0.45045677866E+02  0.00000000000E+00 0.  1.
         11    1    3    3    0    0  0.13241684686E+02 -0.29381924018E+02  0.37830760163E+01  0.32449211650E+02  0.51100000000E-03 0. -1.
        -11    1    3    3    0    0 -0.12500607858E+01 -0.39820136653E+01  0.95098560704E-01  0.41747010427E+01  0.51100000000E-03 0.  1.
        -12    1    3    3    0    0  0.15056363861E+01 -0.92617880184E+01  0.15976420338E+01  0.95184094414E+01  0.00000000000E+00 0.  1.
</event>
<event>
 7    1  0.2031146E-008  0.4614232E+02  0.7816164E-02  0.1320468E+00
        -11   -1    0    0    0    0  0.00000000000E+00  0.00000000000E+00  0.45593999997E+02  0.45594000000E+02  0.51100000000E-03 0. -1.
         11   -1    0    0    0    0 -0.00000000000E+00 -0.00000000000E+00 -0.45593999997E+02  0.45594000000E+02  0.51100000000E-03 0.  1.
    9900012    2    1    2    0    0  0.71666123324E+01  0.26557652619E+02  0.35671336936E+02  0.46142317369E+02  0.99999964204E+01 0.  0.
        -12    1    1    2    0    0 -0.71666123324E+01 -0.26557652619E+02 -0.35671336936E+02  0.45045682631E+02  0.00000000000E+00 0.  1.
         11    1    3    3    0    0  0.56759449801E+01  0.13753083145E+02  0.23135475298E+02  0.27506614931E+02  0.51100000000E-03 0. -1.
        -11    1    3    3    0    0 -0.13568558194E+01  0.86261090312E+01  0.78592610310E+01  0.11748140234E+02  0.51100000000E-03 0.  1.
        -12    1    3    3    0    0  0.28475231717E+01  0.41784604426E+01  0.46766006064E+01  0.68875622041E+01  0.00000000000E+00 0.  1.
</event>
<event>
 7    1  0.2031146E-008  0.4614232E+02  0.7816164E-02  0.1320468E+00
        -11   -1    0    0    0    0  0.00000000000E+00  0.00000000000E+00  0.45593999997E+02  0.45594000000E+02  0.51100000000E-03 0. -1.
         11   -1    0    0    0    0 -0.00000000000E+00 -0.00000000000E+00 -0.45593999997E+02  0.45594000000E+02  0.51100000000E-03 0.  1.
    9900012    2    1    2    0    0  0.29344993575E+01 -0.42591902458E+02  0.14367743754E+02  0.46142317610E+02  0.99999986192E+01 0.  0.
        -12    1    1    2    0    0 -0.29344993575E+01  0.42591902458E+02 -0.14367743754E+02  0.45045682390E+02  0.00000000000E+00 0.  1.
         11    1    3    3    0    0  0.15492668190E+01 -0.20328545820E+02  0.66773236311E+01  0.21453126904E+02  0.51100000000E-03 0. -1.
        -11    1    3    3    0    0  0.21606677828E+01 -0.20131442182E+01  0.22323690979E+01  0.37019868937E+01  0.51100000000E-03 0.  1.
        -12    1    3    3    0    0 -0.77543524431E+00 -0.20250212420E+02  0.54580510249E+01  0.20987203812E+02  0.00000000000E+00 0.  1.
</event>
<event>
 7    1  0.2031146E-008  0.4614232E+02  0.7816164E-02  0.1320468E+00
        -11   -1    0    0    0    0  0.00000000000E+00  0.00000000000E+00  0.45593999997E+02  0.45594000000E+02  0.51100000000E-03 0. -1.
         11   -1    0    0    0    0 -0.00000000000E+00 -0.00000000000E+00 -0.45593999997E+02  0.45594000000E+02  0.51100000000E-03 0.  1.
    9900012    2    1    2    0    0  0.33366044809E+02  0.64909555320E+00  0.30255564420E+02  0.46142318191E+02  0.10000003922E+02 0.  0.
        -12    1    1    2    0    0 -0.33366044809E+02 -0.64909555320E+00 -0.30255564420E+02  0.45045681809E+02  0.00000000000E+00 0.  1.
         11    1    3    3    0    0  0.98127063732E+01  0.35779129782E+01  0.12837642382E+02  0.16549795462E+02  0.51100000000E-03 0. -1.
        -11    1    3    3    0    0  0.52582388963E+01 -0.19045830375E+01  0.37684041552E+01  0.67436920878E+01  0.51100000000E-03 0.  1.
         12    1    3    3    0    0  0.18295099539E+02 -0.10242343875E+01  0.13649517883E+02  0.22848830641E+02  0.00000000000E+00 0. -1.
</event>
<event>
 7    1  0.2031146E-008  0.4614232E+02  0.7816164E-02  0.1320468E+00
        -11   -1    0    0    0    0  0.00000000000E+00  0.00000000000E+00  0.45593999997E+02  0.45594000000E+02  0.51100000000E-03 0.  1.
         11   -1    0    0    0    0 -0.00000000000E+00 -0.00000000000E+00 -0.45593999997E+02  0.45594000000E+02  0.51100000000E-03 0. -1.
    9900012    2    1    2    0    0 -0.43305010881E+01 -0.35535067991E+02 -0.27342625684E+02  0.46142317898E+02  0.10000001244E+02 0.  0.
        -12    1    1    2    0    0  0.43305010881E+01  0.35535067991E+02  0.27342625684E+02  0.45045682102E+02  0.00000000000E+00 0.  1.
         11    1    3    3    0    0 -0.20044759999E+01 -0.28871048579E+02 -0.22732284659E+02  0.36800980098E+02  0.51100000000E-03 0. -1.
        -11    1    3    3    0    0 -0.15794108219E+01 -0.23101265773E+01  0.20596493868E+00  0.28060016330E+01  0.51100000000E-03 0.  1.
        -12    1    3    3    0    0 -0.74661426621E+00 -0.43538928351E+01 -0.48163059631E+01  0.65353361667E+01  0.00000000000E+00 0.  1.
</event>
<event>
 7    1  0.2031146E-008  0.4614232E+02  0.7816164E-02  0.1320468E+00
        -11   -1    0    0    0    0  0.00000000000E+00  0.00000000000E+00  0.45593999997E+02  0.45594000000E+02  0.51100000000E-03 0.  1.
         11   -1    0    0    0    0 -0.00000000000E+00 -0.00000000000E+00 -0.45593999997E+02  0.45594000000E+02  0.51100000000E-03 0. -1.
    9900012    2    1    2    0    0 -0.39667805305E+02  0.29771207386E+01 -0.21135643756E+02  0.46142318047E+02  0.10000002607E+02 0.  0.
        -12    1    1    2    0    0  0.39667805305E+02 -0.29771207386E+01  0.21135643756E+02  0.45045681953E+02  0.00000000000E+00 0.  1.
         11    1    3    3    0    0 -0.14754213821E+01 -0.77985655286E-02 -0.17851033004E+01  0.23159281351E+01  0.51100000000E-03 0. -1.
        -11    1    3    3    0    0 -0.56638821120E+01  0.29924789786E+01 -0.10138307455E+01  0.64855488632E+01  0.51100000000E-03 0.  1.
         12    1    3    3    0    0 -0.32528501811E+02 -0.75596744463E-02 -0.18336709710E+02  0.37340841049E+02  0.00000000000E+00 0. -1.
</event>
<event>
 7    1  0.2031146E-008  0.4614232E+02  0.7816164E-02  0.1320468E+00
        -11   -1    0    0    0    0  0.00000000000E+00  0.00000000000E+00  0.45593999997E+02  0.45594000000E+02  0.51100000000E-03 0. -1.
         11   -1    0    0    0    0 -0.00000000000E+00 -0.00000000000E+00 -0.45593999997E+02  0.45594000000E+02  0.51100000000E-03 0.  1.
    9900012    2    1    2    0    0  0.23207319361E+02 -0.35426401395E+02  0.15346135402E+02  0.46142318081E+02  0.10000002920E+02 0.  0.
        -12    1    1    2    0    0 -0.23207319361E+02  0.35426401395E+02 -0.15346135402E+02  0.45045681919E+02  0.00000000000E+00 0.  1.
         11    1    3    3    0    0  0.39784104620E+01 -0.11371297607E+02  0.74360924548E+01  0.14157317201E+02  0.51100000000E-03 0. -1.
        -11    1    3    3    0    0  0.27387400245E+01 -0.54499175512E+01  0.99464753307E+00  0.61799370719E+01  0.51100000000E-03 0.  1.
         12    1    3    3    0    0  0.16490168875E+02 -0.18605186237E+02  0.69153954139E+01  0.25805063808E+02  0.00000000000E+00 0. -1.
</event>
<event>
 7    1  0.2031146E-008  0.4614232E+02  0.7816164E-02  0.1320468E+00
        -11   -1    0    0    0    0  0.00000000000E+00  0.00000000000E+00  0.45593999997E+02  0.45594000000E+02  0.51100000000E-03 0. -1.
         11   -1    0    0    0    0 -0.00000000000E+00 -0.00000000000E+00 -0.45593999997E+02  0.45594000000E+02  0.51100000000E-03 0.  1.
    9900012    2    1    2    0    0  0.10762891051E+02  0.40967462848E+02  0.15327779118E+02  0.46142315982E+02  0.99999837802E+01 0.  0.
        -12    1    1    2    0    0 -0.10762891051E+02 -0.40967462848E+02 -0.15327779118E+02  0.45045684018E+02  0.00000000000E+00 0.  1.
         11    1    3    3    0    0  0.52542945914E+01  0.13639338448E+02  0.83033952165E+01  0.16810280704E+02  0.51100000000E-03 0. -1.
        -11    1    3    3    0    0  0.40407579040E+01  0.24335346718E+02  0.43295058766E+01  0.25045587351E+02  0.51100000000E-03 0.  1.
        -12    1    3    3    0    0  0.14678385555E+01  0.29927776813E+01  0.26948780244E+01  0.42864479282E+01  0.00000000000E+00 0.  1.
</event>
<event>
 7    1  0.2031146E-008  0.4614232E+02  0.7816164E-02  0.1320468E+00
        -11   -1    0    0    0    0  0.00000000000E+00  0.00000000000E+00  0.45593999997E+02  0.45594000000E+02  0.51100000000E-03 0. -1.
         11   -1    0    0    0    0 -0.00000000000E+00 -0.00000000000E+00 -0.45593999997E+02  0.45594000000E+02  0.51100000000E-03 0.  1.
    9900012    2    1    2    0    0 -0.19226865182E+01 -0.35969090326E+02  0.27048873291E+02  0.46142315094E+02  0.99999756819E+01 0.  0.
        -12    1    1    2    0    0  0.19226865182E+01  0.35969090326E+02 -0.27048873291E+02  0.45045684906E+02  0.00000000000E+00 0.  1.
         11    1    3    3    0    0  0.10864692843E+01 -0.37632421228E+01  0.34821145542E+01  0.52409473200E+01  0.51100000000E-03 0. -1.
        -11    1    3    3    0    0 -0.58617278271E+01 -0.21280821302E+02  0.16781402001E+02  0.27728120416E+02  0.51100000000E-03 0.  1.
        -12    1    3    3    0    0  0.28525720245E+01 -0.10925026901E+02  0.67853567359E+01  0.13173247359E+02  0.00000000000E+00 0.  1.
</event>
<event>
 7    1  0.2031146E-008  0.4614232E+02  0.7816164E-02  0.1320468E+00
        -11   -1    0    0    0    0  0.00000000000E+00  0.00000000000E+00  0.45593999997E+02  0.45594000000E+02  0.51100000000E-03 0.  1.
         11   -1    0    0    0    0 -0.00000000000E+00 -0.00000000000E+00 -0.45593999997E+02  0.45594000000E+02  0.51100000000E-03 0. -1.
    9900012    2    1    2    0    0  0.39565922452E+02 -0.12304758105E+02 -0.17670432585E+02  0.46142317862E+02  0.10000000923E+02 0.  0.
        -12    1    1    2    0    0 -0.39565922452E+02  0.12304758105E+02  0.17670432585E+02  0.45045682138E+02  0.00000000000E+00 0.  1.
         11    1    3    3    0    0  0.19719775582E+02 -0.74207987497E+01 -0.44786211280E+01  0.21540562911E+02  0.51100000000E-03 0. -1.
        -11    1    3    3    0    0  0.11176652220E+02 -0.43701933477E+01 -0.65767727333E+01  0.13684666039E+02  0.51100000000E-03 0.  1.
        -12    1    3    3    0    0  0.86694946502E+01 -0.51376600815E+00 -0.66150387237E+01  0.10917088912E+02  0.00000000000E+00 0.  1.
</event>
<event>
 7    1  0.2031146E-008  0.4614232E+02  0.7816164E-02  0.1320468E+00
        -11   -1    0    0    0    0  0.00000000000E+00  0.00000000000E+00  0.45593999997E+02  0.45594000000E+02  0.51100000000E-03 0. -1.
         11   -1    0    0    0    0 -0.00000000000E+00 -0.00000000000E+00 -0.45593999997E+02  0.45594000000E+02  0.51100000000E-03 0.  1.
    9900012    2    1    2    0    0  0.24427898456E+01  0.19470035677E+02  0.40547054267E+02  0.46142321836E+02  0.10000037162E+02 0.  0.
        -12    1    1    2    0    0 -0.24427898456E+01 -0.19470035677E+02 -0.40547054267E+02  0.45045678164E+02  0.00000000000E+00 0.  1.
         11    1    3    3    0    0  0.35207288389E+01  0.10471755357E+02  0.13749877712E+02  0.17638376602E+02  0.51100000000E-03 0. -1.
        -11    1    3    3    0    0 -0.21322584915E+01  0.78889383002E+01  0.22012242617E+02  0.23480219314E+02  0.51100000000E-03 0.  1.
        -12    1    3    3    0    0  0.10543194982E+01  0.11093420197E+01  0.47849339384E+01  0.50237259197E+01  0.00000000000E+00 0.  1.
</event>
<event>
 7    1  0.2031146E-008  0.4614232E+02  0.7816164E-02  0.1320468E+00
        -11   -1    0    0    0    0  0.00000000000E+00  0.00000000000E+00  0.45593999997E+02  0.45594000000E+02  0.51100000000E-03 0.  1.
         11   -1    0    0    0    0 -0.00000000000E+00 -0.00000000000E+00 -0.45593999997E+02  0.45594000000E+02  0.51100000000E-03 0. -1.
    9900012    2    1    2    0    0 -0.15524209161E+02 -0.68763507170E+01 -0.41723233553E+02  0.46142317772E+02  0.10000000102E+02 0.  0.
        -12    1    1    2    0    0  0.15524209161E+02  0.68763507170E+01  0.41723233553E+02  0.45045682228E+02  0.00000000000E+00 0.  1.
         11    1    3    3    0    0 -0.26475932343E+00 -0.18624697913E+01 -0.66264605696E+01  0.68883141018E+01  0.51100000000E-03 0. -1.
        -11    1    3    3    0    0 -0.65598660527E+00  0.13499575301E+01 -0.18061491639E+01  0.23483779131E+01  0.51100000000E-03 0.  1.
         12    1    3    3    0    0 -0.14603463232E+02 -0.63638384557E+01 -0.33290623819E+02  0.36905625757E+02  0.00000000000E+00 0. -1.
</event>
<event>
 7    1  0.2031146E-008  0.4614232E+02  0.7816164E-02  0.1320468E+00
        -11   -1    0    0    0    0  0.00000000000E+00  0.00000000000E+00  0.45593999997E+02  0.45594000000E+02  0.51100000000E-03 0. -1.
         11   -1    0    0    0    0 -0.00000000000E+00 -0.00000000000E+00 -0.45593999997E+02  0.45594000000E+02  0.51100000000E-03 0.  1.
    9900012    2    1    2    0    0  0.41439434758E+02 -0.10183397913E+02  0.14428624399E+02  0.46142317097E+02  0.99999939476E+01 0.  0.
        -12    1    1    2    0    0 -0.41439434758E+02  0.10183397913E+02 -0.14428624399E+02  0.45045682903E+02  0.00000000000E+00 0.  1.
         11    1    3    3    0    0  0.48424170541E+01 -0.26106408340E-01  0.30908319057E+01  0.57448173688E+01  0.51100000000E-03 0. -1.
        -11    1    3    3    0    0  0.10890211352E+02 -0.44301026465E+01  0.84739716073E-01  0.11757112478E+02  0.51100000000E-03 0.  1.
         12    1    3    3    0    0  0.25706806352E+02 -0.57271888582E+01  0.11253052778E+02  0.28640387250E+02  0.00000000000E+00 0. -1.
</event>
<event>
 7    1  0.2031146E-008  0.4614232E+02  0.7816164E-02  0.1320468E+00
        -11   -1    0    0    0    0  0.00000000000E+00  0.00000000000E+00  0.45593999997E+02  0.45594000000E+02  0.51100000000E-03 0. -1.
         11   -1    0    0    0    0 -0.00000000000E+00 -0.00000000000E+00 -0.45593999997E+02  0.45594000000E+02  0.51100000000E-03 0.  1.
    9900012    2    1    2    0    0 -0.32127240178E+02  0.11936097198E+01 -0.31552007837E+02  0.46142318030E+02  0.10000002456E+02 0.  0.
        -12    1    1    2    0    0  0.32127240178E+02 -0.11936097198E+01  0.31552007837E+02  0.45045681970E+02  0.00000000000E+00 0.  1.
         11    1    3    3    0    0 -0.14391325336E+02  0.77874397070E+00 -0.15364193735E+02  0.21065971055E+02  0.51100000000E-03 0. -1.
        -11    1    3    3    0    0 -0.10274382060E+02 -0.32579896399E+01 -0.10084699927E+02  0.14760711233E+02  0.51100000000E-03 0.  1.
         12    1    3    3    0    0 -0.74615327811E+01  0.36728553890E+01 -0.61031141746E+01  0.10315635743E+02  0.00000000000E+00 0. -1.
</event>
<event>
 7    1  0.2031146E-008  0.4614232E+02  0.7816164E-02  0.1320468E+00
        -11   -1    0    0    0    0  0.00000000000E+00  0.00000000000E+00  0.45593999997E+02  0.45594000000E+02  0.51100000000E-03 0. -1.
         11   -1    0    0    0    0 -0.00000000000E+00 -0.00000000000E+00 -0.45593999997E+02  0.45594000000E+02  0.51100000000E-03 0.  1.
    9900012    2    1    2    0    0  0.16645587083E+02  0.20038255897E+02  0.36749233181E+02  0.46142318652E+02  0.10000008120E+02 0.  0.
        -12    1    1    2    0    0 -0.16645587083E+02 -0.20038255897E+02 -0.36749233181E+02  0.45045681348E+02  0.00000000000E+00 0.  1.
         11    1    3    3    0    0  0.15200844410E+02  0.18883677579E+02  0.36770454229E+02  0.44042312089E+02  0.51100000000E-03 0. -1.
        -11    1    3    3    0    0  0.33417966744E+00  0.10238663535E+00 -0.39268406268E+00  0.52569963614E+00  0.51100000000E-03 0.  1.
         12    1    3    3    0    0  0.11105630058E+01  0.10521916823E+01  0.37146301458E+00  0.15743069260E+01  0.00000000000E+00 0. -1.
</event>
<event>
 7    1  0.2031146E-008  0.4614232E+02  0.7816164E-02  0.1320468E+00
        -11   -1    0    0    0    0  0.00000000000E+00  0.00000000000E+00  0.45593999997E+02  0.45594000000E+02  0.51100000000E-03 0.  1.
         11   -1    0    0    0    0 -0.00000000000E+00 -0.00000000000E+00 -0.45593999997E+02  0.45594000000E+02  0.51100000000E-03 0. -1.
    9900012    2    1    2    0    0 -0.20040179643E+02  0.24573794434E+02 -0.31994269496E+02  0.46142318147E+02  0.10000003519E+02 0.  0.
        -12    1    1    2    0    0  0.20040179643E+02 -0.24573794434E+02  0.31994269496E+02  0.45045681853E+02  0.00000000000E+00 0.  1.
         11    1    3    3    0    0 -0.14482712183E+01  0.37473077536E+01 -0.84213938828E+01  0.93305776944E+01  0.51100000000E-03 0.  1.
        -11    1    3    3    0    0 -0.12486466135E+01  0.41685386929E+00 -0.34888840266E+00  0.13618402595E+01  0.51100000000E-03 0. -1.
         12    1    3    3    0    0 -0.17343261811E+02  0.20409632811E+02 -0.23223987210E+02  0.35449900193E+02  0.00000000000E+00 0. -1.
</event>
<event>
 7    1  0.2031146E-008  0.4614232E+02  0.7816164E-02  0.1320468E+00
        -11   -1    0    0    0    0  0.00000000000E+00  0.00000000000E+00  0.45593999997E+02  0.45594000000E+02  0.51100000000E-03 0.  1.
         11   -1    0    0    0    0 -0.00000000000E+00 -0.00000000000E+00 -0.45593999997E+02  0.45594000000E+02  0.51100000000E-03 0. -1.
    9900012    2    1    2    0    0 -0.11437679296E+02 -0.88331925627E+01 -0.42664591945E+02  0.46142320914E+02  0.10000028746E+02 0.  0.
        -12    1    1    2    0    0  0.11437679296E+02  0.88331925627E+01  0.42664591945E+02  0.45045679086E+02  0.00000000000E+00 0.  1.
         11    1    3    3    0    0 -0.84328688058E+00 -0.55169292500E-01 -0.12881372440E+02  0.12909063971E+02  0.51100000000E-03 0. -1.
        -11    1    3    3    0    0 -0.84363967223E-01 -0.10352573748E+00  0.23291682395E+00  0.26848717900E+00  0.51100000000E-03 0.  1.
         12    1    3    3    0    0 -0.10510028448E+02 -0.86744975328E+01 -0.30016136329E+02  0.32964769763E+02  0.00000000000E+00 0. -1.
</event>
<event>
 7    1  0.2031146E-008  0.4614232E+02  0.7816164E-02  0.1320468E+00
        -11   -1    0    0    0    0  0.00000000000E+00  0.00000000000E+00  0.45593999997E+02  0.45594000000E+02  0.51100000000E-03 0.  1.
         11   -1    0    0    0    0 -0.00000000000E+00 -0.00000000000E+00 -0.45593999997E+02  0.45594000000E+02  0.51100000000E-03 0. -1.
    9900012    2    1    2    0    0  0.29057976503E+02 -0.33798048244E+02 -0.65145420575E+01  0.46142319610E+02  0.10000016860E+02 0.  0.
        -12    1    1    2    0    0 -0.29057976503E+02  0.33798048244E+02  0.65145420575E+01  0.45045680390E+02  0.00000000000E+00 0.  1.
         11    1    3    3    0    0  0.10780148631E+02 -0.14714073898E+02 -0.47701948252E+01  0.18853920922E+02  0.51100000000E-03 0. -1.
        -11    1    3    3    0    0  0.91263776418E+01 -0.94684386065E+01 -0.41663164481E+01  0.13794937170E+02  0.51100000000E-03 0.  1.
         12    1    3    3    0    0  0.91514502302E+01 -0.96155357393E+01  0.24219692158E+01  0.13493461519E+02  0.00000000000E+00 0. -1.
</event>
<event>
 7    1  0.2031146E-008  0.4614232E+02  0.7816164E-02  0.1320468E+00
        -11   -1    0    0    0    0  0.00000000000E+00  0.00000000000E+00  0.45593999997E+02  0.45594000000E+02  0.51100000000E-03 0. -1.
         11   -1    0    0    0    0 -0.00000000000E+00 -0.00000000000E+00 -0.45593999997E+02  0.45594000000E+02  0.51100000000E-03 0.  1.
    9900012    2    1    2    0    0 -0.42490821652E+01 -0.43698447394E+02  0.10074942857E+02  0.46142317882E+02  0.10000001101E+02 0.  0.
        -12    1    1    2    0    0  0.42490821652E+01  0.43698447394E+02 -0.10074942857E+02  0.45045682118E+02  0.00000000000E+00 0.  1.
         11    1    3    3    0    0 -0.11784884106E+01 -0.15749077286E+02  0.42542764136E+01  0.16356073440E+02  0.51100000000E-03 0. -1.
        -11    1    3    3    0    0  0.17625843321E+01 -0.89796455430E+01  0.44142480293E+01  0.10160035607E+02  0.51100000000E-03 0.  1.
        -12    1    3    3    0    0 -0.48331780868E+01 -0.18969724565E+02  0.14064184142E+01  0.19626208835E+02  0.00000000000E+00 0.  1.
</event>
<event>
 7    1  0.2031146E-008  0.4614233E+02  0.7816164E-02  0.1320468E+00
        -11   -1    0    0    0    0  0.00000000000E+00  0.00000000000E+00  0.45593999997E+02  0.45594000000E+02  0.51100000000E-03 0.  1.
         11   -1    0    0    0    0 -0.00000000000E+00 -0.00000000000E+00 -0.45593999997E+02  0.45594000000E+02  0.51100000000E-03 0. -1.
    9900012    2    1    2    0    0  0.28773460410E+02 -0.25761402441E+02  0.23185142683E+02  0.46142326280E+02  0.10000077679E+02 0.  0.
        -12    1    1    2    0    0 -0.28773460410E+02  0.25761402441E+02 -0.23185142683E+02  0.45045673720E+02  0.00000000000E+00 0.  1.
         11    1    3    3    0    0  0.13936398832E+02 -0.16341544868E+02  0.11689206963E+02  0.24452134074E+02  0.51100000000E-03 0. -1.
        -11    1    3    3    0    0  0.99954668299E+01 -0.83175148233E+01  0.10284778879E+02  0.16579115985E+02  0.51100000000E-03 0.  1.
        -12    1    3    3    0    0  0.48415947487E+01 -0.11023427491E+01  0.12111568414E+01  0.51110762215E+01  0.00000000000E+00 0.  1.
</event>
<event>
 7    1  0.2031146E-008  0.4614232E+02  0.7816164E-02  0.1320468E+00
        -11   -1    0    0    0    0  0.00000000000E+00  0.00000000000E+00  0.45593999997E+02  0.45594000000E+02  0.51100000000E-03 0. -1.
         11   -1    0    0    0    0 -0.00000000000E+00 -0.00000000000E+00 -0.45593999997E+02  0.45594000000E+02  0.51100000000E-03 0.  1.
    9900012    2    1    2    0    0 -0.26102613031E+02 -0.36670369873E+02 -0.17467183995E+01  0.46142318089E+02  0.10000002987E+02 0.  0.
        -12    1    1    2    0    0  0.26102613031E+02  0.36670369873E+02  0.17467183995E+01  0.45045681911E+02  0.00000000000E+00 0.  1.
         11    1    3    3    0    0 -0.41890094055E+01 -0.55237362761E+01 -0.96228256814E+00  0.69989606549E+01  0.51100000000E-03 0. -1.
        -11    1    3    3    0    0 -0.14890806682E+02 -0.24749010439E+02 -0.39001499419E+01  0.29145510995E+02  0.51100000000E-03 0.  1.
        -12    1    3    3    0    0 -0.70227969444E+01 -0.63976231582E+01  0.31157141105E+01  0.99978464389E+01  0.00000000000E+00 0.  1.
</event>
<event>
 7    1  0.2031146E-008  0.4614232E+02  0.7816164E-02  0.1320468E+00
        -11   -1    0    0    0    0  0.00000000000E+00  0.00000000000E+00  0.45593999997E+02  0.45594000000E+02  0.51100000000E-03 0.  1.
         11   -1    0    0    0    0 -0.00000000000E+00 -0.00000000000E+00 -0.45593999997E+02  0.45594000000E+02  0.51100000000E-03 0. -1.
    9900012    2    1    2    0    0 -0.10872278451E+02 -0.18816402846E+02 -0.39456939345E+02  0.46142317441E+02  0.99999970769E+01 0.  0.
        -12    1    1    2    0    0  0.10872278451E+02  0.18816402846E+02  0.39456939345E+02  0.45045682559E+02  0.00000000000E+00 0.  1.
         11    1    3    3    0    0 -0.22790142316E+01 -0.49575321242E+01 -0.10176298809E+02  0.11546778267E+02  0.51100000000E-03 0. -1.
        -11    1    3    3    0    0 -0.35394908112E+01 -0.12755964090E+02 -0.20421215385E+02  0.24336570283E+02  0.51100000000E-03 0.  1.
        -12    1    3    3    0    0 -0.50537734078E+01 -0.11029066313E+01 -0.88594251516E+01  0.10258968891E+02  0.00000000000E+00 0.  1.
</event>
<event>
 7    1  0.2031146E-008  0.4614232E+02  0.7816164E-02  0.1320468E+00
        -11   -1    0    0    0    0  0.00000000000E+00  0.00000000000E+00  0.45593999997E+02  0.45594000000E+02  0.51100000000E-03 0. -1.
         11   -1    0    0    0    0 -0.00000000000E+00 -0.00000000000E+00 -0.45593999997E+02  0.45594000000E+02  0.51100000000E-03 0.  1.
    9900012    2    1    2    0    0 -0.21452423362E+02 -0.34601233320E+02  0.19278528211E+02  0.46142318017E+02  0.10000002331E+02 0.  0.
        -12    1    1    2    0    0  0.21452423362E+02  0.34601233320E+02 -0.19278528211E+02  0.45045681983E+02  0.00000000000E+00 0.  1.
         11    1    3    3    0    0 -0.11977257463E+01 -0.33965757995E+01  0.40297883087E+00  0.36240400556E+01  0.51100000000E-03 0. -1.
        -11    1    3    3    0    0 -0.23261816413E+01 -0.56054864688E+01  0.12153964403E+00  0.60702035984E+01  0.51100000000E-03 0.  1.
         12    1    3    3    0    0 -0.17928515975E+02 -0.25599171052E+02  0.18754009736E+02  0.36448074363E+02  0.00000000000E+00 0. -1.
</event>
<event>
 7    1  0.2031146E-008  0.4614232E+02  0.7816164E-02  0.1320468E+00
        -11   -1    0    0    0    0  0.00000000000E+00  0.00000000000E+00  0.45593999997E+02  0.45594000000E+02  0.51100000000E-03 0. -1.
         11   -1    0    0    0    0 -0.00000000000E+00 -0.00000000000E+00 -0.45593999997E+02  0.45594000000E+02  0.51100000000E-03 0.  1.
    9900012    2    1    2    0    0  0.27698092979E+02  0.33952117195E+02 -0.10449058972E+02  0.46142318186E+02  0.10000003872E+02 0.  0.
        -12    1    1    2    0    0 -0.27698092979E+02 -0.33952117195E+02  0.10449058972E+02  0.45045681814E+02  0.00000000000E+00 0.  1.
         11    1    3    3    0    0  0.15740899282E+02  0.21600329858E+02 -0.66822657260E+01  0.27550006092E+02  0.51100000000E-03 0. -1.
        -11    1    3    3    0    0  0.58793155631E+01  0.64525476641E+01  0.11402358372E+01  0.88035141207E+01  0.51100000000E-03 0.  1.
         12    1    3    3    0    0  0.60778781346E+01  0.58992396731E+01 -0.49070290834E+01  0.97887979734E+01  0.00000000000E+00 0. -1.
</event>
<event>
 7    1  0.2031146E-008  0.4614232E+02  0.7816164E-02  0.1320468E+00
        -11   -1    0    0    0    0  0.00000000000E+00  0.00000000000E+00  0.45593999997E+02  0.45594000000E+02  0.51100000000E-03 0.  1.
         11   -1    0    0    0    0 -0.00000000000E+00 -0.00000000000E+00 -0.45593999997E+02  0.45594000000E+02  0.51100000000E-03 0. -1.
    9900012    2    1    2    0    0 -0.89780942551E+01 -0.29174471510E+02 -0.33126387424E+02  0.46142317542E+02  0.99999980017E+01 0.  0.
        -12    1    1    2    0    0  0.89780942551E+01  0.29174471510E+02  0.33126387424E+02  0.45045682458E+02  0.00000000000E+00 0.  1.
         11    1    3    3    0    0 -0.44658072998E+01 -0.99353101740E+01 -0.11248151217E+02  0.15658056366E+02  0.51100000000E-03 0. -1.
        -11    1    3    3    0    0  0.28399100265E+00 -0.47013366559E+01 -0.13943516429E+01  0.49119684452E+01  0.51100000000E-03 0.  1.
         12    1    3    3    0    0 -0.47962779580E+01 -0.14537824680E+02 -0.20483884564E+02  0.25572292731E+02  0.00000000000E+00 0. -1.
</event>
<event>
 7    1  0.2031146E-008  0.4614232E+02  0.7816164E-02  0.1320468E+00
        -11   -1    0    0    0    0  0.00000000000E+00  0.00000000000E+00  0.45593999997E+02  0.45594000000E+02  0.51100000000E-03 0.  1.
         11   -1    0    0    0    0 -0.00000000000E+00 -0.00000000000E+00 -0.45593999997E+02  0.45594000000E+02  0.51100000000E-03 0. -1.
    9900012    2    1    2    0    0 -0.23198113442E+02  0.33746878553E+02 -0.18764572051E+02  0.46142318258E+02  0.10000004528E+02 0.  0.
        -12    1    1    2    0    0  0.23198113442E+02 -0.33746878553E+02  0.18764572051E+02  0.45045681742E+02  0.00000000000E+00 0.  1.
         11    1    3    3    0    0 -0.70602327208E+01  0.58410752296E+01 -0.90825476563E+00  0.92081470932E+01  0.51100000000E-03 0. -1.
        -11    1    3    3    0    0 -0.46166660524E+01  0.10337255848E+02 -0.63150465815E+01  0.12963497888E+02  0.51100000000E-03 0.  1.
         12    1    3    3    0    0 -0.11521214669E+02  0.17568547476E+02 -0.11541270704E+02  0.23970673276E+02  0.00000000000E+00 0. -1.
</event>
<event>
 7    1  0.2031146E-008  0.4614232E+02  0.7816164E-02  0.1320468E+00
        -11   -1    0    0    0    0  0.00000000000E+00  0.00000000000E+00  0.45593999997E+02  0.45594000000E+02  0.51100000000E-03 0. -1.
         11   -1    0    0    0    0 -0.00000000000E+00 -0.00000000000E+00 -0.45593999997E+02  0.45594000000E+02  0.51100000000E-03 0.  1.
    9900012    2    1    2    0    0  0.40315649854E+02 -0.19935087107E+02 -0.25207557133E+01  0.46142317294E+02  0.99999957377E+01 0.  0.
        -12    1    1    2    0    0 -0.40315649854E+02  0.19935087107E+02  0.25207557133E+01  0.45045682706E+02  0.00000000000E+00 0.  1.
         11    1    3    3    0    0  0.16037584890E+01 -0.12500703214E+01 -0.18964496005E+01  0.27805104653E+01  0.51100000000E-03 0.  1.
        -11    1    3    3    0    0  0.42299186902E+01 -0.39226300250E+01  0.80922987761E+00  0.58252975628E+01  0.51100000000E-03 0. -1.
        -12    1    3    3    0    0  0.34481972675E+02 -0.14762386761E+02 -0.14335359904E+01  0.37536509266E+02  0.00000000000E+00 0.  1.
</event>
<event>
 7    1  0.2031146E-008  0.4614232E+02  0.7816164E-02  0.1320468E+00
        -11   -1    0    0    0    0  0.00000000000E+00  0.00000000000E+00  0.45593999997E+02  0.45594000000E+02  0.51100000000E-03 0. -1.
         11   -1    0    0    0    0 -0.00000000000E+00 -0.00000000000E+00 -0.45593999997E+02  0.45594000000E+02  0.51100000000E-03 0.  1.
    9900012    2    1    2    0    0  0.12818400783E+02 -0.59599694917E+01  0.42770093058E+02  0.46142317686E+02  0.99999993123E+01 0.  0.
        -12    1    1    2    0    0 -0.12818400783E+02  0.59599694917E+01 -0.42770093058E+02  0.45045682314E+02  0.00000000000E+00 0.  1.
         11    1    3    3    0    0  0.36315435811E+01 -0.63222467134E+00  0.26051069953E+02  0.26310569412E+02  0.51100000000E-03 0. -1.
        -11    1    3    3    0    0  0.13157483569E+01 -0.71676705321E+00  0.17678171158E+01  0.23173533100E+01  0.51100000000E-03 0.  1.
         12    1    3    3    0    0  0.78711088453E+01 -0.46109777672E+01  0.14951205989E+02  0.17514394964E+02  0.00000000000E+00 0. -1.
</event>
<event>
 7    1  0.2031146E-008  0.4614232E+02  0.7816164E-02  0.1320468E+00
        -11   -1    0    0    0    0  0.00000000000E+00  0.00000000000E+00  0.45593999997E+02  0.45594000000E+02  0.51100000000E-03 0.  1.
         11   -1    0    0    0    0 -0.00000000000E+00 -0.00000000000E+00 -0.45593999997E+02  0.45594000000E+02  0.51100000000E-03 0. -1.
    9900012    2    1    2    0    0  0.83380389074E+01  0.90632075194E+01 -0.43329538101E+02  0.46142317683E+02  0.99999992911E+01 0.  0.
        -12    1    1    2    0    0 -0.83380389074E+01 -0.90632075194E+01  0.43329538101E+02  0.45045682317E+02  0.00000000000E+00 0.  1.
         11    1    3    3    0    0  0.22050324035E+00 -0.11532956512E+00  0.18698793321E+00  0.31126730616E+00  0.51100000000E-03 0. -1.
        -11    1    3    3    0    0 -0.71115559704E+00  0.39591211561E+01 -0.99400467672E+01  0.10723101818E+02  0.51100000000E-03 0.  1.
         12    1    3    3    0    0  0.88286912641E+01  0.52194159284E+01 -0.33576479267E+02  0.35107948559E+02  0.00000000000E+00 0. -1.
</event>
<event>
 7    1  0.2031146E-008  0.4614232E+02  0.7816164E-02  0.1320468E+00
        -11   -1    0    0    0    0  0.00000000000E+00  0.00000000000E+00  0.45593999997E+02  0.45594000000E+02  0.51100000000E-03 0.  1.
         11   -1    0    0    0    0 -0.00000000000E+00 -0.00000000000E+00 -0.45593999997E+02  0.45594000000E+02  0.51100000000E-03 0. -1.
    9900012    2    1    2    0    0 -0.53431875995E+01 -0.34247635300E+02 -0.28769138579E+02  0.46142317499E+02  0.99999976127E+01 0.  0.
        -12    1    1    2    0    0  0.53431875995E+01  0.34247635300E+02  0.28769138579E+02  0.45045682501E+02  0.00000000000E+00 0.  1.
         11    1    3    3    0    0 -0.18354691006E+01 -0.37117986902E+01 -0.62118564603E+01  0.74654910944E+01  0.51100000000E-03 0. -1.
        -11    1    3    3    0    0 -0.42897856462E+00 -0.71414284984E+00 -0.24252716023E+01  0.25643644875E+01  0.51100000000E-03 0.  1.
         12    1    3    3    0    0 -0.30787399343E+01 -0.29821693760E+02 -0.20132010516E+02  0.36112461917E+02  0.00000000000E+00 0. -1.
</event>
<event>
 7    1  0.2031146E-008  0.4614232E+02  0.7816164E-02  0.1320468E+00
        -11   -1    0    0    0    0  0.00000000000E+00  0.00000000000E+00  0.45593999997E+02  0.45594000000E+02  0.51100000000E-03 0.  1.
         11   -1    0    0    0    0 -0.00000000000E+00 -0.00000000000E+00 -0.45593999997E+02  0.45594000000E+02  0.51100000000E-03 0. -1.
    9900012    2    1    2    0    0  0.28093022063E+02 -0.16374033046E+02 -0.31173493777E+02  0.46142316954E+02  0.99999926391E+01 0.  0.
        -12    1    1    2    0    0 -0.28093022063E+02  0.16374033046E+02  0.31173493777E+02  0.45045683046E+02  0.00000000000E+00 0.  1.
         11    1    3    3    0    0  0.13242577574E+02 -0.93816696383E+01 -0.21111591101E+02  0.26628572344E+02  0.51100000000E-03 0. -1.
        -11    1    3    3    0    0  0.98476683799E+01 -0.50526296167E+01 -0.84058163193E+01  0.13898323166E+02  0.51100000000E-03 0.  1.
        -12    1    3    3    0    0  0.50027761085E+01 -0.19397337914E+01 -0.16560863570E+01  0.56154214441E+01  0.00000000000E+00 0.  1.
</event>
<event>
 7    1  0.2031146E-008  0.4614232E+02  0.7816164E-02  0.1320468E+00
        -11   -1    0    0    0    0  0.00000000000E+00  0.00000000000E+00  0.45593999997E+02  0.45594000000E+02  0.51100000000E-03 0.  1.
         11   -1    0    0    0    0 -0.00000000000E+00 -0.00000000000E+00 -0.45593999997E+02  0.45594000000E+02  0.51100000000E-03 0. -1.
    9900012    2    1    2    0    0 -0.38421731300E+02  0.23221840401E+02 -0.36919025709E+01  0.46142318162E+02  0.10000003652E+02 0.  0.
        -12    1    1    2    0    0  0.38421731300E+02 -0.23221840401E+02  0.36919025709E+01  0.45045681838E+02  0.00000000000E+00 0.  1.
         11    1    3    3    0    0 -0.11892845078E+02  0.47890104391E+01  0.63031536603E+00  0.12836342266E+02  0.51100000000E-03 0.  1.
        -11    1    3    3    0    0 -0.12040791189E+02  0.45175348223E+01 -0.27885020477E+01  0.13159198959E+02  0.51100000000E-03 0. -1.
         12    1    3    3    0    0 -0.14488095033E+02  0.13915295139E+02 -0.15337158892E+01  0.20146776936E+02  0.00000000000E+00 0. -1.
</event>
<event>
 7    1  0.2031146E-008  0.4614232E+02  0.7816164E-02  0.1320468E+00
        -11   -1    0    0    0    0  0.00000000000E+00  0.00000000000E+00  0.45593999997E+02  0.45594000000E+02  0.51100000000E-03 0.  1.
         11   -1    0    0    0    0 -0.00000000000E+00 -0.00000000000E+00 -0.45593999997E+02  0.45594000000E+02  0.51100000000E-03 0. -1.
    9900012    2    1    2    0    0  0.22474990024E+01  0.35674119707E+02 -0.27412031405E+02  0.46142317250E+02  0.99999953389E+01 0.  0.
        -12    1    1    2    0    0 -0.22474990024E+01 -0.35674119707E+02  0.27412031405E+02  0.45045682750E+02  0.00000000000E+00 0.  1.
         11    1    3    3    0    0  0.22999934776E+01  0.97495000341E+01 -0.90501618930E+01  0.13499931536E+02  0.51100000000E-03 0. -1.
        -11    1    3    3    0    0 -0.36613819858E+01  0.13476327526E+02 -0.84118225788E+01  0.16302634174E+02  0.51100000000E-03 0.  1.
        -12    1    3    3    0    0  0.36088875106E+01  0.12448292147E+02 -0.99500469333E+01  0.16339751541E+02  0.00000000000E+00 0.  1.
</event>
<event>
 7    1  0.2031146E-008  0.4614232E+02  0.7816164E-02  0.1320468E+00
        -11   -1    0    0    0    0  0.00000000000E+00  0.00000000000E+00  0.45593999997E+02  0.45594000000E+02  0.51100000000E-03 0.  1.
         11   -1    0    0    0    0 -0.00000000000E+00 -0.00000000000E+00 -0.45593999997E+02  0.45594000000E+02  0.51100000000E-03 0. -1.
    9900012    2    1    2    0    0 -0.18333043539E+02  0.44718316372E+01 -0.40902515805E+02  0.46142316935E+02  0.99999924647E+01 0.  0.
        -12    1    1    2    0    0  0.18333043539E+02 -0.44718316372E+01  0.40902515805E+02  0.45045683065E+02  0.00000000000E+00 0.  1.
         11    1    3    3    0    0  0.13770576594E+00  0.74574218871E+00 -0.10991382373E+01  0.13353648999E+01  0.51100000000E-03 0. -1.
        -11    1    3    3    0    0 -0.63005754347E+01 -0.60268292421E+00 -0.64367542642E+01  0.90273076404E+01  0.51100000000E-03 0.  1.
         12    1    3    3    0    0 -0.12170173870E+02  0.43287723727E+01 -0.33366623304E+02  0.35779644395E+02  0.00000000000E+00 0. -1.
</event>
<event>
 7    1  0.2031146E-008  0.4614232E+02  0.7816164E-02  0.1320468E+00
        -11   -1    0    0    0    0  0.00000000000E+00  0.00000000000E+00  0.45593999997E+02  0.45594000000E+02  0.51100000000E-03 0.  1.
         11   -1    0    0    0    0 -0.00000000000E+00 -0.00000000000E+00 -0.45593999997E+02  0.45594000000E+02  0.51100000000E-03 0. -1.
    9900012    2    1    2    0    0  0.24578030405E+02 -0.37693329546E+02 -0.20607775593E+01  0.46142317910E+02  0.10000001356E+02 0.  0.
        -12    1    1    2    0    0 -0.24578030405E+02  0.37693329546E+02  0.20607775593E+01  0.45045682090E+02  0.00000000000E+00 0.  1.
         11    1    3    3    0    0  0.17815496208E+02 -0.21243100177E+02 -0.93502940790E+00  0.27740502709E+02  0.51100000000E-03 0. -1.
        -11    1    3    3    0    0  0.15603992796E+01 -0.13753963068E+01  0.10099327537E+01  0.23122554661E+01  0.51100000000E-03 0.  1.
        -12    1    3    3    0    0  0.52021349168E+01 -0.15074833062E+02 -0.21356809052E+01  0.16089559735E+02  0.00000000000E+00 0.  1.
</event>
<event>
 7    1  0.2031146E-008  0.4614232E+02  0.7816164E-02  0.1320468E+00
        -11   -1    0    0    0    0  0.00000000000E+00  0.00000000000E+00  0.45593999997E+02  0.45594000000E+02  0.51100000000E-03 0. -1.
         11   -1    0    0    0    0 -0.00000000000E+00 -0.00000000000E+00 -0.45593999997E+02  0.45594000000E+02  0.51100000000E-03 0.  1.
    9900012    2    1    2    0    0 -0.91348878879E+01  0.36353515329E+02  0.24981777091E+02  0.46142318297E+02  0.10000004885E+02 0.  0.
        -12    1    1    2    0    0  0.91348878879E+01 -0.36353515329E+02 -0.24981777091E+02  0.45045681703E+02  0.00000000000E+00 0.  1.
         11    1    3    3    0    0 -0.50032596155E+01  0.67323274146E+01  0.44008870841E+01  0.94723094642E+01  0.51100000000E-03 0. -1.
        -11    1    3    3    0    0 -0.25111239141E+01  0.24909432850E+02  0.14986532815E+02  0.29178446743E+02  0.51100000000E-03 0.  1.
         12    1    3    3    0    0 -0.16205043584E+01  0.47117550638E+01  0.55943571918E+01  0.74915620899E+01  0.00000000000E+00 0. -1.
</event>
<event>
 7    1  0.2031146E-008  0.4614232E+02  0.7816164E-02  0.1320468E+00
        -11   -1    0    0    0    0  0.00000000000E+00  0.00000000000E+00  0.45593999997E+02  0.45594000000E+02  0.51100000000E-03 0.  1.
         11   -1    0    0    0    0 -0.00000000000E+00 -0.00000000000E+00 -0.45593999997E+02  0.45594000000E+02  0.51100000000E-03 0. -1.
    9900012    2    1    2    0    0 -0.24025259381E+02 -0.57087690113E+01 -0.37673735417E+02  0.46142317940E+02  0.10000001630E+02 0.  0.
        -12    1    1    2    0    0  0.24025259381E+02  0.57087690113E+01  0.37673735417E+02  0.45045682060E+02  0.00000000000E+00 0.  1.
         11    1    3    3    0    0 -0.13324196844E+02 -0.39504024319E+01 -0.19948354529E+02  0.24312070039E+02  0.51100000000E-03 0. -1.
        -11    1    3    3    0    0 -0.18915171871E+01 -0.25257269692E+01 -0.18490615154E+01  0.36573436729E+01  0.51100000000E-03 0.  1.
        -12    1    3    3    0    0 -0.88095453500E+01  0.76736038975E+00 -0.15876319373E+02  0.18172904228E+02  0.00000000000E+00 0.  1.
</event>
<event>
 7    1  0.2031146E-008  0.4614232E+02  0.7816164E-02  0.1320468E+00
        -11   -1    0    0    0    0  0.00000000000E+00  0.00000000000E+00  0.45593999997E+02  0.45594000000E+02  0.51100000000E-03 0.  1.
         11   -1    0    0    0    0 -0.00000000000E+00 -0.00000000000E+00 -0.45593999997E+02  0.45594000000E+02  0.51100000000E-03 0. -1.
    9900012    2    1    2    0    0  0.32702603499E+02 -0.57230678159E+01 -0.30445028105E+02  0.46142317442E+02  0.99999970862E+01 0.  0.
        -12    1    1    2    0    0 -0.32702603499E+02  0.57230678159E+01  0.30445028105E+02  0.45045682558E+02  0.00000000000E+00 0.  1.
         11    1    3    3    0    0  0.34763943302E+01  0.11723592863E+00 -0.63816117987E+01  0.72680142551E+01  0.51100000000E-03 0. -1.
        -11    1    3    3    0    0  0.12267286989E+02 -0.25442790669E+01 -0.14369587698E+02  0.19064226628E+02  0.51100000000E-03 0.  1.
        -12    1    3    3    0    0  0.16958922180E+02 -0.32960246776E+01 -0.96938286085E+01  0.19810076559E+02  0.00000000000E+00 0.  1.
</event>
<event>
 7    1  0.2031146E-008  0.4614232E+02  0.7816164E-02  0.1320468E+00
        -11   -1    0    0    0    0  0.00000000000E+00  0.00000000000E+00  0.45593999997E+02  0.45594000000E+02  0.51100000000E-03 0.  1.
         11   -1    0    0    0    0 -0.00000000000E+00 -0.00000000000E+00 -0.45593999997E+02  0.45594000000E+02  0.51100000000E-03 0. -1.
    9900012    2    1    2    0    0  0.31562035053E+02  0.23501471061E+02 -0.21923328019E+02  0.46142317520E+02  0.99999977977E+01 0.  0.
        -12    1    1    2    0    0 -0.31562035053E+02 -0.23501471061E+02  0.21923328019E+02  0.45045682480E+02  0.00000000000E+00 0.  1.
         11    1    3    3    0    0  0.18669969891E+02  0.15421381541E+02 -0.12439191789E+02  0.27223524330E+02  0.51100000000E-03 0. -1.
        -11    1    3    3    0    0  0.12588545728E+02  0.80124191724E+01 -0.10242499851E+02  0.18099147715E+02  0.51100000000E-03 0.  1.
        -12    1    3    3    0    0  0.30351943357E+00  0.67670348020E-01  0.75836362069E+00  0.81964547442E+00  0.00000000000E+00 0.  1.
</event>
<event>
 7    1  0.2031146E-008  0.4614232E+02  0.7816164E-02  0.1320468E+00
        -11   -1    0    0    0    0  0.00000000000E+00  0.00000000000E+00  0.45593999997E+02  0.45594000000E+02  0.51100000000E-03 0.  1.
         11   -1    0    0    0    0 -0.00000000000E+00 -0.00000000000E+00 -0.45593999997E+02  0.45594000000E+02  0.51100000000E-03 0. -1.
    9900012    2    1    2    0    0 -0.10076522054E+01 -0.17772452600E+02 -0.41379198308E+02  0.46142317776E+02  0.10000000139E+02 0.  0.
        -12    1    1    2    0    0  0.10076522054E+01  0.17772452600E+02  0.41379198308E+02  0.45045682224E+02  0.00000000000E+00 0.  1.
         11    1    3    3    0    0 -0.16117908662E+01 -0.46675297720E+01 -0.60660810177E+01  0.78218311886E+01  0.51100000000E-03 0.  1.
        -11    1    3    3    0    0 -0.13565623443E+01 -0.35488645694E+01 -0.39729170393E+01  0.54971602841E+01  0.51100000000E-03 0. -1.
         12    1    3    3    0    0  0.19607010050E+01 -0.95560582583E+01 -0.31340200251E+02  0.32823326304E+02  0.00000000000E+00 0. -1.
</event>
<event>
 7    1  0.2031146E-008  0.4614232E+02  0.7816164E-02  0.1320468E+00
        -11   -1    0    0    0    0  0.00000000000E+00  0.00000000000E+00  0.45593999997E+02  0.45594000000E+02  0.51100000000E-03 0.  1.
         11   -1    0    0    0    0 -0.00000000000E+00 -0.00000000000E+00 -0.45593999997E+02  0.45594000000E+02  0.51100000000E-03 0. -1.
    9900012    2    1    2    0    0 -0.22431691290E+01 -0.18526691513E+02 -0.40998089357E+02  0.46142318330E+02  0.10000005187E+02 0.  0.
        -12    1    1    2    0    0  0.22431691290E+01  0.18526691513E+02  0.40998089357E+02  0.45045681670E+02  0.00000000000E+00 0.  1.
         11    1    3    3    0    0  0.13584587124E+01 -0.11449438581E+00 -0.11174729193E+01  0.17627436071E+01  0.51100000000E-03 0. -1.
        -11    1    3    3    0    0 -0.21957532341E+00 -0.35908523302E+01 -0.38298445729E+01  0.52545355165E+01  0.51100000000E-03 0.  1.
         12    1    3    3    0    0 -0.33820525181E+01 -0.14821344797E+02 -0.36050771865E+02  0.39125039206E+02  0.00000000000E+00 0. -1.
</event>
<event>
 7    1  0.2031146E-008  0.4614232E+02  0.7816164E-02  0.1320468E+00
        -11   -1    0    0    0    0  0.00000000000E+00  0.00000000000E+00  0.45593999997E+02  0.45594000000E+02  0.51100000000E-03 0.  1.
         11   -1    0    0    0    0 -0.00000000000E+00 -0.00000000000E+00 -0.45593999997E+02  0.45594000000E+02  0.51100000000E-03 0. -1.
    9900012    2    1    2    0    0  0.63521289653E+01  0.44392847656E+02  0.42472361969E+01  0.46142317846E+02  0.10000000778E+02 0.  0.
        -12    1    1    2    0    0 -0.63521289653E+01 -0.44392847656E+02 -0.42472361969E+01  0.45045682154E+02  0.00000000000E+00 0.  1.
         11    1    3    3    0    0  0.38962108114E+00  0.22249666141E+02 -0.25921379398E+00  0.22254586943E+02  0.51100000000E-03 0. -1.
        -11    1    3    3    0    0  0.56964384902E+01  0.18645966149E+02  0.54717887546E+01  0.20249986112E+02  0.51100000000E-03 0.  1.
        -12    1    3    3    0    0  0.26606939401E+00  0.34972153659E+01 -0.96533876363E+00  0.36377447913E+01  0.00000000000E+00 0.  1.
</event>
<event>
 7    1  0.2031146E-008  0.4614232E+02  0.7816164E-02  0.1320468E+00
        -11   -1    0    0    0    0  0.00000000000E+00  0.00000000000E+00  0.45593999997E+02  0.45594000000E+02  0.51100000000E-03 0.  1.
         11   -1    0    0    0    0 -0.00000000000E+00 -0.00000000000E+00 -0.45593999997E+02  0.45594000000E+02  0.51100000000E-03 0. -1.
    9900012    2    1    2    0    0  0.41599852766E+02 -0.14761107281E+02  0.89819288493E+01  0.46142322247E+02  0.10000040908E+02 0.  0.
        -12    1    1    2    0    0 -0.41599852766E+02  0.14761107281E+02 -0.89819288493E+01  0.45045677753E+02  0.00000000000E+00 0.  1.
         11    1    3    3    0    0  0.30849972420E+02 -0.11504957334E+02  0.63699706722E+01  0.33535971257E+02  0.51100000000E-03 0. -1.
        -11    1    3    3    0    0  0.66285661813E+01 -0.44472813553E+01  0.10997929922E+01  0.80576513923E+01  0.51100000000E-03 0.  1.
        -12    1    3    3    0    0  0.41213141654E+01  0.11911314083E+01  0.15121651849E+01  0.45486995975E+01  0.00000000000E+00 0.  1.
</event>
<event>
 7    1  0.2031146E-008  0.4614232E+02  0.7816164E-02  0.1320468E+00
        -11   -1    0    0    0    0  0.00000000000E+00  0.00000000000E+00  0.45593999997E+02  0.45594000000E+02  0.51100000000E-03 0.  1.
         11   -1    0    0    0    0 -0.00000000000E+00 -0.00000000000E+00 -0.45593999997E+02  0.45594000000E+02  0.51100000000E-03 0. -1.
    9900012    2    1    2    0    0 -0.27672404875E+01  0.20894867231E+02 -0.39810306164E+02  0.46142316818E+02  0.99999913958E+01 0.  0.
        -12    1    1    2    0    0  0.27672404875E+01 -0.20894867231E+02  0.39810306164E+02  0.45045683182E+02  0.00000000000E+00 0.  1.
         11    1    3    3    0    0 -0.50617100596E+00 -0.15256826604E+00 -0.87733513348E-01  0.53589513299E+00  0.51100000000E-03 0. -1.
        -11    1    3    3    0    0  0.26452941163E+01  0.90400615144E+01 -0.17579460454E+02  0.19943864301E+02  0.51100000000E-03 0.  1.
         12    1    3    3    0    0 -0.49063635978E+01  0.12007373983E+02 -0.22143112196E+02  0.25662557383E+02  0.00000000000E+00 0. -1.
</event>
<event>
 7    1  0.2031146E-008  0.4614232E+02  0.7816164E-02  0.1320468E+00
        -11   -1    0    0    0    0  0.00000000000E+00  0.00000000000E+00  0.45593999997E+02  0.45594000000E+02  0.51100000000E-03 0.  1.
         11   -1    0    0    0    0 -0.00000000000E+00 -0.00000000000E+00 -0.45593999997E+02  0.45594000000E+02  0.51100000000E-03 0. -1.
    9900012    2    1    2    0    0  0.31827013009E+02  0.12171482693E+02 -0.29462001759E+02  0.46142319900E+02  0.10000019504E+02 0.  0.
        -12    1    1    2    0    0 -0.31827013009E+02 -0.12171482693E+02  0.29462001759E+02  0.45045680100E+02  0.00000000000E+00 0.  1.
         11    1    3    3    0    0  0.10338829815E+02  0.14784331012E+01 -0.94007755055E+01  0.14051752444E+02  0.51100000000E-03 0. -1.
        -11    1    3    3    0    0  0.18642592255E+02  0.11012748286E+02 -0.19568863845E+02  0.29185052736E+02  0.51100000000E-03 0.  1.
         12    1    3    3    0    0  0.28455909389E+01 -0.31969869335E+00 -0.49236240892E+00  0.29055147199E+01  0.00000000000E+00 0. -1.
</event>
<event>
 7    1  0.2031146E-008  0.4614232E+02  0.7816164E-02  0.1320468E+00
        -11   -1    0    0    0    0  0.00000000000E+00  0.00000000000E+00  0.45593999997E+02  0.45594000000E+02  0.51100000000E-03 0.  1.
         11   -1    0    0    0    0 -0.00000000000E+00 -0.00000000000E+00 -0.45593999997E+02  0.45594000000E+02  0.51100000000E-03 0. -1.
    9900012    2    1    2    0    0 -0.55292117190E+01  0.19678704516E+02 -0.40140875812E+02  0.46142317581E+02  0.99999983563E+01 0.  0.
        -12    1    1    2    0    0  0.55292117190E+01 -0.19678704516E+02  0.40140875812E+02  0.45045682419E+02  0.00000000000E+00 0.  1.
         11    1    3    3    0    0 -0.46023345145E+01  0.11412822634E+02 -0.21042208520E+02  0.24376393152E+02  0.51100000000E-03 0. -1.
        -11    1    3    3    0    0 -0.52140872885E+00  0.37406467120E+00 -0.86087061611E+01  0.86325901947E+01  0.51100000000E-03 0.  1.
        -12    1    3    3    0    0 -0.40546847573E+00  0.78918172103E+01 -0.10489961131E+02  0.13133334234E+02  0.00000000000E+00 0.  1.
</event>
<event>
 7    1  0.2031146E-008  0.4614232E+02  0.7816164E-02  0.1320468E+00
        -11   -1    0    0    0    0  0.00000000000E+00  0.00000000000E+00  0.45593999997E+02  0.45594000000E+02  0.51100000000E-03 0.  1.
         11   -1    0    0    0    0 -0.00000000000E+00 -0.00000000000E+00 -0.45593999997E+02  0.45594000000E+02  0.51100000000E-03 0. -1.
    9900012    2    1    2    0    0  0.81637924964E+01 -0.15154994583E+02 -0.41626814370E+02  0.46142322701E+02  0.10000045048E+02 0.  0.
        -12    1    1    2    0    0 -0.81637924964E+01  0.15154994583E+02  0.41626814370E+02  0.45045677299E+02  0.00000000000E+00 0.  1.
         11    1    3    3    0    0  0.41461358159E+01 -0.97326289493E+01 -0.23095051507E+02  0.25402675308E+02  0.51100000000E-03 0. -1.
        -11    1    3    3    0    0  0.51323474250E+01 -0.50965964545E+01 -0.11309722891E+02  0.13424832127E+02  0.51100000000E-03 0.  1.
        -12    1    3    3    0    0 -0.11146907445E+01 -0.32576917923E+00 -0.72220399719E+01  0.73148152656E+01  0.00000000000E+00 0.  1.
</event>
<event>
 7    1  0.2031146E-008  0.4614232E+02  0.7816164E-02  0.1320468E+00
        -11   -1    0    0    0    0  0.00000000000E+00  0.00000000000E+00  0.45593999997E+02  0.45594000000E+02  0.51100000000E-03 0.  1.
         11   -1    0    0    0    0 -0.00000000000E+00 -0.00000000000E+00 -0.45593999997E+02  0.45594000000E+02  0.51100000000E-03 0. -1.
    9900012    2    1    2    0    0  0.14435343858E+02 -0.41222237684E+02 -0.11020959548E+02  0.46142316729E+02  0.99999905921E+01 0.  0.
        -12    1    1    2    0    0 -0.14435343858E+02  0.41222237684E+02  0.11020959548E+02  0.45045683271E+02  0.00000000000E+00 0.  1.
         11    1    3    3    0    0  0.35876900989E-01 -0.80016470337E+00 -0.79533137777E+00  0.11287616959E+01  0.51100000000E-03 0. -1.
        -11    1    3    3    0    0  0.38747882322E+01 -0.68352922483E+01 -0.52899683022E+01  0.94720097584E+01  0.51100000000E-03 0.  1.
         12    1    3    3    0    0  0.10524678725E+02 -0.33586780732E+02 -0.49356598677E+01  0.35541545275E+02  0.00000000000E+00 0. -1.
</event>
<event>
 7    1  0.2031146E-008  0.4614232E+02  0.7816164E-02  0.1320468E+00
        -11   -1    0    0    0    0  0.00000000000E+00  0.00000000000E+00  0.45593999997E+02  0.45594000000E+02  0.51100000000E-03 0. -1.
         11   -1    0    0    0    0 -0.00000000000E+00 -0.00000000000E+00 -0.45593999997E+02  0.45594000000E+02  0.51100000000E-03 0.  1.
    9900012    2    1    2    0    0  0.37868716582E+02 -0.14255991531E+02  0.19794960670E+02  0.46142318098E+02  0.10000003070E+02 0.  0.
        -12    1    1    2    0    0 -0.37868716582E+02  0.14255991531E+02 -0.19794960670E+02  0.45045681902E+02  0.00000000000E+00 0.  1.
         11    1    3    3    0    0  0.12342631280E+01 -0.81940841856E-01  0.18748092318E+01  0.22461143532E+01  0.51100000000E-03 0.  1.
        -11    1    3    3    0    0  0.11446728811E+02 -0.50389682236E+01  0.18217613244E+01  0.12638734739E+02  0.51100000000E-03 0. -1.
         12    1    3    3    0    0  0.25187724643E+02 -0.91350824656E+01  0.16098390114E+02  0.31257469005E+02  0.00000000000E+00 0. -1.
</event>
<event>
 7    1  0.2031146E-008  0.4614232E+02  0.7816164E-02  0.1320468E+00
        -11   -1    0    0    0    0  0.00000000000E+00  0.00000000000E+00  0.45593999997E+02  0.45594000000E+02  0.51100000000E-03 0. -1.
         11   -1    0    0    0    0 -0.00000000000E+00 -0.00000000000E+00 -0.45593999997E+02  0.45594000000E+02  0.51100000000E-03 0.  1.
    9900012    2    1    2    0    0 -0.27119476697E+00  0.40902549108E+02  0.18868525215E+02  0.46142319697E+02  0.10000017653E+02 0.  0.
        -12    1    1    2    0    0  0.27119476697E+00 -0.40902549108E+02 -0.18868525215E+02  0.45045680303E+02  0.00000000000E+00 0.  1.
         11    1    3    3    0    0  0.13693366686E+01  0.28175949725E+02  0.88252597743E+01  0.29557476824E+02  0.51100000000E-03 0. -1.
        -11    1    3    3    0    0 -0.10866554449E+01  0.49804036577E+01  0.22151463570E+01  0.55580674963E+01  0.51100000000E-03 0.  1.
        -12    1    3    3    0    0 -0.55387599075E+00  0.77461957255E+01  0.78281190837E+01  0.11026775377E+02  0.00000000000E+00 0.  1.
</event>
<event>
 7    1  0.2031146E-008  0.4614232E+02  0.7816164E-02  0.1320468E+00
        -11   -1    0    0    0    0  0.00000000000E+00  0.00000000000E+00  0.45593999997E+02  0.45594000000E+02  0.51100000000E-03 0.  1.
         11   -1    0    0    0    0 -0.00000000000E+00 -0.00000000000E+00 -0.45593999997E+02  0.45594000000E+02  0.51100000000E-03 0. -1.
    9900012    2    1    2    0    0 -0.90715573431E+01  0.30606074994E+02 -0.31781890017E+02  0.46142317496E+02  0.99999975846E+01 0.  0.
        -12    1    1    2    0    0  0.90715573431E+01 -0.30606074994E+02  0.31781890017E+02  0.45045682504E+02  0.00000000000E+00 0.  1.
         11    1    3    3    0    0 -0.70999308417E+00  0.59705415287E+01 -0.52267295904E+01  0.79668161017E+01  0.51100000000E-03 0. -1.
        -11    1    3    3    0    0 -0.89996554276E+01  0.25080170565E+02 -0.25715849711E+02  0.37031252748E+02  0.51100000000E-03 0.  1.
        -12    1    3    3    0    0  0.63809116862E+00 -0.44463709981E+00 -0.83931071495E+00  0.11442486470E+01  0.00000000000E+00 0.  1.
</event>
<event>
 7    1  0.2031146E-008  0.4614232E+02  0.7816164E-02  0.1320468E+00
        -11   -1    0    0    0    0  0.00000000000E+00  0.00000000000E+00  0.45593999997E+02  0.45594000000E+02  0.51100000000E-03 0.  1.
         11   -1    0    0    0    0 -0.00000000000E+00 -0.00000000000E+00 -0.45593999997E+02  0.45594000000E+02  0.51100000000E-03 0. -1.
    9900012    2    1    2    0    0  0.93562214075E+01 -0.43312323601E+02 -0.81004478569E+01  0.46142317519E+02  0.99999977911E+01 0.  0.
        -12    1    1    2    0    0 -0.93562214075E+01  0.43312323601E+02  0.81004478569E+01  0.45045682481E+02  0.00000000000E+00 0.  1.
         11    1    3    3    0    0  0.66407976977E+01 -0.22662060841E+02 -0.75898882918E+01  0.24804749548E+02  0.51100000000E-03 0. -1.
        -11    1    3    3    0    0 -0.12436477620E+01 -0.64730621542E+01 -0.58926540244E+00  0.66177358200E+01  0.51100000000E-03 0.  1.
         12    1    3    3    0    0  0.39590714719E+01 -0.14177200605E+02  0.78705837293E-01  0.14719832150E+02  0.00000000000E+00 0. -1.
</event>
<event>
 7    1  0.2031146E-008  0.4614232E+02  0.7816164E-02  0.1320468E+00
        -11   -1    0    0    0    0  0.00000000000E+00  0.00000000000E+00  0.45593999997E+02  0.45594000000E+02  0.51100000000E-03 0.  1.
         11   -1    0    0    0    0 -0.00000000000E+00 -0.00000000000E+00 -0.45593999997E+02  0.45594000000E+02  0.51100000000E-03 0. -1.
    9900012    2    1    2    0    0  0.15219511631E+02 -0.86585555128E+01 -0.41503124917E+02  0.46142317679E+02  0.99999992506E+01 0.  0.
        -12    1    1    2    0    0 -0.15219511631E+02  0.86585555128E+01  0.41503124917E+02  0.45045682321E+02  0.00000000000E+00 0.  1.
         11    1    3    3    0    0  0.66287102900E+01 -0.12494872353E+01 -0.23955228117E+02  0.24886823278E+02  0.51100000000E-03 0. -1.
        -11    1    3    3    0    0  0.37852823070E+00  0.47656446469E+00 -0.93738869744E+00  0.11176292505E+01  0.51100000000E-03 0.  1.
         12    1    3    3    0    0  0.82122731103E+01 -0.78856327422E+01 -0.16610508103E+02  0.20137865150E+02  0.00000000000E+00 0. -1.
</event>
<event>
 7    1  0.2031146E-008  0.4614232E+02  0.7816164E-02  0.1320468E+00
        -11   -1    0    0    0    0  0.00000000000E+00  0.00000000000E+00  0.45593999997E+02  0.45594000000E+02  0.51100000000E-03 0.  1.
         11   -1    0    0    0    0 -0.00000000000E+00 -0.00000000000E+00 -0.45593999997E+02  0.45594000000E+02  0.51100000000E-03 0. -1.
    9900012    2    1    2    0    0 -0.14771023354E+01 -0.40202383923E+02 -0.20265734276E+02  0.46142317742E+02  0.99999998218E+01 0.  0.
        -12    1    1    2    0    0  0.14771023354E+01  0.40202383923E+02  0.20265734276E+02  0.45045682258E+02  0.00000000000E+00 0.  1.
         11    1    3    3    0    0 -0.57001646340E+00 -0.15401779487E+02 -0.43413703210E+01  0.16012096261E+02  0.51100000000E-03 0. -1.
        -11    1    3    3    0    0 -0.74797089020E+00  0.24477053878E-01 -0.37581530582E+00  0.83743476400E+00  0.51100000000E-03 0.  1.
        -12    1    3    3    0    0 -0.15911498184E+00 -0.24825081489E+02 -0.15548548649E+02  0.29292786717E+02  0.00000000000E+00 0.  1.
</event>
<event>
 7    1  0.2031146E-008  0.4614232E+02  0.7816164E-02  0.1320468E+00
        -11   -1    0    0    0    0  0.00000000000E+00  0.00000000000E+00  0.45593999997E+02  0.45594000000E+02  0.51100000000E-03 0.  1.
         11   -1    0    0    0    0 -0.00000000000E+00 -0.00000000000E+00 -0.45593999997E+02  0.45594000000E+02  0.51100000000E-03 0. -1.
    9900012    2    1    2    0    0  0.34156832143E+02  0.26567139622E+02 -0.12514448463E+02  0.46142317520E+02  0.99999978025E+01 0.  0.
        -12    1    1    2    0    0 -0.34156832143E+02 -0.26567139622E+02  0.12514448463E+02  0.45045682480E+02  0.00000000000E+00 0.  1.
         11    1    3    3    0    0  0.16159090374E+02  0.13144793421E+02 -0.10575653345E+02  0.23361212292E+02  0.51100000000E-03 0.  1.
        -11    1    3    3    0    0  0.35477312066E+01  0.38515388673E+01 -0.14851966149E+01  0.54430283488E+01  0.51100000000E-03 0. -1.
        -12    1    3    3    0    0  0.14450010563E+02  0.95708073332E+01 -0.45359850249E+00  0.17338076880E+02  0.00000000000E+00 0.  1.
</event>
<event>
 7    1  0.2031146E-008  0.4614232E+02  0.7816164E-02  0.1320468E+00
        -11   -1    0    0    0    0  0.00000000000E+00  0.00000000000E+00  0.45593999997E+02  0.45594000000E+02  0.51100000000E-03 0.  1.
         11   -1    0    0    0    0 -0.00000000000E+00 -0.00000000000E+00 -0.45593999997E+02  0.45594000000E+02  0.51100000000E-03 0. -1.
    9900012    2    1    2    0    0 -0.39947798282E+02  0.15982463775E+02 -0.13335954294E+02  0.46142318600E+02  0.10000007647E+02 0.  0.
        -12    1    1    2    0    0  0.39947798282E+02 -0.15982463775E+02  0.13335954294E+02  0.45045681400E+02  0.00000000000E+00 0.  1.
         11    1    3    3    0    0 -0.17717742385E+02  0.94953365625E+01 -0.74865230890E+01  0.21450590665E+02  0.51100000000E-03 0. -1.
        -11    1    3    3    0    0 -0.20715241500E+02  0.76428608218E+01 -0.54952529484E+01  0.22753732818E+02  0.51100000000E-03 0.  1.
        -12    1    3    3    0    0 -0.15148143971E+01 -0.11557336095E+01 -0.35417825665E+00  0.19379951164E+01  0.00000000000E+00 0.  1.
</event>
<event>
 7    1  0.2031146E-008  0.4614230E+02  0.7816164E-02  0.1320468E+00
        -11   -1    0    0    0    0  0.00000000000E+00  0.00000000000E+00  0.45593999997E+02  0.45594000000E+02  0.51100000000E-03 0.  1.
         11   -1    0    0    0    0 -0.00000000000E+00 -0.00000000000E+00 -0.45593999997E+02  0.45594000000E+02  0.51100000000E-03 0. -1.
    9900012    2    1    2    0    0  0.20416671259E+02  0.95262727063E+01 -0.39006721888E+02  0.46142304430E+02  0.99998784314E+01 0.  0.
        -12    1    1    2    0    0 -0.20416671259E+02 -0.95262727063E+01  0.39006721888E+02  0.45045695570E+02  0.00000000000E+00 0.  1.
         11    1    3    3    0    0  0.18431204540E+02  0.58097337179E+01 -0.35936151090E+02  0.40802809488E+02  0.51100000000E-03 0. -1.
        -11    1    3    3    0    0  0.17900267959E+01  0.22439377376E+01 -0.22106476044E+01  0.36230395516E+01  0.51100000000E-03 0.  1.
         12    1    3    3    0    0  0.19543992291E+00  0.14726012508E+01 -0.85992319369E+00  0.17164553902E+01  0.00000000000E+00 0. -1.
</event>
<event>
 7    1  0.2031146E-008  0.4614232E+02  0.7816164E-02  0.1320468E+00
        -11   -1    0    0    0    0  0.00000000000E+00  0.00000000000E+00  0.45593999997E+02  0.45594000000E+02  0.51100000000E-03 0. -1.
         11   -1    0    0    0    0 -0.00000000000E+00 -0.00000000000E+00 -0.45593999997E+02  0.45594000000E+02  0.51100000000E-03 0.  1.
    9900012    2    1    2    0    0 -0.19047230441E+02  0.26543994604E+02  0.31011817269E+02  0.46142318217E+02  0.10000004154E+02 0.  0.
        -12    1    1    2    0    0  0.19047230441E+02 -0.26543994604E+02 -0.31011817269E+02  0.45045681783E+02  0.00000000000E+00 0.  1.
         11    1    3    3    0    0 -0.34852668931E+01  0.95480832073E+01  0.10400703077E+02  0.14542613349E+02  0.51100000000E-03 0. -1.
        -11    1    3    3    0    0 -0.10880131818E+02  0.13432933400E+02  0.11528497522E+02  0.20778046672E+02  0.51100000000E-03 0.  1.
        -12    1    3    3    0    0 -0.46818317298E+01  0.35629779968E+01  0.90826166693E+01  0.10821658196E+02  0.00000000000E+00 0.  1.
</event>
<event>
 7    1  0.2031146E-008  0.4614232E+02  0.7816164E-02  0.1320468E+00
        -11   -1    0    0    0    0  0.00000000000E+00  0.00000000000E+00  0.45593999997E+02  0.45594000000E+02  0.51100000000E-03 0. -1.
         11   -1    0    0    0    0 -0.00000000000E+00 -0.00000000000E+00 -0.45593999997E+02  0.45594000000E+02  0.51100000000E-03 0.  1.
    9900012    2    1    2    0    0 -0.25972148952E+02 -0.22020547781E+02  0.29489936745E+02  0.46142318576E+02  0.10000007429E+02 0.  0.
        -12    1    1    2    0    0  0.25972148952E+02  0.22020547781E+02 -0.29489936745E+02  0.45045681424E+02  0.00000000000E+00 0.  1.
         11    1    3    3    0    0 -0.34288014568E+01 -0.39571546880E+01  0.37247758424E+01  0.64257068088E+01  0.51100000000E-03 0. -1.
        -11    1    3    3    0    0 -0.11294108288E+02 -0.14574396645E+02  0.16195684980E+02  0.24541192551E+02  0.51100000000E-03 0.  1.
        -12    1    3    3    0    0 -0.11249239207E+02 -0.34889964475E+01  0.95694759228E+01  0.15175419216E+02  0.00000000000E+00 0.  1.
</event>
<event>
 7    1  0.2031146E-008  0.4614232E+02  0.7816164E-02  0.1320468E+00
        -11   -1    0    0    0    0  0.00000000000E+00  0.00000000000E+00  0.45593999997E+02  0.45594000000E+02  0.51100000000E-03 0.  1.
         11   -1    0    0    0    0 -0.00000000000E+00 -0.00000000000E+00 -0.45593999997E+02  0.45594000000E+02  0.51100000000E-03 0. -1.
    9900012    2    1    2    0    0 -0.17006243306E+02  0.33726078661E+02 -0.24544914185E+02  0.46142317570E+02  0.99999982612E+01 0.  0.
        -12    1    1    2    0    0  0.17006243306E+02 -0.33726078661E+02  0.24544914185E+02  0.45045682430E+02  0.00000000000E+00 0.  1.
         11    1    3    3    0    0 -0.55169742811E+00  0.16445894569E+01 -0.20304323300E+01  0.26705243384E+01  0.51100000000E-03 0. -1.
        -11    1    3    3    0    0 -0.85556616851E+01  0.88156218351E+01 -0.48345647452E+01  0.13201801080E+02  0.51100000000E-03 0.  1.
        -12    1    3    3    0    0 -0.78988841928E+01  0.23265867369E+02 -0.17679917110E+02  0.30269992152E+02  0.00000000000E+00 0.  1.
</event>
<event>
 7    1  0.2031146E-008  0.4614232E+02  0.7816164E-02  0.1320468E+00
        -11   -1    0    0    0    0  0.00000000000E+00  0.00000000000E+00  0.45593999997E+02  0.45594000000E+02  0.51100000000E-03 0. -1.
         11   -1    0    0    0    0 -0.00000000000E+00 -0.00000000000E+00 -0.45593999997E+02  0.45594000000E+02  0.51100000000E-03 0.  1.
    9900012    2    1    2    0    0  0.26763354436E+02 -0.35116514457E+02 -0.89256228150E+01  0.46142317955E+02  0.10000001767E+02 0.  0.
        -12    1    1    2    0    0 -0.26763354436E+02  0.35116514457E+02  0.89256228150E+01  0.45045682045E+02  0.00000000000E+00 0.  1.
         11    1    3    3    0    0  0.84656896124E+01 -0.12381813100E+02 -0.66119188708E+01  0.16391908604E+02  0.51100000000E-03 0. -1.
        -11    1    3    3    0    0  0.10807906850E+02 -0.92200863065E+01 -0.13081717256E+01  0.14266469623E+02  0.51100000000E-03 0.  1.
        -12    1    3    3    0    0  0.74897579733E+01 -0.13514615051E+02 -0.10055322186E+01  0.15483939728E+02  0.00000000000E+00 0.  1.
</event>
<event>
 7    1  0.2031146E-008  0.4614232E+02  0.7816164E-02  0.1320468E+00
        -11   -1    0    0    0    0  0.00000000000E+00  0.00000000000E+00  0.45593999997E+02  0.45594000000E+02  0.51100000000E-03 0. -1.
         11   -1    0    0    0    0 -0.00000000000E+00 -0.00000000000E+00 -0.45593999997E+02  0.45594000000E+02  0.51100000000E-03 0.  1.
    9900012    2    1    2    0    0 -0.26071815431E+01  0.32006091720E+02  0.31589971429E+02  0.46142316548E+02  0.99999889364E+01 0.  0.
        -12    1    1    2    0    0  0.26071815431E+01 -0.32006091720E+02 -0.31589971429E+02  0.45045683452E+02  0.00000000000E+00 0.  1.
         11    1    3    3    0    0 -0.13431284459E+01  0.18488843759E+02  0.14762821180E+02  0.23697726199E+02  0.51100000000E-03 0. -1.
        -11    1    3    3    0    0 -0.10283958546E+01  0.14017267660E+02  0.15089841314E+02  0.20621462165E+02  0.51100000000E-03 0.  1.
        -12    1    3    3    0    0 -0.23565724271E+00 -0.50001969917E+00  0.17373089361E+01  0.18231281839E+01  0.00000000000E+00 0.  1.
</event>
<event>
 7    1  0.2031146E-008  0.4614232E+02  0.7816164E-02  0.1320468E+00
        -11   -1    0    0    0    0  0.00000000000E+00  0.00000000000E+00  0.45593999997E+02  0.45594000000E+02  0.51100000000E-03 0.  1.
         11   -1    0    0    0    0 -0.00000000000E+00 -0.00000000000E+00 -0.45593999997E+02  0.45594000000E+02  0.51100000000E-03 0. -1.
    9900012    2    1    2    0    0 -0.38593430090E+02  0.22604457466E+02 -0.53571208472E+01  0.46142322213E+02  0.10000040600E+02 0.  0.
        -12    1    1    2    0    0  0.38593430090E+02 -0.22604457466E+02  0.53571208472E+01  0.45045677787E+02  0.00000000000E+00 0.  1.
         11    1    3    3    0    0 -0.54961722147E+01  0.96013966202E+00 -0.12530449846E+01  0.57183825667E+01  0.51100000000E-03 0. -1.
        -11    1    3    3    0    0 -0.45314079969E+00  0.21350173862E+01 -0.11337602743E+00  0.21855182929E+01  0.51100000000E-03 0.  1.
         12    1    3    3    0    0 -0.32644117076E+02  0.19509300418E+02 -0.39906998351E+01  0.38238421354E+02  0.00000000000E+00 0. -1.
</event>
<event>
 7    1  0.2031146E-008  0.4614232E+02  0.7816164E-02  0.1320468E+00
        -11   -1    0    0    0    0  0.00000000000E+00  0.00000000000E+00  0.45593999997E+02  0.45594000000E+02  0.51100000000E-03 0.  1.
         11   -1    0    0    0    0 -0.00000000000E+00 -0.00000000000E+00 -0.45593999997E+02  0.45594000000E+02  0.51100000000E-03 0. -1.
    9900012    2    1    2    0    0 -0.12457762304E+02 -0.98603614131E+01 -0.42150811222E+02  0.46142318126E+02  0.10000003327E+02 0.  0.
        -12    1    1    2    0    0  0.12457762304E+02  0.98603614131E+01  0.42150811222E+02  0.45045681874E+02  0.00000000000E+00 0.  1.
         11    1    3    3    0    0 -0.48695374673E+01 -0.11002199062E+01 -0.13553002108E+02  0.14443224896E+02  0.51100000000E-03 0. -1.
        -11    1    3    3    0    0 -0.17145638343E+00 -0.55999044404E+01 -0.11126905826E+02  0.12457783132E+02  0.51100000000E-03 0.  1.
        -12    1    3    3    0    0 -0.74167684534E+01 -0.31602370665E+01 -0.17470903287E+02  0.19241310098E+02  0.00000000000E+00 0.  1.
</event>
<event>
 7    1  0.2031146E-008  0.4614232E+02  0.7816164E-02  0.1320468E+00
        -11   -1    0    0    0    0  0.00000000000E+00  0.00000000000E+00  0.45593999997E+02  0.45594000000E+02  0.51100000000E-03 0.  1.
         11   -1    0    0    0    0 -0.00000000000E+00 -0.00000000000E+00 -0.45593999997E+02  0.45594000000E+02  0.51100000000E-03 0. -1.
    9900012    2    1    2    0    0  0.70899167611E+01 -0.17428050077E+02 -0.40928103888E+02  0.46142317221E+02  0.99999950746E+01 0.  0.
        -12    1    1    2    0    0 -0.70899167611E+01  0.17428050077E+02  0.40928103888E+02  0.45045682779E+02  0.00000000000E+00 0.  1.
         11    1    3    3    0    0  0.68162745311E+01 -0.17487094077E+02 -0.34613910032E+02  0.39374900962E+02  0.51100000000E-03 0. -1.
        -11    1    3    3    0    0  0.12677667497E+01 -0.34566634554E+00 -0.28010113619E+01  0.30939267387E+01  0.51100000000E-03 0.  1.
        -12    1    3    3    0    0 -0.99412451972E+00  0.40471034559E+00 -0.35131824936E+01  0.36734895206E+01  0.00000000000E+00 0.  1.
</event>
<event>
 7    1  0.2031146E-008  0.4614232E+02  0.7816164E-02  0.1320468E+00
        -11   -1    0    0    0    0  0.00000000000E+00  0.00000000000E+00  0.45593999997E+02  0.45594000000E+02  0.51100000000E-03 0.  1.
         11   -1    0    0    0    0 -0.00000000000E+00 -0.00000000000E+00 -0.45593999997E+02  0.45594000000E+02  0.51100000000E-03 0. -1.
    9900012    2    1    2    0    0 -0.53292113932E+01 -0.38492499214E+02 -0.22782458635E+02  0.46142318617E+02  0.10000007803E+02 0.  0.
        -12    1    1    2    0    0  0.53292113932E+01  0.38492499214E+02  0.22782458635E+02  0.45045681383E+02  0.00000000000E+00 0.  1.
         11    1    3    3    0    0 -0.30333346622E+01 -0.14506378353E+02 -0.76016325632E+01  0.16655958392E+02  0.51100000000E-03 0. -1.
        -11    1    3    3    0    0 -0.43078580073E+01 -0.20890681559E+02 -0.11333512153E+02  0.24154227675E+02  0.51100000000E-03 0.  1.
        -12    1    3    3    0    0  0.20119812763E+01 -0.30954393029E+01 -0.38473139187E+01  0.53321325492E+01  0.00000000000E+00 0.  1.
</event>
<event>
 7    1  0.2031146E-008  0.4614232E+02  0.7816164E-02  0.1320468E+00
        -11   -1    0    0    0    0  0.00000000000E+00  0.00000000000E+00  0.45593999997E+02  0.45594000000E+02  0.51100000000E-03 0.  1.
         11   -1    0    0    0    0 -0.00000000000E+00 -0.00000000000E+00 -0.45593999997E+02  0.45594000000E+02  0.51100000000E-03 0. -1.
    9900012    2    1    2    0    0 -0.12467959274E+02  0.30307955521E+02 -0.30904551801E+02  0.46142317650E+02  0.99999989887E+01 0.  0.
        -12    1    1    2    0    0  0.12467959274E+02 -0.30307955521E+02  0.30904551801E+02  0.45045682350E+02  0.00000000000E+00 0.  1.
         11    1    3    3    0    0 -0.52587330679E+01  0.13811807554E+02 -0.12344073843E+02  0.19256075942E+02  0.51100000000E-03 0. -1.
        -11    1    3    3    0    0  0.56001528070E-01  0.62449164539E+01 -0.31251359613E+01  0.69834513476E+01  0.51100000000E-03 0.  1.
        -12    1    3    3    0    0 -0.72652277345E+01  0.10251231513E+02 -0.15435341997E+02  0.19902790361E+02  0.00000000000E+00 0.  1.
</event>
<event>
 7    1  0.2031146E-008  0.4614232E+02  0.7816164E-02  0.1320468E+00
        -11   -1    0    0    0    0  0.00000000000E+00  0.00000000000E+00  0.45593999997E+02  0.45594000000E+02  0.51100000000E-03 0.  1.
         11   -1    0    0    0    0 -0.00000000000E+00 -0.00000000000E+00 -0.45593999997E+02  0.45594000000E+02  0.51100000000E-03 0. -1.
    9900012    2    1    2    0    0  0.78404856054E+01 -0.44300698307E+02 -0.22557708466E+01  0.46142316665E+02  0.99999900058E+01 0.  0.
        -12    1    1    2    0    0 -0.78404856054E+01  0.44300698307E+02  0.22557708466E+01  0.45045683335E+02  0.00000000000E+00 0.  1.
         11    1    3    3    0    0  0.58671348476E+01 -0.18208308366E+02 -0.17507371438E+00  0.19131032799E+02  0.51100000000E-03 0. -1.
        -11    1    3    3    0    0 -0.39702104366E+00 -0.72903619405E+01  0.21153901572E+01  0.76014392526E+01  0.51100000000E-03 0.  1.
        -12    1    3    3    0    0  0.23703718015E+01 -0.18802028000E+02 -0.41960872894E+01  0.19409844614E+02  0.00000000000E+00 0.  1.
</event>
<event>
 7    1  0.2031146E-008  0.4614232E+02  0.7816164E-02  0.1320468E+00
        -11   -1    0    0    0    0  0.00000000000E+00  0.00000000000E+00  0.45593999997E+02  0.45594000000E+02  0.51100000000E-03 0.  1.
         11   -1    0    0    0    0 -0.00000000000E+00 -0.00000000000E+00 -0.45593999997E+02  0.45594000000E+02  0.51100000000E-03 0. -1.
    9900012    2    1    2    0    0  0.32430689924E+02  0.12307310636E+02 -0.28738369737E+02  0.46142318307E+02  0.10000004982E+02 0.  0.
        -12    1    1    2    0    0 -0.32430689924E+02 -0.12307310636E+02  0.28738369737E+02  0.45045681693E+02  0.00000000000E+00 0.  1.
         11    1    3    3    0    0  0.24501669946E+01  0.14144580566E+01 -0.37966586547E+00  0.28544975610E+01  0.51100000000E-03 0. -1.
        -11    1    3    3    0    0  0.16574918615E+02  0.28932569374E+01 -0.11935884360E+02  0.20629207414E+02  0.51100000000E-03 0.  1.
        -12    1    3    3    0    0  0.13405604314E+02  0.79995956415E+01 -0.16422819512E+02  0.22658613333E+02  0.00000000000E+00 0.  1.
</event>
<event>
 7    1  0.2031146E-008  0.4614232E+02  0.7816164E-02  0.1320468E+00
        -11   -1    0    0    0    0  0.00000000000E+00  0.00000000000E+00  0.45593999997E+02  0.45594000000E+02  0.51100000000E-03 0.  1.
         11   -1    0    0    0    0 -0.00000000000E+00 -0.00000000000E+00 -0.45593999997E+02  0.45594000000E+02  0.51100000000E-03 0. -1.
    9900012    2    1    2    0    0  0.25710948093E+02 -0.97483427274E+01 -0.35679546603E+02  0.46142322254E+02  0.10000040972E+02 0.  0.
        -12    1    1    2    0    0 -0.25710948093E+02  0.97483427274E+01  0.35679546603E+02  0.45045677746E+02  0.00000000000E+00 0.  1.
         11    1    3    3    0    0  0.16475237191E+01 -0.11215099809E+01 -0.22172833417E+01  0.29813528340E+01  0.51100000000E-03 0. -1.
        -11    1    3    3    0    0  0.14943826710E+02 -0.10929414161E+01 -0.14765725573E+02  0.21036614025E+02  0.51100000000E-03 0.  1.
         12    1    3    3    0    0  0.91195976639E+01 -0.75338913304E+01 -0.18696537688E+02  0.22124355395E+02  0.00000000000E+00 0. -1.
</event>
<event>
 7    1  0.2031146E-008  0.4614232E+02  0.7816164E-02  0.1320468E+00
        -11   -1    0    0    0    0  0.00000000000E+00  0.00000000000E+00  0.45593999997E+02  0.45594000000E+02  0.51100000000E-03 0.  1.
         11   -1    0    0    0    0 -0.00000000000E+00 -0.00000000000E+00 -0.45593999997E+02  0.45594000000E+02  0.51100000000E-03 0. -1.
    9900012    2    1    2    0    0  0.17855989141E+02 -0.15160901875E+02 -0.38476281060E+02  0.46142317654E+02  0.99999990219E+01 0.  0.
        -12    1    1    2    0    0 -0.17855989141E+02  0.15160901875E+02  0.38476281060E+02  0.45045682346E+02  0.00000000000E+00 0.  1.
         11    1    3    3    0    0  0.31582998358E+01 -0.20658156415E+01 -0.38033524135E+01  0.53579792795E+01  0.51100000000E-03 0. -1.
        -11    1    3    3    0    0  0.13947698940E+01 -0.59506206252E+01 -0.72821876015E+01  0.95071302403E+01  0.51100000000E-03 0.  1.
        -12    1    3    3    0    0  0.13302919411E+02 -0.71444656078E+01 -0.27390741045E+02  0.31277208134E+02  0.00000000000E+00 0.  1.
</event>
<event>
 7    1  0.2031146E-008  0.4614232E+02  0.7816164E-02  0.1320468E+00
        -11   -1    0    0    0    0  0.00000000000E+00  0.00000000000E+00  0.45593999997E+02  0.45594000000E+02  0.51100000000E-03 0. -1.
         11   -1    0    0    0    0 -0.00000000000E+00 -0.00000000000E+00 -0.45593999997E+02  0.45594000000E+02  0.51100000000E-03 0.  1.
    9900012    2    1    2    0    0  0.16497012940E+02 -0.78402989337E+01  0.41176349406E+02  0.46142317924E+02  0.10000001483E+02 0.  0.
        -12    1    1    2    0    0 -0.16497012940E+02  0.78402989337E+01 -0.41176349406E+02  0.45045682076E+02  0.00000000000E+00 0.  1.
         11    1    3    3    0    0  0.27691487346E+01 -0.47367559457E+01  0.14828973624E+02  0.15811499000E+02  0.51100000000E-03 0. -1.
        -11    1    3    3    0    0  0.57489369504E+00  0.10796849868E+01  0.20839919433E+01  0.24164530023E+01  0.51100000000E-03 0.  1.
         12    1    3    3    0    0  0.13152970510E+02 -0.41832279748E+01  0.24263383838E+02  0.27914365922E+02  0.00000000000E+00 0. -1.
</event>
<event>
 7    1  0.2031146E-008  0.4614232E+02  0.7816164E-02  0.1320468E+00
        -11   -1    0    0    0    0  0.00000000000E+00  0.00000000000E+00  0.45593999997E+02  0.45594000000E+02  0.51100000000E-03 0. -1.
         11   -1    0    0    0    0 -0.00000000000E+00 -0.00000000000E+00 -0.45593999997E+02  0.45594000000E+02  0.51100000000E-03 0.  1.
    9900012    2    1    2    0    0 -0.38121832232E+02 -0.10288684916E+02 -0.21679070927E+02  0.46142320448E+02  0.10000024504E+02 0.  0.
        -12    1    1    2    0    0  0.38121832232E+02  0.10288684916E+02  0.21679070927E+02  0.45045679552E+02  0.00000000000E+00 0.  1.
         11    1    3    3    0    0 -0.12136935143E+02 -0.11182895987E+01 -0.38648639533E+01  0.12786435779E+02  0.51100000000E-03 0. -1.
        -11    1    3    3    0    0  0.21370130048E+00 -0.45345557360E+00 -0.77781181863E-02  0.50134914311E+00  0.51100000000E-03 0.  1.
        -12    1    3    3    0    0 -0.26198598390E+02 -0.87169397438E+01 -0.17806428856E+02  0.32854535527E+02  0.00000000000E+00 0.  1.
</event>
<event>
 7    1  0.2031146E-008  0.4614232E+02  0.7816164E-02  0.1320468E+00
        -11   -1    0    0    0    0  0.00000000000E+00  0.00000000000E+00  0.45593999997E+02  0.45594000000E+02  0.51100000000E-03 0. -1.
         11   -1    0    0    0    0 -0.00000000000E+00 -0.00000000000E+00 -0.45593999997E+02  0.45594000000E+02  0.51100000000E-03 0.  1.
    9900012    2    1    2    0    0  0.41853384423E+02  0.32813461787E+01  0.16329129760E+02  0.46142317642E+02  0.99999989113E+01 0.  0.
        -12    1    1    2    0    0 -0.41853384423E+02 -0.32813461787E+01 -0.16329129760E+02  0.45045682358E+02  0.00000000000E+00 0.  1.
         11    1    3    3    0    0  0.11074988595E+02 -0.91764352013E+00  0.12764234281E+01  0.11186004606E+02  0.51100000000E-03 0. -1.
        -11    1    3    3    0    0  0.39760326707E+01 -0.50657517551E+00  0.37538828865E+01  0.54915472496E+01  0.51100000000E-03 0.  1.
         12    1    3    3    0    0  0.26802363157E+02  0.47055648744E+01  0.11298823445E+02  0.29464765786E+02  0.00000000000E+00 0. -1.
</event>
<event>
 7    1  0.2031146E-008  0.4614232E+02  0.7816164E-02  0.1320468E+00
        -11   -1    0    0    0    0  0.00000000000E+00  0.00000000000E+00  0.45593999997E+02  0.45594000000E+02  0.51100000000E-03 0.  1.
         11   -1    0    0    0    0 -0.00000000000E+00 -0.00000000000E+00 -0.45593999997E+02  0.45594000000E+02  0.51100000000E-03 0. -1.
    9900012    2    1    2    0    0 -0.70282605093E+01 -0.68261797830E+01 -0.43967264100E+02  0.46142317758E+02  0.99999999744E+01 0.  0.
        -12    1    1    2    0    0  0.70282605093E+01  0.68261797830E+01  0.43967264100E+02  0.45045682242E+02  0.00000000000E+00 0.  1.
         11    1    3    3    0    0 -0.47815628383E+01 -0.41266176377E+01 -0.16632010742E+02  0.17790899300E+02  0.51100000000E-03 0. -1.
        -11    1    3    3    0    0 -0.27813608408E+01 -0.34166885999E+01 -0.92660552640E+01  0.10260093057E+02  0.51100000000E-03 0.  1.
         12    1    3    3    0    0  0.53466316983E+00  0.71712645455E+00 -0.18069198093E+02  0.18091325402E+02  0.00000000000E+00 0. -1.
</event>
<event>
 7    1  0.2031146E-008  0.4614232E+02  0.7816164E-02  0.1320468E+00
        -11   -1    0    0    0    0  0.00000000000E+00  0.00000000000E+00  0.45593999997E+02  0.45594000000E+02  0.51100000000E-03 0. -1.
         11   -1    0    0    0    0 -0.00000000000E+00 -0.00000000000E+00 -0.45593999997E+02  0.45594000000E+02  0.51100000000E-03 0.  1.
    9900012    2    1    2    0    0  0.14070378614E+02 -0.41952023541E+02 -0.84359741212E+01  0.46142317711E+02  0.99999995408E+01 0.  0.
        -12    1    1    2    0    0 -0.14070378614E+02  0.41952023541E+02  0.84359741212E+01  0.45045682289E+02  0.00000000000E+00 0.  1.
         11    1    3    3    0    0  0.50361865299E+01 -0.81733934239E+01 -0.94561518368E+00  0.96468504271E+01  0.51100000000E-03 0. -1.
        -11    1    3    3    0    0  0.27422511312E+01 -0.21083984707E+02 -0.22140434710E+01  0.21376537165E+02  0.51100000000E-03 0.  1.
         12    1    3    3    0    0  0.62919409531E+01 -0.12694645410E+02 -0.52763154665E+01  0.15118930119E+02  0.00000000000E+00 0. -1.
</event>
<event>
 7    1  0.2031146E-008  0.4614232E+02  0.7816164E-02  0.1320468E+00
        -11   -1    0    0    0    0  0.00000000000E+00  0.00000000000E+00  0.45593999997E+02  0.45594000000E+02  0.51100000000E-03 0. -1.
         11   -1    0    0    0    0 -0.00000000000E+00 -0.00000000000E+00 -0.45593999997E+02  0.45594000000E+02  0.51100000000E-03 0.  1.
    9900012    2    1    2    0    0 -0.26130763627E+02  0.33122937972E+02  0.15785049071E+02  0.46142316502E+02  0.99999885177E+01 0.  0.
        -12    1    1    2    0    0  0.26130763627E+02 -0.33122937972E+02 -0.15785049071E+02  0.45045683498E+02  0.00000000000E+00 0.  1.
         11    1    3    3    0    0 -0.22005445219E+02  0.23922473504E+02  0.10714415707E+02  0.34224597325E+02  0.51100000000E-03 0. -1.
        -11    1    3    3    0    0 -0.44876972655E+01  0.93165078804E+01  0.51109183015E+01  0.11535086995E+02  0.51100000000E-03 0.  1.
        -12    1    3    3    0    0  0.36237885836E+00 -0.11604341205E+00 -0.40284937622E-01  0.38263218196E+00  0.00000000000E+00 0.  1.
</event>
<event>
 7    1  0.2031146E-008  0.4614232E+02  0.7816164E-02  0.1320468E+00
        -11   -1    0    0    0    0  0.00000000000E+00  0.00000000000E+00  0.45593999997E+02  0.45594000000E+02  0.51100000000E-03 0. -1.
         11   -1    0    0    0    0 -0.00000000000E+00 -0.00000000000E+00 -0.45593999997E+02  0.45594000000E+02  0.51100000000E-03 0.  1.
    9900012    2    1    2    0    0 -0.49422987129E+01 -0.23078865341E+02  0.38367343354E+02  0.46142318986E+02  0.10000011170E+02 0.  0.
        -12    1    1    2    0    0  0.49422987129E+01  0.23078865341E+02 -0.38367343354E+02  0.45045681014E+02  0.00000000000E+00 0.  1.
         11    1    3    3    0    0  0.12490808328E+01 -0.11234715115E+02  0.19424544055E+02  0.22474250569E+02  0.51100000000E-03 0. -1.
        -11    1    3    3    0    0  0.35541384765E+00 -0.62219577291E+00  0.22901215846E-01  0.71691792399E+00  0.51100000000E-03 0.  1.
         12    1    3    3    0    0 -0.65467933933E+01 -0.11221954453E+02  0.18919898083E+02  0.22951150493E+02  0.00000000000E+00 0. -1.
</event>
<event>
 7    1  0.2031146E-008  0.4614232E+02  0.7816164E-02  0.1320468E+00
        -11   -1    0    0    0    0  0.00000000000E+00  0.00000000000E+00  0.45593999997E+02  0.45594000000E+02  0.51100000000E-03 0. -1.
         11   -1    0    0    0    0 -0.00000000000E+00 -0.00000000000E+00 -0.45593999997E+02  0.45594000000E+02  0.51100000000E-03 0.  1.
    9900012    2    1    2    0    0  0.35568225676E+02 -0.20348508572E+02  0.18707028401E+02  0.46142318848E+02  0.10000009914E+02 0.  0.
        -12    1    1    2    0    0 -0.35568225676E+02  0.20348508572E+02 -0.18707028401E+02  0.45045681152E+02  0.00000000000E+00 0.  1.
         11    1    3    3    0    0  0.29879958923E+01 -0.74104092765E+00  0.26575645209E+01  0.40669288846E+01  0.51100000000E-03 0. -1.
        -11    1    3    3    0    0  0.14003042645E+02 -0.44212196405E+01  0.39685357178E+01  0.15211234744E+02  0.51100000000E-03 0.  1.
         12    1    3    3    0    0  0.18577187138E+02 -0.15186248004E+02  0.12080928162E+02  0.26864155220E+02  0.00000000000E+00 0. -1.
</event>
<event>
 7    1  0.2031146E-008  0.4614232E+02  0.7816164E-02  0.1320468E+00
        -11   -1    0    0    0    0  0.00000000000E+00  0.00000000000E+00  0.45593999997E+02  0.45594000000E+02  0.51100000000E-03 0.  1.
         11   -1    0    0    0    0 -0.00000000000E+00 -0.00000000000E+00 -0.45593999997E+02  0.45594000000E+02  0.51100000000E-03 0. -1.
    9900012    2    1    2    0    0 -0.54906880792E+01  0.16669872773E+02 -0.41485912044E+02  0.46142320829E+02  0.10000027975E+02 0.  0.
        -12    1    1    2    0    0  0.54906880792E+01 -0.16669872773E+02  0.41485912044E+02  0.45045679171E+02  0.00000000000E+00 0.  1.
         11    1    3    3    0    0 -0.18855013268E+01  0.61028710117E+01 -0.16900586640E+02  0.18067373325E+02  0.51100000000E-03 0. -1.
        -11    1    3    3    0    0  0.62861518066E+00  0.44132352428E+01 -0.16394135686E+02  0.16989393383E+02  0.51100000000E-03 0.  1.
        -12    1    3    3    0    0 -0.42338019331E+01  0.61537665184E+01 -0.81911897177E+01  0.11085554121E+02  0.00000000000E+00 0.  1.
</event>
<event>
 7    1  0.2031146E-008  0.4614232E+02  0.7816164E-02  0.1320468E+00
        -11   -1    0    0    0    0  0.00000000000E+00  0.00000000000E+00  0.45593999997E+02  0.45594000000E+02  0.51100000000E-03 0. -1.
         11   -1    0    0    0    0 -0.00000000000E+00 -0.00000000000E+00 -0.45593999997E+02  0.45594000000E+02  0.51100000000E-03 0.  1.
    9900012    2    1    2    0    0 -0.69828540855E+01 -0.27191095299E+02  0.35227795227E+02  0.46142317951E+02  0.10000001731E+02 0.  0.
        -12    1    1    2    0    0  0.69828540855E+01  0.27191095299E+02 -0.35227795227E+02  0.45045682049E+02  0.00000000000E+00 0.  1.
         11    1    3    3    0    0  0.90553517529E+00 -0.20041302133E+01  0.51809582120E+01  0.56283976513E+01  0.51100000000E-03 0.  1.
        -11    1    3    3    0    0 -0.39409268434E+00 -0.10681717031E+02  0.14077015380E+02  0.17675314708E+02  0.51100000000E-03 0. -1.
         12    1    3    3    0    0 -0.74942965765E+01 -0.14505248055E+02  0.15969821635E+02  0.22838605591E+02  0.00000000000E+00 0. -1.
</event>
<event>
 7    1  0.2031146E-008  0.4614232E+02  0.7816164E-02  0.1320468E+00
        -11   -1    0    0    0    0  0.00000000000E+00  0.00000000000E+00  0.45593999997E+02  0.45594000000E+02  0.51100000000E-03 0. -1.
         11   -1    0    0    0    0 -0.00000000000E+00 -0.00000000000E+00 -0.45593999997E+02  0.45594000000E+02  0.51100000000E-03 0.  1.
    9900012    2    1    2    0    0  0.14404107275E+01 -0.28495107892E+02  0.34857818738E+02  0.46142317809E+02  0.10000000440E+02 0.  0.
        -12    1    1    2    0    0 -0.14404107275E+01  0.28495107892E+02 -0.34857818738E+02  0.45045682191E+02  0.00000000000E+00 0.  1.
         11    1    3    3    0    0  0.12623631469E+00 -0.80458351646E+01  0.60936017331E+01  0.10093729808E+02  0.51100000000E-03 0.  1.
        -11    1    3    3    0    0  0.15028370814E+01 -0.11474475795E+02  0.10192139591E+02  0.15420824354E+02  0.51100000000E-03 0. -1.
        -12    1    3    3    0    0 -0.18866266857E+00 -0.89747969318E+01  0.18572077415E+02  0.20627763647E+02  0.00000000000E+00 0.  1.
</event>
<event>
 7    1  0.2031146E-008  0.4614231E+02  0.7816164E-02  0.1320468E+00
        -11   -1    0    0    0    0  0.00000000000E+00  0.00000000000E+00  0.45593999997E+02  0.45594000000E+02  0.51100000000E-03 0.  1.
         11   -1    0    0    0    0 -0.00000000000E+00 -0.00000000000E+00 -0.45593999997E+02  0.45594000000E+02  0.51100000000E-03 0. -1.
    9900012    2    1    2    0    0  0.22250459596E+02 -0.30977512789E+02 -0.23967154456E+02  0.46142314928E+02  0.99999741666E+01 0.  0.
        -12    1    1    2    0    0 -0.22250459596E+02  0.30977512789E+02  0.23967154456E+02  0.45045685072E+02  0.00000000000E+00 0.  1.
         11    1    3    3    0    0  0.17058465875E+02 -0.26537904761E+02 -0.17866557221E+02  0.36255558392E+02  0.51100000000E-03 0. -1.
        -11    1    3    3    0    0  0.84260859576E+00 -0.30386565906E+01 -0.19099117729E+01  0.36866226228E+01  0.51100000000E-03 0.  1.
         12    1    3    3    0    0  0.43493851252E+01 -0.14009514378E+01 -0.41906854627E+01  0.62001339135E+01  0.00000000000E+00 0. -1.
</event>
<event>
 7    1  0.2031146E-008  0.4614232E+02  0.7816164E-02  0.1320468E+00
        -11   -1    0    0    0    0  0.00000000000E+00  0.00000000000E+00  0.45593999997E+02  0.45594000000E+02  0.51100000000E-03 0.  1.
         11   -1    0    0    0    0 -0.00000000000E+00 -0.00000000000E+00 -0.45593999997E+02  0.45594000000E+02  0.51100000000E-03 0. -1.
    9900012    2    1    2    0    0  0.19823735737E+02  0.39861309058E+02 -0.68708868021E+01  0.46142317145E+02  0.99999943857E+01 0.  0.
        -12    1    1    2    0    0 -0.19823735737E+02 -0.39861309058E+02  0.68708868021E+01  0.45045682855E+02  0.00000000000E+00 0.  1.
         11    1    3    3    0    0 -0.55014338044E+00  0.28875188533E+01  0.30488020350E+00  0.29552284289E+01  0.51100000000E-03 0. -1.
        -11    1    3    3    0    0  0.66331287894E+00 -0.71523137889E-02  0.40098094073E-01  0.66456244946E+00  0.51100000000E-03 0.  1.
         12    1    3    3    0    0  0.19710566239E+02  0.36980942518E+02 -0.72158650996E+01  0.42522526267E+02  0.00000000000E+00 0. -1.
</event>
<event>
 7    1  0.2031146E-008  0.4614232E+02  0.7816164E-02  0.1320468E+00
        -11   -1    0    0    0    0  0.00000000000E+00  0.00000000000E+00  0.45593999997E+02  0.45594000000E+02  0.51100000000E-03 0.  1.
         11   -1    0    0    0    0 -0.00000000000E+00 -0.00000000000E+00 -0.45593999997E+02  0.45594000000E+02  0.51100000000E-03 0. -1.
    9900012    2    1    2    0    0  0.30897051112E+02  0.12489760127E+01 -0.32755544195E+02  0.46142318919E+02  0.10000010561E+02 0.  0.
        -12    1    1    2    0    0 -0.30897051112E+02 -0.12489760127E+01  0.32755544195E+02  0.45045681081E+02  0.00000000000E+00 0.  1.
         11    1    3    3    0    0  0.24527054782E+01 -0.64649670657E+00 -0.15260873500E+01  0.29601798957E+01  0.51100000000E-03 0. -1.
        -11    1    3    3    0    0  0.12175564976E+02 -0.99561562190E+00 -0.77355360619E+01  0.14459396646E+02  0.51100000000E-03 0.  1.
         12    1    3    3    0    0  0.16268780659E+02  0.28910883412E+01 -0.23493920783E+02  0.28722742377E+02  0.00000000000E+00 0. -1.
</event>
<event>
 7    1  0.2031146E-008  0.4614232E+02  0.7816164E-02  0.1320468E+00
        -11   -1    0    0    0    0  0.00000000000E+00  0.00000000000E+00  0.45593999997E+02  0.45594000000E+02  0.51100000000E-03 0.  1.
         11   -1    0    0    0    0 -0.00000000000E+00 -0.00000000000E+00 -0.45593999997E+02  0.45594000000E+02  0.51100000000E-03 0. -1.
    9900012    2    1    2    0    0 -0.20482448389E+02 -0.31239188546E+02 -0.25173316156E+02  0.46142318306E+02  0.10000004969E+02 0.  0.
        -12    1    1    2    0    0  0.20482448389E+02  0.31239188546E+02  0.25173316156E+02  0.45045681694E+02  0.00000000000E+00 0.  1.
         11    1    3    3    0    0 -0.28404590226E+01 -0.31582505630E+01 -0.19002295496E+01  0.46533457512E+01  0.51100000000E-03 0. -1.
        -11    1    3    3    0    0 -0.13729299377E+02 -0.20229788910E+02 -0.12086307818E+02  0.27273006026E+02  0.51100000000E-03 0.  1.
        -12    1    3    3    0    0 -0.39126899887E+01 -0.78511490723E+01 -0.11186778788E+02  0.14215966529E+02  0.00000000000E+00 0.  1.
</event>
<event>
 7    1  0.2031146E-008  0.4614232E+02  0.7816164E-02  0.1320468E+00
        -11   -1    0    0    0    0  0.00000000000E+00  0.00000000000E+00  0.45593999997E+02  0.45594000000E+02  0.51100000000E-03 0.  1.
         11   -1    0    0    0    0 -0.00000000000E+00 -0.00000000000E+00 -0.45593999997E+02  0.45594000000E+02  0.51100000000E-03 0. -1.
    9900012    2    1    2    0    0  0.11808542210E+02 -0.20020511954E+02 -0.38585630855E+02  0.46142317893E+02  0.10000001204E+02 0.  0.
        -12    1    1    2    0    0 -0.11808542210E+02  0.20020511954E+02  0.38585630855E+02  0.45045682107E+02  0.00000000000E+00 0.  1.
         11    1    3    3    0    0  0.41086719486E-01 -0.74467658416E+01 -0.10953361907E+02  0.13245080104E+02  0.51100000000E-03 0. -1.
        -11    1    3    3    0    0 -0.10733867684E+00 -0.18081683836E+01 -0.24548603229E+01  0.30507923497E+01  0.51100000000E-03 0.  1.
        -12    1    3    3    0    0  0.11874794167E+02 -0.10765577729E+02 -0.25177408624E+02  0.29846445440E+02  0.00000000000E+00 0.  1.
</event>
<event>
 7    1  0.2031146E-008  0.4614232E+02  0.7816164E-02  0.1320468E+00
        -11   -1    0    0    0    0  0.00000000000E+00  0.00000000000E+00  0.45593999997E+02  0.45594000000E+02  0.51100000000E-03 0.  1.
         11   -1    0    0    0    0 -0.00000000000E+00 -0.00000000000E+00 -0.45593999997E+02  0.45594000000E+02  0.51100000000E-03 0. -1.
    9900012    2    1    2    0    0  0.40944716971E+02  0.29301459736E+01 -0.18548799393E+02  0.46142316941E+02  0.99999925228E+01 0.  0.
        -12    1    1    2    0    0 -0.40944716971E+02 -0.29301459736E+01  0.18548799393E+02  0.45045683059E+02  0.00000000000E+00 0.  1.
         11    1    3    3    0    0  0.49145898302E+01  0.27088884109E+01 -0.32814177093E+01  0.65006901223E+01  0.51100000000E-03 0.  1.
        -11    1    3    3    0    0  0.88954699813E+00  0.10257421145E+01 -0.10869448773E+01  0.17392211403E+01  0.51100000000E-03 0. -1.
         12    1    3    3    0    0  0.35140580143E+02 -0.80448455182E+00 -0.14180436807E+02  0.37902405679E+02  0.00000000000E+00 0. -1.
</event>
<event>
 7    1  0.2031146E-008  0.4614232E+02  0.7816164E-02  0.1320468E+00
        -11   -1    0    0    0    0  0.00000000000E+00  0.00000000000E+00  0.45593999997E+02  0.45594000000E+02  0.51100000000E-03 0. -1.
         11   -1    0    0    0    0 -0.00000000000E+00 -0.00000000000E+00 -0.45593999997E+02  0.45594000000E+02  0.51100000000E-03 0.  1.
    9900012    2    1    2    0    0 -0.11768512881E+02 -0.28152737247E+02  0.33136671182E+02  0.46142317777E+02  0.10000000148E+02 0.  0.
        -12    1    1    2    0    0  0.11768512881E+02  0.28152737247E+02 -0.33136671182E+02  0.45045682223E+02  0.00000000000E+00 0.  1.
         11    1    3    3    0    0 -0.47465735903E+00 -0.25654268866E+01  0.47982675598E+01  0.54616926457E+01  0.51100000000E-03 0. -1.
        -11    1    3    3    0    0 -0.31054910017E+01 -0.43315869147E+01  0.10402328930E+02  0.11688249098E+02  0.51100000000E-03 0.  1.
         12    1    3    3    0    0 -0.81883645198E+01 -0.21255723445E+02  0.17936074692E+02  0.28992376033E+02  0.00000000000E+00 0. -1.
</event>
<event>
 7    1  0.2031146E-008  0.4614232E+02  0.7816164E-02  0.1320468E+00
        -11   -1    0    0    0    0  0.00000000000E+00  0.00000000000E+00  0.45593999997E+02  0.45594000000E+02  0.51100000000E-03 0.  1.
         11   -1    0    0    0    0 -0.00000000000E+00 -0.00000000000E+00 -0.45593999997E+02  0.45594000000E+02  0.51100000000E-03 0. -1.
    9900012    2    1    2    0    0  0.22165444839E+02  0.89706920873E+01 -0.38175035013E+02  0.46142316969E+02  0.99999927799E+01 0.  0.
        -12    1    1    2    0    0 -0.22165444839E+02 -0.89706920873E+01  0.38175035013E+02  0.45045683031E+02  0.00000000000E+00 0.  1.
         11    1    3    3    0    0  0.63023009081E+01 -0.19029158179E+01 -0.99011830050E+01  0.11890059315E+02  0.51100000000E-03 0. -1.
        -11    1    3    3    0    0  0.37743832178E+01  0.20155770174E+01 -0.51360604826E+01  0.66848812203E+01  0.51100000000E-03 0.  1.
         12    1    3    3    0    0  0.12088760713E+02  0.88580308878E+01 -0.23137791526E+02  0.27567376434E+02  0.00000000000E+00 0. -1.
</event>
<event>
 7    1  0.2031146E-008  0.4614232E+02  0.7816164E-02  0.1320468E+00
        -11   -1    0    0    0    0  0.00000000000E+00  0.00000000000E+00  0.45593999997E+02  0.45594000000E+02  0.51100000000E-03 0.  1.
         11   -1    0    0    0    0 -0.00000000000E+00 -0.00000000000E+00 -0.45593999997E+02  0.45594000000E+02  0.51100000000E-03 0. -1.
    9900012    2    1    2    0    0  0.19919459609E+02  0.11358290058E+02 -0.38772642485E+02  0.46142318415E+02  0.10000005967E+02 0.  0.
        -12    1    1    2    0    0 -0.19919459609E+02 -0.11358290058E+02  0.38772642485E+02  0.45045681585E+02  0.00000000000E+00 0.  1.
         11    1    3    3    0    0  0.15267740297E+02  0.52558905768E+01 -0.21126990872E+02  0.26590938741E+02  0.51100000000E-03 0. -1.
        -11    1    3    3    0    0  0.15382950342E-01  0.22974007996E+01 -0.34996486425E+01  0.41863860251E+01  0.51100000000E-03 0.  1.
         12    1    3    3    0    0  0.46363363615E+01  0.38049986814E+01 -0.14146002970E+02  0.15364993650E+02  0.00000000000E+00 0. -1.
</event>
<event>
 7    1  0.2031146E-008  0.4614232E+02  0.7816164E-02  0.1320468E+00
        -11   -1    0    0    0    0  0.00000000000E+00  0.00000000000E+00  0.45593999997E+02  0.45594000000E+02  0.51100000000E-03 0. -1.
         11   -1    0    0    0    0 -0.00000000000E+00 -0.00000000000E+00 -0.45593999997E+02  0.45594000000E+02  0.51100000000E-03 0.  1.
    9900012    2    1    2    0    0  0.32089702832E+02  0.18010236255E+02 -0.25980682871E+02  0.46142317407E+02  0.99999967705E+01 0.  0.
        -12    1    1    2    0    0 -0.32089702832E+02 -0.18010236255E+02  0.25980682871E+02  0.45045682593E+02  0.00000000000E+00 0.  1.
         11    1    3    3    0    0  0.38785745121E+01  0.29480939316E+01 -0.37010958384E+01  0.61182275817E+01  0.51100000000E-03 0.  1.
        -11    1    3    3    0    0  0.23459693684E+02  0.13557587567E+02 -0.14356766989E+02  0.30664020725E+02  0.51100000000E-03 0. -1.
        -12    1    3    3    0    0  0.47514346359E+01  0.15045547563E+01 -0.79228200435E+01  0.93600690999E+01  0.00000000000E+00 0.  1.
</event>
<event>
 7    1  0.2031146E-008  0.4614232E+02  0.7816164E-02  0.1320468E+00
        -11   -1    0    0    0    0  0.00000000000E+00  0.00000000000E+00  0.45593999997E+02  0.45594000000E+02  0.51100000000E-03 0.  1.
         11   -1    0    0    0    0 -0.00000000000E+00 -0.00000000000E+00 -0.45593999997E+02  0.45594000000E+02  0.51100000000E-03 0. -1.
    9900012    2    1    2    0    0 -0.71555080320E+01 -0.44436841654E+02 -0.18108655046E+01  0.46142318461E+02  0.10000006385E+02 0.  0.
        -12    1    1    2    0    0  0.71555080320E+01  0.44436841654E+02  0.18108655046E+01  0.45045681539E+02  0.00000000000E+00 0.  1.
         11    1    3    3    0    0 -0.50951110117E+01 -0.24270222128E+02  0.81053158470E+00  0.24812512974E+02  0.51100000000E-03 0. -1.
        -11    1    3    3    0    0  0.76296735222E+00 -0.16178269294E+02 -0.11995833939E+01  0.16240613200E+02  0.51100000000E-03 0.  1.
         12    1    3    3    0    0 -0.28233643725E+01 -0.39883502326E+01 -0.14218136954E+01  0.50891922878E+01  0.00000000000E+00 0. -1.
</event>
<event>
 7    1  0.2031146E-008  0.4614232E+02  0.7816164E-02  0.1320468E+00
        -11   -1    0    0    0    0  0.00000000000E+00  0.00000000000E+00  0.45593999997E+02  0.45594000000E+02  0.51100000000E-03 0. -1.
         11   -1    0    0    0    0 -0.00000000000E+00 -0.00000000000E+00 -0.45593999997E+02  0.45594000000E+02  0.51100000000E-03 0.  1.
    9900012    2    1    2    0    0 -0.43019752354E+02  0.67928711805E+01 -0.11500934554E+02  0.46142315555E+02  0.99999798826E+01 0.  0.
        -12    1    1    2    0    0  0.43019752354E+02 -0.67928711805E+01  0.11500934554E+02  0.45045684445E+02  0.00000000000E+00 0.  1.
         11    1    3    3    0    0 -0.20066660305E+02  0.28338188831E+01 -0.40450665466E+01  0.20665525614E+02  0.51100000000E-03 0. -1.
        -11    1    3    3    0    0 -0.21685508888E+02  0.40048561859E+01 -0.48509312262E+01  0.22579453112E+02  0.51100000000E-03 0.  1.
        -12    1    3    3    0    0 -0.12675831606E+01 -0.45803888424E-01 -0.26049367815E+01  0.28973368291E+01  0.00000000000E+00 0.  1.
</event>
<event>
 7    1  0.2031146E-008  0.4614232E+02  0.7816164E-02  0.1320468E+00
        -11   -1    0    0    0    0  0.00000000000E+00  0.00000000000E+00  0.45593999997E+02  0.45594000000E+02  0.51100000000E-03 0.  1.
         11   -1    0    0    0    0 -0.00000000000E+00 -0.00000000000E+00 -0.45593999997E+02  0.45594000000E+02  0.51100000000E-03 0. -1.
    9900012    2    1    2    0    0  0.58439090521E+01  0.11950282650E+02 -0.43036646980E+02  0.46142317502E+02  0.99999976415E+01 0.  0.
        -12    1    1    2    0    0 -0.58439090521E+01 -0.11950282650E+02  0.43036646980E+02  0.45045682498E+02  0.00000000000E+00 0.  1.
         11    1    3    3    0    0 -0.57845636014E+00  0.21714727562E+01 -0.97814677718E+01  0.10036285056E+02  0.51100000000E-03 0. -1.
        -11    1    3    3    0    0 -0.70204901689E-01  0.48720087237E+01 -0.63930864023E+01  0.80382181943E+01  0.51100000000E-03 0.  1.
         12    1    3    3    0    0  0.64925703139E+01  0.49068011699E+01 -0.26862092806E+02  0.28067814252E+02  0.00000000000E+00 0. -1.
</event>
<event>
 7    1  0.2031146E-008  0.4614232E+02  0.7816164E-02  0.1320468E+00
        -11   -1    0    0    0    0  0.00000000000E+00  0.00000000000E+00  0.45593999997E+02  0.45594000000E+02  0.51100000000E-03 0.  1.
         11   -1    0    0    0    0 -0.00000000000E+00 -0.00000000000E+00 -0.45593999997E+02  0.45594000000E+02  0.51100000000E-03 0. -1.
    9900012    2    1    2    0    0 -0.32208915948E+02  0.20127475425E+02 -0.24219498093E+02  0.46142316284E+02  0.99999865347E+01 0.  0.
        -12    1    1    2    0    0  0.32208915948E+02 -0.20127475425E+02  0.24219498093E+02  0.45045683716E+02  0.00000000000E+00 0.  1.
         11    1    3    3    0    0 -0.79679448913E+01  0.88217424764E+01 -0.11025274897E+02  0.16213203660E+02  0.51100000000E-03 0. -1.
        -11    1    3    3    0    0 -0.18281604496E+02  0.96227181257E+01 -0.10523179118E+02  0.23185147532E+02  0.51100000000E-03 0.  1.
        -12    1    3    3    0    0 -0.59593665608E+01  0.16830148230E+01 -0.26710440780E+01  0.67439650924E+01  0.00000000000E+00 0.  1.
</event>
<event>
 7    1  0.2031146E-008  0.4614232E+02  0.7816164E-02  0.1320468E+00
        -11   -1    0    0    0    0  0.00000000000E+00  0.00000000000E+00  0.45593999997E+02  0.45594000000E+02  0.51100000000E-03 0.  1.
         11   -1    0    0    0    0 -0.00000000000E+00 -0.00000000000E+00 -0.45593999997E+02  0.45594000000E+02  0.51100000000E-03 0. -1.
    9900012    2    1    2    0    0  0.32231167321E+02  0.14633222533E+02 -0.27859184368E+02  0.46142317607E+02  0.99999985973E+01 0.  0.
        -12    1    1    2    0    0 -0.32231167321E+02 -0.14633222533E+02  0.27859184368E+02  0.45045682393E+02  0.00000000000E+00 0.  1.
         11    1    3    3    0    0  0.13347777456E+02  0.41171115932E+01 -0.12803022565E+02  0.18948117530E+02  0.51100000000E-03 0. -1.
        -11    1    3    3    0    0 -0.30519429008E+00  0.73342688850E+00  0.17627991875E+00  0.81371581424E+00  0.51100000000E-03 0.  1.
         12    1    3    3    0    0  0.19188584155E+02  0.97826840510E+01 -0.15232441722E+02  0.26380484263E+02  0.00000000000E+00 0. -1.
</event>
<event>
 7    1  0.2031146E-008  0.4614232E+02  0.7816164E-02  0.1320468E+00
        -11   -1    0    0    0    0  0.00000000000E+00  0.00000000000E+00  0.45593999997E+02  0.45594000000E+02  0.51100000000E-03 0.  1.
         11   -1    0    0    0    0 -0.00000000000E+00 -0.00000000000E+00 -0.45593999997E+02  0.45594000000E+02  0.51100000000E-03 0. -1.
    9900012    2    1    2    0    0  0.33842322674E+02  0.79913595807E+01 -0.28634745986E+02  0.46142319745E+02  0.10000018092E+02 0.  0.
        -12    1    1    2    0    0 -0.33842322674E+02 -0.79913595807E+01  0.28634745986E+02  0.45045680255E+02  0.00000000000E+00 0.  1.
         11    1    3    3    0    0  0.23145112289E+01  0.13377661986E+01 -0.48215996563E+01  0.55131120193E+01  0.51100000000E-03 0.  1.
        -11    1    3    3    0    0  0.13131521171E+02  0.34538002974E+00 -0.12485005978E+02  0.18122679442E+02  0.51100000000E-03 0. -1.
        -12    1    3    3    0    0  0.18396290274E+02  0.63082133523E+01 -0.11328140351E+02  0.22506528284E+02  0.00000000000E+00 0.  1.
</event>
<event>
 7    1  0.2031146E-008  0.4614232E+02  0.7816164E-02  0.1320468E+00
        -11   -1    0    0    0    0  0.00000000000E+00  0.00000000000E+00  0.45593999997E+02  0.45594000000E+02  0.51100000000E-03 0. -1.
         11   -1    0    0    0    0 -0.00000000000E+00 -0.00000000000E+00 -0.45593999997E+02  0.45594000000E+02  0.51100000000E-03 0.  1.
    9900012    2    1    2    0    0  0.21461109549E+02  0.39443833943E+02  0.35662655349E+01  0.46142317532E+02  0.99999979078E+01 0.  0.
        -12    1    1    2    0    0 -0.21461109549E+02 -0.39443833943E+02 -0.35662655349E+01  0.45045682468E+02  0.00000000000E+00 0.  1.
         11    1    3    3    0    0  0.20786250946E+01  0.49925858043E+01  0.10045004081E+01  0.55005105789E+01  0.51100000000E-03 0. -1.
        -11    1    3    3    0    0  0.13995132742E+02  0.29597469332E+02  0.47154976643E+01  0.33077331359E+02  0.51100000000E-03 0.  1.
        -12    1    3    3    0    0  0.53873517119E+01  0.48537788066E+01 -0.21537325375E+01  0.75644755941E+01  0.00000000000E+00 0.  1.
</event>
<event>
 7    1  0.2031146E-008  0.4614232E+02  0.7816164E-02  0.1320468E+00
        -11   -1    0    0    0    0  0.00000000000E+00  0.00000000000E+00  0.45593999997E+02  0.45594000000E+02  0.51100000000E-03 0. -1.
         11   -1    0    0    0    0 -0.00000000000E+00 -0.00000000000E+00 -0.45593999997E+02  0.45594000000E+02  0.51100000000E-03 0.  1.
    9900012    2    1    2    0    0  0.13256229731E+02  0.12735879461E+02  0.41123997030E+02  0.46142318919E+02  0.10000010559E+02 0.  0.
        -12    1    1    2    0    0 -0.13256229731E+02 -0.12735879461E+02 -0.41123997030E+02  0.45045681081E+02  0.00000000000E+00 0.  1.
         11    1    3    3    0    0  0.19710984404E+01 -0.66477920676E+00  0.33984515223E+01  0.39845493429E+01  0.51100000000E-03 0. -1.
        -11    1    3    3    0    0 -0.70890805636E+00  0.16501819198E+00  0.54479903424E+00  0.90916878790E+00  0.51100000000E-03 0.  1.
         12    1    3    3    0    0  0.11994039347E+02  0.13235640476E+02  0.37180746473E+02  0.41248600788E+02  0.00000000000E+00 0. -1.
</event>
<event>
 7    1  0.2031146E-008  0.4614232E+02  0.7816164E-02  0.1320468E+00
        -11   -1    0    0    0    0  0.00000000000E+00  0.00000000000E+00  0.45593999997E+02  0.45594000000E+02  0.51100000000E-03 0.  1.
         11   -1    0    0    0    0 -0.00000000000E+00 -0.00000000000E+00 -0.45593999997E+02  0.45594000000E+02  0.51100000000E-03 0. -1.
    9900012    2    1    2    0    0  0.34248453769E+02 -0.29252180029E+02  0.68327444720E+00  0.46142317788E+02  0.10000000243E+02 0.  0.
        -12    1    1    2    0    0 -0.34248453769E+02  0.29252180029E+02 -0.68327444720E+00  0.45045682212E+02  0.00000000000E+00 0.  1.
         11    1    3    3    0    0  0.17413130949E+02 -0.18356970887E+02 -0.16279702090E+01  0.25354403895E+02  0.51100000000E-03 0. -1.
        -11    1    3    3    0    0  0.18188369680E+00  0.27711847120E+00 -0.43496740889E+00  0.54687588552E+00  0.51100000000E-03 0.  1.
        -12    1    3    3    0    0  0.16653439123E+02 -0.11172327613E+02  0.27462120651E+01  0.20241038007E+02  0.00000000000E+00 0.  1.
</event>
<event>
 7    1  0.2031146E-008  0.4614232E+02  0.7816164E-02  0.1320468E+00
        -11   -1    0    0    0    0  0.00000000000E+00  0.00000000000E+00  0.45593999997E+02  0.45594000000E+02  0.51100000000E-03 0.  1.
         11   -1    0    0    0    0 -0.00000000000E+00 -0.00000000000E+00 -0.45593999997E+02  0.45594000000E+02  0.51100000000E-03 0. -1.
    9900012    2    1    2    0    0  0.37398822441E+02 -0.24864382351E+02 -0.34934348455E+01  0.46142317447E+02  0.99999971342E+01 0.  0.
        -12    1    1    2    0    0 -0.37398822441E+02  0.24864382351E+02  0.34934348455E+01  0.45045682553E+02  0.00000000000E+00 0.  1.
         11    1    3    3    0    0  0.68634943319E+01 -0.80444874966E+01 -0.90335455241E+00  0.10613076050E+02  0.51100000000E-03 0. -1.
        -11    1    3    3    0    0  0.10102903732E+02 -0.26021003060E+01  0.50710901459E+00  0.10444938948E+02  0.51100000000E-03 0.  1.
         12    1    3    3    0    0  0.20432424377E+02 -0.14217794549E+02 -0.30971893076E+01  0.25084302449E+02  0.00000000000E+00 0. -1.
</event>
<event>
 7    1  0.2031146E-008  0.4614232E+02  0.7816164E-02  0.1320468E+00
        -11   -1    0    0    0    0  0.00000000000E+00  0.00000000000E+00  0.45593999997E+02  0.45594000000E+02  0.51100000000E-03 0. -1.
         11   -1    0    0    0    0 -0.00000000000E+00 -0.00000000000E+00 -0.45593999997E+02  0.45594000000E+02  0.51100000000E-03 0.  1.
    9900012    2    1    2    0    0 -0.35045878249E+02  0.19092623842E+02  0.20889510592E+02  0.46142317408E+02  0.99999967774E+01 0.  0.
        -12    1    1    2    0    0  0.35045878249E+02 -0.19092623842E+02 -0.20889510592E+02  0.45045682592E+02  0.00000000000E+00 0.  1.
         11    1    3    3    0    0 -0.30068541371E+01  0.27054908047E+01  0.36713875857E+01  0.54625945632E+01  0.51100000000E-03 0. -1.
        -11    1    3    3    0    0 -0.16800020962E+02  0.87883514053E+01  0.13431443268E+02  0.23235307041E+02  0.51100000000E-03 0.  1.
         12    1    3    3    0    0 -0.15239003150E+02  0.75987816318E+01  0.37866797381E+01  0.17444415804E+02  0.00000000000E+00 0. -1.
</event>
<event>
 7    1  0.2031146E-008  0.4614231E+02  0.7816164E-02  0.1320468E+00
        -11   -1    0    0    0    0  0.00000000000E+00  0.00000000000E+00  0.45593999997E+02  0.45594000000E+02  0.51100000000E-03 0.  1.
         11   -1    0    0    0    0 -0.00000000000E+00 -0.00000000000E+00 -0.45593999997E+02  0.45594000000E+02  0.51100000000E-03 0. -1.
    9900012    2    1    2    0    0  0.55711410074E+01 -0.23472488982E+01 -0.44638175224E+02  0.46142313450E+02  0.99999606834E+01 0.  0.
        -12    1    1    2    0    0 -0.55711410074E+01  0.23472488982E+01  0.44638175224E+02  0.45045686550E+02  0.00000000000E+00 0.  1.
         11    1    3    3    0    0  0.41593787227E+01 -0.20772466339E+01 -0.12042512403E+02  0.12908814437E+02  0.51100000000E-03 0. -1.
        -11    1    3    3    0    0  0.16638499429E+01 -0.18762716154E+01 -0.30390127008E+02  0.30493419153E+02  0.51100000000E-03 0.  1.
        -12    1    3    3    0    0 -0.25208765816E+00  0.16062693511E+01 -0.22055358125E+01  0.27400798594E+01  0.00000000000E+00 0.  1.
</event>
<event>
 7    1  0.2031146E-008  0.4614232E+02  0.7816164E-02  0.1320468E+00
        -11   -1    0    0    0    0  0.00000000000E+00  0.00000000000E+00  0.45593999997E+02  0.45594000000E+02  0.51100000000E-03 0. -1.
         11   -1    0    0    0    0 -0.00000000000E+00 -0.00000000000E+00 -0.45593999997E+02  0.45594000000E+02  0.51100000000E-03 0.  1.
    9900012    2    1    2    0    0  0.23738682543E+02  0.15431432050E+01  0.38251891795E+02  0.46142316903E+02  0.99999921718E+01 0.  0.
        -12    1    1    2    0    0 -0.23738682543E+02 -0.15431432050E+01 -0.38251891795E+02  0.45045683097E+02  0.00000000000E+00 0.  1.
         11    1    3    3    0    0  0.62529968265E+01  0.13385929370E+01  0.63235397028E+01  0.89932727634E+01  0.51100000000E-03 0. -1.
        -11    1    3    3    0    0  0.91053103594E+01  0.82098690010E+00  0.94367449492E+01  0.13138982142E+02  0.51100000000E-03 0.  1.
        -12    1    3    3    0    0  0.83803753573E+01 -0.61643663210E+00  0.22491607143E+02  0.24010061997E+02  0.00000000000E+00 0.  1.
</event>
<event>
 7    1  0.2031146E-008  0.4614232E+02  0.7816164E-02  0.1320468E+00
        -11   -1    0    0    0    0  0.00000000000E+00  0.00000000000E+00  0.45593999997E+02  0.45594000000E+02  0.51100000000E-03 0.  1.
         11   -1    0    0    0    0 -0.00000000000E+00 -0.00000000000E+00 -0.45593999997E+02  0.45594000000E+02  0.51100000000E-03 0. -1.
    9900012    2    1    2    0    0  0.12687797457E+02 -0.34355794390E+02 -0.26226176602E+02  0.46142321499E+02  0.10000034084E+02 0.  0.
        -12    1    1    2    0    0 -0.12687797457E+02  0.34355794390E+02  0.26226176602E+02  0.45045678501E+02  0.00000000000E+00 0.  1.
         11    1    3    3    0    0  0.58475965666E+01 -0.69692452204E+01 -0.62956405442E+01  0.11063446781E+02  0.51100000000E-03 0. -1.
        -11    1    3    3    0    0 -0.30790207174E+00 -0.49834839209E+01 -0.57628628118E+01  0.76249920475E+01  0.51100000000E-03 0.  1.
        -12    1    3    3    0    0  0.71481029619E+01 -0.22403065249E+02 -0.14167673246E+02  0.27453882671E+02  0.00000000000E+00 0.  1.
</event>
<event>
 7    1  0.2031146E-008  0.4614232E+02  0.7816164E-02  0.1320468E+00
        -11   -1    0    0    0    0  0.00000000000E+00  0.00000000000E+00  0.45593999997E+02  0.45594000000E+02  0.51100000000E-03 0. -1.
         11   -1    0    0    0    0 -0.00000000000E+00 -0.00000000000E+00 -0.45593999997E+02  0.45594000000E+02  0.51100000000E-03 0.  1.
    9900012    2    1    2    0    0 -0.27176392068E+02  0.35778238613E+02  0.32365246675E+01  0.46142315012E+02  0.99999749357E+01 0.  0.
        -12    1    1    2    0    0  0.27176392068E+02 -0.35778238613E+02 -0.32365246675E+01  0.45045684988E+02  0.00000000000E+00 0.  1.
         11    1    3    3    0    0 -0.74993837530E+01  0.11888641835E+02  0.38750499729E+01  0.14580691818E+02  0.51100000000E-03 0. -1.
        -11    1    3    3    0    0  0.24788345703E+00  0.17513486493E+01 -0.11919404445E+00  0.17728157775E+01  0.51100000000E-03 0.  1.
        -12    1    3    3    0    0 -0.19924891772E+02  0.22138248129E+02 -0.51933126091E+00  0.29788807417E+02  0.00000000000E+00 0.  1.
</event>
<event>
 7    1  0.2031146E-008  0.4614231E+02  0.7816164E-02  0.1320468E+00
        -11   -1    0    0    0    0  0.00000000000E+00  0.00000000000E+00  0.45593999997E+02  0.45594000000E+02  0.51100000000E-03 0.  1.
         11   -1    0    0    0    0 -0.00000000000E+00 -0.00000000000E+00 -0.45593999997E+02  0.45594000000E+02  0.51100000000E-03 0. -1.
    9900012    2    1    2    0    0 -0.28759163642E+02  0.33698920211E+02  0.81490518924E+01  0.46142314707E+02  0.99999721489E+01 0.  0.
        -12    1    1    2    0    0  0.28759163642E+02 -0.33698920211E+02 -0.81490518924E+01  0.45045685293E+02  0.00000000000E+00 0.  1.
         11    1    3    3    0    0 -0.50755932974E+01  0.71674024880E+01  0.67550671427E+00  0.88084967689E+01  0.51100000000E-03 0. -1.
        -11    1    3    3    0    0 -0.16195772904E+02  0.20058477102E+02  0.90257318588E+01  0.27315003193E+02  0.51100000000E-03 0.  1.
        -12    1    3    3    0    0 -0.74877974407E+01  0.64730406218E+01 -0.15521866807E+01  0.10018814745E+02  0.00000000000E+00 0.  1.
</event>
<event>
 7    1  0.2031146E-008  0.4614232E+02  0.7816164E-02  0.1320468E+00
        -11   -1    0    0    0    0  0.00000000000E+00  0.00000000000E+00  0.45593999997E+02  0.45594000000E+02  0.51100000000E-03 0.  1.
         11   -1    0    0    0    0 -0.00000000000E+00 -0.00000000000E+00 -0.45593999997E+02  0.45594000000E+02  0.51100000000E-03 0. -1.
    9900012    2    1    2    0    0 -0.21689978330E+01 -0.53019722082E+01 -0.44679952040E+02  0.46142316797E+02  0.99999912082E+01 0.  0.
        -12    1    1    2    0    0  0.21689978330E+01  0.53019722082E+01  0.44679952040E+02  0.45045683203E+02  0.00000000000E+00 0.  1.
         11    1    3    3    0    0  0.76572197451E-02 -0.74499039750E+01 -0.27183488688E+02  0.28185868541E+02  0.51100000000E-03 0. -1.
        -11    1    3    3    0    0  0.90620619453E-01 -0.14875959282E+00 -0.63447305892E+01  0.63471212391E+01  0.51100000000E-03 0.  1.
        -12    1    3    3    0    0 -0.22672756722E+01  0.22966913596E+01 -0.11151732763E+02  0.11609327017E+02  0.00000000000E+00 0.  1.
</event>
<event>
 7    1  0.2031146E-008  0.4614232E+02  0.7816164E-02  0.1320468E+00
        -11   -1    0    0    0    0  0.00000000000E+00  0.00000000000E+00  0.45593999997E+02  0.45594000000E+02  0.51100000000E-03 0.  1.
         11   -1    0    0    0    0 -0.00000000000E+00 -0.00000000000E+00 -0.45593999997E+02  0.45594000000E+02  0.51100000000E-03 0. -1.
    9900012    2    1    2    0    0 -0.27321572257E+02 -0.18864189617E+02 -0.30443186342E+02  0.46142317020E+02  0.99999932400E+01 0.  0.
        -12    1    1    2    0    0  0.27321572257E+02  0.18864189617E+02  0.30443186342E+02  0.45045682980E+02  0.00000000000E+00 0.  1.
         11    1    3    3    0    0 -0.83424552992E+01 -0.71647005598E+01 -0.12874695612E+02  0.16931842247E+02  0.51100000000E-03 0. -1.
        -11    1    3    3    0    0 -0.21074232239E+01 -0.45434677098E+01 -0.36274543806E+01  0.61840728504E+01  0.51100000000E-03 0.  1.
        -12    1    3    3    0    0 -0.16871693734E+02 -0.71560213475E+01 -0.13941036350E+02  0.23026401922E+02  0.00000000000E+00 0.  1.
</event>
<event>
 7    1  0.2031146E-008  0.4614233E+02  0.7816164E-02  0.1320468E+00
        -11   -1    0    0    0    0  0.00000000000E+00  0.00000000000E+00  0.45593999997E+02  0.45594000000E+02  0.51100000000E-03 0. -1.
         11   -1    0    0    0    0 -0.00000000000E+00 -0.00000000000E+00 -0.45593999997E+02  0.45594000000E+02  0.51100000000E-03 0.  1.
    9900012    2    1    2    0    0  0.16680096366E+02 -0.38519567411E+02  0.16344100181E+02  0.46142330963E+02  0.10000120380E+02 0.  0.
        -12    1    1    2    0    0 -0.16680096366E+02  0.38519567411E+02 -0.16344100181E+02  0.45045669037E+02  0.00000000000E+00 0.  1.
         11    1    3    3    0    0  0.11358946961E+02 -0.32336538656E+02  0.12204017565E+02  0.36381526264E+02  0.51100000000E-03 0.  1.
        -11    1    3    3    0    0  0.33227238002E+01 -0.45998941970E+01  0.10774193217E+01  0.57758421665E+01  0.51100000000E-03 0. -1.
        -12    1    3    3    0    0  0.19984256043E+01 -0.15831345579E+01  0.30626632945E+01  0.39849625318E+01  0.00000000000E+00 0.  1.
</event>
<event>
 7    1  0.2031146E-008  0.4614232E+02  0.7816164E-02  0.1320468E+00
        -11   -1    0    0    0    0  0.00000000000E+00  0.00000000000E+00  0.45593999997E+02  0.45594000000E+02  0.51100000000E-03 0. -1.
         11   -1    0    0    0    0 -0.00000000000E+00 -0.00000000000E+00 -0.45593999997E+02  0.45594000000E+02  0.51100000000E-03 0.  1.
    9900012    2    1    2    0    0 -0.18329274961E+02 -0.35974328149E+01  0.40990360510E+02  0.46142317652E+02  0.99999990019E+01 0.  0.
        -12    1    1    2    0    0  0.18329274961E+02  0.35974328149E+01 -0.40990360510E+02  0.45045682348E+02  0.00000000000E+00 0.  1.
         11    1    3    3    0    0 -0.26654056807E+01 -0.68063972182E+00  0.15629303829E+01  0.31639231212E+01  0.51100000000E-03 0.  1.
        -11    1    3    3    0    0 -0.15119628133E+02 -0.41397420978E+01  0.34938130600E+02  0.38293780038E+02  0.51100000000E-03 0. -1.
         12    1    3    3    0    0 -0.54424114706E+00  0.12229490047E+01  0.44892995277E+01  0.46846144925E+01  0.00000000000E+00 0. -1.
</event>
<event>
 7    1  0.2031146E-008  0.4614232E+02  0.7816164E-02  0.1320468E+00
        -11   -1    0    0    0    0  0.00000000000E+00  0.00000000000E+00  0.45593999997E+02  0.45594000000E+02  0.51100000000E-03 0. -1.
         11   -1    0    0    0    0 -0.00000000000E+00 -0.00000000000E+00 -0.45593999997E+02  0.45594000000E+02  0.51100000000E-03 0.  1.
    9900012    2    1    2    0    0  0.27188352562E+02  0.34138031083E+02  0.11158018992E+02  0.46142322415E+02  0.10000042436E+02 0.  0.
        -12    1    1    2    0    0 -0.27188352562E+02 -0.34138031083E+02 -0.11158018992E+02  0.45045677585E+02  0.00000000000E+00 0.  1.
         11    1    3    3    0    0  0.15756836514E+02  0.20434802826E+02  0.83009563558E+01  0.27106547920E+02  0.51100000000E-03 0. -1.
        -11    1    3    3    0    0 -0.15286226957E+00  0.27089220891E+01  0.12399056359E+01  0.29831178329E+01  0.51100000000E-03 0.  1.
         12    1    3    3    0    0  0.11584378318E+02  0.10994306168E+02  0.16171570001E+01  0.16052656662E+02  0.00000000000E+00 0. -1.
</event>
<event>
 7    1  0.2031146E-008  0.4614232E+02  0.7816164E-02  0.1320468E+00
        -11   -1    0    0    0    0  0.00000000000E+00  0.00000000000E+00  0.45593999997E+02  0.45594000000E+02  0.51100000000E-03 0.  1.
         11   -1    0    0    0    0 -0.00000000000E+00 -0.00000000000E+00 -0.45593999997E+02  0.45594000000E+02  0.51100000000E-03 0. -1.
    9900012    2    1    2    0    0  0.15976512380E+02 -0.12531185309E+02 -0.40209873876E+02  0.46142317519E+02  0.99999977879E+01 0.  0.
        -12    1    1    2    0    0 -0.15976512380E+02  0.12531185309E+02  0.40209873876E+02  0.45045682481E+02  0.00000000000E+00 0.  1.
         11    1    3    3    0    0  0.12259217827E+02 -0.52030714144E+01 -0.22941156847E+02  0.26526534859E+02  0.51100000000E-03 0. -1.
        -11    1    3    3    0    0  0.25245853607E+01 -0.21721884859E+01 -0.33449634107E+01  0.47202451781E+01  0.51100000000E-03 0.  1.
        -12    1    3    3    0    0  0.11927091924E+01 -0.51559254090E+01 -0.13923753618E+02  0.14895537482E+02  0.00000000000E+00 0.  1.
</event>
<event>
 7    1  0.2031146E-008  0.4614232E+02  0.7816164E-02  0.1320468E+00
        -11   -1    0    0    0    0  0.00000000000E+00  0.00000000000E+00  0.45593999997E+02  0.45594000000E+02  0.51100000000E-03 0.  1.
         11   -1    0    0    0    0 -0.00000000000E+00 -0.00000000000E+00 -0.45593999997E+02  0.45594000000E+02  0.51100000000E-03 0. -1.
    9900012    2    1    2    0    0  0.32706349512E+02  0.13513829989E+02 -0.27870856303E+02  0.46142317294E+02  0.99999957437E+01 0.  0.
        -12    1    1    2    0    0 -0.32706349512E+02 -0.13513829989E+02  0.27870856303E+02  0.45045682706E+02  0.00000000000E+00 0.  1.
         11    1    3    3    0    0  0.86215660595E+01  0.15554910386E+01 -0.10669661094E+02  0.13805528668E+02  0.51100000000E-03 0. -1.
        -11    1    3    3    0    0  0.73476438170E+01  0.20752775544E+01 -0.27468354392E+01  0.81141698146E+01  0.51100000000E-03 0.  1.
        -12    1    3    3    0    0  0.16737139635E+02  0.98830613963E+01 -0.14454359770E+02  0.24222618811E+02  0.00000000000E+00 0.  1.
</event>
<event>
 7    1  0.2031146E-008  0.4614232E+02  0.7816164E-02  0.1320468E+00
        -11   -1    0    0    0    0  0.00000000000E+00  0.00000000000E+00  0.45593999997E+02  0.45594000000E+02  0.51100000000E-03 0.  1.
         11   -1    0    0    0    0 -0.00000000000E+00 -0.00000000000E+00 -0.45593999997E+02  0.45594000000E+02  0.51100000000E-03 0. -1.
    9900012    2    1    2    0    0 -0.44995414259E+02  0.16755281995E+01 -0.13110697726E+01  0.46142316489E+02  0.99999883975E+01 0.  0.
        -12    1    1    2    0    0  0.44995414259E+02 -0.16755281995E+01  0.13110697726E+01  0.45045683511E+02  0.00000000000E+00 0.  1.
         11    1    3    3    0    0 -0.56057403559E+01  0.32406396894E+00  0.16006595368E+01  0.58387887106E+01  0.51100000000E-03 0. -1.
        -11    1    3    3    0    0 -0.66305977201E+01 -0.20632200222E+00 -0.35034352428E+01  0.75020966173E+01  0.51100000000E-03 0.  1.
         12    1    3    3    0    0 -0.32759076183E+02  0.15577862328E+01  0.59170593339E+00  0.32801431161E+02  0.00000000000E+00 0. -1.
</event>
<event>
 7    1  0.2031146E-008  0.4614232E+02  0.7816164E-02  0.1320468E+00
        -11   -1    0    0    0    0  0.00000000000E+00  0.00000000000E+00  0.45593999997E+02  0.45594000000E+02  0.51100000000E-03 0.  1.
         11   -1    0    0    0    0 -0.00000000000E+00 -0.00000000000E+00 -0.45593999997E+02  0.45594000000E+02  0.51100000000E-03 0. -1.
    9900012    2    1    2    0    0 -0.88188736381E+01  0.36510855955E+02 -0.24865605081E+02  0.46142318177E+02  0.10000003794E+02 0.  0.
        -12    1    1    2    0    0  0.88188736381E+01 -0.36510855955E+02  0.24865605081E+02  0.45045681823E+02  0.00000000000E+00 0.  1.
         11    1    3    3    0    0 -0.63994582952E+01  0.23051965862E+02 -0.17965081668E+02  0.29918060702E+02  0.51100000000E-03 0. -1.
        -11    1    3    3    0    0  0.73597380094E+00  0.36902878573E+00 -0.15112710256E+01  0.17209822934E+01  0.51100000000E-03 0.  1.
         12    1    3    3    0    0 -0.31553891439E+01  0.13089861307E+02 -0.53892523882E+01  0.14503275182E+02  0.00000000000E+00 0. -1.
</event>
<event>
 7    1  0.2031146E-008  0.4614232E+02  0.7816164E-02  0.1320468E+00
        -11   -1    0    0    0    0  0.00000000000E+00  0.00000000000E+00  0.45593999997E+02  0.45594000000E+02  0.51100000000E-03 0.  1.
         11   -1    0    0    0    0 -0.00000000000E+00 -0.00000000000E+00 -0.45593999997E+02  0.45594000000E+02  0.51100000000E-03 0. -1.
    9900012    2    1    2    0    0 -0.10131923974E+02 -0.26624056017E+02 -0.34894371975E+02  0.46142318323E+02  0.10000005124E+02 0.  0.
        -12    1    1    2    0    0  0.10131923974E+02  0.26624056017E+02  0.34894371975E+02  0.45045681677E+02  0.00000000000E+00 0.  1.
         11    1    3    3    0    0 -0.29493859240E+00 -0.50535407794E+01 -0.18228769184E+01  0.53803479166E+01  0.51100000000E-03 0.  1.
        -11    1    3    3    0    0 -0.52152396115E+01 -0.12924888912E+02 -0.17670380776E+02  0.22505417894E+02  0.51100000000E-03 0. -1.
        -12    1    3    3    0    0 -0.46217457705E+01 -0.86456263255E+01 -0.15401114281E+02  0.18256552512E+02  0.00000000000E+00 0.  1.
</event>
<event>
 7    1  0.2031146E-008  0.4614232E+02  0.7816164E-02  0.1320468E+00
        -11   -1    0    0    0    0  0.00000000000E+00  0.00000000000E+00  0.45593999997E+02  0.45594000000E+02  0.51100000000E-03 0. -1.
         11   -1    0    0    0    0 -0.00000000000E+00 -0.00000000000E+00 -0.45593999997E+02  0.45594000000E+02  0.51100000000E-03 0.  1.
    9900012    2    1    2    0    0  0.43415415854E+02 -0.29287326666E+01 -0.11646356207E+02  0.46142318502E+02  0.10000006752E+02 0.  0.
        -12    1    1    2    0    0 -0.43415415854E+02  0.29287326666E+01  0.11646356207E+02  0.45045681498E+02  0.00000000000E+00 0.  1.
         11    1    3    3    0    0  0.31592169608E+02 -0.47403994130E+01 -0.78670222379E+01  0.32900252374E+02  0.51100000000E-03 0. -1.
        -11    1    3    3    0    0  0.10592244355E+02  0.11752134009E+00 -0.32817699450E+01  0.11089610722E+02  0.51100000000E-03 0.  1.
        -12    1    3    3    0    0  0.12310018904E+01  0.16941454063E+01 -0.49756402372E+00  0.21524554048E+01  0.00000000000E+00 0.  1.
</event>
<event>
 7    1  0.2031146E-008  0.4614232E+02  0.7816164E-02  0.1320468E+00
        -11   -1    0    0    0    0  0.00000000000E+00  0.00000000000E+00  0.45593999997E+02  0.45594000000E+02  0.51100000000E-03 0. -1.
         11   -1    0    0    0    0 -0.00000000000E+00 -0.00000000000E+00 -0.45593999997E+02  0.45594000000E+02  0.51100000000E-03 0.  1.
    9900012    2    1    2    0    0  0.26610555980E+02 -0.35439889183E+02 -0.80626274139E+01  0.46142318790E+02  0.10000009384E+02 0.  0.
        -12    1    1    2    0    0 -0.26610555980E+02  0.35439889183E+02  0.80626274139E+01  0.45045681210E+02  0.00000000000E+00 0.  1.
         11    1    3    3    0    0  0.13417959621E+02 -0.13770354510E+02 -0.23202618140E+01  0.19366153951E+02  0.51100000000E-03 0. -1.
        -11    1    3    3    0    0  0.85207839441E+01 -0.88806795311E+01 -0.95791609117E+00  0.12344546628E+02  0.51100000000E-03 0.  1.
        -12    1    3    3    0    0  0.46718124148E+01 -0.12788855142E+02 -0.47844495087E+01  0.14431618211E+02  0.00000000000E+00 0.  1.
</event>
<event>
 7    1  0.2031146E-008  0.4614232E+02  0.7816164E-02  0.1320468E+00
        -11   -1    0    0    0    0  0.00000000000E+00  0.00000000000E+00  0.45593999997E+02  0.45594000000E+02  0.51100000000E-03 0.  1.
         11   -1    0    0    0    0 -0.00000000000E+00 -0.00000000000E+00 -0.45593999997E+02  0.45594000000E+02  0.51100000000E-03 0. -1.
    9900012    2    1    2    0    0  0.11153411884E+02  0.24657066124E+02 -0.36010328143E+02  0.46142320524E+02  0.10000025191E+02 0.  0.
        -12    1    1    2    0    0 -0.11153411884E+02 -0.24657066124E+02  0.36010328143E+02  0.45045679476E+02  0.00000000000E+00 0.  1.
         11    1    3    3    0    0  0.82694854886E-01  0.24976975617E+01 -0.71653510769E+00  0.25997604448E+01  0.51100000000E-03 0. -1.
        -11    1    3    3    0    0 -0.59561242940E+00  0.30831370706E+01 -0.43099406976E+01  0.53325488690E+01  0.51100000000E-03 0.  1.
         12    1    3    3    0    0  0.11666329458E+02  0.19076231491E+02 -0.30983852338E+02  0.38210011210E+02  0.00000000000E+00 0. -1.
</event>
<event>
 7    1  0.2031146E-008  0.4614232E+02  0.7816164E-02  0.1320468E+00
        -11   -1    0    0    0    0  0.00000000000E+00  0.00000000000E+00  0.45593999997E+02  0.45594000000E+02  0.51100000000E-03 0. -1.
         11   -1    0    0    0    0 -0.00000000000E+00 -0.00000000000E+00 -0.45593999997E+02  0.45594000000E+02  0.51100000000E-03 0.  1.
    9900012    2    1    2    0    0  0.27657516666E+02 -0.11932679025E+02  0.33493078986E+02  0.46142318777E+02  0.10000009265E+02 0.  0.
        -12    1    1    2    0    0 -0.27657516666E+02  0.11932679025E+02 -0.33493078986E+02  0.45045681223E+02  0.00000000000E+00 0.  1.
         11    1    3    3    0    0  0.53726885185E+01 -0.53302954109E+01  0.65526428049E+01  0.10010742184E+02  0.51100000000E-03 0. -1.
        -11    1    3    3    0    0  0.11958311307E+02 -0.41025607847E+00  0.14814056256E+02  0.19042735686E+02  0.51100000000E-03 0.  1.
         12    1    3    3    0    0  0.10326516840E+02 -0.61921275356E+01  0.12126379925E+02  0.17088840907E+02  0.00000000000E+00 0. -1.
</event>
<event>
 7    1  0.2031146E-008  0.4614232E+02  0.7816164E-02  0.1320468E+00
        -11   -1    0    0    0    0  0.00000000000E+00  0.00000000000E+00  0.45593999997E+02  0.45594000000E+02  0.51100000000E-03 0. -1.
         11   -1    0    0    0    0 -0.00000000000E+00 -0.00000000000E+00 -0.45593999997E+02  0.45594000000E+02  0.51100000000E-03 0.  1.
    9900012    2    1    2    0    0  0.34967649182E+02 -0.25896167414E+02 -0.11651842585E+02  0.46142318612E+02  0.10000007760E+02 0.  0.
        -12    1    1    2    0    0 -0.34967649182E+02  0.25896167414E+02  0.11651842585E+02  0.45045681388E+02  0.00000000000E+00 0.  1.
         11    1    3    3    0    0  0.10259375309E+02 -0.36551990334E+01 -0.52742143628E+01  0.12100933812E+02  0.51100000000E-03 0.  1.
        -11    1    3    3    0    0  0.17077169961E+02 -0.13301129374E+02 -0.33490278403E+01  0.21903555972E+02  0.51100000000E-03 0. -1.
        -12    1    3    3    0    0  0.76311039123E+01 -0.89398390068E+01 -0.30286003823E+01  0.12137828828E+02  0.00000000000E+00 0.  1.
</event>
<event>
 7    1  0.2031146E-008  0.4614232E+02  0.7816164E-02  0.1320468E+00
        -11   -1    0    0    0    0  0.00000000000E+00  0.00000000000E+00  0.45593999997E+02  0.45594000000E+02  0.51100000000E-03 0. -1.
         11   -1    0    0    0    0 -0.00000000000E+00 -0.00000000000E+00 -0.45593999997E+02  0.45594000000E+02  0.51100000000E-03 0.  1.
    9900012    2    1    2    0    0  0.18655036433E+02 -0.17915737743E+02  0.36879932650E+02  0.46142317904E+02  0.10000001306E+02 0.  0.
        -12    1    1    2    0    0 -0.18655036433E+02  0.17915737743E+02 -0.36879932650E+02  0.45045682096E+02  0.00000000000E+00 0.  1.
         11    1    3    3    0    0  0.41452953607E+01 -0.44043519931E+01  0.83718823033E+01  0.10328126823E+02  0.51100000000E-03 0. -1.
        -11    1    3    3    0    0  0.27219403264E+01 -0.83893911021E+01  0.12011745558E+02  0.14902109710E+02  0.51100000000E-03 0.  1.
        -12    1    3    3    0    0  0.11787800746E+02 -0.51219946479E+01  0.16496304788E+02  0.20912081371E+02  0.00000000000E+00 0.  1.
</event>
<event>
 7    1  0.2031146E-008  0.4614232E+02  0.7816164E-02  0.1320468E+00
        -11   -1    0    0    0    0  0.00000000000E+00  0.00000000000E+00  0.45593999997E+02  0.45594000000E+02  0.51100000000E-03 0. -1.
         11   -1    0    0    0    0 -0.00000000000E+00 -0.00000000000E+00 -0.45593999997E+02  0.45594000000E+02  0.51100000000E-03 0.  1.
    9900012    2    1    2    0    0 -0.66880120948E+01  0.38494148613E+02  0.22418396480E+02  0.46142317810E+02  0.10000000445E+02 0.  0.
        -12    1    1    2    0    0  0.66880120948E+01 -0.38494148613E+02 -0.22418396480E+02  0.45045682190E+02  0.00000000000E+00 0.  1.
         11    1    3    3    0    0 -0.36090714028E+01  0.71122035077E+01  0.17972677115E+01  0.81755126208E+01  0.51100000000E-03 0. -1.
        -11    1    3    3    0    0 -0.31369631495E+00  0.93061600551E+01  0.37203235520E+01  0.10027154529E+02  0.51100000000E-03 0.  1.
         12    1    3    3    0    0 -0.27652443770E+01  0.22075785051E+02  0.16900805216E+02  0.27939650660E+02  0.00000000000E+00 0. -1.
</event>
<event>
 7    1  0.2031146E-008  0.4614232E+02  0.7816164E-02  0.1320468E+00
        -11   -1    0    0    0    0  0.00000000000E+00  0.00000000000E+00  0.45593999997E+02  0.45594000000E+02  0.51100000000E-03 0.  1.
         11   -1    0    0    0    0 -0.00000000000E+00 -0.00000000000E+00 -0.45593999997E+02  0.45594000000E+02  0.51100000000E-03 0. -1.
    9900012    2    1    2    0    0 -0.42973076763E+02 -0.13414344883E+02 -0.15758180553E+01  0.46142321210E+02  0.10000031445E+02 0.  0.
        -12    1    1    2    0    0  0.42973076763E+02  0.13414344883E+02  0.15758180553E+01  0.45045678790E+02  0.00000000000E+00 0.  1.
         11    1    3    3    0    0 -0.90996789171E+00 -0.22350143475E+01 -0.28372359682E+00  0.24297798332E+01  0.51100000000E-03 0. -1.
        -11    1    3    3    0    0 -0.14342293330E+02 -0.56171646292E+01  0.12778193170E+00  0.15403578965E+02  0.51100000000E-03 0.  1.
        -12    1    3    3    0    0 -0.27720815542E+02 -0.55621659066E+01 -0.14198763902E+01  0.28308962412E+02  0.00000000000E+00 0.  1.
</event>
<event>
 7    1  0.2031146E-008  0.4614232E+02  0.7816164E-02  0.1320468E+00
        -11   -1    0    0    0    0  0.00000000000E+00  0.00000000000E+00  0.45593999997E+02  0.45594000000E+02  0.51100000000E-03 0.  1.
         11   -1    0    0    0    0 -0.00000000000E+00 -0.00000000000E+00 -0.45593999997E+02  0.45594000000E+02  0.51100000000E-03 0. -1.
    9900012    2    1    2    0    0  0.26566592809E+02 -0.25591871638E+02 -0.25853155236E+02  0.46142318930E+02  0.10000010658E+02 0.  0.
        -12    1    1    2    0    0 -0.26566592809E+02  0.25591871638E+02  0.25853155236E+02  0.45045681070E+02  0.00000000000E+00 0.  1.
         11    1    3    3    0    0  0.17592055857E+02 -0.18412334675E+02 -0.17295303491E+02  0.30783469924E+02  0.51100000000E-03 0. -1.
        -11    1    3    3    0    0  0.70525828312E+01 -0.21965424279E+01 -0.44783579333E+01  0.86382529060E+01  0.51100000000E-03 0.  1.
        -12    1    3    3    0    0  0.19219541213E+01 -0.49829945351E+01 -0.40794938118E+01  0.67205961002E+01  0.00000000000E+00 0.  1.
</event>
<event>
 7    1  0.2031146E-008  0.4614232E+02  0.7816164E-02  0.1320468E+00
        -11   -1    0    0    0    0  0.00000000000E+00  0.00000000000E+00  0.45593999997E+02  0.45594000000E+02  0.51100000000E-03 0.  1.
         11   -1    0    0    0    0 -0.00000000000E+00 -0.00000000000E+00 -0.45593999997E+02  0.45594000000E+02  0.51100000000E-03 0. -1.
    9900012    2    1    2    0    0  0.16990431169E+02  0.36131051271E+02 -0.20856319472E+02  0.46142315643E+02  0.99999806884E+01 0.  0.
        -12    1    1    2    0    0 -0.16990431169E+02 -0.36131051271E+02  0.20856319472E+02  0.45045684357E+02  0.00000000000E+00 0.  1.
         11    1    3    3    0    0  0.13838419856E+01  0.53168567865E+01 -0.44568502817E+01  0.70744257311E+01  0.51100000000E-03 0. -1.
        -11    1    3    3    0    0  0.11350248809E+02  0.18284895396E+02 -0.63087371027E+01  0.22426897060E+02  0.51100000000E-03 0.  1.
        -12    1    3    3    0    0  0.42563403739E+01  0.12529299088E+02 -0.10090732088E+02  0.16640992852E+02  0.00000000000E+00 0.  1.
</event>
<event>
 7    1  0.2031146E-008  0.4614232E+02  0.7816164E-02  0.1320468E+00
        -11   -1    0    0    0    0  0.00000000000E+00  0.00000000000E+00  0.45593999997E+02  0.45594000000E+02  0.51100000000E-03 0.  1.
         11   -1    0    0    0    0 -0.00000000000E+00 -0.00000000000E+00 -0.45593999997E+02  0.45594000000E+02  0.51100000000E-03 0. -1.
    9900012    2    1    2    0    0  0.86250878761E+01  0.42540352293E+02  0.12043243658E+02  0.46142318388E+02  0.10000005720E+02 0.  0.
        -12    1    1    2    0    0 -0.86250878761E+01 -0.42540352293E+02 -0.12043243658E+02  0.45045681612E+02  0.00000000000E+00 0.  1.
         11    1    3    3    0    0  0.30337165108E+01  0.16227540699E+02  0.37615623367E+01  0.16931800391E+02  0.51100000000E-03 0. -1.
        -11    1    3    3    0    0  0.57321956497E+01  0.88817002695E+01  0.34939448193E+01  0.11133297683E+02  0.51100000000E-03 0.  1.
         12    1    3    3    0    0 -0.14082428445E+00  0.17431111324E+02  0.47877365023E+01  0.18077220314E+02  0.00000000000E+00 0. -1.
</event>
<event>
 7    1  0.2031146E-008  0.4614232E+02  0.7816164E-02  0.1320468E+00
        -11   -1    0    0    0    0  0.00000000000E+00  0.00000000000E+00  0.45593999997E+02  0.45594000000E+02  0.51100000000E-03 0.  1.
         11   -1    0    0    0    0 -0.00000000000E+00 -0.00000000000E+00 -0.45593999997E+02  0.45594000000E+02  0.51100000000E-03 0. -1.
    9900012    2    1    2    0    0  0.31060470234E+02 -0.31377674004E+02 -0.89332047672E+01  0.46142318915E+02  0.10000010521E+02 0.  0.
        -12    1    1    2    0    0 -0.31060470234E+02  0.31377674004E+02  0.89332047672E+01  0.45045681085E+02  0.00000000000E+00 0.  1.
         11    1    3    3    0    0  0.13766811925E+02 -0.13827790396E+02 -0.30711772356E+00  0.19514794884E+02  0.51100000000E-03 0. -1.
        -11    1    3    3    0    0  0.80255037737E+01 -0.90301546180E+01 -0.15335874559E+01  0.12178025045E+02  0.51100000000E-03 0.  1.
         12    1    3    3    0    0  0.92681545349E+01 -0.85197289896E+01 -0.70924995877E+01  0.14449498986E+02  0.00000000000E+00 0. -1.
</event>
<event>
 7    1  0.2031146E-008  0.4614232E+02  0.7816164E-02  0.1320468E+00
        -11   -1    0    0    0    0  0.00000000000E+00  0.00000000000E+00  0.45593999997E+02  0.45594000000E+02  0.51100000000E-03 0. -1.
         11   -1    0    0    0    0 -0.00000000000E+00 -0.00000000000E+00 -0.45593999997E+02  0.45594000000E+02  0.51100000000E-03 0.  1.
    9900012    2    1    2    0    0  0.38721920051E+02 -0.21175721914E+02  0.90174643956E+01  0.46142323679E+02  0.10000053968E+02 0.  0.
        -12    1    1    2    0    0 -0.38721920051E+02  0.21175721914E+02 -0.90174643956E+01  0.45045676321E+02  0.00000000000E+00 0.  1.
         11    1    3    3    0    0  0.79266106081E+01 -0.59025107231E+01  0.85790466280E+00  0.99200196190E+01  0.51100000000E-03 0. -1.
        -11    1    3    3    0    0  0.23045486373E+02 -0.12449346545E+02  0.95062042502E+01  0.27864827131E+02  0.51100000000E-03 0.  1.
        -12    1    3    3    0    0  0.77498230705E+01 -0.28238646459E+01 -0.13466445174E+01  0.83574769290E+01  0.00000000000E+00 0.  1.
</event>
<event>
 7    1  0.2031146E-008  0.4614232E+02  0.7816164E-02  0.1320468E+00
        -11   -1    0    0    0    0  0.00000000000E+00  0.00000000000E+00  0.45593999997E+02  0.45594000000E+02  0.51100000000E-03 0.  1.
         11   -1    0    0    0    0 -0.00000000000E+00 -0.00000000000E+00 -0.45593999997E+02  0.45594000000E+02  0.51100000000E-03 0. -1.
    9900012    2    1    2    0    0 -0.86335099272E+01 -0.91617977973E+01 -0.43250867655E+02  0.46142316684E+02  0.99999901752E+01 0.  0.
        -12    1    1    2    0    0  0.86335099272E+01  0.91617977973E+01  0.43250867655E+02  0.45045683316E+02  0.00000000000E+00 0.  1.
         11    1    3    3    0    0 -0.46993326573E+01 -0.58149480546E+01 -0.17123231109E+02  0.18684281955E+02  0.51100000000E-03 0.  1.
        -11    1    3    3    0    0 -0.44745582694E+01 -0.83971807968E+00 -0.84782749247E+01  0.96233021422E+01  0.51100000000E-03 0. -1.
         12    1    3    3    0    0  0.54038099951E+00 -0.25071316631E+01 -0.17649361621E+02  0.17834732586E+02  0.00000000000E+00 0. -1.
</event>
<event>
 7    1  0.2031146E-008  0.4614232E+02  0.7816164E-02  0.1320468E+00
        -11   -1    0    0    0    0  0.00000000000E+00  0.00000000000E+00  0.45593999997E+02  0.45594000000E+02  0.51100000000E-03 0.  1.
         11   -1    0    0    0    0 -0.00000000000E+00 -0.00000000000E+00 -0.45593999997E+02  0.45594000000E+02  0.51100000000E-03 0. -1.
    9900012    2    1    2    0    0  0.11317968610E+02  0.51388397028E+01 -0.43296759224E+02  0.46142318228E+02  0.10000004260E+02 0.  0.
        -12    1    1    2    0    0 -0.11317968610E+02 -0.51388397028E+01  0.43296759224E+02  0.45045681772E+02  0.00000000000E+00 0.  1.
         11    1    3    3    0    0  0.50727271792E+01  0.29463938951E+01 -0.14141442768E+02  0.15309938009E+02  0.51100000000E-03 0. -1.
        -11    1    3    3    0    0 -0.12057779728E+01 -0.18176579720E+00 -0.90193245173E+00  0.15167141238E+01  0.51100000000E-03 0.  1.
        -12    1    3    3    0    0  0.74510194040E+01  0.23742116049E+01 -0.28253384005E+02  0.29315666096E+02  0.00000000000E+00 0.  1.
</event>
<event>
 7    1  0.2031146E-008  0.4614232E+02  0.7816164E-02  0.1320468E+00
        -11   -1    0    0    0    0  0.00000000000E+00  0.00000000000E+00  0.45593999997E+02  0.45594000000E+02  0.51100000000E-03 0.  1.
         11   -1    0    0    0    0 -0.00000000000E+00 -0.00000000000E+00 -0.45593999997E+02  0.45594000000E+02  0.51100000000E-03 0. -1.
    9900012    2    1    2    0    0 -0.13819458290E+02  0.29141299524E+02 -0.31447108662E+02  0.46142318647E+02  0.10000008074E+02 0.  0.
        -12    1    1    2    0    0  0.13819458290E+02 -0.29141299524E+02  0.31447108662E+02  0.45045681353E+02  0.00000000000E+00 0.  1.
         11    1    3    3    0    0 -0.89154844089E+01  0.16720412250E+02 -0.23435057382E+02  0.30137351623E+02  0.51100000000E-03 0. -1.
        -11    1    3    3    0    0 -0.16687773860E+01  0.16775618754E+01 -0.28860120879E+00  0.23837623054E+01  0.51100000000E-03 0.  1.
        -12    1    3    3    0    0 -0.32351964954E+01  0.10743325399E+02 -0.77234500707E+01  0.13621204718E+02  0.00000000000E+00 0.  1.
</event>
<event>
 7    1  0.2031146E-008  0.4614231E+02  0.7816164E-02  0.1320468E+00
        -11   -1    0    0    0    0  0.00000000000E+00  0.00000000000E+00  0.45593999997E+02  0.45594000000E+02  0.51100000000E-03 0. -1.
         11   -1    0    0    0    0 -0.00000000000E+00 -0.00000000000E+00 -0.45593999997E+02  0.45594000000E+02  0.51100000000E-03 0.  1.
    9900012    2    1    2    0    0  0.29170443144E+02 -0.18005479242E+02  0.29223309978E+02  0.46142313391E+02  0.99999601523E+01 0.  0.
        -12    1    1    2    0    0 -0.29170443144E+02  0.18005479242E+02 -0.29223309978E+02  0.45045686609E+02  0.00000000000E+00 0.  1.
         11    1    3    3    0    0  0.12847379542E+02 -0.10997540312E+02  0.15774340224E+02  0.23126410525E+02  0.51100000000E-03 0. -1.
        -11    1    3    3    0    0  0.93068182836E+00  0.54132119952E+00  0.23714956584E+01  0.26044556486E+01  0.51100000000E-03 0.  1.
        -12    1    3    3    0    0  0.15392381774E+02 -0.75492601299E+01  0.11077474096E+02  0.20411447218E+02  0.00000000000E+00 0.  1.
</event>
<event>
 7    1  0.2031146E-008  0.4614232E+02  0.7816164E-02  0.1320468E+00
        -11   -1    0    0    0    0  0.00000000000E+00  0.00000000000E+00  0.45593999997E+02  0.45594000000E+02  0.51100000000E-03 0. -1.
         11   -1    0    0    0    0 -0.00000000000E+00 -0.00000000000E+00 -0.45593999997E+02  0.45594000000E+02  0.51100000000E-03 0.  1.
    9900012    2    1    2    0    0 -0.31447759018E+02 -0.30569727536E+02  0.10278308841E+02  0.46142318503E+02  0.10000006768E+02 0.  0.
        -12    1    1    2    0    0  0.31447759018E+02  0.30569727536E+02 -0.10278308841E+02  0.45045681497E+02  0.00000000000E+00 0.  1.
         11    1    3    3    0    0 -0.46909669425E+01 -0.44752179853E+01  0.26947123153E+01  0.70209843751E+01  0.51100000000E-03 0. -1.
        -11    1    3    3    0    0 -0.25370088807E+02 -0.25587271488E+02  0.53265332447E+01  0.36424192852E+02  0.51100000000E-03 0.  1.
        -12    1    3    3    0    0 -0.13867032687E+01 -0.50723806216E+00  0.22570632812E+01  0.26971412759E+01  0.00000000000E+00 0.  1.
</event>
<event>
 7    1  0.2031146E-008  0.4614232E+02  0.7816164E-02  0.1320468E+00
        -11   -1    0    0    0    0  0.00000000000E+00  0.00000000000E+00  0.45593999997E+02  0.45594000000E+02  0.51100000000E-03 0.  1.
         11   -1    0    0    0    0 -0.00000000000E+00 -0.00000000000E+00 -0.45593999997E+02  0.45594000000E+02  0.51100000000E-03 0. -1.
    9900012    2    1    2    0    0  0.39324040841E+02 -0.18240571058E+02  0.12248055983E+02  0.46142317677E+02  0.99999992291E+01 0.  0.
        -12    1    1    2    0    0 -0.39324040841E+02  0.18240571058E+02 -0.12248055983E+02  0.45045682323E+02  0.00000000000E+00 0.  1.
         11    1    3    3    0    0  0.20705782068E+01 -0.19569528697E+01  0.10113667935E+01  0.30232138027E+01  0.51100000000E-03 0. -1.
        -11    1    3    3    0    0  0.19327900630E+02 -0.12989436095E+02  0.78981532696E+01  0.24590120336E+02  0.51100000000E-03 0.  1.
         12    1    3    3    0    0  0.17925562005E+02 -0.32941820936E+01  0.33385359201E+01  0.18528983538E+02  0.00000000000E+00 0. -1.
</event>
<event>
 7    1  0.2031146E-008  0.4614232E+02  0.7816164E-02  0.1320468E+00
        -11   -1    0    0    0    0  0.00000000000E+00  0.00000000000E+00  0.45593999997E+02  0.45594000000E+02  0.51100000000E-03 0.  1.
         11   -1    0    0    0    0 -0.00000000000E+00 -0.00000000000E+00 -0.45593999997E+02  0.45594000000E+02  0.51100000000E-03 0. -1.
    9900012    2    1    2    0    0  0.74643921945E+00 -0.38308029333E+02 -0.23686519745E+02  0.46142317626E+02  0.99999987671E+01 0.  0.
        -12    1    1    2    0    0 -0.74643921945E+00  0.38308029333E+02  0.23686519745E+02  0.45045682374E+02  0.00000000000E+00 0.  1.
         11    1    3    3    0    0 -0.81695085257E+00 -0.21862253599E+02 -0.91081998979E+01  0.23697781473E+02  0.51100000000E-03 0. -1.
        -11    1    3    3    0    0 -0.11270799718E+00 -0.89077150697E+01 -0.52717362862E+01  0.10351390949E+02  0.51100000000E-03 0.  1.
        -12    1    3    3    0    0  0.16760980692E+01 -0.75380606646E+01 -0.93065835613E+01  0.12093145203E+02  0.00000000000E+00 0.  1.
</event>
<event>
 7    1  0.2031146E-008  0.4614232E+02  0.7816164E-02  0.1320468E+00
        -11   -1    0    0    0    0  0.00000000000E+00  0.00000000000E+00  0.45593999997E+02  0.45594000000E+02  0.51100000000E-03 0.  1.
         11   -1    0    0    0    0 -0.00000000000E+00 -0.00000000000E+00 -0.45593999997E+02  0.45594000000E+02  0.51100000000E-03 0. -1.
    9900012    2    1    2    0    0  0.15669968062E+02  0.65827505673E+01 -0.41716096497E+02  0.46142320840E+02  0.10000028073E+02 0.  0.
        -12    1    1    2    0    0 -0.15669968062E+02 -0.65827505673E+01  0.41716096497E+02  0.45045679160E+02  0.00000000000E+00 0.  1.
         11    1    3    3    0    0  0.82016137261E+01  0.40376480690E+01 -0.23863028984E+02  0.25554123389E+02  0.51100000000E-03 0. -1.
        -11    1    3    3    0    0  0.46304124704E+01  0.36982079459E+01 -0.63558495499E+01  0.86898955931E+01  0.51100000000E-03 0.  1.
         12    1    3    3    0    0  0.28379418655E+01 -0.11531054476E+01 -0.11497217963E+02  0.11898301857E+02  0.00000000000E+00 0. -1.
</event>
<event>
 7    1  0.2031146E-008  0.4614232E+02  0.7816164E-02  0.1320468E+00
        -11   -1    0    0    0    0  0.00000000000E+00  0.00000000000E+00  0.45593999997E+02  0.45594000000E+02  0.51100000000E-03 0.  1.
         11   -1    0    0    0    0 -0.00000000000E+00 -0.00000000000E+00 -0.45593999997E+02  0.45594000000E+02  0.51100000000E-03 0. -1.
    9900012    2    1    2    0    0  0.53867530361E+01 -0.94574765917E+01 -0.43711011805E+02  0.46142317357E+02  0.99999963149E+01 0.  0.
        -12    1    1    2    0    0 -0.53867530361E+01  0.94574765917E+01  0.43711011805E+02  0.45045682643E+02  0.00000000000E+00 0.  1.
         11    1    3    3    0    0  0.51841143957E+01 -0.22071379295E+01 -0.10222340667E+02  0.11672306922E+02  0.51100000000E-03 0. -1.
        -11    1    3    3    0    0 -0.73067551239E+00 -0.32221125119E+01 -0.81177939698E+01  0.87643867408E+01  0.51100000000E-03 0.  1.
         12    1    3    3    0    0  0.93331415276E+00 -0.40282261503E+01 -0.25370877168E+02  0.25705623694E+02  0.00000000000E+00 0. -1.
</event>
<event>
 7    1  0.2031146E-008  0.4614232E+02  0.7816164E-02  0.1320468E+00
        -11   -1    0    0    0    0  0.00000000000E+00  0.00000000000E+00  0.45593999997E+02  0.45594000000E+02  0.51100000000E-03 0.  1.
         11   -1    0    0    0    0 -0.00000000000E+00 -0.00000000000E+00 -0.45593999997E+02  0.45594000000E+02  0.51100000000E-03 0. -1.
    9900012    2    1    2    0    0  0.35445199485E+02 -0.39279206089E+01 -0.27519497205E+02  0.46142318151E+02  0.10000003558E+02 0.  0.
        -12    1    1    2    0    0 -0.35445199485E+02  0.39279206089E+01  0.27519497205E+02  0.45045681849E+02  0.00000000000E+00 0.  1.
         11    1    3    3    0    0  0.21353980345E+01 -0.20695558994E+00 -0.18928932881E+00  0.21537377029E+01  0.51100000000E-03 0.  1.
        -11    1    3    3    0    0  0.29813528521E+02 -0.38122086485E+01 -0.20707353431E+02  0.36498957574E+02  0.51100000000E-03 0. -1.
         12    1    3    3    0    0  0.34962729295E+01  0.91243629542E-01 -0.66228544450E+01  0.74896228742E+01  0.00000000000E+00 0. -1.
</event>
<event>
 7    1  0.2031146E-008  0.4614232E+02  0.7816164E-02  0.1320468E+00
        -11   -1    0    0    0    0  0.00000000000E+00  0.00000000000E+00  0.45593999997E+02  0.45594000000E+02  0.51100000000E-03 0.  1.
         11   -1    0    0    0    0 -0.00000000000E+00 -0.00000000000E+00 -0.45593999997E+02  0.45594000000E+02  0.51100000000E-03 0. -1.
    9900012    2    1    2    0    0 -0.41352237402E+01 -0.23321707326E+02 -0.38315939732E+02  0.46142319347E+02  0.10000014461E+02 0.  0.
        -12    1    1    2    0    0  0.41352237402E+01  0.23321707326E+02  0.38315939732E+02  0.45045680653E+02  0.00000000000E+00 0.  1.
         11    1    3    3    0    0 -0.20507250455E+01 -0.94155019914E+01 -0.13883863837E+02  0.16900261130E+02  0.51100000000E-03 0. -1.
        -11    1    3    3    0    0 -0.50257731114E+01 -0.98377730442E+01 -0.16721262782E+02  0.20040978098E+02  0.51100000000E-03 0.  1.
        -12    1    3    3    0    0  0.29412744167E+01 -0.40684322903E+01 -0.77108131128E+01  0.92010801190E+01  0.00000000000E+00 0.  1.
</event>
<event>
 7    1  0.2031146E-008  0.4614232E+02  0.7816164E-02  0.1320468E+00
        -11   -1    0    0    0    0  0.00000000000E+00  0.00000000000E+00  0.45593999997E+02  0.45594000000E+02  0.51100000000E-03 0.  1.
         11   -1    0    0    0    0 -0.00000000000E+00 -0.00000000000E+00 -0.45593999997E+02  0.45594000000E+02  0.51100000000E-03 0. -1.
    9900012    2    1    2    0    0 -0.12408322833E+02  0.10218770104E+02 -0.42079967738E+02  0.46142318489E+02  0.10000006636E+02 0.  0.
        -12    1    1    2    0    0  0.12408322833E+02 -0.10218770104E+02  0.42079967738E+02  0.45045681511E+02  0.00000000000E+00 0.  1.
         11    1    3    3    0    0 -0.99014961885E+01  0.72881396159E+01 -0.30918517450E+02  0.33273282486E+02  0.51100000000E-03 0. -1.
        -11    1    3    3    0    0 -0.30396206839E+01  0.32294640457E+01 -0.50247387137E+01  0.67019945782E+01  0.51100000000E-03 0.  1.
        -12    1    3    3    0    0  0.53279403952E+00 -0.29883355763E+00 -0.61367115743E+01  0.61670414244E+01  0.00000000000E+00 0.  1.
</event>
<event>
 7    1  0.2031146E-008  0.4614231E+02  0.7816164E-02  0.1320468E+00
        -11   -1    0    0    0    0  0.00000000000E+00  0.00000000000E+00  0.45593999997E+02  0.45594000000E+02  0.51100000000E-03 0.  1.
         11   -1    0    0    0    0 -0.00000000000E+00 -0.00000000000E+00 -0.45593999997E+02  0.45594000000E+02  0.51100000000E-03 0. -1.
    9900012    2    1    2    0    0  0.43844057786E+02  0.12937830566E+01 -0.10253715576E+02  0.46142312517E+02  0.99999521791E+01 0.  0.
        -12    1    1    2    0    0 -0.43844057786E+02 -0.12937830566E+01  0.10253715576E+02  0.45045687483E+02  0.00000000000E+00 0.  1.
         11    1    3    3    0    0  0.19528631218E+02  0.21328966984E+01 -0.20829207412E+01  0.19754879009E+02  0.51100000000E-03 0. -1.
        -11    1    3    3    0    0  0.24559545343E+02 -0.82957777250E+00 -0.75295663375E+01  0.25701241920E+02  0.51100000000E-03 0.  1.
         12    1    3    3    0    0 -0.24411877579E+00 -0.95358693698E-02 -0.64122849718E+00  0.68619158774E+00  0.00000000000E+00 0. -1.
</event>
<event>
 7    1  0.2031146E-008  0.4614232E+02  0.7816164E-02  0.1320468E+00
        -11   -1    0    0    0    0  0.00000000000E+00  0.00000000000E+00  0.45593999997E+02  0.45594000000E+02  0.51100000000E-03 0.  1.
         11   -1    0    0    0    0 -0.00000000000E+00 -0.00000000000E+00 -0.45593999997E+02  0.45594000000E+02  0.51100000000E-03 0. -1.
    9900012    2    1    2    0    0  0.13528788122E+02  0.40565571448E+02 -0.14160496992E+02  0.46142319074E+02  0.10000011976E+02 0.  0.
        -12    1    1    2    0    0 -0.13528788122E+02 -0.40565571448E+02  0.14160496992E+02  0.45045680926E+02  0.00000000000E+00 0.  1.
         11    1    3    3    0    0 -0.19611862921E+00  0.38992130643E+01 -0.15723260382E+01  0.42088637979E+01  0.51100000000E-03 0. -1.
        -11    1    3    3    0    0  0.48377023226E-02 -0.43767193783E+00 -0.91939241596E-01  0.44725072810E+00  0.51100000000E-03 0.  1.
         12    1    3    3    0    0  0.13720069049E+02  0.37104030322E+02 -0.12496231713E+02  0.41486204549E+02  0.00000000000E+00 0. -1.
</event>
<event>
 7    1  0.2031146E-008  0.4614232E+02  0.7816164E-02  0.1320468E+00
        -11   -1    0    0    0    0  0.00000000000E+00  0.00000000000E+00  0.45593999997E+02  0.45594000000E+02  0.51100000000E-03 0. -1.
         11   -1    0    0    0    0 -0.00000000000E+00 -0.00000000000E+00 -0.45593999997E+02  0.45594000000E+02  0.51100000000E-03 0.  1.
    9900012    2    1    2    0    0 -0.36785924095E+02  0.25826959910E+02  0.29795030799E+01  0.46142317540E+02  0.99999979797E+01 0.  0.
        -12    1    1    2    0    0  0.36785924095E+02 -0.25826959910E+02 -0.29795030799E+01  0.45045682460E+02  0.00000000000E+00 0.  1.
         11    1    3    3    0    0 -0.71203672092E+01  0.64437060788E+01 -0.26996540852E+01  0.99754252874E+01  0.51100000000E-03 0. -1.
        -11    1    3    3    0    0 -0.25780519664E+01  0.33993816046E+01  0.67540290557E+00  0.43195273562E+01  0.51100000000E-03 0.  1.
        -12    1    3    3    0    0 -0.27087504920E+02  0.15983872226E+02  0.50037542595E+01  0.31847364896E+02  0.00000000000E+00 0.  1.
</event>
<event>
 7    1  0.2031146E-008  0.4614232E+02  0.7816164E-02  0.1320468E+00
        -11   -1    0    0    0    0  0.00000000000E+00  0.00000000000E+00  0.45593999997E+02  0.45594000000E+02  0.51100000000E-03 0. -1.
         11   -1    0    0    0    0 -0.00000000000E+00 -0.00000000000E+00 -0.45593999997E+02  0.45594000000E+02  0.51100000000E-03 0.  1.
    9900012    2    1    2    0    0  0.38701642781E+02 -0.18912275226E+02  0.13176573956E+02  0.46142318638E+02  0.10000007998E+02 0.  0.
        -12    1    1    2    0    0 -0.38701642781E+02  0.18912275226E+02 -0.13176573956E+02  0.45045681362E+02  0.00000000000E+00 0.  1.
         11    1    3    3    0    0 -0.18046759029E+00 -0.39807424508E+00  0.63155147316E+00  0.76804243380E+00  0.51100000000E-03 0. -1.
        -11    1    3    3    0    0  0.63701204247E+01 -0.56162226708E+01  0.38984131502E+01  0.93444109854E+01  0.51100000000E-03 0.  1.
         12    1    3    3    0    0  0.32511989946E+02 -0.12897978310E+02  0.86466093321E+01  0.36029865219E+02  0.00000000000E+00 0. -1.
</event>
<event>
 7    1  0.2031146E-008  0.4614232E+02  0.7816164E-02  0.1320468E+00
        -11   -1    0    0    0    0  0.00000000000E+00  0.00000000000E+00  0.45593999997E+02  0.45594000000E+02  0.51100000000E-03 0.  1.
         11   -1    0    0    0    0 -0.00000000000E+00 -0.00000000000E+00 -0.45593999997E+02  0.45594000000E+02  0.51100000000E-03 0. -1.
    9900012    2    1    2    0    0  0.10772325821E+02  0.10675513435E+00 -0.43738531155E+02  0.46142317544E+02  0.99999980237E+01 0.  0.
        -12    1    1    2    0    0 -0.10772325821E+02 -0.10675513435E+00  0.43738531155E+02  0.45045682456E+02  0.00000000000E+00 0.  1.
         11    1    3    3    0    0  0.71691869107E+01  0.40060848420E+01 -0.19226344300E+02  0.20906895325E+02  0.51100000000E-03 0. -1.
        -11    1    3    3    0    0 -0.33778996404E+00 -0.23699649430E+00 -0.61825435146E+00  0.74330888757E+00  0.51100000000E-03 0.  1.
         12    1    3    3    0    0  0.39409288745E+01 -0.36623332134E+01 -0.23893932504E+02  0.24492113332E+02  0.00000000000E+00 0. -1.
</event>
<event>
 7    1  0.2031146E-008  0.4614232E+02  0.7816164E-02  0.1320468E+00
        -11   -1    0    0    0    0  0.00000000000E+00  0.00000000000E+00  0.45593999997E+02  0.45594000000E+02  0.51100000000E-03 0.  1.
         11   -1    0    0    0    0 -0.00000000000E+00 -0.00000000000E+00 -0.45593999997E+02  0.45594000000E+02  0.51100000000E-03 0. -1.
    9900012    2    1    2    0    0 -0.74528745158E+01 -0.44293346966E+02 -0.34157849097E+01  0.46142317515E+02  0.99999977547E+01 0.  0.
        -12    1    1    2    0    0  0.74528745158E+01  0.44293346966E+02  0.34157849097E+01  0.45045682485E+02  0.00000000000E+00 0.  1.
         11    1    3    3    0    0  0.98363500363E+00 -0.15307854091E+01  0.38790450219E+00  0.18604601455E+01  0.51100000000E-03 0. -1.
        -11    1    3    3    0    0 -0.47183558120E+01 -0.13698445347E+02  0.12739100038E+01  0.14544178679E+02  0.51100000000E-03 0.  1.
         12    1    3    3    0    0 -0.37181537075E+01 -0.29064116210E+02 -0.50775994157E+01  0.29737678690E+02  0.00000000000E+00 0. -1.
</event>
<event>
 7    1  0.2031146E-008  0.4614232E+02  0.7816164E-02  0.1320468E+00
        -11   -1    0    0    0    0  0.00000000000E+00  0.00000000000E+00  0.45593999997E+02  0.45594000000E+02  0.51100000000E-03 0.  1.
         11   -1    0    0    0    0 -0.00000000000E+00 -0.00000000000E+00 -0.45593999997E+02  0.45594000000E+02  0.51100000000E-03 0. -1.
    9900012    2    1    2    0    0 -0.32162036541E+02  0.31119996066E+02  0.51247145554E+01  0.46142318199E+02  0.10000003993E+02 0.  0.
        -12    1    1    2    0    0  0.32162036541E+02 -0.31119996066E+02 -0.51247145554E+01  0.45045681801E+02  0.00000000000E+00 0.  1.
         11    1    3    3    0    0 -0.29695344305E+02  0.28080638390E+02  0.28981912682E+01  0.40972371651E+02  0.51100000000E-03 0. -1.
        -11    1    3    3    0    0 -0.19829016900E+01  0.14391604863E+01  0.24717555070E+01  0.34803243476E+01  0.51100000000E-03 0.  1.
         12    1    3    3    0    0 -0.48379054613E+00  0.16001971899E+01 -0.24523221978E+00  0.16896222006E+01  0.00000000000E+00 0. -1.
</event>
<event>
 7    1  0.2031146E-008  0.4614232E+02  0.7816164E-02  0.1320468E+00
        -11   -1    0    0    0    0  0.00000000000E+00  0.00000000000E+00  0.45593999997E+02  0.45594000000E+02  0.51100000000E-03 0.  1.
         11   -1    0    0    0    0 -0.00000000000E+00 -0.00000000000E+00 -0.45593999997E+02  0.45594000000E+02  0.51100000000E-03 0. -1.
    9900012    2    1    2    0    0 -0.48870539848E+01  0.20654077656E+02 -0.39732094267E+02  0.46142317240E+02  0.99999952457E+01 0.  0.
        -12    1    1    2    0    0  0.48870539848E+01 -0.20654077656E+02  0.39732094267E+02  0.45045682760E+02  0.00000000000E+00 0.  1.
         11    1    3    3    0    0  0.20857378549E+01  0.53420518269E+01 -0.10191595627E+02  0.11694290992E+02  0.51100000000E-03 0. -1.
        -11    1    3    3    0    0  0.50004573911E+00  0.72184893525E+00 -0.40312601276E+01  0.41257932696E+01  0.51100000000E-03 0.  1.
        -12    1    3    3    0    0 -0.74728375789E+01  0.14590176894E+02 -0.25509238512E+02  0.30322232978E+02  0.00000000000E+00 0.  1.
</event>
<event>
 7    1  0.2031146E-008  0.4614232E+02  0.7816164E-02  0.1320468E+00
        -11   -1    0    0    0    0  0.00000000000E+00  0.00000000000E+00  0.45593999997E+02  0.45594000000E+02  0.51100000000E-03 0. -1.
         11   -1    0    0    0    0 -0.00000000000E+00 -0.00000000000E+00 -0.45593999997E+02  0.45594000000E+02  0.51100000000E-03 0.  1.
    9900012    2    1    2    0    0  0.37101371444E+02 -0.24863133500E+02  0.58674061696E+01  0.46142316238E+02  0.99999861075E+01 0.  0.
        -12    1    1    2    0    0 -0.37101371444E+02  0.24863133500E+02 -0.58674061696E+01  0.45045683762E+02  0.00000000000E+00 0.  1.
         11    1    3    3    0    0  0.14804130137E+01 -0.92136220761E+00  0.11521542648E+01  0.20899738562E+01  0.51100000000E-03 0. -1.
        -11    1    3    3    0    0  0.12811393200E+02 -0.62351955427E+01 -0.20499367152E+01  0.14394849772E+02  0.51100000000E-03 0.  1.
         12    1    3    3    0    0  0.22809565231E+02 -0.17706575750E+02  0.67651886200E+01  0.29657492609E+02  0.00000000000E+00 0. -1.
</event>
<event>
 7    1  0.2031146E-008  0.4614232E+02  0.7816164E-02  0.1320468E+00
        -11   -1    0    0    0    0  0.00000000000E+00  0.00000000000E+00  0.45593999997E+02  0.45594000000E+02  0.51100000000E-03 0.  1.
         11   -1    0    0    0    0 -0.00000000000E+00 -0.00000000000E+00 -0.45593999997E+02  0.45594000000E+02  0.51100000000E-03 0. -1.
    9900012    2    1    2    0    0  0.12191156924E+02  0.10996654802E+02 -0.41947142578E+02  0.46142317693E+02  0.99999993824E+01 0.  0.
        -12    1    1    2    0    0 -0.12191156924E+02 -0.10996654802E+02  0.41947142578E+02  0.45045682307E+02  0.00000000000E+00 0.  1.
         11    1    3    3    0    0  0.30282734474E+01  0.14875311234E+00 -0.10599113998E+02  0.11024236271E+02  0.51100000000E-03 0. -1.
        -11    1    3    3    0    0  0.17911375979E+01  0.21710420085E+01 -0.15370708802E+01  0.32068963889E+01  0.51100000000E-03 0.  1.
        -12    1    3    3    0    0  0.73717458787E+01  0.86768596809E+01 -0.29810957700E+02  0.31911185033E+02  0.00000000000E+00 0.  1.
</event>
<event>
 7    1  0.2031146E-008  0.4614232E+02  0.7816164E-02  0.1320468E+00
        -11   -1    0    0    0    0  0.00000000000E+00  0.00000000000E+00  0.45593999997E+02  0.45594000000E+02  0.51100000000E-03 0. -1.
         11   -1    0    0    0    0 -0.00000000000E+00 -0.00000000000E+00 -0.45593999997E+02  0.45594000000E+02  0.51100000000E-03 0.  1.
    9900012    2    1    2    0    0 -0.15761453037E+02 -0.38090337567E+02  0.18160843229E+02  0.46142318247E+02  0.10000004431E+02 0.  0.
        -12    1    1    2    0    0  0.15761453037E+02  0.38090337567E+02 -0.18160843229E+02  0.45045681753E+02  0.00000000000E+00 0.  1.
         11    1    3    3    0    0  0.43076454152E+00 -0.74814496477E+00  0.63447897269E+00  0.10713742607E+01  0.51100000000E-03 0. -1.
        -11    1    3    3    0    0 -0.15760488676E+02 -0.37614039561E+02  0.17793395821E+02  0.44495099849E+02  0.51100000000E-03 0.  1.
        -12    1    3    3    0    0 -0.43172890211E+00  0.27184695897E+00 -0.26703156512E+00  0.57584413758E+00  0.00000000000E+00 0.  1.
</event>
<event>
 7    1  0.2031146E-008  0.4614232E+02  0.7816164E-02  0.1320468E+00
        -11   -1    0    0    0    0  0.00000000000E+00  0.00000000000E+00  0.45593999997E+02  0.45594000000E+02  0.51100000000E-03 0.  1.
         11   -1    0    0    0    0 -0.00000000000E+00 -0.00000000000E+00 -0.45593999997E+02  0.45594000000E+02  0.51100000000E-03 0. -1.
    9900012    2    1    2    0    0  0.79343529725E+01  0.32109242772E+02 -0.30580322518E+02  0.46142317035E+02  0.99999933770E+01 0.  0.
        -12    1    1    2    0    0 -0.79343529725E+01 -0.32109242772E+02  0.30580322518E+02  0.45045682965E+02  0.00000000000E+00 0.  1.
         11    1    3    3    0    0  0.74467648790E+00  0.14092841793E+02 -0.15712103903E+02  0.21119491996E+02  0.51100000000E-03 0. -1.
        -11    1    3    3    0    0  0.30227608655E+01  0.63654051922E+01 -0.87034287303E+01  0.11198443572E+02  0.51100000000E-03 0.  1.
         12    1    3    3    0    0  0.41669156191E+01  0.11650995787E+02 -0.61647898853E+01  0.13824381467E+02  0.00000000000E+00 0. -1.
</event>
<event>
 7    1  0.2031146E-008  0.4614231E+02  0.7816164E-02  0.1320468E+00
        -11   -1    0    0    0    0  0.00000000000E+00  0.00000000000E+00  0.45593999997E+02  0.45594000000E+02  0.51100000000E-03 0. -1.
         11   -1    0    0    0    0 -0.00000000000E+00 -0.00000000000E+00 -0.45593999997E+02  0.45594000000E+02  0.51100000000E-03 0.  1.
    9900012    2    1    2    0    0 -0.70845532159E+00 -0.42338884649E+02  0.15363294891E+02  0.46142313279E+02  0.99999591327E+01 0.  0.
        -12    1    1    2    0    0  0.70845532159E+00  0.42338884649E+02 -0.15363294891E+02  0.45045686721E+02  0.00000000000E+00 0.  1.
         11    1    3    3    0    0  0.10094974267E+01 -0.19672751829E+02  0.94927660763E+01  0.21866615138E+02  0.51100000000E-03 0. -1.
        -11    1    3    3    0    0  0.21382395576E+01 -0.58020229276E+01  0.71646114446E+00  0.62248578531E+01  0.51100000000E-03 0.  1.
         12    1    3    3    0    0 -0.38561923059E+01 -0.16864109892E+02  0.51540676697E+01  0.18050840288E+02  0.00000000000E+00 0. -1.
</event>
<event>
 7    1  0.2031146E-008  0.4614232E+02  0.7816164E-02  0.1320468E+00
        -11   -1    0    0    0    0  0.00000000000E+00  0.00000000000E+00  0.45593999997E+02  0.45594000000E+02  0.51100000000E-03 0. -1.
         11   -1    0    0    0    0 -0.00000000000E+00 -0.00000000000E+00 -0.45593999997E+02  0.45594000000E+02  0.51100000000E-03 0.  1.
    9900012    2    1    2    0    0 -0.34891365899E+02  0.14536484647E+02  0.24502995575E+02  0.46142316607E+02  0.99999894777E+01 0.  0.
        -12    1    1    2    0    0  0.34891365899E+02 -0.14536484647E+02 -0.24502995575E+02  0.45045683393E+02  0.00000000000E+00 0.  1.
         11    1    3    3    0    0 -0.61772413716E+01  0.59537410461E+01  0.29592667332E+01  0.90753844693E+01  0.51100000000E-03 0. -1.
        -11    1    3    3    0    0 -0.19910644996E+01  0.27907921466E+00  0.25457271637E+01  0.32439096940E+01  0.51100000000E-03 0.  1.
         12    1    3    3    0    0 -0.26723060028E+02  0.83036643861E+01  0.18998001678E+02  0.33823022444E+02  0.00000000000E+00 0. -1.
</event>
<event>
 7    1  0.2031146E-008  0.4614232E+02  0.7816164E-02  0.1320468E+00
        -11   -1    0    0    0    0  0.00000000000E+00  0.00000000000E+00  0.45593999997E+02  0.45594000000E+02  0.51100000000E-03 0. -1.
         11   -1    0    0    0    0 -0.00000000000E+00 -0.00000000000E+00 -0.45593999997E+02  0.45594000000E+02  0.51100000000E-03 0.  1.
    9900012    2    1    2    0    0  0.42740252888E+02 -0.14209225582E+02 -0.69452735997E+00  0.46142315669E+02  0.99999809265E+01 0.  0.
        -12    1    1    2    0    0 -0.42740252888E+02  0.14209225582E+02  0.69452735997E+00  0.45045684331E+02  0.00000000000E+00 0.  1.
         11    1    3    3    0    0  0.94948537234E+01 -0.31909078138E+01 -0.36211257221E+01  0.10651135698E+02  0.51100000000E-03 0. -1.
        -11    1    3    3    0    0  0.66286231923E+00 -0.34628972409E+00 -0.68698958359E+00  0.10155087279E+01  0.51100000000E-03 0.  1.
         12    1    3    3    0    0  0.32582536845E+02 -0.10672028044E+02  0.36135879457E+01  0.34475671243E+02  0.00000000000E+00 0. -1.
</event>
<event>
 7    1  0.2031146E-008  0.4614232E+02  0.7816164E-02  0.1320468E+00
        -11   -1    0    0    0    0  0.00000000000E+00  0.00000000000E+00  0.45593999997E+02  0.45594000000E+02  0.51100000000E-03 0.  1.
         11   -1    0    0    0    0 -0.00000000000E+00 -0.00000000000E+00 -0.45593999997E+02  0.45594000000E+02  0.51100000000E-03 0. -1.
    9900012    2    1    2    0    0 -0.22543460547E+02  0.31613755023E+02 -0.22835857969E+02  0.46142317308E+02  0.99999958636E+01 0.  0.
        -12    1    1    2    0    0  0.22543460547E+02 -0.31613755023E+02  0.22835857969E+02  0.45045682692E+02  0.00000000000E+00 0.  1.
         11    1    3    3    0    0 -0.40953277690E+01  0.12178287140E+02 -0.64530810787E+01  0.14377922064E+02  0.51100000000E-03 0. -1.
        -11    1    3    3    0    0 -0.14976281499E+02  0.17340766164E+02 -0.15352886207E+02  0.27580832000E+02  0.51100000000E-03 0.  1.
        -12    1    3    3    0    0 -0.34718512790E+01  0.20947017187E+01 -0.10298906834E+01  0.41835632436E+01  0.00000000000E+00 0.  1.
</event>
<event>
 7    1  0.2031146E-008  0.4614232E+02  0.7816164E-02  0.1320468E+00
        -11   -1    0    0    0    0  0.00000000000E+00  0.00000000000E+00  0.45593999997E+02  0.45594000000E+02  0.51100000000E-03 0.  1.
         11   -1    0    0    0    0 -0.00000000000E+00 -0.00000000000E+00 -0.45593999997E+02  0.45594000000E+02  0.51100000000E-03 0. -1.
    9900012    2    1    2    0    0 -0.30233426561E+02 -0.62864330165E+01 -0.32795335881E+02  0.46142318995E+02  0.10000011250E+02 0.  0.
        -12    1    1    2    0    0  0.30233426561E+02  0.62864330165E+01  0.32795335881E+02  0.45045681005E+02  0.00000000000E+00 0.  1.
         11    1    3    3    0    0 -0.43652764828E+01 -0.24277554362E+01 -0.38933542819E+01  0.63330753236E+01  0.51100000000E-03 0. -1.
        -11    1    3    3    0    0 -0.53198329293E+01 -0.21749444224E+01 -0.23904212950E+01  0.62245578048E+01  0.51100000000E-03 0.  1.
         12    1    3    3    0    0 -0.20548317149E+02 -0.16837331578E+01 -0.26511560304E+02  0.33584685866E+02  0.00000000000E+00 0. -1.
</event>
<event>
 7    1  0.2031146E-008  0.4614232E+02  0.7816164E-02  0.1320468E+00
        -11   -1    0    0    0    0  0.00000000000E+00  0.00000000000E+00  0.45593999997E+02  0.45594000000E+02  0.51100000000E-03 0. -1.
         11   -1    0    0    0    0 -0.00000000000E+00 -0.00000000000E+00 -0.45593999997E+02  0.45594000000E+02  0.51100000000E-03 0.  1.
    9900012    2    1    2    0    0  0.31580475450E+02 -0.19842391219E+02  0.25259979889E+02  0.46142317599E+02  0.99999985234E+01 0.  0.
        -12    1    1    2    0    0 -0.31580475450E+02  0.19842391219E+02 -0.25259979889E+02  0.45045682401E+02  0.00000000000E+00 0.  1.
         11    1    3    3    0    0  0.90557920515E+01 -0.62947274027E+01  0.82558232087E+01  0.13776413897E+02  0.51100000000E-03 0. -1.
        -11    1    3    3    0    0  0.19920634643E+02 -0.13841165301E+02  0.12840152455E+02  0.27445929695E+02  0.51100000000E-03 0.  1.
        -12    1    3    3    0    0  0.26040487556E+01  0.29350148476E+00  0.41640042251E+01  0.49199740070E+01  0.00000000000E+00 0.  1.
</event>
<event>
 7    1  0.2031146E-008  0.4614232E+02  0.7816164E-02  0.1320468E+00
        -11   -1    0    0    0    0  0.00000000000E+00  0.00000000000E+00  0.45593999997E+02  0.45594000000E+02  0.51100000000E-03 0. -1.
         11   -1    0    0    0    0 -0.00000000000E+00 -0.00000000000E+00 -0.45593999997E+02  0.45594000000E+02  0.51100000000E-03 0.  1.
    9900012    2    1    2    0    0  0.44381547578E+02  0.66920916768E+00 -0.76775017744E+01  0.46142316080E+02  0.99999846673E+01 0.  0.
        -12    1    1    2    0    0 -0.44381547578E+02 -0.66920916768E+00  0.76775017744E+01  0.45045683920E+02  0.00000000000E+00 0.  1.
         11    1    3    3    0    0  0.31951984567E+02  0.14542098906E+01 -0.56671358446E+01  0.32483233723E+02  0.51100000000E-03 0. -1.
        -11    1    3    3    0    0  0.18343439343E+01 -0.21514908164E+01 -0.43316176698E+00  0.28603076373E+01  0.51100000000E-03 0.  1.
        -12    1    3    3    0    0  0.10595219077E+02  0.13664900934E+01 -0.15772041628E+01  0.10798774719E+02  0.00000000000E+00 0.  1.
</event>
<event>
 7    1  0.2031146E-008  0.4614231E+02  0.7816164E-02  0.1320468E+00
        -11   -1    0    0    0    0  0.00000000000E+00  0.00000000000E+00  0.45593999997E+02  0.45594000000E+02  0.51100000000E-03 0.  1.
         11   -1    0    0    0    0 -0.00000000000E+00 -0.00000000000E+00 -0.45593999997E+02  0.45594000000E+02  0.51100000000E-03 0. -1.
    9900012    2    1    2    0    0 -0.16385508704E+02  0.41102538710E+02  0.84386238398E+01  0.46142312569E+02  0.99999526510E+01 0.  0.
        -12    1    1    2    0    0  0.16385508704E+02 -0.41102538710E+02 -0.84386238398E+01  0.45045687431E+02  0.00000000000E+00 0.  1.
         11    1    3    3    0    0 -0.14600308223E+01  0.55870862780E+01 -0.81343131802E+00  0.58317144863E+01  0.51100000000E-03 0. -1.
        -11    1    3    3    0    0 -0.47045800989E+01  0.20692026398E+02  0.54301070418E+01  0.21903860233E+02  0.51100000000E-03 0.  1.
        -12    1    3    3    0    0 -0.10220897782E+02  0.14823426034E+02  0.38219481159E+01  0.18406737850E+02  0.00000000000E+00 0.  1.
</event>
<event>
 7    1  0.2031146E-008  0.4614232E+02  0.7816164E-02  0.1320468E+00
        -11   -1    0    0    0    0  0.00000000000E+00  0.00000000000E+00  0.45593999997E+02  0.45594000000E+02  0.51100000000E-03 0.  1.
         11   -1    0    0    0    0 -0.00000000000E+00 -0.00000000000E+00 -0.45593999997E+02  0.45594000000E+02  0.51100000000E-03 0. -1.
    9900012    2    1    2    0    0 -0.14243218226E+02 -0.38077656235E+02 -0.19399383306E+02  0.46142320491E+02  0.10000024890E+02 0.  0.
        -12    1    1    2    0    0  0.14243218226E+02  0.38077656235E+02  0.19399383306E+02  0.45045679509E+02  0.00000000000E+00 0.  1.
         11    1    3    3    0    0 -0.41005461349E+01 -0.74950945514E+01 -0.58246989423E+00  0.85633049915E+01  0.51100000000E-03 0.  1.
        -11    1    3    3    0    0 -0.19700193828E+01 -0.24848871470E+01 -0.10254972839E+01  0.33327594337E+01  0.51100000000E-03 0. -1.
         12    1    3    3    0    0 -0.81726527085E+01 -0.28097674537E+02 -0.17791416128E+02  0.34246256066E+02  0.00000000000E+00 0. -1.
</event>
<event>
 7    1  0.2031146E-008  0.4614232E+02  0.7816164E-02  0.1320468E+00
        -11   -1    0    0    0    0  0.00000000000E+00  0.00000000000E+00  0.45593999997E+02  0.45594000000E+02  0.51100000000E-03 0.  1.
         11   -1    0    0    0    0 -0.00000000000E+00 -0.00000000000E+00 -0.45593999997E+02  0.45594000000E+02  0.51100000000E-03 0. -1.
    9900012    2    1    2    0    0 -0.43083081141E+02 -0.13069865774E+02  0.14629403375E+01  0.46142318005E+02  0.10000002227E+02 0.  0.
        -12    1    1    2    0    0  0.43083081141E+02  0.13069865774E+02 -0.14629403375E+01  0.45045681995E+02  0.00000000000E+00 0.  1.
         11    1    3    3    0    0 -0.15145940692E+02 -0.54131810444E+00 -0.43490257037E+00  0.15161849664E+02  0.51100000000E-03 0.  1.
        -11    1    3    3    0    0 -0.78500210777E+01 -0.20632876300E+01  0.18760745862E+01  0.83306448057E+01  0.51100000000E-03 0. -1.
        -12    1    3    3    0    0 -0.20087119371E+02 -0.10465260040E+02  0.21768321695E-01  0.22649823535E+02  0.00000000000E+00 0.  1.
</event>
<event>
 7    1  0.2031146E-008  0.4614231E+02  0.7816164E-02  0.1320468E+00
        -11   -1    0    0    0    0  0.00000000000E+00  0.00000000000E+00  0.45593999997E+02  0.45594000000E+02  0.51100000000E-03 0.  1.
         11   -1    0    0    0    0 -0.00000000000E+00 -0.00000000000E+00 -0.45593999997E+02  0.45594000000E+02  0.51100000000E-03 0. -1.
    9900012    2    1    2    0    0 -0.50722592935E+01  0.35601575491E+02 -0.27127741957E+02  0.46142307914E+02  0.99999102079E+01 0.  0.
        -12    1    1    2    0    0  0.50722592935E+01 -0.35601575491E+02  0.27127741957E+02  0.45045692086E+02  0.00000000000E+00 0.  1.
         11    1    3    3    0    0  0.12880084021E+01  0.13881551271E+02 -0.83565027923E+01  0.16253847868E+02  0.51100000000E-03 0. -1.
        -11    1    3    3    0    0 -0.16351932966E+01  0.12780489932E+01 -0.67757938940E+00  0.21832041673E+01  0.51100000000E-03 0.  1.
         12    1    3    3    0    0 -0.47250743990E+01  0.20441975227E+02 -0.18093659775E+02  0.27705255879E+02  0.00000000000E+00 0. -1.
</event>
<event>
 7    1  0.2031146E-008  0.4614232E+02  0.7816164E-02  0.1320468E+00
        -11   -1    0    0    0    0  0.00000000000E+00  0.00000000000E+00  0.45593999997E+02  0.45594000000E+02  0.51100000000E-03 0. -1.
         11   -1    0    0    0    0 -0.00000000000E+00 -0.00000000000E+00 -0.45593999997E+02  0.45594000000E+02  0.51100000000E-03 0.  1.
    9900012    2    1    2    0    0  0.33046875361E+02  0.13438963295E+02  0.27502930870E+02  0.46142324159E+02  0.10000058339E+02 0.  0.
        -12    1    1    2    0    0 -0.33046875361E+02 -0.13438963295E+02 -0.27502930870E+02  0.45045675841E+02  0.00000000000E+00 0.  1.
         11    1    3    3    0    0  0.16550897920E+02  0.61757970038E+01  0.15438550583E+02  0.23461064233E+02  0.51100000000E-03 0. -1.
        -11    1    3    3    0    0  0.15928004961E+02  0.47428406608E+01  0.10594331782E+02  0.19708773319E+02  0.51100000000E-03 0.  1.
        -12    1    3    3    0    0  0.56797247995E+00  0.25203256302E+01  0.14700485047E+01  0.29724866066E+01  0.00000000000E+00 0.  1.
</event>
<event>
 7    1  0.2031146E-008  0.4614232E+02  0.7816164E-02  0.1320468E+00
        -11   -1    0    0    0    0  0.00000000000E+00  0.00000000000E+00  0.45593999997E+02  0.45594000000E+02  0.51100000000E-03 0.  1.
         11   -1    0    0    0    0 -0.00000000000E+00 -0.00000000000E+00 -0.45593999997E+02  0.45594000000E+02  0.51100000000E-03 0. -1.
    9900012    2    1    2    0    0  0.16708720561E+02  0.10425245511E+02 -0.40512301588E+02  0.46142315781E+02  0.99999819469E+01 0.  0.
        -12    1    1    2    0    0 -0.16708720561E+02 -0.10425245511E+02  0.40512301588E+02  0.45045684219E+02  0.00000000000E+00 0.  1.
         11    1    3    3    0    0  0.58524594145E+00  0.27209054723E+01 -0.41089308464E+01  0.49627766787E+01  0.51100000000E-03 0.  1.
        -11    1    3    3    0    0  0.70510568514E+01  0.69375807928E+01 -0.15610954130E+02  0.18481052976E+02  0.51100000000E-03 0. -1.
        -12    1    3    3    0    0  0.90724177676E+01  0.76675924624E+00 -0.20792416612E+02  0.22698486127E+02  0.00000000000E+00 0.  1.
</event>
<event>
 7    1  0.2031146E-008  0.4614232E+02  0.7816164E-02  0.1320468E+00
        -11   -1    0    0    0    0  0.00000000000E+00  0.00000000000E+00  0.45593999997E+02  0.45594000000E+02  0.51100000000E-03 0.  1.
         11   -1    0    0    0    0 -0.00000000000E+00 -0.00000000000E+00 -0.45593999997E+02  0.45594000000E+02  0.51100000000E-03 0. -1.
    9900012    2    1    2    0    0 -0.16900499137E+02  0.35085672676E+01 -0.41607410623E+02  0.46142317254E+02  0.99999953736E+01 0.  0.
        -12    1    1    2    0    0  0.16900499137E+02 -0.35085672676E+01  0.41607410623E+02  0.45045682746E+02  0.00000000000E+00 0.  1.
         11    1    3    3    0    0 -0.14960082530E+02  0.32975878351E+01 -0.32758038477E+02  0.36163064582E+02  0.51100000000E-03 0. -1.
        -11    1    3    3    0    0 -0.14189729079E+01  0.10249830374E+00 -0.92208103512E+01  0.93299160666E+01  0.51100000000E-03 0.  1.
        -12    1    3    3    0    0 -0.52144369915E+00  0.10848112880E+00  0.37143820539E+00  0.64933660540E+00  0.00000000000E+00 0.  1.
</event>
<event>
 7    1  0.2031146E-008  0.4614232E+02  0.7816164E-02  0.1320468E+00
        -11   -1    0    0    0    0  0.00000000000E+00  0.00000000000E+00  0.45593999997E+02  0.45594000000E+02  0.51100000000E-03 0. -1.
         11   -1    0    0    0    0 -0.00000000000E+00 -0.00000000000E+00 -0.45593999997E+02  0.45594000000E+02  0.51100000000E-03 0.  1.
    9900012    2    1    2    0    0 -0.33693523113E+02 -0.24354643086E+02  0.17341012554E+02  0.46142324780E+02  0.10000064008E+02 0.  0.
        -12    1    1    2    0    0  0.33693523113E+02  0.24354643086E+02 -0.17341012554E+02  0.45045675220E+02  0.00000000000E+00 0.  1.
         11    1    3    3    0    0 -0.14454698865E+02 -0.77838516055E+01  0.92934640736E+01  0.18865183271E+02  0.51100000000E-03 0. -1.
        -11    1    3    3    0    0 -0.17836381009E+02 -0.16583999224E+02  0.85121969114E+01  0.25799670817E+02  0.51100000000E-03 0.  1.
         12    1    3    3    0    0 -0.14024432387E+01  0.13207743635E-01 -0.46464843110E+00  0.14774706923E+01  0.00000000000E+00 0. -1.
</event>
<event>
 7    1  0.2031146E-008  0.4614232E+02  0.7816164E-02  0.1320468E+00
        -11   -1    0    0    0    0  0.00000000000E+00  0.00000000000E+00  0.45593999997E+02  0.45594000000E+02  0.51100000000E-03 0. -1.
         11   -1    0    0    0    0 -0.00000000000E+00 -0.00000000000E+00 -0.45593999997E+02  0.45594000000E+02  0.51100000000E-03 0.  1.
    9900012    2    1    2    0    0  0.41254113569E+01  0.14025895477E+02  0.42607142059E+02  0.46142319660E+02  0.10000017318E+02 0.  0.
        -12    1    1    2    0    0 -0.41254113569E+01 -0.14025895477E+02 -0.42607142059E+02  0.45045680340E+02  0.00000000000E+00 0.  1.
         11    1    3    3    0    0 -0.97958800182E+00  0.11158028434E+02  0.31162313963E+02  0.33114211495E+02  0.51100000000E-03 0. -1.
        -11    1    3    3    0    0  0.17017792336E+01  0.10761339952E+01  0.20355930138E+01  0.28631723865E+01  0.51100000000E-03 0.  1.
         12    1    3    3    0    0  0.34032201252E+01  0.17917330480E+01  0.94092350828E+01  0.10164935778E+02  0.00000000000E+00 0. -1.
</event>
<event>
 7    1  0.2031146E-008  0.4614232E+02  0.7816164E-02  0.1320468E+00
        -11   -1    0    0    0    0  0.00000000000E+00  0.00000000000E+00  0.45593999997E+02  0.45594000000E+02  0.51100000000E-03 0. -1.
         11   -1    0    0    0    0 -0.00000000000E+00 -0.00000000000E+00 -0.45593999997E+02  0.45594000000E+02  0.51100000000E-03 0.  1.
    9900012    2    1    2    0    0 -0.44137548801E+02 -0.29486202526E+01  0.85027010425E+01  0.46142317625E+02  0.99999987616E+01 0.  0.
        -12    1    1    2    0    0  0.44137548801E+02  0.29486202526E+01 -0.85027010425E+01  0.45045682375E+02  0.00000000000E+00 0.  1.
         11    1    3    3    0    0 -0.12589068430E+02  0.15968066928E+01  0.69821438253E+00  0.12709128181E+02  0.51100000000E-03 0. -1.
        -11    1    3    3    0    0 -0.85449619942E+01  0.15193973581E+01  0.13481914863E+01  0.87830839891E+01  0.51100000000E-03 0.  1.
        -12    1    3    3    0    0 -0.23003518377E+02 -0.60648243034E+01  0.64562951737E+01  0.24650105455E+02  0.00000000000E+00 0.  1.
</event>
<event>
 7    1  0.2031146E-008  0.4614232E+02  0.7816164E-02  0.1320468E+00
        -11   -1    0    0    0    0  0.00000000000E+00  0.00000000000E+00  0.45593999997E+02  0.45594000000E+02  0.51100000000E-03 0.  1.
         11   -1    0    0    0    0 -0.00000000000E+00 -0.00000000000E+00 -0.45593999997E+02  0.45594000000E+02  0.51100000000E-03 0. -1.
    9900012    2    1    2    0    0  0.31203269867E+02 -0.18450262336E+01 -0.32435557504E+02  0.46142316935E+02  0.99999924680E+01 0.  0.
        -12    1    1    2    0    0 -0.31203269867E+02  0.18450262336E+01  0.32435557504E+02  0.45045683065E+02  0.00000000000E+00 0.  1.
         11    1    3    3    0    0  0.74071623436E+01 -0.34183783364E+01 -0.98026051453E+01  0.12753134216E+02  0.51100000000E-03 0. -1.
        -11    1    3    3    0    0  0.10875117811E+02 -0.21083186021E+01 -0.93469663049E+01  0.14494101356E+02  0.51100000000E-03 0.  1.
         12    1    3    3    0    0  0.12920989712E+02  0.36816707049E+01 -0.13285986054E+02  0.18895081364E+02  0.00000000000E+00 0. -1.
</event>
<event>
 7    1  0.2031146E-008  0.4614232E+02  0.7816164E-02  0.1320468E+00
        -11   -1    0    0    0    0  0.00000000000E+00  0.00000000000E+00  0.45593999997E+02  0.45594000000E+02  0.51100000000E-03 0. -1.
         11   -1    0    0    0    0 -0.00000000000E+00 -0.00000000000E+00 -0.45593999997E+02  0.45594000000E+02  0.51100000000E-03 0.  1.
    9900012    2    1    2    0    0 -0.44491736917E+02  0.42829181279E+01 -0.55906520775E+01  0.46142318384E+02  0.10000005683E+02 0.  0.
        -12    1    1    2    0    0  0.44491736917E+02 -0.42829181279E+01  0.55906520775E+01  0.45045681616E+02  0.00000000000E+00 0.  1.
         11    1    3    3    0    0 -0.17454199347E+02 -0.21820072325E+01 -0.83271544065E+00  0.17609759955E+02  0.51100000000E-03 0. -1.
        -11    1    3    3    0    0 -0.12612092309E+01  0.13471046200E+01 -0.48430219268E+00  0.19078491702E+01  0.51100000000E-03 0.  1.
         12    1    3    3    0    0 -0.25776328339E+02  0.51178207403E+01 -0.42736344441E+01  0.26624709259E+02  0.00000000000E+00 0. -1.
</event>
<event>
 7    1  0.2031146E-008  0.4614231E+02  0.7816164E-02  0.1320468E+00
        -11   -1    0    0    0    0  0.00000000000E+00  0.00000000000E+00  0.45593999997E+02  0.45594000000E+02  0.51100000000E-03 0.  1.
         11   -1    0    0    0    0 -0.00000000000E+00 -0.00000000000E+00 -0.45593999997E+02  0.45594000000E+02  0.51100000000E-03 0. -1.
    9900012    2    1    2    0    0 -0.89983105527E+01 -0.38757393101E+02 -0.21118917713E+02  0.46142314322E+02  0.99999686385E+01 0.  0.
        -12    1    1    2    0    0  0.89983105527E+01  0.38757393101E+02  0.21118917713E+02  0.45045685678E+02  0.00000000000E+00 0.  1.
         11    1    3    3    0    0 -0.34929836875E+01 -0.79127932816E+01 -0.37288781509E+01  0.94190108337E+01  0.51100000000E-03 0.  1.
        -11    1    3    3    0    0 -0.60545151175E+01 -0.22989976940E+02 -0.95752012459E+01  0.25629683419E+02  0.51100000000E-03 0. -1.
        -12    1    3    3    0    0  0.54918825228E+00 -0.78546228797E+01 -0.78148383166E+01  0.11093620069E+02  0.00000000000E+00 0.  1.
</event>
<event>
 7    1  0.2031146E-008  0.4614232E+02  0.7816164E-02  0.1320468E+00
        -11   -1    0    0    0    0  0.00000000000E+00  0.00000000000E+00  0.45593999997E+02  0.45594000000E+02  0.51100000000E-03 0.  1.
         11   -1    0    0    0    0 -0.00000000000E+00 -0.00000000000E+00 -0.45593999997E+02  0.45594000000E+02  0.51100000000E-03 0. -1.
    9900012    2    1    2    0    0  0.41431711567E+01  0.42950158279E+02 -0.12931803001E+02  0.46142317718E+02  0.99999996032E+01 0.  0.
        -12    1    1    2    0    0 -0.41431711567E+01 -0.42950158279E+02  0.12931803001E+02  0.45045682282E+02  0.00000000000E+00 0.  1.
         11    1    3    3    0    0  0.45603802873E+01  0.31308827356E+02 -0.12466218144E+02  0.34006563100E+02  0.51100000000E-03 0. -1.
        -11    1    3    3    0    0  0.94742436059E+00  0.15579056043E+01 -0.71192246161E+00  0.19574260250E+01  0.51100000000E-03 0.  1.
        -12    1    3    3    0    0 -0.13646334913E+01  0.10083425319E+02  0.24633760540E+00  0.10178328593E+02  0.00000000000E+00 0.  1.
</event>
<event>
 7    1  0.2031146E-008  0.4614232E+02  0.7816164E-02  0.1320468E+00
        -11   -1    0    0    0    0  0.00000000000E+00  0.00000000000E+00  0.45593999997E+02  0.45594000000E+02  0.51100000000E-03 0.  1.
         11   -1    0    0    0    0 -0.00000000000E+00 -0.00000000000E+00 -0.45593999997E+02  0.45594000000E+02  0.51100000000E-03 0. -1.
    9900012    2    1    2    0    0  0.15896013702E+02  0.22637964021E+02 -0.35552114393E+02  0.46142317582E+02  0.99999983695E+01 0.  0.
        -12    1    1    2    0    0 -0.15896013702E+02 -0.22637964021E+02  0.35552114393E+02  0.45045682418E+02  0.00000000000E+00 0.  1.
         11    1    3    3    0    0  0.75389649920E+01  0.79052798516E+01 -0.20110914589E+02  0.22886203891E+02  0.51100000000E-03 0.  1.
        -11    1    3    3    0    0  0.58852358348E+01  0.73944304732E+01 -0.10203163960E+02  0.13907485679E+02  0.51100000000E-03 0. -1.
        -12    1    3    3    0    0  0.24718128754E+01  0.73382536964E+01 -0.52380358442E+01  0.93486280121E+01  0.00000000000E+00 0.  1.
</event>
<event>
 7    1  0.2031146E-008  0.4614232E+02  0.7816164E-02  0.1320468E+00
        -11   -1    0    0    0    0  0.00000000000E+00  0.00000000000E+00  0.45593999997E+02  0.45594000000E+02  0.51100000000E-03 0.  1.
         11   -1    0    0    0    0 -0.00000000000E+00 -0.00000000000E+00 -0.45593999997E+02  0.45594000000E+02  0.51100000000E-03 0. -1.
    9900012    2    1    2    0    0  0.21965064365E+02 -0.35486276349E+02 -0.16952092013E+02  0.46142320015E+02  0.10000020553E+02 0.  0.
        -12    1    1    2    0    0 -0.21965064365E+02  0.35486276349E+02  0.16952092013E+02  0.45045679985E+02  0.00000000000E+00 0.  1.
         11    1    3    3    0    0  0.66808691023E+01 -0.66270533663E+01 -0.86372916660E+00  0.94497553734E+01  0.51100000000E-03 0. -1.
        -11    1    3    3    0    0  0.36306982267E+00 -0.30576153184E+01 -0.73709626309E+00  0.31660925908E+01  0.51100000000E-03 0.  1.
         12    1    3    3    0    0  0.14921125440E+02 -0.25801607665E+02 -0.15351266583E+02  0.33526472051E+02  0.00000000000E+00 0. -1.
</event>
<event>
 7    1  0.2031146E-008  0.4614232E+02  0.7816164E-02  0.1320468E+00
        -11   -1    0    0    0    0  0.00000000000E+00  0.00000000000E+00  0.45593999997E+02  0.45594000000E+02  0.51100000000E-03 0.  1.
         11   -1    0    0    0    0 -0.00000000000E+00 -0.00000000000E+00 -0.45593999997E+02  0.45594000000E+02  0.51100000000E-03 0. -1.
    9900012    2    1    2    0    0 -0.14693335160E+02  0.37116498266E+02 -0.20870671145E+02  0.46142318123E+02  0.10000003302E+02 0.  0.
        -12    1    1    2    0    0  0.14693335160E+02 -0.37116498266E+02  0.20870671145E+02  0.45045681877E+02  0.00000000000E+00 0.  1.
         11    1    3    3    0    0 -0.91549053591E-01  0.37475372284E+01  0.11520208071E+00  0.37504250809E+01  0.51100000000E-03 0. -1.
        -11    1    3    3    0    0 -0.38075848869E+01  0.42592832452E+01 -0.42606895322E+01  0.71268977813E+01  0.51100000000E-03 0.  1.
         12    1    3    3    0    0 -0.10794201219E+02  0.29109677793E+02 -0.16725183694E+02  0.35264995261E+02  0.00000000000E+00 0. -1.
</event>
<event>
 7    1  0.2031146E-008  0.4614232E+02  0.7816164E-02  0.1320468E+00
        -11   -1    0    0    0    0  0.00000000000E+00  0.00000000000E+00  0.45593999997E+02  0.45594000000E+02  0.51100000000E-03 0. -1.
         11   -1    0    0    0    0 -0.00000000000E+00 -0.00000000000E+00 -0.45593999997E+02  0.45594000000E+02  0.51100000000E-03 0.  1.
    9900012    2    1    2    0    0 -0.10065657509E+02 -0.34959735698E+02  0.26563374914E+02  0.46142317988E+02  0.10000002065E+02 0.  0.
        -12    1    1    2    0    0  0.10065657509E+02  0.34959735698E+02 -0.26563374914E+02  0.45045682012E+02  0.00000000000E+00 0.  1.
         11    1    3    3    0    0  0.61835192468E+00 -0.10699565177E+02  0.86667981085E+01  0.13783194252E+02  0.51100000000E-03 0. -1.
        -11    1    3    3    0    0 -0.41294406850E+01 -0.15361242945E+02  0.10681898677E+02  0.19160454712E+02  0.51100000000E-03 0.  1.
        -12    1    3    3    0    0 -0.65545687483E+01 -0.88989275757E+01  0.72146781285E+01  0.13198669023E+02  0.00000000000E+00 0.  1.
</event>
<event>
 7    1  0.2031146E-008  0.4614232E+02  0.7816164E-02  0.1320468E+00
        -11   -1    0    0    0    0  0.00000000000E+00  0.00000000000E+00  0.45593999997E+02  0.45594000000E+02  0.51100000000E-03 0.  1.
         11   -1    0    0    0    0 -0.00000000000E+00 -0.00000000000E+00 -0.45593999997E+02  0.45594000000E+02  0.51100000000E-03 0. -1.
    9900012    2    1    2    0    0  0.34433334884E+02  0.96440449340E+01 -0.27394365275E+02  0.46142318712E+02  0.10000008671E+02 0.  0.
        -12    1    1    2    0    0 -0.34433334884E+02 -0.96440449340E+01  0.27394365275E+02  0.45045681288E+02  0.00000000000E+00 0.  1.
         11    1    3    3    0    0  0.22336876717E+02  0.54718399655E+01 -0.18418595380E+02  0.29463905887E+02  0.51100000000E-03 0. -1.
        -11    1    3    3    0    0  0.77701104990E+00  0.24128424325E+01 -0.22819113521E+01  0.34106706754E+01  0.51100000000E-03 0.  1.
         12    1    3    3    0    0  0.11319447117E+02  0.17593625359E+01 -0.66938585423E+01  0.13267742150E+02  0.00000000000E+00 0. -1.
</event>
<event>
 7    1  0.2031146E-008  0.4614232E+02  0.7816164E-02  0.1320468E+00
        -11   -1    0    0    0    0  0.00000000000E+00  0.00000000000E+00  0.45593999997E+02  0.45594000000E+02  0.51100000000E-03 0.  1.
         11   -1    0    0    0    0 -0.00000000000E+00 -0.00000000000E+00 -0.45593999997E+02  0.45594000000E+02  0.51100000000E-03 0. -1.
    9900012    2    1    2    0    0  0.64037624680E+01 -0.34772344169E+02 -0.27910381133E+02  0.46142317990E+02  0.10000002088E+02 0.  0.
        -12    1    1    2    0    0 -0.64037624680E+01  0.34772344169E+02  0.27910381133E+02  0.45045682010E+02  0.00000000000E+00 0.  1.
         11    1    3    3    0    0  0.16096288334E+01 -0.71492962681E+01 -0.53180486015E+01  0.90545559416E+01  0.51100000000E-03 0. -1.
        -11    1    3    3    0    0  0.49458875913E+01 -0.27292661097E+02 -0.19337229729E+02  0.33812417950E+02  0.51100000000E-03 0.  1.
        -12    1    3    3    0    0 -0.15175395673E+00 -0.33038680391E+00 -0.32551028028E+01  0.32753440980E+01  0.00000000000E+00 0.  1.
</event>
<event>
 7    1  0.2031146E-008  0.4614232E+02  0.7816164E-02  0.1320468E+00
        -11   -1    0    0    0    0  0.00000000000E+00  0.00000000000E+00  0.45593999997E+02  0.45594000000E+02  0.51100000000E-03 0.  1.
         11   -1    0    0    0    0 -0.00000000000E+00 -0.00000000000E+00 -0.45593999997E+02  0.45594000000E+02  0.51100000000E-03 0. -1.
    9900012    2    1    2    0    0 -0.14926515486E+02  0.11248221983E+02 -0.40985244808E+02  0.46142315919E+02  0.99999832044E+01 0.  0.
        -12    1    1    2    0    0  0.14926515486E+02 -0.11248221983E+02  0.40985244808E+02  0.45045684081E+02  0.00000000000E+00 0.  1.
         11    1    3    3    0    0 -0.10076391436E+02  0.73994829122E+01 -0.20547803202E+02  0.24051990113E+02  0.51100000000E-03 0. -1.
        -11    1    3    3    0    0 -0.47757354053E+01  0.14398296457E+01 -0.80462693770E+01  0.94669535341E+01  0.51100000000E-03 0.  1.
         12    1    3    3    0    0 -0.74388644417E-01  0.24089094250E+01 -0.12391172229E+02  0.12623372272E+02  0.00000000000E+00 0. -1.
</event>
<event>
 7    1  0.2031146E-008  0.4614232E+02  0.7816164E-02  0.1320468E+00
        -11   -1    0    0    0    0  0.00000000000E+00  0.00000000000E+00  0.45593999997E+02  0.45594000000E+02  0.51100000000E-03 0.  1.
         11   -1    0    0    0    0 -0.00000000000E+00 -0.00000000000E+00 -0.45593999997E+02  0.45594000000E+02  0.51100000000E-03 0. -1.
    9900012    2    1    2    0    0 -0.24698091169E+02  0.14704200594E+02 -0.34682909306E+02  0.46142318515E+02  0.10000006874E+02 0.  0.
        -12    1    1    2    0    0  0.24698091169E+02 -0.14704200594E+02  0.34682909306E+02  0.45045681485E+02  0.00000000000E+00 0.  1.
         11    1    3    3    0    0 -0.76137834563E+01  0.29874888605E+01 -0.96691694008E+01  0.12664423610E+02  0.51100000000E-03 0. -1.
        -11    1    3    3    0    0 -0.15783844768E+02  0.10120589884E+02 -0.17361155738E+02  0.25553195966E+02  0.51100000000E-03 0.  1.
        -12    1    3    3    0    0 -0.13004629446E+01  0.15961218501E+01 -0.76525841679E+01  0.79246989392E+01  0.00000000000E+00 0.  1.
</event>
<event>
 7    1  0.2031146E-008  0.4614232E+02  0.7816164E-02  0.1320468E+00
        -11   -1    0    0    0    0  0.00000000000E+00  0.00000000000E+00  0.45593999997E+02  0.45594000000E+02  0.51100000000E-03 0.  1.
         11   -1    0    0    0    0 -0.00000000000E+00 -0.00000000000E+00 -0.45593999997E+02  0.45594000000E+02  0.51100000000E-03 0. -1.
    9900012    2    1    2    0    0  0.10923637115E+02 -0.39982252413E+02 -0.17641063858E+02  0.46142317744E+02  0.99999998465E+01 0.  0.
        -12    1    1    2    0    0 -0.10923637115E+02  0.39982252413E+02  0.17641063858E+02  0.45045682256E+02  0.00000000000E+00 0.  1.
         11    1    3    3    0    0  0.61376103810E+01 -0.12421492537E+02 -0.48456112171E+01  0.14678000080E+02  0.51100000000E-03 0. -1.
        -11    1    3    3    0    0  0.23991721921E+01 -0.16523511875E+02 -0.40487182396E+01  0.17180645841E+02  0.51100000000E-03 0.  1.
         12    1    3    3    0    0  0.23868545422E+01 -0.11037248002E+02 -0.87467344009E+01  0.14283671823E+02  0.00000000000E+00 0. -1.
</event>
<event>
 7    1  0.2031146E-008  0.4614232E+02  0.7816164E-02  0.1320468E+00
        -11   -1    0    0    0    0  0.00000000000E+00  0.00000000000E+00  0.45593999997E+02  0.45594000000E+02  0.51100000000E-03 0.  1.
         11   -1    0    0    0    0 -0.00000000000E+00 -0.00000000000E+00 -0.45593999997E+02  0.45594000000E+02  0.51100000000E-03 0. -1.
    9900012    2    1    2    0    0 -0.19276116184E+02 -0.35613178879E+02 -0.19729325897E+02  0.46142318017E+02  0.10000002331E+02 0.  0.
        -12    1    1    2    0    0  0.19276116184E+02  0.35613178879E+02  0.19729325897E+02  0.45045681983E+02  0.00000000000E+00 0.  1.
         11    1    3    3    0    0 -0.10116818968E+02 -0.19297424421E+02 -0.69687275174E+01  0.22875833947E+02  0.51100000000E-03 0. -1.
        -11    1    3    3    0    0 -0.91467613113E+01 -0.16049882043E+02 -0.11030221235E+02  0.21515755548E+02  0.51100000000E-03 0.  1.
        -12    1    3    3    0    0 -0.12535904803E-01 -0.26587241481E+00 -0.17303771452E+01  0.17507285211E+01  0.00000000000E+00 0.  1.
</event>
<event>
 7    1  0.2031146E-008  0.4614232E+02  0.7816164E-02  0.1320468E+00
        -11   -1    0    0    0    0  0.00000000000E+00  0.00000000000E+00  0.45593999997E+02  0.45594000000E+02  0.51100000000E-03 0.  1.
         11   -1    0    0    0    0 -0.00000000000E+00 -0.00000000000E+00 -0.45593999997E+02  0.45594000000E+02  0.51100000000E-03 0. -1.
    9900012    2    1    2    0    0  0.24798903440E+02  0.12561681007E+02 -0.35444776163E+02  0.46142316535E+02  0.99999888210E+01 0.  0.
        -12    1    1    2    0    0 -0.24798903440E+02 -0.12561681007E+02  0.35444776163E+02  0.45045683465E+02  0.00000000000E+00 0.  1.
         11    1    3    3    0    0  0.75647859702E+01  0.50568995987E+01 -0.15284694349E+02  0.17788201200E+02  0.51100000000E-03 0. -1.
        -11    1    3    3    0    0  0.78518742000E+01  0.69025615094E+01 -0.11892815985E+02  0.15834656806E+02  0.51100000000E-03 0.  1.
        -12    1    3    3    0    0  0.93822432697E+01  0.60221989917E+00 -0.82672658294E+01  0.12519458529E+02  0.00000000000E+00 0.  1.
</event>
<event>
 7    1  0.2031146E-008  0.4614231E+02  0.7816164E-02  0.1320468E+00
        -11   -1    0    0    0    0  0.00000000000E+00  0.00000000000E+00  0.45593999997E+02  0.45594000000E+02  0.51100000000E-03 0.  1.
         11   -1    0    0    0    0 -0.00000000000E+00 -0.00000000000E+00 -0.45593999997E+02  0.45594000000E+02  0.51100000000E-03 0. -1.
    9900012    2    1    2    0    0 -0.29243228876E+02  0.24878638432E+02 -0.23558466488E+02  0.46142307325E+02  0.99999048311E+01 0.  0.
        -12    1    1    2    0    0  0.29243228876E+02 -0.24878638432E+02  0.23558466488E+02  0.45045692675E+02  0.00000000000E+00 0.  1.
         11    1    3    3    0    0 -0.41474442683E+01  0.22741231963E+01 -0.14743820323E+01  0.49544659560E+01  0.51100000000E-03 0. -1.
        -11    1    3    3    0    0 -0.11681521065E+02  0.14153826204E+02 -0.81480844335E+01  0.20079342887E+02  0.51100000000E-03 0.  1.
         12    1    3    3    0    0 -0.13414263543E+02  0.84506890324E+01 -0.13936000022E+02  0.21108498481E+02  0.00000000000E+00 0. -1.
</event>
<event>
 7    1  0.2031146E-008  0.4614232E+02  0.7816164E-02  0.1320468E+00
        -11   -1    0    0    0    0  0.00000000000E+00  0.00000000000E+00  0.45593999997E+02  0.45594000000E+02  0.51100000000E-03 0. -1.
         11   -1    0    0    0    0 -0.00000000000E+00 -0.00000000000E+00 -0.45593999997E+02  0.45594000000E+02  0.51100000000E-03 0.  1.
    9900012    2    1    2    0    0  0.26448609638E+02  0.50261411332E+01  0.36115404380E+02  0.46142317854E+02  0.10000000847E+02 0.  0.
        -12    1    1    2    0    0 -0.26448609638E+02 -0.50261411332E+01 -0.36115404380E+02  0.45045682146E+02  0.00000000000E+00 0.  1.
         11    1    3    3    0    0  0.71329332637E+00  0.56089849563E+00  0.19666911681E+01  0.21659337256E+01  0.51100000000E-03 0. -1.
        -11    1    3    3    0    0  0.78241965735E+01 -0.72613148981E+00  0.16616270988E+02  0.18380581622E+02  0.51100000000E-03 0.  1.
         12    1    3    3    0    0  0.17911119738E+02  0.51913741274E+01  0.17532442224E+02  0.25595802506E+02  0.00000000000E+00 0. -1.
</event>
<event>
 7    1  0.2031146E-008  0.4614232E+02  0.7816164E-02  0.1320468E+00
        -11   -1    0    0    0    0  0.00000000000E+00  0.00000000000E+00  0.45593999997E+02  0.45594000000E+02  0.51100000000E-03 0.  1.
         11   -1    0    0    0    0 -0.00000000000E+00 -0.00000000000E+00 -0.45593999997E+02  0.45594000000E+02  0.51100000000E-03 0. -1.
    9900012    2    1    2    0    0 -0.59037458097E+01  0.11170639355E+02 -0.43237440325E+02  0.46142316033E+02  0.99999842387E+01 0.  0.
        -12    1    1    2    0    0  0.59037458097E+01 -0.11170639355E+02  0.43237440325E+02  0.45045683967E+02  0.00000000000E+00 0.  1.
         11    1    3    3    0    0  0.23535264531E+00  0.81619386519E+01 -0.29839431324E+02  0.30936455767E+02  0.51100000000E-03 0. -1.
        -11    1    3    3    0    0 -0.10318653756E+01 -0.18796228788E+00 -0.11523531224E+01  0.15582021547E+01  0.51100000000E-03 0.  1.
         12    1    3    3    0    0 -0.51072330794E+01  0.31966629913E+01 -0.12245655879E+02  0.13647658111E+02  0.00000000000E+00 0. -1.
</event>
<event>
 7    1  0.2031146E-008  0.4614232E+02  0.7816164E-02  0.1320468E+00
        -11   -1    0    0    0    0  0.00000000000E+00  0.00000000000E+00  0.45593999997E+02  0.45594000000E+02  0.51100000000E-03 0. -1.
         11   -1    0    0    0    0 -0.00000000000E+00 -0.00000000000E+00 -0.45593999997E+02  0.45594000000E+02  0.51100000000E-03 0.  1.
    9900012    2    1    2    0    0 -0.25192513232E+02  0.73311899757E+01  0.36615630803E+02  0.46142317760E+02  0.99999999858E+01 0.  0.
        -12    1    1    2    0    0  0.25192513232E+02 -0.73311899757E+01 -0.36615630803E+02  0.45045682240E+02  0.00000000000E+00 0.  1.
         11    1    3    3    0    0 -0.21798220760E+02  0.56302259260E+01  0.31577346141E+02  0.38781318465E+02  0.51100000000E-03 0. -1.
        -11    1    3    3    0    0 -0.34570893330E+01  0.24783128734E+01  0.30756917062E+01  0.52491314604E+01  0.51100000000E-03 0.  1.
         12    1    3    3    0    0  0.62796861557E-01 -0.77734882376E+00  0.19625929558E+01  0.21118678344E+01  0.00000000000E+00 0. -1.
</event>
<event>
 7    1  0.2031146E-008  0.4614232E+02  0.7816164E-02  0.1320468E+00
        -11   -1    0    0    0    0  0.00000000000E+00  0.00000000000E+00  0.45593999997E+02  0.45594000000E+02  0.51100000000E-03 0.  1.
         11   -1    0    0    0    0 -0.00000000000E+00 -0.00000000000E+00 -0.45593999997E+02  0.45594000000E+02  0.51100000000E-03 0. -1.
    9900012    2    1    2    0    0  0.32184019837E+02 -0.19427710588E+02 -0.24816659788E+02  0.46142315694E+02  0.99999811527E+01 0.  0.
        -12    1    1    2    0    0 -0.32184019837E+02  0.19427710588E+02  0.24816659788E+02  0.45045684306E+02  0.00000000000E+00 0.  1.
         11    1    3    3    0    0  0.73361612169E+01 -0.69030643664E+01 -0.58323141857E+01  0.11639907563E+02  0.51100000000E-03 0. -1.
        -11    1    3    3    0    0  0.51971414792E+01  0.49682726463E+00 -0.38859918866E+01  0.65083062382E+01  0.51100000000E-03 0.  1.
        -12    1    3    3    0    0  0.19650717141E+02 -0.13021473486E+02 -0.15098353716E+02  0.27994101893E+02  0.00000000000E+00 0.  1.
</event>
<event>
 7    1  0.2031146E-008  0.4614232E+02  0.7816164E-02  0.1320468E+00
        -11   -1    0    0    0    0  0.00000000000E+00  0.00000000000E+00  0.45593999997E+02  0.45594000000E+02  0.51100000000E-03 0.  1.
         11   -1    0    0    0    0 -0.00000000000E+00 -0.00000000000E+00 -0.45593999997E+02  0.45594000000E+02  0.51100000000E-03 0. -1.
    9900012    2    1    2    0    0  0.85991276239E+01 -0.41009004758E+02 -0.16535723252E+02  0.46142316404E+02  0.99999876263E+01 0.  0.
        -12    1    1    2    0    0 -0.85991276239E+01  0.41009004758E+02  0.16535723252E+02  0.45045683596E+02  0.00000000000E+00 0.  1.
         11    1    3    3    0    0  0.74632973359E-01 -0.80817198315E+01 -0.42299789767E+01  0.91220879145E+01  0.51100000000E-03 0. -1.
        -11    1    3    3    0    0 -0.80810333594E+00 -0.64652288563E+01 -0.44212713541E+01  0.78739987181E+01  0.51100000000E-03 0.  1.
        -12    1    3    3    0    0  0.93325979865E+01 -0.26462056070E+02 -0.78844729215E+01  0.29146229771E+02  0.00000000000E+00 0.  1.
</event>
<event>
 7    1  0.2031146E-008  0.4614232E+02  0.7816164E-02  0.1320468E+00
        -11   -1    0    0    0    0  0.00000000000E+00  0.00000000000E+00  0.45593999997E+02  0.45594000000E+02  0.51100000000E-03 0.  1.
         11   -1    0    0    0    0 -0.00000000000E+00 -0.00000000000E+00 -0.45593999997E+02  0.45594000000E+02  0.51100000000E-03 0. -1.
    9900012    2    1    2    0    0 -0.27850780188E+02  0.32427661956E+02 -0.14208949659E+02  0.46142317993E+02  0.10000002117E+02 0.  0.
        -12    1    1    2    0    0  0.27850780188E+02 -0.32427661956E+02  0.14208949659E+02  0.45045682007E+02  0.00000000000E+00 0.  1.
         11    1    3    3    0    0 -0.56746491840E+01  0.10811068091E+02 -0.30969579927E+01  0.12596506884E+02  0.51100000000E-03 0. -1.
        -11    1    3    3    0    0 -0.68836720444E+01  0.79434831152E+01 -0.69868899709E+01  0.12621430051E+02  0.51100000000E-03 0.  1.
         12    1    3    3    0    0 -0.15292458960E+02  0.13673110750E+02 -0.41251016958E+01  0.20924381057E+02  0.00000000000E+00 0. -1.
</event>
<event>
 7    1  0.2031146E-008  0.4614230E+02  0.7816164E-02  0.1320468E+00
        -11   -1    0    0    0    0  0.00000000000E+00  0.00000000000E+00  0.45593999997E+02  0.45594000000E+02  0.51100000000E-03 0.  1.
         11   -1    0    0    0    0 -0.00000000000E+00 -0.00000000000E+00 -0.45593999997E+02  0.45594000000E+02  0.51100000000E-03 0. -1.
    9900012    2    1    2    0    0  0.44263610969E+02 -0.60053788066E+01 -0.58123191181E+01  0.46142302268E+02  0.99998587243E+01 0.  0.
        -12    1    1    2    0    0 -0.44263610969E+02  0.60053788066E+01  0.58123191181E+01  0.45045697732E+02  0.00000000000E+00 0.  1.
         11    1    3    3    0    0  0.39561517341E+02 -0.56571565972E+01 -0.43940295975E+01  0.40204782942E+02  0.51100000000E-03 0. -1.
        -11    1    3    3    0    0  0.48541457598E+01 -0.26520516295E+00 -0.20548338080E+01  0.52778221906E+01  0.51100000000E-03 0.  1.
        -12    1    3    3    0    0 -0.15205213194E+00 -0.83017046445E-01  0.63654428743E+00  0.65969713558E+00  0.00000000000E+00 0.  1.
</event>
<event>
 7    1  0.2031146E-008  0.4614232E+02  0.7816164E-02  0.1320468E+00
        -11   -1    0    0    0    0  0.00000000000E+00  0.00000000000E+00  0.45593999997E+02  0.45594000000E+02  0.51100000000E-03 0.  1.
         11   -1    0    0    0    0 -0.00000000000E+00 -0.00000000000E+00 -0.45593999997E+02  0.45594000000E+02  0.51100000000E-03 0. -1.
    9900012    2    1    2    0    0  0.22267734623E+02  0.14757229110E+02 -0.36269625771E+02  0.46142316857E+02  0.99999917592E+01 0.  0.
        -12    1    1    2    0    0 -0.22267734623E+02 -0.14757229110E+02  0.36269625771E+02  0.45045683143E+02  0.00000000000E+00 0.  1.
         11    1    3    3    0    0  0.98363097676E+01  0.71747337525E+01 -0.19658595073E+02  0.23123368153E+02  0.51100000000E-03 0. -1.
        -11    1    3    3    0    0  0.78173437353E+01  0.35930394153E+01 -0.13892755066E+02  0.16341035429E+02  0.51100000000E-03 0.  1.
        -12    1    3    3    0    0  0.46140811197E+01  0.39894559422E+01 -0.27182756323E+01  0.66779132749E+01  0.00000000000E+00 0.  1.
</event>
<event>
 7    1  0.2031146E-008  0.4614232E+02  0.7816164E-02  0.1320468E+00
        -11   -1    0    0    0    0  0.00000000000E+00  0.00000000000E+00  0.45593999997E+02  0.45594000000E+02  0.51100000000E-03 0. -1.
         11   -1    0    0    0    0 -0.00000000000E+00 -0.00000000000E+00 -0.45593999997E+02  0.45594000000E+02  0.51100000000E-03 0.  1.
    9900012    2    1    2    0    0 -0.22450247967E+02  0.10391642479E+02  0.37644569642E+02  0.46142317735E+02  0.99999997621E+01 0.  0.
        -12    1    1    2    0    0  0.22450247967E+02 -0.10391642479E+02 -0.37644569642E+02  0.45045682265E+02  0.00000000000E+00 0.  1.
         11    1    3    3    0    0 -0.12812038022E+02  0.38329281445E+01  0.22414208264E+02  0.26100505528E+02  0.51100000000E-03 0. -1.
        -11    1    3    3    0    0 -0.62998822664E+01  0.34673770238E+01  0.13258515743E+02  0.15083085227E+02  0.51100000000E-03 0.  1.
        -12    1    3    3    0    0 -0.33383276788E+01  0.30913373104E+01  0.19718456349E+01  0.49587269804E+01  0.00000000000E+00 0.  1.
</event>
<event>
 7    1  0.2031146E-008  0.4614232E+02  0.7816164E-02  0.1320468E+00
        -11   -1    0    0    0    0  0.00000000000E+00  0.00000000000E+00  0.45593999997E+02  0.45594000000E+02  0.51100000000E-03 0.  1.
         11   -1    0    0    0    0 -0.00000000000E+00 -0.00000000000E+00 -0.45593999997E+02  0.45594000000E+02  0.51100000000E-03 0. -1.
    9900012    2    1    2    0    0  0.35390108265E+02 -0.10411241802E+02 -0.25850721420E+02  0.46142317446E+02  0.99999971230E+01 0.  0.
        -12    1    1    2    0    0 -0.35390108265E+02  0.10411241802E+02  0.25850721420E+02  0.45045682554E+02  0.00000000000E+00 0.  1.
         11    1    3    3    0    0  0.29302819734E+02 -0.95514743710E+01 -0.25017112915E+02  0.39695614945E+02  0.51100000000E-03 0. -1.
        -11    1    3    3    0    0  0.31973048662E+01  0.32904298761E-01 -0.11667632586E+01  0.34037006130E+01  0.51100000000E-03 0.  1.
         12    1    3    3    0    0  0.28899836645E+01 -0.89267172974E+00  0.33315475297E+00  0.30430018876E+01  0.00000000000E+00 0. -1.
</event>
<event>
 7    1  0.2031146E-008  0.4614232E+02  0.7816164E-02  0.1320468E+00
        -11   -1    0    0    0    0  0.00000000000E+00  0.00000000000E+00  0.45593999997E+02  0.45594000000E+02  0.51100000000E-03 0.  1.
         11   -1    0    0    0    0 -0.00000000000E+00 -0.00000000000E+00 -0.45593999997E+02  0.45594000000E+02  0.51100000000E-03 0. -1.
    9900012    2    1    2    0    0  0.31373465019E+02  0.65508584874E+01 -0.31652889944E+02  0.46142317676E+02  0.99999992253E+01 0.  0.
        -12    1    1    2    0    0 -0.31373465019E+02 -0.65508584874E+01  0.31652889944E+02  0.45045682324E+02  0.00000000000E+00 0.  1.
         11    1    3    3    0    0  0.19412758323E+02  0.38515575981E+01 -0.21191963790E+02  0.28996362034E+02  0.51100000000E-03 0. -1.
        -11    1    3    3    0    0  0.93689707339E+01  0.44600462437E+01 -0.72408184398E+01  0.12653026399E+02  0.51100000000E-03 0.  1.
        -12    1    3    3    0    0  0.25917359624E+01 -0.17607453545E+01 -0.32201077137E+01  0.44929292438E+01  0.00000000000E+00 0.  1.
</event>
<event>
 7    1  0.2031146E-008  0.4614232E+02  0.7816164E-02  0.1320468E+00
        -11   -1    0    0    0    0  0.00000000000E+00  0.00000000000E+00  0.45593999997E+02  0.45594000000E+02  0.51100000000E-03 0.  1.
         11   -1    0    0    0    0 -0.00000000000E+00 -0.00000000000E+00 -0.45593999997E+02  0.45594000000E+02  0.51100000000E-03 0. -1.
    9900012    2    1    2    0    0 -0.22563040793E+02 -0.19947685984E+02 -0.33497948547E+02  0.46142317157E+02  0.99999944904E+01 0.  0.
        -12    1    1    2    0    0  0.22563040793E+02  0.19947685984E+02  0.33497948547E+02  0.45045682843E+02  0.00000000000E+00 0.  1.
         11    1    3    3    0    0 -0.15212775321E+02 -0.80720041144E+01 -0.18292832278E+02  0.25123962594E+02  0.51100000000E-03 0. -1.
        -11    1    3    3    0    0 -0.39870298373E+01 -0.73189270061E+01 -0.11675358466E+02  0.14344932730E+02  0.51100000000E-03 0.  1.
        -12    1    3    3    0    0 -0.33632356339E+01 -0.45567548639E+01 -0.35297578025E+01  0.66734218331E+01  0.00000000000E+00 0.  1.
</event>
<event>
 7    1  0.2031146E-008  0.4614232E+02  0.7816164E-02  0.1320468E+00
        -11   -1    0    0    0    0  0.00000000000E+00  0.00000000000E+00  0.45593999997E+02  0.45594000000E+02  0.51100000000E-03 0. -1.
         11   -1    0    0    0    0 -0.00000000000E+00 -0.00000000000E+00 -0.45593999997E+02  0.45594000000E+02  0.51100000000E-03 0.  1.
    9900012    2    1    2    0    0 -0.25830920227E+02  0.36866509092E+02 -0.16545536725E+01  0.46142317851E+02  0.10000000818E+02 0.  0.
        -12    1    1    2    0    0  0.25830920227E+02 -0.36866509092E+02  0.16545536725E+01  0.45045682149E+02  0.00000000000E+00 0.  1.
         11    1    3    3    0    0 -0.12430335510E+02  0.19053683506E+02  0.21244727696E+01  0.22848839814E+02  0.51100000000E-03 0. -1.
        -11    1    3    3    0    0 -0.10134369509E+02  0.14623752912E+02 -0.73611096902E+00  0.17807342705E+02  0.51100000000E-03 0.  1.
        -12    1    3    3    0    0 -0.32662152080E+01  0.31890726741E+01 -0.30429154732E+01  0.54861353321E+01  0.00000000000E+00 0.  1.
</event>
<event>
 7    1  0.2031146E-008  0.4614232E+02  0.7816164E-02  0.1320468E+00
        -11   -1    0    0    0    0  0.00000000000E+00  0.00000000000E+00  0.45593999997E+02  0.45594000000E+02  0.51100000000E-03 0. -1.
         11   -1    0    0    0    0 -0.00000000000E+00 -0.00000000000E+00 -0.45593999997E+02  0.45594000000E+02  0.51100000000E-03 0.  1.
    9900012    2    1    2    0    0 -0.40570710549E+01 -0.41156276538E+02  0.17855377895E+02  0.46142318256E+02  0.10000004511E+02 0.  0.
        -12    1    1    2    0    0  0.40570710549E+01  0.41156276538E+02 -0.17855377895E+02  0.45045681744E+02  0.00000000000E+00 0.  1.
         11    1    3    3    0    0 -0.12586717088E+01 -0.18751961363E+02  0.46962648632E+01  0.19372021406E+02  0.51100000000E-03 0. -1.
        -11    1    3    3    0    0  0.30023167657E+00 -0.39135278897E+01  0.10815362246E+00  0.39265171680E+01  0.51100000000E-03 0.  1.
         12    1    3    3    0    0 -0.30986310227E+01 -0.18490787286E+02  0.13050959409E+02  0.22843779682E+02  0.00000000000E+00 0. -1.
</event>
<event>
 7    1  0.2031146E-008  0.4614231E+02  0.7816164E-02  0.1320468E+00
        -11   -1    0    0    0    0  0.00000000000E+00  0.00000000000E+00  0.45593999997E+02  0.45594000000E+02  0.51100000000E-03 0. -1.
         11   -1    0    0    0    0 -0.00000000000E+00 -0.00000000000E+00 -0.45593999997E+02  0.45594000000E+02  0.51100000000E-03 0.  1.
    9900012    2    1    2    0    0  0.17787810225E+02  0.28566903368E+01  0.41286158925E+02  0.46142314401E+02  0.99999693621E+01 0.  0.
        -12    1    1    2    0    0 -0.17787810225E+02 -0.28566903368E+01 -0.41286158925E+02  0.45045685599E+02  0.00000000000E+00 0.  1.
         11    1    3    3    0    0 -0.14421362741E-01 -0.71367878449E+00  0.95306092284E+00  0.11907437873E+01  0.51100000000E-03 0.  1.
        -11    1    3    3    0    0  0.35129012058E+01 -0.24008530059E+01  0.10715682002E+02  0.11529545137E+02  0.51100000000E-03 0. -1.
         12    1    3    3    0    0  0.14289330382E+02  0.59712221272E+01  0.29617416000E+02  0.33422025477E+02  0.00000000000E+00 0. -1.
</event>
<event>
 7    1  0.2031146E-008  0.4614232E+02  0.7816164E-02  0.1320468E+00
        -11   -1    0    0    0    0  0.00000000000E+00  0.00000000000E+00  0.45593999997E+02  0.45594000000E+02  0.51100000000E-03 0. -1.
         11   -1    0    0    0    0 -0.00000000000E+00 -0.00000000000E+00 -0.45593999997E+02  0.45594000000E+02  0.51100000000E-03 0.  1.
    9900012    2    1    2    0    0 -0.12160754646E+02 -0.13477395282E+02  0.41226075917E+02  0.46142317936E+02  0.10000001591E+02 0.  0.
        -12    1    1    2    0    0  0.12160754646E+02  0.13477395282E+02 -0.41226075917E+02  0.45045682064E+02  0.00000000000E+00 0.  1.
         11    1    3    3    0    0 -0.15339916656E+01 -0.92627286025E+00  0.17950931371E+01  0.25364288820E+01  0.51100000000E-03 0. -1.
        -11    1    3    3    0    0  0.85155678441E+00 -0.17256254375E+01  0.12535913708E+01  0.22966113502E+01  0.51100000000E-03 0.  1.
         12    1    3    3    0    0 -0.11478319765E+02 -0.10825496985E+02  0.38177391409E+02  0.41309277703E+02  0.00000000000E+00 0. -1.
</event>
<event>
 7    1  0.2031146E-008  0.4614232E+02  0.7816164E-02  0.1320468E+00
        -11   -1    0    0    0    0  0.00000000000E+00  0.00000000000E+00  0.45593999997E+02  0.45594000000E+02  0.51100000000E-03 0. -1.
         11   -1    0    0    0    0 -0.00000000000E+00 -0.00000000000E+00 -0.45593999997E+02  0.45594000000E+02  0.51100000000E-03 0.  1.
    9900012    2    1    2    0    0  0.38609338361E+02 -0.49240695960E+01  0.22675673100E+02  0.46142316294E+02  0.99999866194E+01 0.  0.
        -12    1    1    2    0    0 -0.38609338361E+02  0.49240695960E+01 -0.22675673100E+02  0.45045683706E+02  0.00000000000E+00 0.  1.
         11    1    3    3    0    0  0.34952453956E+02 -0.43563611184E+01  0.21011255849E+02  0.41013714686E+02  0.51100000000E-03 0.  1.
        -11    1    3    3    0    0  0.24002937929E+01 -0.50985653024E-02 -0.60394203961E+00  0.24751126309E+01  0.51100000000E-03 0. -1.
        -12    1    3    3    0    0  0.12565906115E+01 -0.56260991230E+00  0.22683592902E+01  0.26534889764E+01  0.00000000000E+00 0.  1.
</event>
<event>
 7    1  0.2031146E-008  0.4614232E+02  0.7816164E-02  0.1320468E+00
        -11   -1    0    0    0    0  0.00000000000E+00  0.00000000000E+00  0.45593999997E+02  0.45594000000E+02  0.51100000000E-03 0.  1.
         11   -1    0    0    0    0 -0.00000000000E+00 -0.00000000000E+00 -0.45593999997E+02  0.45594000000E+02  0.51100000000E-03 0. -1.
    9900012    2    1    2    0    0  0.37208167630E+02 -0.16457120839E+02 -0.19334657063E+02  0.46142317316E+02  0.99999959436E+01 0.  0.
        -12    1    1    2    0    0 -0.37208167630E+02  0.16457120839E+02  0.19334657063E+02  0.45045682684E+02  0.00000000000E+00 0.  1.
         11    1    3    3    0    0  0.19936103436E+02 -0.66622100590E+01 -0.11816397401E+02  0.24113492299E+02  0.51100000000E-03 0. -1.
        -11    1    3    3    0    0  0.17169309499E+02 -0.90269933332E+01 -0.59668304721E+01  0.20294700378E+02  0.51100000000E-03 0.  1.
        -12    1    3    3    0    0  0.10275469599E+00 -0.76791744652E+00 -0.15514291896E+01  0.17341246387E+01  0.00000000000E+00 0.  1.
</event>
<event>
 7    1  0.2031146E-008  0.4614232E+02  0.7816164E-02  0.1320468E+00
        -11   -1    0    0    0    0  0.00000000000E+00  0.00000000000E+00  0.45593999997E+02  0.45594000000E+02  0.51100000000E-03 0. -1.
         11   -1    0    0    0    0 -0.00000000000E+00 -0.00000000000E+00 -0.45593999997E+02  0.45594000000E+02  0.51100000000E-03 0.  1.
    9900012    2    1    2    0    0 -0.15586129047E+02 -0.23226888040E+02  0.35308607778E+02  0.46142317300E+02  0.99999957932E+01 0.  0.
        -12    1    1    2    0    0  0.15586129047E+02  0.23226888040E+02 -0.35308607778E+02  0.45045682700E+02  0.00000000000E+00 0.  1.
         11    1    3    3    0    0 -0.21488602012E+01 -0.70449469943E+00  0.11831127888E+01  0.25521890757E+01  0.51100000000E-03 0.  1.
        -11    1    3    3    0    0 -0.69917201563E+01 -0.11064449708E+02  0.11501577669E+02  0.17423905625E+02  0.51100000000E-03 0. -1.
        -12    1    3    3    0    0 -0.64455486894E+01 -0.11457943632E+02  0.22623917320E+02  0.26166222599E+02  0.00000000000E+00 0.  1.
</event>
<event>
 7    1  0.2031146E-008  0.4614232E+02  0.7816164E-02  0.1320468E+00
        -11   -1    0    0    0    0  0.00000000000E+00  0.00000000000E+00  0.45593999997E+02  0.45594000000E+02  0.51100000000E-03 0.  1.
         11   -1    0    0    0    0 -0.00000000000E+00 -0.00000000000E+00 -0.45593999997E+02  0.45594000000E+02  0.51100000000E-03 0. -1.
    9900012    2    1    2    0    0  0.17022788102E+02  0.41580727243E+02 -0.32220040335E+01  0.46142317601E+02  0.99999985388E+01 0.  0.
        -12    1    1    2    0    0 -0.17022788102E+02 -0.41580727243E+02  0.32220040335E+01  0.45045682399E+02  0.00000000000E+00 0.  1.
         11    1    3    3    0    0  0.39179926600E+00  0.45891977966E+01 -0.15487449631E+01  0.48593059487E+01  0.51100000000E-03 0. -1.
        -11    1    3    3    0    0 -0.21422203359E+00  0.57271105960E+01 -0.43744572520E+00  0.57477861723E+01  0.51100000000E-03 0.  1.
         12    1    3    3    0    0  0.16845210869E+02  0.31264418850E+02 -0.12358133452E+01  0.35535225480E+02  0.00000000000E+00 0. -1.
</event>
<event>
 7    1  0.2031146E-008  0.4614232E+02  0.7816164E-02  0.1320468E+00
        -11   -1    0    0    0    0  0.00000000000E+00  0.00000000000E+00  0.45593999997E+02  0.45594000000E+02  0.51100000000E-03 0.  1.
         11   -1    0    0    0    0 -0.00000000000E+00 -0.00000000000E+00 -0.45593999997E+02  0.45594000000E+02  0.51100000000E-03 0. -1.
    9900012    2    1    2    0    0 -0.38923257046E+02  0.13599715387E+02 -0.18142251995E+02  0.46142317575E+02  0.99999983036E+01 0.  0.
        -12    1    1    2    0    0  0.38923257046E+02 -0.13599715387E+02  0.18142251995E+02  0.45045682425E+02  0.00000000000E+00 0.  1.
         11    1    3    3    0    0 -0.17523140039E+02  0.83746375029E+01 -0.51946130239E+01  0.20104203412E+02  0.51100000000E-03 0. -1.
        -11    1    3    3    0    0 -0.32606773556E+01  0.27645824752E+01 -0.27626552018E+01  0.50899113062E+01  0.51100000000E-03 0.  1.
        -12    1    3    3    0    0 -0.18139439651E+02  0.24604954093E+01 -0.10184983769E+02  0.20948202856E+02  0.00000000000E+00 0.  1.
</event>
<event>
 7    1  0.2031146E-008  0.4614232E+02  0.7816164E-02  0.1320468E+00
        -11   -1    0    0    0    0  0.00000000000E+00  0.00000000000E+00  0.45593999997E+02  0.45594000000E+02  0.51100000000E-03 0. -1.
         11   -1    0    0    0    0 -0.00000000000E+00 -0.00000000000E+00 -0.45593999997E+02  0.45594000000E+02  0.51100000000E-03 0.  1.
    9900012    2    1    2    0    0  0.21007511240E+02  0.39847002979E+02 -0.11996224496E+00  0.46142316901E+02  0.99999921584E+01 0.  0.
        -12    1    1    2    0    0 -0.21007511240E+02 -0.39847002979E+02  0.11996224496E+00  0.45045683099E+02  0.00000000000E+00 0.  1.
         11    1    3    3    0    0  0.90243574780E+01  0.10732701601E+02  0.21463498020E+01  0.14185793220E+02  0.51100000000E-03 0. -1.
        -11    1    3    3    0    0  0.71101493568E+00  0.70327502423E+01 -0.93284266673E-01  0.70692163939E+01  0.51100000000E-03 0.  1.
        -12    1    3    3    0    0  0.11272138826E+02  0.22081551136E+02 -0.21730277803E+01  0.24887307287E+02  0.00000000000E+00 0.  1.
</event>
<event>
 7    1  0.2031146E-008  0.4614232E+02  0.7816164E-02  0.1320468E+00
        -11   -1    0    0    0    0  0.00000000000E+00  0.00000000000E+00  0.45593999997E+02  0.45594000000E+02  0.51100000000E-03 0.  1.
         11   -1    0    0    0    0 -0.00000000000E+00 -0.00000000000E+00 -0.45593999997E+02  0.45594000000E+02  0.51100000000E-03 0. -1.
    9900012    2    1    2    0    0  0.22806102692E+02  0.23659275787E+02 -0.30809639669E+02  0.46142317107E+02  0.99999940372E+01 0.  0.
        -12    1    1    2    0    0 -0.22806102692E+02 -0.23659275787E+02  0.30809639669E+02  0.45045682893E+02  0.00000000000E+00 0.  1.
         11    1    3    3    0    0  0.10411130646E+02  0.53067894837E+01 -0.10257753757E+02  0.15549121144E+02  0.51100000000E-03 0. -1.
        -11    1    3    3    0    0  0.88370923837E+00  0.11074530629E+01 -0.25141563496E-01  0.14170485750E+01  0.51100000000E-03 0.  1.
         12    1    3    3    0    0  0.11511262808E+02  0.17245033240E+02 -0.20526744348E+02  0.29176147389E+02  0.00000000000E+00 0. -1.
</event>
<event>
 7    1  0.2031146E-008  0.4614232E+02  0.7816164E-02  0.1320468E+00
        -11   -1    0    0    0    0  0.00000000000E+00  0.00000000000E+00  0.45593999997E+02  0.45594000000E+02  0.51100000000E-03 0. -1.
         11   -1    0    0    0    0 -0.00000000000E+00 -0.00000000000E+00 -0.45593999997E+02  0.45594000000E+02  0.51100000000E-03 0.  1.
    9900012    2    1    2    0    0  0.11620021763E+02  0.30812891301E+02  0.30735231390E+02  0.46142316248E+02  0.99999862019E+01 0.  0.
        -12    1    1    2    0    0 -0.11620021763E+02 -0.30812891301E+02 -0.30735231390E+02  0.45045683752E+02  0.00000000000E+00 0.  1.
         11    1    3    3    0    0  0.25470926992E+01  0.11880806061E+02  0.13583250962E+02  0.18224871490E+02  0.51100000000E-03 0. -1.
        -11    1    3    3    0    0  0.14689488116E+01  0.55841682936E+01  0.85323871064E+01  0.10302542217E+02  0.51100000000E-03 0.  1.
        -12    1    3    3    0    0  0.76039802518E+01  0.13347916947E+02  0.86195933211E+01  0.17614902540E+02  0.00000000000E+00 0.  1.
</event>
<event>
 7    1  0.2031146E-008  0.4614232E+02  0.7816164E-02  0.1320468E+00
        -11   -1    0    0    0    0  0.00000000000E+00  0.00000000000E+00  0.45593999997E+02  0.45594000000E+02  0.51100000000E-03 0.  1.
         11   -1    0    0    0    0 -0.00000000000E+00 -0.00000000000E+00 -0.45593999997E+02  0.45594000000E+02  0.51100000000E-03 0. -1.
    9900012    2    1    2    0    0  0.72514085418E+01 -0.12512911530E+02 -0.42660963296E+02  0.46142315744E+02  0.99999816020E+01 0.  0.
        -12    1    1    2    0    0 -0.72514085418E+01  0.12512911530E+02  0.42660963296E+02  0.45045684256E+02  0.00000000000E+00 0.  1.
         11    1    3    3    0    0  0.26354697956E+01 -0.60741104752E+00 -0.24578371670E+01  0.36545332158E+01  0.51100000000E-03 0. -1.
        -11    1    3    3    0    0  0.17295368995E-01  0.19394248623E+00 -0.46100858423E+01  0.46141959812E+01  0.51100000000E-03 0.  1.
         12    1    3    3    0    0  0.45986433771E+01 -0.12099442968E+02 -0.35593040287E+02  0.37873586547E+02  0.00000000000E+00 0. -1.
</event>
<event>
 7    1  0.2031146E-008  0.4614232E+02  0.7816164E-02  0.1320468E+00
        -11   -1    0    0    0    0  0.00000000000E+00  0.00000000000E+00  0.45593999997E+02  0.45594000000E+02  0.51100000000E-03 0.  1.
         11   -1    0    0    0    0 -0.00000000000E+00 -0.00000000000E+00 -0.45593999997E+02  0.45594000000E+02  0.51100000000E-03 0. -1.
    9900012    2    1    2    0    0  0.24416069627E+02 -0.25039877398E+02 -0.28389673075E+02  0.46142318149E+02  0.10000003534E+02 0.  0.
        -12    1    1    2    0    0 -0.24416069627E+02  0.25039877398E+02  0.28389673075E+02  0.45045681851E+02  0.00000000000E+00 0.  1.
         11    1    3    3    0    0  0.20405758690E+02 -0.14876004971E+02 -0.19205217168E+02  0.31725870805E+02  0.51100000000E-03 0. -1.
        -11    1    3    3    0    0 -0.24514100474E-01 -0.13008313540E+01 -0.16645428171E+01  0.21126916963E+01  0.51100000000E-03 0.  1.
         12    1    3    3    0    0  0.40348250372E+01 -0.88630410729E+01 -0.75199130900E+01  0.12303755647E+02  0.00000000000E+00 0. -1.
</event>
<event>
 7    1  0.2031146E-008  0.4614232E+02  0.7816164E-02  0.1320468E+00
        -11   -1    0    0    0    0  0.00000000000E+00  0.00000000000E+00  0.45593999997E+02  0.45594000000E+02  0.51100000000E-03 0.  1.
         11   -1    0    0    0    0 -0.00000000000E+00 -0.00000000000E+00 -0.45593999997E+02  0.45594000000E+02  0.51100000000E-03 0. -1.
    9900012    2    1    2    0    0 -0.27654034665E+01 -0.29867934619E+02 -0.33606135946E+02  0.46142319320E+02  0.10000014212E+02 0.  0.
        -12    1    1    2    0    0  0.27654034665E+01  0.29867934619E+02  0.33606135946E+02  0.45045680680E+02  0.00000000000E+00 0.  1.
         11    1    3    3    0    0  0.23877755137E-01 -0.12077121273E+02 -0.15632706185E+02  0.19754466111E+02  0.51100000000E-03 0. -1.
        -11    1    3    3    0    0 -0.45813994698E+01 -0.71039659985E+01 -0.86228019432E+01  0.12075109425E+02  0.51100000000E-03 0.  1.
        -12    1    3    3    0    0  0.17921182482E+01 -0.10686847348E+02 -0.93506278176E+01  0.14312743784E+02  0.00000000000E+00 0.  1.
</event>
<event>
 7    1  0.2031146E-008  0.4614232E+02  0.7816164E-02  0.1320468E+00
        -11   -1    0    0    0    0  0.00000000000E+00  0.00000000000E+00  0.45593999997E+02  0.45594000000E+02  0.51100000000E-03 0.  1.
         11   -1    0    0    0    0 -0.00000000000E+00 -0.00000000000E+00 -0.45593999997E+02  0.45594000000E+02  0.51100000000E-03 0. -1.
    9900012    2    1    2    0    0  0.73581340049E+01  0.14650056248E+02 -0.41956490546E+02  0.46142318930E+02  0.10000010659E+02 0.  0.
        -12    1    1    2    0    0 -0.73581340049E+01 -0.14650056248E+02  0.41956490546E+02  0.45045681070E+02  0.00000000000E+00 0.  1.
         11    1    3    3    0    0  0.10872284030E+01  0.49091334913E+01 -0.86602876950E+01  0.10014102079E+02  0.51100000000E-03 0. -1.
        -11    1    3    3    0    0 -0.26458522958E+00  0.34475319227E+01 -0.18117886215E+02  0.18444871451E+02  0.51100000000E-03 0.  1.
        -12    1    3    3    0    0  0.65354908315E+01  0.62933908343E+01 -0.15178316636E+02  0.17683345399E+02  0.00000000000E+00 0.  1.
</event>
<event>
 7    1  0.2031146E-008  0.4614232E+02  0.7816164E-02  0.1320468E+00
        -11   -1    0    0    0    0  0.00000000000E+00  0.00000000000E+00  0.45593999997E+02  0.45594000000E+02  0.51100000000E-03 0.  1.
         11   -1    0    0    0    0 -0.00000000000E+00 -0.00000000000E+00 -0.45593999997E+02  0.45594000000E+02  0.51100000000E-03 0. -1.
    9900012    2    1    2    0    0 -0.12209840245E+02 -0.19216451891E+02 -0.38868512372E+02  0.46142317897E+02  0.10000001241E+02 0.  0.
        -12    1    1    2    0    0  0.12209840245E+02  0.19216451891E+02  0.38868512372E+02  0.45045682103E+02  0.00000000000E+00 0.  1.
         11    1    3    3    0    0 -0.46561589252E+01 -0.28993932161E+01 -0.67658673350E+01  0.87099516654E+01  0.51100000000E-03 0. -1.
        -11    1    3    3    0    0 -0.54360373283E+01 -0.77292456413E+01 -0.10706739504E+02  0.14280266492E+02  0.51100000000E-03 0.  1.
         12    1    3    3    0    0 -0.21176439915E+01 -0.85878130332E+01 -0.21395905533E+02  0.23152099739E+02  0.00000000000E+00 0. -1.
</event>
<event>
 7    1  0.2031146E-008  0.4614232E+02  0.7816164E-02  0.1320468E+00
        -11   -1    0    0    0    0  0.00000000000E+00  0.00000000000E+00  0.45593999997E+02  0.45594000000E+02  0.51100000000E-03 0.  1.
         11   -1    0    0    0    0 -0.00000000000E+00 -0.00000000000E+00 -0.45593999997E+02  0.45594000000E+02  0.51100000000E-03 0. -1.
    9900012    2    1    2    0    0  0.18110574498E+02 -0.16144587477E+02 -0.37953563601E+02  0.46142316483E+02  0.99999883475E+01 0.  0.
        -12    1    1    2    0    0 -0.18110574498E+02  0.16144587477E+02  0.37953563601E+02  0.45045683517E+02  0.00000000000E+00 0.  1.
         11    1    3    3    0    0  0.64580619450E+01 -0.84814684705E+01 -0.18781302815E+02  0.21595814576E+02  0.51100000000E-03 0. -1.
        -11    1    3    3    0    0  0.18818115475E+01 -0.32092470617E+01 -0.18226649199E+01  0.41427755279E+01  0.51100000000E-03 0.  1.
         12    1    3    3    0    0  0.97707010060E+01 -0.44538719447E+01 -0.17349595866E+02  0.20403726380E+02  0.00000000000E+00 0. -1.
</event>
<event>
 7    1  0.2031146E-008  0.4614232E+02  0.7816164E-02  0.1320468E+00
        -11   -1    0    0    0    0  0.00000000000E+00  0.00000000000E+00  0.45593999997E+02  0.45594000000E+02  0.51100000000E-03 0.  1.
         11   -1    0    0    0    0 -0.00000000000E+00 -0.00000000000E+00 -0.45593999997E+02  0.45594000000E+02  0.51100000000E-03 0. -1.
    9900012    2    1    2    0    0 -0.24586495209E+02  0.25146931649E+02 -0.28146930662E+02  0.46142316259E+02  0.99999863015E+01 0.  0.
        -12    1    1    2    0    0  0.24586495209E+02 -0.25146931649E+02  0.28146930662E+02  0.45045683741E+02  0.00000000000E+00 0.  1.
         11    1    3    3    0    0 -0.22557154777E+01  0.68760035173E+01 -0.55268883960E+01  0.91057219532E+01  0.51100000000E-03 0. -1.
        -11    1    3    3    0    0 -0.13638720430E+02  0.14329440267E+02 -0.15279375076E+02  0.24996136828E+02  0.51100000000E-03 0.  1.
        -12    1    3    3    0    0 -0.86920593016E+01  0.39414878645E+01 -0.73406671897E+01  0.12040457478E+02  0.00000000000E+00 0.  1.
</event>
<event>
 7    1  0.2031146E-008  0.4614232E+02  0.7816164E-02  0.1320468E+00
        -11   -1    0    0    0    0  0.00000000000E+00  0.00000000000E+00  0.45593999997E+02  0.45594000000E+02  0.51100000000E-03 0.  1.
         11   -1    0    0    0    0 -0.00000000000E+00 -0.00000000000E+00 -0.45593999997E+02  0.45594000000E+02  0.51100000000E-03 0. -1.
    9900012    2    1    2    0    0  0.37720006487E+02  0.22918745275E+02 -0.90025372582E+01  0.46142318171E+02  0.10000003739E+02 0.  0.
        -12    1    1    2    0    0 -0.37720006487E+02 -0.22918745275E+02  0.90025372582E+01  0.45045681829E+02  0.00000000000E+00 0.  1.
         11    1    3    3    0    0  0.36828418463E+00  0.97902546249E+00 -0.15762282484E+01  0.18917240415E+01  0.51100000000E-03 0. -1.
        -11    1    3    3    0    0  0.12198486313E+02  0.57616634103E+01 -0.44046081645E+01  0.14191561116E+02  0.51100000000E-03 0.  1.
        -12    1    3    3    0    0  0.25153235989E+02  0.16178056402E+02 -0.30217008453E+01  0.30059033013E+02  0.00000000000E+00 0.  1.
</event>
<event>
 7    1  0.2031146E-008  0.4614232E+02  0.7816164E-02  0.1320468E+00
        -11   -1    0    0    0    0  0.00000000000E+00  0.00000000000E+00  0.45593999997E+02  0.45594000000E+02  0.51100000000E-03 0. -1.
         11   -1    0    0    0    0 -0.00000000000E+00 -0.00000000000E+00 -0.45593999997E+02  0.45594000000E+02  0.51100000000E-03 0.  1.
    9900012    2    1    2    0    0  0.14463210134E+02  0.17351059351E+02  0.38972678384E+02  0.46142319092E+02  0.10000012140E+02 0.  0.
        -12    1    1    2    0    0 -0.14463210134E+02 -0.17351059351E+02 -0.38972678384E+02  0.45045680908E+02  0.00000000000E+00 0.  1.
         11    1    3    3    0    0  0.85836451395E+01  0.11815622938E+02  0.26922819999E+02  0.30628845004E+02  0.51100000000E-03 0. -1.
        -11    1    3    3    0    0  0.66360024873E+01  0.59442399469E+01  0.11075414513E+02  0.14213913059E+02  0.51100000000E-03 0.  1.
        -12    1    3    3    0    0 -0.75643749294E+00 -0.40880353355E+00  0.97444387221E+00  0.12995610297E+01  0.00000000000E+00 0.  1.
</event>
<event>
 7    1  0.2031146E-008  0.4614232E+02  0.7816164E-02  0.1320468E+00
        -11   -1    0    0    0    0  0.00000000000E+00  0.00000000000E+00  0.45593999997E+02  0.45594000000E+02  0.51100000000E-03 0.  1.
         11   -1    0    0    0    0 -0.00000000000E+00 -0.00000000000E+00 -0.45593999997E+02  0.45594000000E+02  0.51100000000E-03 0. -1.
    9900012    2    1    2    0    0 -0.13388647673E+02 -0.21170901912E+02 -0.37438622670E+02  0.46142318279E+02  0.10000004722E+02 0.  0.
        -12    1    1    2    0    0  0.13388647673E+02  0.21170901912E+02  0.37438622670E+02  0.45045681721E+02  0.00000000000E+00 0.  1.
         11    1    3    3    0    0 -0.33061734758E+01 -0.18902812229E+01 -0.11501644710E+02  0.12115765657E+02  0.51100000000E-03 0. -1.
        -11    1    3    3    0    0 -0.12085895034E+01 -0.85394084064E+00 -0.10526953076E+01  0.18160592553E+01  0.51100000000E-03 0.  1.
         12    1    3    3    0    0 -0.88738846937E+01 -0.18426679849E+02 -0.24884282652E+02  0.32210493367E+02  0.00000000000E+00 0. -1.
</event>
<event>
 7    1  0.2031146E-008  0.4614232E+02  0.7816164E-02  0.1320468E+00
        -11   -1    0    0    0    0  0.00000000000E+00  0.00000000000E+00  0.45593999997E+02  0.45594000000E+02  0.51100000000E-03 0.  1.
         11   -1    0    0    0    0 -0.00000000000E+00 -0.00000000000E+00 -0.45593999997E+02  0.45594000000E+02  0.51100000000E-03 0. -1.
    9900012    2    1    2    0    0  0.17316374625E+02  0.39834641271E+02  0.11935577826E+02  0.46142317705E+02  0.99999994916E+01 0.  0.
        -12    1    1    2    0    0 -0.17316374625E+02 -0.39834641271E+02 -0.11935577826E+02  0.45045682295E+02  0.00000000000E+00 0.  1.
         11    1    3    3    0    0  0.48472537332E+01  0.39274474451E+01  0.27974356189E+01  0.68371308669E+01  0.51100000000E-03 0. -1.
        -11    1    3    3    0    0  0.15251606407E+00  0.53286996851E+00  0.72880473185E+00  0.91562445982E+00  0.51100000000E-03 0.  1.
        -12    1    3    3    0    0  0.12316604828E+02  0.35374323857E+02  0.84093374757E+01  0.38389562379E+02  0.00000000000E+00 0.  1.
</event>
<event>
 7    1  0.2031146E-008  0.4614232E+02  0.7816164E-02  0.1320468E+00
        -11   -1    0    0    0    0  0.00000000000E+00  0.00000000000E+00  0.45593999997E+02  0.45594000000E+02  0.51100000000E-03 0.  1.
         11   -1    0    0    0    0 -0.00000000000E+00 -0.00000000000E+00 -0.45593999997E+02  0.45594000000E+02  0.51100000000E-03 0. -1.
    9900012    2    1    2    0    0 -0.37692373875E+02 -0.72311916384E+01 -0.23581948155E+02  0.46142318080E+02  0.10000002907E+02 0.  0.
        -12    1    1    2    0    0  0.37692373875E+02  0.72311916384E+01  0.23581948155E+02  0.45045681920E+02  0.00000000000E+00 0.  1.
         11    1    3    3    0    0 -0.11189219360E+02 -0.26068618283E+00 -0.49024901508E+01  0.12218878718E+02  0.51100000000E-03 0. -1.
        -11    1    3    3    0    0 -0.63358269635E+01 -0.10478132413E+01 -0.10860196050E+01  0.65130679977E+01  0.51100000000E-03 0.  1.
         12    1    3    3    0    0 -0.20167327552E+02 -0.59226922143E+01 -0.17593438399E+02  0.27410371364E+02  0.00000000000E+00 0. -1.
</event>
<event>
 7    1  0.2031146E-008  0.4614232E+02  0.7816164E-02  0.1320468E+00
        -11   -1    0    0    0    0  0.00000000000E+00  0.00000000000E+00  0.45593999997E+02  0.45594000000E+02  0.51100000000E-03 0.  1.
         11   -1    0    0    0    0 -0.00000000000E+00 -0.00000000000E+00 -0.45593999997E+02  0.45594000000E+02  0.51100000000E-03 0. -1.
    9900012    2    1    2    0    0  0.10536176348E+02 -0.39481442934E+02 -0.18955688416E+02  0.46142317948E+02  0.10000001706E+02 0.  0.
        -12    1    1    2    0    0 -0.10536176348E+02  0.39481442934E+02  0.18955688416E+02  0.45045682052E+02  0.00000000000E+00 0.  1.
         11    1    3    3    0    0 -0.76122830723E+00 -0.67302589197E+00 -0.46075692539E+00  0.11156745011E+01  0.51100000000E-03 0.  1.
        -11    1    3    3    0    0  0.23382836983E+01 -0.19851445621E+02 -0.74832733859E+01  0.21343543397E+02  0.51100000000E-03 0. -1.
         12    1    3    3    0    0  0.89591209571E+01 -0.18956971421E+02 -0.11011658104E+02  0.23683100050E+02  0.00000000000E+00 0. -1.
</event>
<event>
 7    1  0.2031146E-008  0.4614232E+02  0.7816164E-02  0.1320468E+00
        -11   -1    0    0    0    0  0.00000000000E+00  0.00000000000E+00  0.45593999997E+02  0.45594000000E+02  0.51100000000E-03 0.  1.
         11   -1    0    0    0    0 -0.00000000000E+00 -0.00000000000E+00 -0.45593999997E+02  0.45594000000E+02  0.51100000000E-03 0. -1.
    9900012    2    1    2    0    0  0.34666739899E+02  0.51691813976E+01 -0.28295057745E+02  0.46142316696E+02  0.99999902860E+01 0.  0.
        -12    1    1    2    0    0 -0.34666739899E+02 -0.51691813976E+01  0.28295057745E+02  0.45045683304E+02  0.00000000000E+00 0.  1.
         11    1    3    3    0    0  0.23499210973E+02  0.41525603682E+01 -0.20427123670E+02  0.31412164135E+02  0.51100000000E-03 0. -1.
        -11    1    3    3    0    0  0.51194230842E+01 -0.16163795186E+01 -0.15298018777E+01  0.55822459198E+01  0.51100000000E-03 0.  1.
        -12    1    3    3    0    0  0.60481058417E+01  0.26330005479E+01 -0.63381321975E+01  0.91479066410E+01  0.00000000000E+00 0.  1.
</event>
<event>
 7    1  0.2031146E-008  0.4614232E+02  0.7816164E-02  0.1320468E+00
        -11   -1    0    0    0    0  0.00000000000E+00  0.00000000000E+00  0.45593999997E+02  0.45594000000E+02  0.51100000000E-03 0.  1.
         11   -1    0    0    0    0 -0.00000000000E+00 -0.00000000000E+00 -0.45593999997E+02  0.45594000000E+02  0.51100000000E-03 0. -1.
    9900012    2    1    2    0    0  0.40342290277E+02 -0.15571786153E+02  0.12614776188E+02  0.46142317776E+02  0.10000000133E+02 0.  0.
        -12    1    1    2    0    0 -0.40342290277E+02  0.15571786153E+02 -0.12614776188E+02  0.45045682224E+02  0.00000000000E+00 0.  1.
         11    1    3    3    0    0  0.12372643992E+02 -0.34597229024E+01  0.34907449259E+01  0.13313050075E+02  0.51100000000E-03 0. -1.
        -11    1    3    3    0    0  0.26610641984E+01 -0.85978928551E-01 -0.12612416103E+01  0.29460797180E+01  0.51100000000E-03 0.  1.
        -12    1    3    3    0    0  0.25308582087E+02 -0.12026084322E+02  0.10385272872E+02  0.29883187982E+02  0.00000000000E+00 0.  1.
</event>
<event>
 7    1  0.2031146E-008  0.4614232E+02  0.7816164E-02  0.1320468E+00
        -11   -1    0    0    0    0  0.00000000000E+00  0.00000000000E+00  0.45593999997E+02  0.45594000000E+02  0.51100000000E-03 0. -1.
         11   -1    0    0    0    0 -0.00000000000E+00 -0.00000000000E+00 -0.45593999997E+02  0.45594000000E+02  0.51100000000E-03 0.  1.
    9900012    2    1    2    0    0  0.15734734548E+02  0.34886339419E+02  0.23758681351E+02  0.46142317755E+02  0.99999999429E+01 0.  0.
        -12    1    1    2    0    0 -0.15734734548E+02 -0.34886339419E+02 -0.23758681351E+02  0.45045682245E+02  0.00000000000E+00 0.  1.
         11    1    3    3    0    0  0.76454400645E+01  0.19393361408E+02  0.15967727968E+02  0.26258780574E+02  0.51100000000E-03 0. -1.
        -11    1    3    3    0    0  0.49217807310E+01  0.39376272351E+01  0.23920322476E+01  0.67417098974E+01  0.51100000000E-03 0.  1.
         12    1    3    3    0    0  0.31675137524E+01  0.11555350776E+02  0.53989211359E+01  0.13141827284E+02  0.00000000000E+00 0. -1.
</event>
<event>
 7    1  0.2031146E-008  0.4614232E+02  0.7816164E-02  0.1320468E+00
        -11   -1    0    0    0    0  0.00000000000E+00  0.00000000000E+00  0.45593999997E+02  0.45594000000E+02  0.51100000000E-03 0.  1.
         11   -1    0    0    0    0 -0.00000000000E+00 -0.00000000000E+00 -0.45593999997E+02  0.45594000000E+02  0.51100000000E-03 0. -1.
    9900012    2    1    2    0    0  0.42638574805E+01 -0.38532310319E+02 -0.22938925498E+02  0.46142315166E+02  0.99999763389E+01 0.  0.
        -12    1    1    2    0    0 -0.42638574805E+01  0.38532310319E+02  0.22938925498E+02  0.45045684834E+02  0.00000000000E+00 0.  1.
         11    1    3    3    0    0 -0.29225084253E+00 -0.23420621414E+02 -0.10482055748E+02  0.25660951092E+02  0.51100000000E-03 0. -1.
        -11    1    3    3    0    0  0.28703579884E+01 -0.13691515671E+02 -0.11352279447E+02  0.18015848724E+02  0.51100000000E-03 0.  1.
        -12    1    3    3    0    0  0.16857503346E+01 -0.14201732343E+01 -0.11045903032E+01  0.24655153506E+01  0.00000000000E+00 0.  1.
</event>
<event>
 7    1  0.2031146E-008  0.4614232E+02  0.7816164E-02  0.1320468E+00
        -11   -1    0    0    0    0  0.00000000000E+00  0.00000000000E+00  0.45593999997E+02  0.45594000000E+02  0.51100000000E-03 0. -1.
         11   -1    0    0    0    0 -0.00000000000E+00 -0.00000000000E+00 -0.45593999997E+02  0.45594000000E+02  0.51100000000E-03 0.  1.
    9900012    2    1    2    0    0 -0.29974775647E+02 -0.33143877070E+02 -0.56665399898E+01  0.46142318323E+02  0.10000005120E+02 0.  0.
        -12    1    1    2    0    0  0.29974775647E+02  0.33143877070E+02  0.56665399898E+01  0.45045681677E+02  0.00000000000E+00 0.  1.
         11    1    3    3    0    0 -0.12384389233E+02 -0.16718432580E+02 -0.48517685274E+01  0.21363958966E+02  0.51100000000E-03 0. -1.
        -11    1    3    3    0    0 -0.14127710028E+02 -0.15736327962E+02  0.31796473349E-01  0.21147700103E+02  0.51100000000E-03 0.  1.
        -12    1    3    3    0    0 -0.34626763863E+01 -0.68911652779E+00 -0.84656793572E+00  0.36306592535E+01  0.00000000000E+00 0.  1.
</event>
<event>
 7    1  0.2031146E-008  0.4614231E+02  0.7816164E-02  0.1320468E+00
        -11   -1    0    0    0    0  0.00000000000E+00  0.00000000000E+00  0.45593999997E+02  0.45594000000E+02  0.51100000000E-03 0. -1.
         11   -1    0    0    0    0 -0.00000000000E+00 -0.00000000000E+00 -0.45593999997E+02  0.45594000000E+02  0.51100000000E-03 0.  1.
    9900012    2    1    2    0    0  0.23087933534E+02 -0.17532673826E+02  0.34477044727E+02  0.46142312754E+02  0.99999543420E+01 0.  0.
        -12    1    1    2    0    0 -0.23087933534E+02  0.17532673826E+02 -0.34477044727E+02  0.45045687246E+02  0.00000000000E+00 0.  1.
         11    1    3    3    0    0  0.79115495307E+01 -0.63998888784E+01  0.18387552276E+02  0.21015548353E+02  0.51100000000E-03 0. -1.
        -11    1    3    3    0    0  0.18515666088E+01 -0.34335582389E+01  0.29403486300E+01  0.48850047506E+01  0.51100000000E-03 0.  1.
        -12    1    3    3    0    0  0.13324817394E+02 -0.76992267090E+01  0.13149143821E+02  0.20241759650E+02  0.00000000000E+00 0.  1.
</event>
<event>
 7    1  0.2031146E-008  0.4614232E+02  0.7816164E-02  0.1320468E+00
        -11   -1    0    0    0    0  0.00000000000E+00  0.00000000000E+00  0.45593999997E+02  0.45594000000E+02  0.51100000000E-03 0. -1.
         11   -1    0    0    0    0 -0.00000000000E+00 -0.00000000000E+00 -0.45593999997E+02  0.45594000000E+02  0.51100000000E-03 0.  1.
    9900012    2    1    2    0    0 -0.31433627500E+02  0.83134210958E+01  0.31175753514E+02  0.46142317462E+02  0.99999972749E+01 0.  0.
        -12    1    1    2    0    0  0.31433627500E+02 -0.83134210958E+01 -0.31175753514E+02  0.45045682538E+02  0.00000000000E+00 0.  1.
         11    1    3    3    0    0 -0.83022661238E+01  0.80206379028E+00  0.67419329358E+01  0.10724951706E+02  0.51100000000E-03 0. -1.
        -11    1    3    3    0    0 -0.12908669319E+02  0.15286402126E+00  0.14174680984E+02  0.19172341856E+02  0.51100000000E-03 0.  1.
        -12    1    3    3    0    0 -0.10222692058E+02  0.73584932842E+01  0.10259139594E+02  0.16245023900E+02  0.00000000000E+00 0.  1.
</event>
<event>
 7    1  0.2031146E-008  0.4614232E+02  0.7816164E-02  0.1320468E+00
        -11   -1    0    0    0    0  0.00000000000E+00  0.00000000000E+00  0.45593999997E+02  0.45594000000E+02  0.51100000000E-03 0.  1.
         11   -1    0    0    0    0 -0.00000000000E+00 -0.00000000000E+00 -0.45593999997E+02  0.45594000000E+02  0.51100000000E-03 0. -1.
    9900012    2    1    2    0    0 -0.86455465719E+01  0.43349736249E+02 -0.86699643575E+01  0.46142318849E+02  0.10000009918E+02 0.  0.
        -12    1    1    2    0    0  0.86455465719E+01 -0.43349736249E+02  0.86699643575E+01  0.45045681151E+02  0.00000000000E+00 0.  1.
         11    1    3    3    0    0 -0.35313550066E+01  0.18833486849E+02 -0.22782366583E+01  0.19296659235E+02  0.51100000000E-03 0. -1.
        -11    1    3    3    0    0 -0.42731239034E+01  0.23700232601E+02 -0.43218887586E+01  0.24467107225E+02  0.51100000000E-03 0.  1.
        -12    1    3    3    0    0 -0.84106766193E+00  0.81601679858E+00 -0.20698389406E+01  0.23785523890E+01  0.00000000000E+00 0.  1.
</event>
<event>
 7    1  0.2031146E-008  0.4614232E+02  0.7816164E-02  0.1320468E+00
        -11   -1    0    0    0    0  0.00000000000E+00  0.00000000000E+00  0.45593999997E+02  0.45594000000E+02  0.51100000000E-03 0. -1.
         11   -1    0    0    0    0 -0.00000000000E+00 -0.00000000000E+00 -0.45593999997E+02  0.45594000000E+02  0.51100000000E-03 0.  1.
    9900012    2    1    2    0    0  0.14153176674E+02  0.41075304079E+02  0.11900440893E+02  0.46142317536E+02  0.99999979513E+01 0.  0.
        -12    1    1    2    0    0 -0.14153176674E+02 -0.41075304079E+02 -0.11900440893E+02  0.45045682464E+02  0.00000000000E+00 0.  1.
         11    1    3    3    0    0  0.10414927060E+02  0.28958566860E+02  0.47175959055E+01  0.31133984833E+02  0.51100000000E-03 0.  1.
        -11    1    3    3    0    0  0.35700141098E+01  0.98162351652E+01  0.42492715432E+01  0.11276514642E+02  0.51100000000E-03 0. -1.
        -12    1    3    3    0    0  0.16823550433E+00  0.23005020545E+01  0.29335734443E+01  0.37318180610E+01  0.00000000000E+00 0.  1.
</event>
<event>
 7    1  0.2031146E-008  0.4614232E+02  0.7816164E-02  0.1320468E+00
        -11   -1    0    0    0    0  0.00000000000E+00  0.00000000000E+00  0.45593999997E+02  0.45594000000E+02  0.51100000000E-03 0. -1.
         11   -1    0    0    0    0 -0.00000000000E+00 -0.00000000000E+00 -0.45593999997E+02  0.45594000000E+02  0.51100000000E-03 0.  1.
    9900012    2    1    2    0    0 -0.40431253541E+02  0.17205952859E+02  0.99187896275E+01  0.46142318027E+02  0.10000002427E+02 0.  0.
        -12    1    1    2    0    0  0.40431253541E+02 -0.17205952859E+02 -0.99187896275E+01  0.45045681973E+02  0.00000000000E+00 0.  1.
         11    1    3    3    0    0 -0.15945597200E+02  0.99895973341E+01  0.25218820710E+01  0.18984573063E+02  0.51100000000E-03 0. -1.
        -11    1    3    3    0    0 -0.10276042691E+01  0.10553625682E+01 -0.64163894257E+00  0.16066927142E+01  0.51100000000E-03 0.  1.
        -12    1    3    3    0    0 -0.23458052073E+02  0.61609929567E+01  0.80385464991E+01  0.25551052250E+02  0.00000000000E+00 0.  1.
</event>
<event>
 7    1  0.2031146E-008  0.4614232E+02  0.7816164E-02  0.1320468E+00
        -11   -1    0    0    0    0  0.00000000000E+00  0.00000000000E+00  0.45593999997E+02  0.45594000000E+02  0.51100000000E-03 0.  1.
         11   -1    0    0    0    0 -0.00000000000E+00 -0.00000000000E+00 -0.45593999997E+02  0.45594000000E+02  0.51100000000E-03 0. -1.
    9900012    2    1    2    0    0 -0.13913157686E+02 -0.24504892229E+02 -0.35143246916E+02  0.46142317590E+02  0.99999984403E+01 0.  0.
        -12    1    1    2    0    0  0.13913157686E+02  0.24504892229E+02  0.35143246916E+02  0.45045682410E+02  0.00000000000E+00 0.  1.
         11    1    3    3    0    0 -0.47252106254E+00 -0.30123462602E+01 -0.20218315081E+01  0.36585938629E+01  0.51100000000E-03 0.  1.
        -11    1    3    3    0    0 -0.10835505724E+02 -0.17137838064E+02 -0.20286013125E+02  0.28681631868E+02  0.51100000000E-03 0. -1.
         12    1    3    3    0    0 -0.26051308993E+01 -0.43547079055E+01 -0.12835402283E+02  0.13802091860E+02  0.00000000000E+00 0. -1.
</event>
<event>
 7    1  0.2163678E-008  0.4614232E+02  0.7816164E-02  0.1320468E+00
        -11   -1    0    0    0    0  0.00000000000E+00  0.00000000000E+00  0.45593999997E+02  0.45594000000E+02  0.51100000000E-03 0.  1.
         11   -1    0    0    0    0 -0.00000000000E+00 -0.00000000000E+00 -0.45593999997E+02  0.45594000000E+02  0.51100000000E-03 0. -1.
    9900012    2    1    2    0    0  0.26502479444E+02  0.29186714597E+02 -0.21791462684E+02  0.46142316838E+02  0.99999915822E+01 0.  0.
        -12    1    1    2    0    0 -0.26502479444E+02 -0.29186714597E+02  0.21791462684E+02  0.45045683162E+02  0.00000000000E+00 0.  1.
         11    1    3    3    0    0  0.16015152439E+02  0.17187330374E+02 -0.14263209063E+02  0.27483241549E+02  0.51100000000E-03 0. -1.
        -11    1    3    3    0    0  0.77884627321E+01  0.67386165386E+01 -0.75100794196E+01  0.12746387635E+02  0.51100000000E-03 0.  1.
        -12    1    3    3    0    0  0.26988642729E+01  0.52607676845E+01 -0.18174201362E-01  0.59126876541E+01  0.00000000000E+00 0.  1.
</event>
<event>
 7    1  0.2031146E-008  0.4614232E+02  0.7816164E-02  0.1320468E+00
        -11   -1    0    0    0    0  0.00000000000E+00  0.00000000000E+00  0.45593999997E+02  0.45594000000E+02  0.51100000000E-03 0.  1.
         11   -1    0    0    0    0 -0.00000000000E+00 -0.00000000000E+00 -0.45593999997E+02  0.45594000000E+02  0.51100000000E-03 0. -1.
    9900012    2    1    2    0    0 -0.10311709395E+02 -0.30958087041E+02 -0.31054453235E+02  0.46142316859E+02  0.99999917755E+01 0.  0.
        -12    1    1    2    0    0  0.10311709395E+02  0.30958087041E+02  0.31054453235E+02  0.45045683141E+02  0.00000000000E+00 0.  1.
         11    1    3    3    0    0 -0.68824674509E+01 -0.10442859849E+02 -0.11232900536E+02  0.16810702982E+02  0.51100000000E-03 0. -1.
        -11    1    3    3    0    0  0.69687555571E+00 -0.32515735171E+00 -0.45776988489E-01  0.77036266609E+00  0.51100000000E-03 0.  1.
         12    1    3    3    0    0 -0.41261174996E+01 -0.20190069840E+02 -0.19775775711E+02  0.28561251211E+02  0.00000000000E+00 0. -1.
</event>
<event>
 7    1  0.2031146E-008  0.4614232E+02  0.7816164E-02  0.1320468E+00
        -11   -1    0    0    0    0  0.00000000000E+00  0.00000000000E+00  0.45593999997E+02  0.45594000000E+02  0.51100000000E-03 0.  1.
         11   -1    0    0    0    0 -0.00000000000E+00 -0.00000000000E+00 -0.45593999997E+02  0.45594000000E+02  0.51100000000E-03 0. -1.
    9900012    2    1    2    0    0  0.13193339384E+02  0.25499037983E+02 -0.34710925727E+02  0.46142317555E+02  0.99999981208E+01 0.  0.
        -12    1    1    2    0    0 -0.13193339384E+02 -0.25499037983E+02  0.34710925727E+02  0.45045682445E+02  0.00000000000E+00 0.  1.
         11    1    3    3    0    0  0.26950700778E+01  0.89871022007E+00 -0.30872245323E+01  0.41954783229E+01  0.51100000000E-03 0. -1.
        -11    1    3    3    0    0  0.11026331278E+02  0.24658580246E+02 -0.31192971977E+02  0.41262901767E+02  0.51100000000E-03 0.  1.
        -12    1    3    3    0    0 -0.52806197162E+00 -0.58252483710E-01 -0.43072921713E+00  0.68393746513E+00  0.00000000000E+00 0.  1.
</event>
<event>
 7    1  0.2031146E-008  0.4614232E+02  0.7816164E-02  0.1320468E+00
        -11   -1    0    0    0    0  0.00000000000E+00  0.00000000000E+00  0.45593999997E+02  0.45594000000E+02  0.51100000000E-03 0. -1.
         11   -1    0    0    0    0 -0.00000000000E+00 -0.00000000000E+00 -0.45593999997E+02  0.45594000000E+02  0.51100000000E-03 0.  1.
    9900012    2    1    2    0    0 -0.32997088025E+02  0.10635753616E+02  0.28760847956E+02  0.46142318206E+02  0.10000004061E+02 0.  0.
        -12    1    1    2    0    0  0.32997088025E+02 -0.10635753616E+02 -0.28760847956E+02  0.45045681794E+02  0.00000000000E+00 0.  1.
         11    1    3    3    0    0 -0.61953106099E+01  0.50351291001E+00  0.56484237924E+01  0.83988148213E+01  0.51100000000E-03 0. -1.
        -11    1    3    3    0    0 -0.19042165522E+02  0.74733184222E+01  0.20906456334E+02  0.29249520897E+02  0.51100000000E-03 0.  1.
        -12    1    3    3    0    0 -0.77596118929E+01  0.26589222839E+01  0.22059678295E+01  0.84939824879E+01  0.00000000000E+00 0.  1.
</event>
<event>
 7    1  0.2031146E-008  0.4614232E+02  0.7816164E-02  0.1320468E+00
        -11   -1    0    0    0    0  0.00000000000E+00  0.00000000000E+00  0.45593999997E+02  0.45594000000E+02  0.51100000000E-03 0. -1.
         11   -1    0    0    0    0 -0.00000000000E+00 -0.00000000000E+00 -0.45593999997E+02  0.45594000000E+02  0.51100000000E-03 0.  1.
    9900012    2    1    2    0    0 -0.87209896887E+01 -0.35367741724E+02  0.26498691518E+02  0.46142317987E+02  0.10000002058E+02 0.  0.
        -12    1    1    2    0    0  0.87209896887E+01  0.35367741724E+02 -0.26498691518E+02  0.45045682013E+02  0.00000000000E+00 0.  1.
         11    1    3    3    0    0 -0.18656498787E+01 -0.22744174630E+02  0.14399318049E+02  0.26983670796E+02  0.51100000000E-03 0. -1.
        -11    1    3    3    0    0 -0.30708121445E-01 -0.15820904005E+00  0.12991839128E+01  0.13091417759E+01  0.51100000000E-03 0.  1.
        -12    1    3    3    0    0 -0.68246316885E+01 -0.12465358054E+02  0.10800189557E+02  0.17849505415E+02  0.00000000000E+00 0.  1.
</event>
<event>
 7    1  0.2031146E-008  0.4614232E+02  0.7816164E-02  0.1320468E+00
        -11   -1    0    0    0    0  0.00000000000E+00  0.00000000000E+00  0.45593999997E+02  0.45594000000E+02  0.51100000000E-03 0. -1.
         11   -1    0    0    0    0 -0.00000000000E+00 -0.00000000000E+00 -0.45593999997E+02  0.45594000000E+02  0.51100000000E-03 0.  1.
    9900012    2    1    2    0    0  0.38364647367E+02  0.21888886962E+02  0.88398982436E+01  0.46142319397E+02  0.10000014916E+02 0.  0.
        -12    1    1    2    0    0 -0.38364647367E+02 -0.21888886962E+02 -0.88398982436E+01  0.45045680603E+02  0.00000000000E+00 0.  1.
         11    1    3    3    0    0  0.26005157702E+02  0.15853094084E+02  0.26368233045E+01  0.30570274067E+02  0.51100000000E-03 0. -1.
        -11    1    3    3    0    0  0.94933531684E+01  0.51788662904E+01  0.30727769534E+01  0.11242169226E+02  0.51100000000E-03 0.  1.
        -12    1    3    3    0    0  0.28661364970E+01  0.85692658680E+00  0.31302979857E+01  0.43298761037E+01  0.00000000000E+00 0.  1.
</event>
<event>
 7    1  0.2031146E-008  0.4614232E+02  0.7816164E-02  0.1320468E+00
        -11   -1    0    0    0    0  0.00000000000E+00  0.00000000000E+00  0.45593999997E+02  0.45594000000E+02  0.51100000000E-03 0.  1.
         11   -1    0    0    0    0 -0.00000000000E+00 -0.00000000000E+00 -0.45593999997E+02  0.45594000000E+02  0.51100000000E-03 0. -1.
    9900012    2    1    2    0    0 -0.34539421274E+02 -0.28649784483E+02 -0.39155541741E+01  0.46142319438E+02  0.10000015287E+02 0.  0.
        -12    1    1    2    0    0  0.34539421274E+02  0.28649784483E+02  0.39155541741E+01  0.45045680562E+02  0.00000000000E+00 0.  1.
         11    1    3    3    0    0 -0.87043182126E+01 -0.42591101143E+01  0.15014156493E+00  0.96916313003E+01  0.51100000000E-03 0. -1.
        -11    1    3    3    0    0  0.33288101065E+00  0.13353410217E+00 -0.14398679844E-01  0.35895502057E+00  0.51100000000E-03 0.  1.
         12    1    3    3    0    0 -0.26167984072E+02 -0.24524208471E+02 -0.40512970591E+01  0.36091733117E+02  0.00000000000E+00 0. -1.
</event>
<event>
 7    1  0.2031146E-008  0.4614232E+02  0.7816164E-02  0.1320468E+00
        -11   -1    0    0    0    0  0.00000000000E+00  0.00000000000E+00  0.45593999997E+02  0.45594000000E+02  0.51100000000E-03 0.  1.
         11   -1    0    0    0    0 -0.00000000000E+00 -0.00000000000E+00 -0.45593999997E+02  0.45594000000E+02  0.51100000000E-03 0. -1.
    9900012    2    1    2    0    0  0.27158875600E+02  0.29630487094E+02  0.20335760756E+02  0.46142318134E+02  0.10000003398E+02 0.  0.
        -12    1    1    2    0    0 -0.27158875600E+02 -0.29630487094E+02 -0.20335760756E+02  0.45045681866E+02  0.00000000000E+00 0.  1.
         11    1    3    3    0    0  0.38953172256E+01  0.72268609369E+01  0.67167401533E+01  0.10607337736E+02  0.51100000000E-03 0. -1.
        -11    1    3    3    0    0  0.33837021446E+01  0.52898868581E+01  0.46456112745E+01  0.78111489263E+01  0.51100000000E-03 0.  1.
        -12    1    3    3    0    0  0.19879856229E+02  0.17113739299E+02  0.89734093279E+01  0.27723831472E+02  0.00000000000E+00 0.  1.
</event>
<event>
 7    1  0.2031146E-008  0.4614233E+02  0.7816164E-02  0.1320468E+00
        -11   -1    0    0    0    0  0.00000000000E+00  0.00000000000E+00  0.45593999997E+02  0.45594000000E+02  0.51100000000E-03 0. -1.
         11   -1    0    0    0    0 -0.00000000000E+00 -0.00000000000E+00 -0.45593999997E+02  0.45594000000E+02  0.51100000000E-03 0.  1.
    9900012    2    1    2    0    0  0.33255679483E+02 -0.20859922235E+02  0.22091539990E+02  0.46142326372E+02  0.10000078518E+02 0.  0.
        -12    1    1    2    0    0 -0.33255679483E+02  0.20859922235E+02 -0.22091539990E+02  0.45045673628E+02  0.00000000000E+00 0.  1.
         11    1    3    3    0    0  0.65914433619E+01 -0.49203612228E+01  0.47269884694E+01  0.94869120586E+01  0.51100000000E-03 0. -1.
        -11    1    3    3    0    0  0.16949903993E+02 -0.12722063623E+02  0.15493183587E+02  0.26252407244E+02  0.51100000000E-03 0.  1.
         12    1    3    3    0    0  0.97143321277E+01 -0.32174973893E+01  0.18713679338E+01  0.10403007069E+02  0.00000000000E+00 0. -1.
</event>
<event>
 7    1  0.2031146E-008  0.4614232E+02  0.7816164E-02  0.1320468E+00
        -11   -1    0    0    0    0  0.00000000000E+00  0.00000000000E+00  0.45593999997E+02  0.45594000000E+02  0.51100000000E-03 0.  1.
         11   -1    0    0    0    0 -0.00000000000E+00 -0.00000000000E+00 -0.45593999997E+02  0.45594000000E+02  0.51100000000E-03 0. -1.
    9900012    2    1    2    0    0 -0.38908522488E+02 -0.14160089731E+02 -0.17740694175E+02  0.46142317707E+02  0.99999995078E+01 0.  0.
        -12    1    1    2    0    0  0.38908522488E+02  0.14160089731E+02  0.17740694175E+02  0.45045682293E+02  0.00000000000E+00 0.  1.
         11    1    3    3    0    0 -0.21767420045E+02 -0.11548049161E+02 -0.81854092120E+01  0.25964955980E+02  0.51100000000E-03 0. -1.
        -11    1    3    3    0    0 -0.49203419323E+01 -0.23610811589E+01 -0.39084917004E+01  0.67127324245E+01  0.51100000000E-03 0.  1.
        -12    1    3    3    0    0 -0.12220760511E+02 -0.25095941142E+00 -0.56467932621E+01  0.13464629302E+02  0.00000000000E+00 0.  1.
</event>
<event>
 7    1  0.2031146E-008  0.4614232E+02  0.7816164E-02  0.1320468E+00
        -11   -1    0    0    0    0  0.00000000000E+00  0.00000000000E+00  0.45593999997E+02  0.45594000000E+02  0.51100000000E-03 0.  1.
         11   -1    0    0    0    0 -0.00000000000E+00 -0.00000000000E+00 -0.45593999997E+02  0.45594000000E+02  0.51100000000E-03 0. -1.
    9900012    2    1    2    0    0  0.13809145848E+02 -0.96793461418E+01 -0.41769980492E+02  0.46142317398E+02  0.99999966894E+01 0.  0.
        -12    1    1    2    0    0 -0.13809145848E+02  0.96793461418E+01  0.41769980492E+02  0.45045682602E+02  0.00000000000E+00 0.  1.
         11    1    3    3    0    0  0.12170661997E+01 -0.21245152627E+00 -0.11598060373E+02  0.11663678256E+02  0.51100000000E-03 0. -1.
        -11    1    3    3    0    0  0.88853147126E+01 -0.57634410195E+01 -0.14514074100E+02  0.17967315246E+02  0.51100000000E-03 0.  1.
        -12    1    3    3    0    0  0.37067649360E+01 -0.37034535960E+01 -0.15657846019E+02  0.16511323896E+02  0.00000000000E+00 0.  1.
</event>
<event>
 7    1  0.2031146E-008  0.4614232E+02  0.7816164E-02  0.1320468E+00
        -11   -1    0    0    0    0  0.00000000000E+00  0.00000000000E+00  0.45593999997E+02  0.45594000000E+02  0.51100000000E-03 0.  1.
         11   -1    0    0    0    0 -0.00000000000E+00 -0.00000000000E+00 -0.45593999997E+02  0.45594000000E+02  0.51100000000E-03 0. -1.
    9900012    2    1    2    0    0  0.20046975563E+02 -0.10646153380E+02 -0.38908761204E+02  0.46142317527E+02  0.99999978645E+01 0.  0.
        -12    1    1    2    0    0 -0.20046975563E+02  0.10646153380E+02  0.38908761204E+02  0.45045682473E+02  0.00000000000E+00 0.  1.
         11    1    3    3    0    0  0.14055618415E+02 -0.85096332951E+01 -0.33483891086E+02  0.37298059338E+02  0.51100000000E-03 0. -1.
        -11    1    3    3    0    0  0.25254526151E+01 -0.24164513552E+01 -0.29850522739E+01  0.45964862016E+01  0.51100000000E-03 0.  1.
        -12    1    3    3    0    0  0.34659045321E+01  0.27993127003E+00 -0.24398178445E+01  0.42477719873E+01  0.00000000000E+00 0.  1.
</event>
<event>
 7    1  0.2031146E-008  0.4614232E+02  0.7816164E-02  0.1320468E+00
        -11   -1    0    0    0    0  0.00000000000E+00  0.00000000000E+00  0.45593999997E+02  0.45594000000E+02  0.51100000000E-03 0. -1.
         11   -1    0    0    0    0 -0.00000000000E+00 -0.00000000000E+00 -0.45593999997E+02  0.45594000000E+02  0.51100000000E-03 0.  1.
    9900012    2    1    2    0    0  0.22861784964E+02  0.38789466497E+02 -0.13526349610E+01  0.46142317141E+02  0.99999943490E+01 0.  0.
        -12    1    1    2    0    0 -0.22861784964E+02 -0.38789466497E+02  0.13526349610E+01  0.45045682859E+02  0.00000000000E+00 0.  1.
         11    1    3    3    0    0  0.13062948607E+02  0.21270776481E+02 -0.31840177803E+01  0.25163952946E+02  0.51100000000E-03 0. -1.
        -11    1    3    3    0    0  0.67458932933E+01  0.98592163501E+01  0.37341287297E+01  0.12516187159E+02  0.51100000000E-03 0.  1.
        -12    1    3    3    0    0  0.30529430637E+01  0.76594736665E+01 -0.19027459103E+01  0.84621770365E+01  0.00000000000E+00 0.  1.
</event>
<event>
 7    1  0.2031146E-008  0.4614232E+02  0.7816164E-02  0.1320468E+00
        -11   -1    0    0    0    0  0.00000000000E+00  0.00000000000E+00  0.45593999997E+02  0.45594000000E+02  0.51100000000E-03 0.  1.
         11   -1    0    0    0    0 -0.00000000000E+00 -0.00000000000E+00 -0.45593999997E+02  0.45594000000E+02  0.51100000000E-03 0. -1.
    9900012    2    1    2    0    0  0.15590430106E+02  0.27985914526E+02 -0.31667658716E+02  0.46142317285E+02  0.99999956570E+01 0.  0.
        -12    1    1    2    0    0 -0.15590430106E+02 -0.27985914526E+02  0.31667658716E+02  0.45045682715E+02  0.00000000000E+00 0.  1.
         11    1    3    3    0    0  0.38282144744E+01  0.97264593212E+01 -0.13640951838E+02  0.17185307803E+02  0.51100000000E-03 0. -1.
        -11    1    3    3    0    0  0.27057495993E+01  0.80220321996E+01 -0.10014063460E+02  0.13113182251E+02  0.51100000000E-03 0.  1.
         12    1    3    3    0    0  0.90564660320E+01  0.10237423005E+02 -0.80126434187E+01  0.15843827231E+02  0.00000000000E+00 0. -1.
</event>
<event>
 7    1  0.2031146E-008  0.4614232E+02  0.7816164E-02  0.1320468E+00
        -11   -1    0    0    0    0  0.00000000000E+00  0.00000000000E+00  0.45593999997E+02  0.45594000000E+02  0.51100000000E-03 0.  1.
         11   -1    0    0    0    0 -0.00000000000E+00 -0.00000000000E+00 -0.45593999997E+02  0.45594000000E+02  0.51100000000E-03 0. -1.
    9900012    2    1    2    0    0  0.31523972569E+02  0.31362443686E+02  0.71937474748E+01  0.46142315154E+02  0.99999762306E+01 0.  0.
        -12    1    1    2    0    0 -0.31523972569E+02 -0.31362443686E+02 -0.71937474748E+01  0.45045684846E+02  0.00000000000E+00 0.  1.
         11    1    3    3    0    0  0.11359157224E+02  0.14683141552E+02  0.29613172943E+01  0.18798789829E+02  0.51100000000E-03 0. -1.
        -11    1    3    3    0    0  0.68236290349E+00  0.72502197119E+00 -0.12239011989E+01  0.15777231686E+01  0.51100000000E-03 0.  1.
         12    1    3    3    0    0  0.19482452441E+02  0.15954280163E+02  0.54563313795E+01  0.25765802157E+02  0.00000000000E+00 0. -1.
</event>
<event>
 7    1  0.2031146E-008  0.4614232E+02  0.7816164E-02  0.1320468E+00
        -11   -1    0    0    0    0  0.00000000000E+00  0.00000000000E+00  0.45593999997E+02  0.45594000000E+02  0.51100000000E-03 0. -1.
         11   -1    0    0    0    0 -0.00000000000E+00 -0.00000000000E+00 -0.45593999997E+02  0.45594000000E+02  0.51100000000E-03 0.  1.
    9900012    2    1    2    0    0  0.59544020664E+01 -0.32330303550E+02  0.30796268004E+02  0.46142317026E+02  0.99999932969E+01 0.  0.
        -12    1    1    2    0    0 -0.59544020664E+01  0.32330303550E+02 -0.30796268004E+02  0.45045682974E+02  0.00000000000E+00 0.  1.
         11    1    3    3    0    0  0.16590855360E+01 -0.16357352351E+02  0.16385601319E+02  0.23212140607E+02  0.51100000000E-03 0. -1.
        -11    1    3    3    0    0  0.52796000028E+01 -0.72853436751E+01  0.84930408264E+01  0.12372637204E+02  0.51100000000E-03 0.  1.
        -12    1    3    3    0    0 -0.98428347244E+00 -0.86876075244E+01  0.59176258589E+01  0.10557539214E+02  0.00000000000E+00 0.  1.
</event>
<event>
 7    1  0.2031146E-008  0.4614232E+02  0.7816164E-02  0.1320468E+00
        -11   -1    0    0    0    0  0.00000000000E+00  0.00000000000E+00  0.45593999997E+02  0.45594000000E+02  0.51100000000E-03 0.  1.
         11   -1    0    0    0    0 -0.00000000000E+00 -0.00000000000E+00 -0.45593999997E+02  0.45594000000E+02  0.51100000000E-03 0. -1.
    9900012    2    1    2    0    0  0.24510478320E+01  0.17122946240E+02 -0.41592193554E+02  0.46142317765E+02  0.10000000034E+02 0.  0.
        -12    1    1    2    0    0 -0.24510478320E+01 -0.17122946240E+02  0.41592193554E+02  0.45045682235E+02  0.00000000000E+00 0.  1.
         11    1    3    3    0    0 -0.79777450068E-01  0.12293324201E+02 -0.22568363637E+02  0.25699479019E+02  0.51100000000E-03 0.  1.
        -11    1    3    3    0    0 -0.14512849521E+01  0.24407248314E+01 -0.72977695410E+01  0.78307602600E+01  0.51100000000E-03 0. -1.
        -12    1    3    3    0    0  0.39821102342E+01  0.23888972079E+01 -0.11726060376E+02  0.12612078486E+02  0.00000000000E+00 0.  1.
</event>
<event>
 7    1  0.2031146E-008  0.4614232E+02  0.7816164E-02  0.1320468E+00
        -11   -1    0    0    0    0  0.00000000000E+00  0.00000000000E+00  0.45593999997E+02  0.45594000000E+02  0.51100000000E-03 0.  1.
         11   -1    0    0    0    0 -0.00000000000E+00 -0.00000000000E+00 -0.45593999997E+02  0.45594000000E+02  0.51100000000E-03 0. -1.
    9900012    2    1    2    0    0 -0.43578659137E+02 -0.10736412523E+02 -0.38397111274E+01  0.46142317992E+02  0.10000002105E+02 0.  0.
        -12    1    1    2    0    0  0.43578659137E+02  0.10736412523E+02  0.38397111274E+01  0.45045682008E+02  0.00000000000E+00 0.  1.
         11    1    3    3    0    0 -0.17740720018E+00 -0.66396274369E+00 -0.95444089384E-03  0.68725614712E+00  0.51100000000E-03 0. -1.
        -11    1    3    3    0    0 -0.85088801392E+01  0.12659325198E+01 -0.88688257089E+00  0.86481320136E+01  0.51100000000E-03 0.  1.
         12    1    3    3    0    0 -0.34892371797E+02 -0.11338382299E+02 -0.29518741156E+01  0.36806929831E+02  0.00000000000E+00 0. -1.
</event>
<event>
 7    1  0.2031146E-008  0.4614232E+02  0.7816164E-02  0.1320468E+00
        -11   -1    0    0    0    0  0.00000000000E+00  0.00000000000E+00  0.45593999997E+02  0.45594000000E+02  0.51100000000E-03 0.  1.
         11   -1    0    0    0    0 -0.00000000000E+00 -0.00000000000E+00 -0.45593999997E+02  0.45594000000E+02  0.51100000000E-03 0. -1.
    9900012    2    1    2    0    0 -0.17503350880E+01 -0.13866919738E+01 -0.44990297338E+02  0.46142318274E+02  0.10000004680E+02 0.  0.
        -12    1    1    2    0    0  0.17503350880E+01  0.13866919738E+01  0.44990297338E+02  0.45045681726E+02  0.00000000000E+00 0.  1.
         11    1    3    3    0    0 -0.33754388750E+01 -0.29915023692E+01 -0.18019909050E+02  0.18575785217E+02  0.51100000000E-03 0. -1.
        -11    1    3    3    0    0  0.26862386661E+01  0.13556487111E+01 -0.77251530927E+01  0.82904554861E+01  0.51100000000E-03 0.  1.
        -12    1    3    3    0    0 -0.10611348792E+01  0.24916168438E+00 -0.19245235196E+02  0.19276077571E+02  0.00000000000E+00 0.  1.
</event>
<event>
 7    1  0.2031146E-008  0.4614232E+02  0.7816164E-02  0.1320468E+00
        -11   -1    0    0    0    0  0.00000000000E+00  0.00000000000E+00  0.45593999997E+02  0.45594000000E+02  0.51100000000E-03 0.  1.
         11   -1    0    0    0    0 -0.00000000000E+00 -0.00000000000E+00 -0.45593999997E+02  0.45594000000E+02  0.51100000000E-03 0. -1.
    9900012    2    1    2    0    0 -0.27097273223E+02  0.68549385942E+01 -0.35325072004E+02  0.46142321946E+02  0.10000038157E+02 0.  0.
        -12    1    1    2    0    0  0.27097273223E+02 -0.68549385942E+01  0.35325072004E+02  0.45045678054E+02  0.00000000000E+00 0.  1.
         11    1    3    3    0    0 -0.61991257229E+01 -0.42051334158E+00 -0.59442400438E+01  0.85988360351E+01  0.51100000000E-03 0. -1.
        -11    1    3    3    0    0 -0.37368838512E+00 -0.14796253369E+00  0.43543384491E+00  0.59256967098E+00  0.51100000000E-03 0.  1.
         12    1    3    3    0    0 -0.20524459115E+02  0.74234144694E+01 -0.29816265806E+02  0.36950916240E+02  0.00000000000E+00 0. -1.
</event>
<event>
 7    1  0.2031146E-008  0.4614232E+02  0.7816164E-02  0.1320468E+00
        -11   -1    0    0    0    0  0.00000000000E+00  0.00000000000E+00  0.45593999997E+02  0.45594000000E+02  0.51100000000E-03 0.  1.
         11   -1    0    0    0    0 -0.00000000000E+00 -0.00000000000E+00 -0.45593999997E+02  0.45594000000E+02  0.51100000000E-03 0. -1.
    9900012    2    1    2    0    0 -0.25128070992E+02 -0.33398539314E+02 -0.16799737920E+02  0.46142316808E+02  0.99999913055E+01 0.  0.
        -12    1    1    2    0    0  0.25128070992E+02  0.33398539314E+02  0.16799737920E+02  0.45045683192E+02  0.00000000000E+00 0.  1.
         11    1    3    3    0    0 -0.16284608425E+02 -0.20760817714E+02 -0.71720240577E+01  0.27342968988E+02  0.51100000000E-03 0. -1.
        -11    1    3    3    0    0  0.15243577466E+00 -0.84641437937E+00  0.34551744964E+00  0.92684223907E+00  0.51100000000E-03 0.  1.
         12    1    3    3    0    0 -0.89958983416E+01 -0.11791307221E+02 -0.99732313115E+01  0.17872505581E+02  0.00000000000E+00 0. -1.
</event>
<event>
 7    1  0.2031146E-008  0.4614232E+02  0.7816164E-02  0.1320468E+00
        -11   -1    0    0    0    0  0.00000000000E+00  0.00000000000E+00  0.45593999997E+02  0.45594000000E+02  0.51100000000E-03 0.  1.
         11   -1    0    0    0    0 -0.00000000000E+00 -0.00000000000E+00 -0.45593999997E+02  0.45594000000E+02  0.51100000000E-03 0. -1.
    9900012    2    1    2    0    0  0.74974717538E+01 -0.39682350394E+02 -0.19955261199E+02  0.46142318020E+02  0.10000002364E+02 0.  0.
        -12    1    1    2    0    0 -0.74974717538E+01  0.39682350394E+02  0.19955261199E+02  0.45045681980E+02  0.00000000000E+00 0.  1.
         11    1    3    3    0    0  0.49126013338E+00 -0.56339088854E+01 -0.32507728813E+01  0.65230200394E+01  0.51100000000E-03 0. -1.
        -11    1    3    3    0    0  0.37260213694E+01 -0.31261033958E+02 -0.13508877414E+02  0.34258214323E+02  0.51100000000E-03 0.  1.
        -12    1    3    3    0    0  0.32801902510E+01 -0.27874075502E+01 -0.31956109039E+01  0.53610836575E+01  0.00000000000E+00 0.  1.
</event>
<event>
 7    1  0.2031146E-008  0.4614232E+02  0.7816164E-02  0.1320468E+00
        -11   -1    0    0    0    0  0.00000000000E+00  0.00000000000E+00  0.45593999997E+02  0.45594000000E+02  0.51100000000E-03 0.  1.
         11   -1    0    0    0    0 -0.00000000000E+00 -0.00000000000E+00 -0.45593999997E+02  0.45594000000E+02  0.51100000000E-03 0. -1.
    9900012    2    1    2    0    0 -0.15366514182E+02  0.82822289764E+01 -0.41525756093E+02  0.46142317698E+02  0.99999994275E+01 0.  0.
        -12    1    1    2    0    0  0.15366514182E+02 -0.82822289764E+01  0.41525756093E+02  0.45045682302E+02  0.00000000000E+00 0.  1.
         11    1    3    3    0    0 -0.79416293101E+01  0.55157680976E+01 -0.20340782945E+02  0.22522003128E+02  0.51100000000E-03 0. -1.
        -11    1    3    3    0    0 -0.85654501437E+01  0.27421340104E+01 -0.20205506364E+02  0.22116706870E+02  0.51100000000E-03 0.  1.
        -12    1    3    3    0    0  0.11405652718E+01  0.24326868370E-01 -0.97946678410E+00  0.15036077005E+01  0.00000000000E+00 0.  1.
</event>
<event>
 7    1  0.2031146E-008  0.4614232E+02  0.7816164E-02  0.1320468E+00
        -11   -1    0    0    0    0  0.00000000000E+00  0.00000000000E+00  0.45593999997E+02  0.45594000000E+02  0.51100000000E-03 0. -1.
         11   -1    0    0    0    0 -0.00000000000E+00 -0.00000000000E+00 -0.45593999997E+02  0.45594000000E+02  0.51100000000E-03 0.  1.
    9900012    2    1    2    0    0 -0.37946675897E+02 -0.17272610169E+02  0.17053452053E+02  0.46142317625E+02  0.99999987596E+01 0.  0.
        -12    1    1    2    0    0  0.37946675897E+02  0.17272610169E+02 -0.17053452053E+02  0.45045682375E+02  0.00000000000E+00 0.  1.
         11    1    3    3    0    0 -0.31744722808E+02 -0.12064661467E+02  0.14404290825E+02  0.36888576510E+02  0.51100000000E-03 0. -1.
        -11    1    3    3    0    0 -0.27388655885E+00 -0.39514631475E+00  0.14459041177E+01  0.15237432316E+01  0.51100000000E-03 0.  1.
        -12    1    3    3    0    0 -0.59280665300E+01 -0.48128023876E+01  0.12032571095E+01  0.77299978834E+01  0.00000000000E+00 0.  1.
</event>
<event>
 7    1  0.2031146E-008  0.4614232E+02  0.7816164E-02  0.1320468E+00
        -11   -1    0    0    0    0  0.00000000000E+00  0.00000000000E+00  0.45593999997E+02  0.45594000000E+02  0.51100000000E-03 0.  1.
         11   -1    0    0    0    0 -0.00000000000E+00 -0.00000000000E+00 -0.45593999997E+02  0.45594000000E+02  0.51100000000E-03 0. -1.
    9900012    2    1    2    0    0  0.22642420908E+02  0.19372780865E+02 -0.33780610696E+02  0.46142317388E+02  0.99999965962E+01 0.  0.
        -12    1    1    2    0    0 -0.22642420908E+02 -0.19372780865E+02  0.33780610696E+02  0.45045682612E+02  0.00000000000E+00 0.  1.
         11    1    3    3    0    0  0.16510433365E+02  0.92954793942E+01 -0.23240709064E+02  0.29985511587E+02  0.51100000000E-03 0. -1.
        -11    1    3    3    0    0  0.22551195768E+00  0.17014855198E+01 -0.29144257412E+01  0.33822753109E+01  0.51100000000E-03 0.  1.
         12    1    3    3    0    0  0.59064755852E+01  0.83758159508E+01 -0.76254758909E+01  0.12774530490E+02  0.00000000000E+00 0. -1.
</event>
<event>
 7    1  0.2031146E-008  0.4614232E+02  0.7816164E-02  0.1320468E+00
        -11   -1    0    0    0    0  0.00000000000E+00  0.00000000000E+00  0.45593999997E+02  0.45594000000E+02  0.51100000000E-03 0. -1.
         11   -1    0    0    0    0 -0.00000000000E+00 -0.00000000000E+00 -0.45593999997E+02  0.45594000000E+02  0.51100000000E-03 0.  1.
    9900012    2    1    2    0    0  0.18984458855E+02 -0.88811154999E+01  0.39872667856E+02  0.46142317272E+02  0.99999955364E+01 0.  0.
        -12    1    1    2    0    0 -0.18984458855E+02  0.88811154999E+01 -0.39872667856E+02  0.45045682728E+02  0.00000000000E+00 0.  1.
         11    1    3    3    0    0  0.14381792460E+02 -0.53915378880E+01  0.28874655563E+02  0.32705509770E+02  0.51100000000E-03 0. -1.
        -11    1    3    3    0    0  0.16481360573E+01 -0.32955440197E+01  0.93462220623E+01  0.10046334155E+02  0.51100000000E-03 0.  1.
         12    1    3    3    0    0  0.29545303376E+01 -0.19403359222E+00  0.16517902298E+01  0.33904733466E+01  0.00000000000E+00 0. -1.
</event>
<event>
 7    1  0.2031146E-008  0.4614230E+02  0.7816164E-02  0.1320468E+00
        -11   -1    0    0    0    0  0.00000000000E+00  0.00000000000E+00  0.45593999997E+02  0.45594000000E+02  0.51100000000E-03 0.  1.
         11   -1    0    0    0    0 -0.00000000000E+00 -0.00000000000E+00 -0.45593999997E+02  0.45594000000E+02  0.51100000000E-03 0. -1.
    9900012    2    1    2    0    0 -0.44688529885E+02 -0.18195759897E+01  0.53609073370E+01  0.46142302231E+02  0.99998583818E+01 0.  0.
        -12    1    1    2    0    0  0.44688529885E+02  0.18195759897E+01 -0.53609073370E+01  0.45045697769E+02  0.00000000000E+00 0.  1.
         11    1    3    3    0    0 -0.27320315748E+02  0.58156317836E+00  0.41123801592E+01  0.27634209580E+02  0.51100000000E-03 0. -1.
        -11    1    3    3    0    0 -0.15795509892E+02 -0.39026066690E+01  0.13859655397E+01  0.16329402080E+02  0.51100000000E-03 0.  1.
        -12    1    3    3    0    0 -0.15727042451E+01  0.15014675010E+01 -0.13743836190E+00  0.21786905706E+01  0.00000000000E+00 0.  1.
</event>
<event>
 7    1  0.2031146E-008  0.4614232E+02  0.7816164E-02  0.1320468E+00
        -11   -1    0    0    0    0  0.00000000000E+00  0.00000000000E+00  0.45593999997E+02  0.45594000000E+02  0.51100000000E-03 0. -1.
         11   -1    0    0    0    0 -0.00000000000E+00 -0.00000000000E+00 -0.45593999997E+02  0.45594000000E+02  0.51100000000E-03 0.  1.
    9900012    2    1    2    0    0 -0.28790502570E+02 -0.41536404679E+01  0.34394296314E+02  0.46142318894E+02  0.10000010332E+02 0.  0.
        -12    1    1    2    0    0  0.28790502570E+02  0.41536404679E+01 -0.34394296314E+02  0.45045681106E+02  0.00000000000E+00 0.  1.
         11    1    3    3    0    0 -0.12738403038E+02  0.22949070924E-01  0.18527652070E+02  0.22484246265E+02  0.51100000000E-03 0. -1.
        -11    1    3    3    0    0 -0.51849715460E+01  0.77529872514E+00  0.27526837139E+01  0.59213415655E+01  0.51100000000E-03 0.  1.
         12    1    3    3    0    0 -0.10867127986E+02 -0.49518882640E+01  0.13113960530E+02  0.17736731064E+02  0.00000000000E+00 0. -1.
</event>
<event>
 7    1  0.2031146E-008  0.4614232E+02  0.7816164E-02  0.1320468E+00
        -11   -1    0    0    0    0  0.00000000000E+00  0.00000000000E+00  0.45593999997E+02  0.45594000000E+02  0.51100000000E-03 0.  1.
         11   -1    0    0    0    0 -0.00000000000E+00 -0.00000000000E+00 -0.45593999997E+02  0.45594000000E+02  0.51100000000E-03 0. -1.
    9900012    2    1    2    0    0  0.25832775893E+01 -0.41670257481E+02  0.16912417164E+02  0.46142317233E+02  0.99999951836E+01 0.  0.
        -12    1    1    2    0    0 -0.25832775893E+01  0.41670257481E+02 -0.16912417164E+02  0.45045682767E+02  0.00000000000E+00 0.  1.
         11    1    3    3    0    0 -0.32571764287E+01 -0.17885679519E+02  0.57572134742E+01  0.19069667994E+02  0.51100000000E-03 0. -1.
        -11    1    3    3    0    0  0.77354024458E+00 -0.79738380484E+01  0.44745016121E+01  0.91761442159E+01  0.51100000000E-03 0.  1.
        -12    1    3    3    0    0  0.50669137734E+01 -0.15810739913E+02  0.66807020780E+01  0.17896505023E+02  0.00000000000E+00 0.  1.
</event>
<event>
 7    1  0.2031146E-008  0.4614232E+02  0.7816164E-02  0.1320468E+00
        -11   -1    0    0    0    0  0.00000000000E+00  0.00000000000E+00  0.45593999997E+02  0.45594000000E+02  0.51100000000E-03 0. -1.
         11   -1    0    0    0    0 -0.00000000000E+00 -0.00000000000E+00 -0.45593999997E+02  0.45594000000E+02  0.51100000000E-03 0.  1.
    9900012    2    1    2    0    0  0.24630946639E+01 -0.37949238258E+02  0.24143363223E+02  0.46142317550E+02  0.99999980705E+01 0.  0.
        -12    1    1    2    0    0 -0.24630946639E+01  0.37949238258E+02 -0.24143363223E+02  0.45045682450E+02  0.00000000000E+00 0.  1.
         11    1    3    3    0    0 -0.19801832302E+00 -0.13373092061E+02  0.54993517500E+01  0.14461039812E+02  0.51100000000E-03 0. -1.
        -11    1    3    3    0    0 -0.19313666429E+00 -0.31746287888E+01  0.40023151853E-01  0.31807501995E+01  0.51100000000E-03 0.  1.
         12    1    3    3    0    0  0.28542496512E+01 -0.21401517408E+02  0.18603988321E+02  0.28500527538E+02  0.00000000000E+00 0. -1.
</event>
<event>
 7    1  0.2031146E-008  0.4614232E+02  0.7816164E-02  0.1320468E+00
        -11   -1    0    0    0    0  0.00000000000E+00  0.00000000000E+00  0.45593999997E+02  0.45594000000E+02  0.51100000000E-03 0.  1.
         11   -1    0    0    0    0 -0.00000000000E+00 -0.00000000000E+00 -0.45593999997E+02  0.45594000000E+02  0.51100000000E-03 0. -1.
    9900012    2    1    2    0    0 -0.14926397640E+02 -0.35365222447E+02  0.23571533506E+02  0.46142317664E+02  0.99999991180E+01 0.  0.
        -12    1    1    2    0    0  0.14926397640E+02  0.35365222447E+02 -0.23571533506E+02  0.45045682336E+02  0.00000000000E+00 0.  1.
         11    1    3    3    0    0 -0.52247370726E+01 -0.11574728879E+02  0.62296421030E+01  0.14144987349E+02  0.51100000000E-03 0. -1.
        -11    1    3    3    0    0 -0.85224924376E+01 -0.10440331087E+02  0.91529858986E+01  0.16291425403E+02  0.51100000000E-03 0.  1.
        -12    1    3    3    0    0 -0.11791681299E+01 -0.13350162481E+02  0.81889055043E+01  0.15705904912E+02  0.00000000000E+00 0.  1.
</event>
<event>
 7    1  0.2031146E-008  0.4614232E+02  0.7816164E-02  0.1320468E+00
        -11   -1    0    0    0    0  0.00000000000E+00  0.00000000000E+00  0.45593999997E+02  0.45594000000E+02  0.51100000000E-03 0.  1.
         11   -1    0    0    0    0 -0.00000000000E+00 -0.00000000000E+00 -0.45593999997E+02  0.45594000000E+02  0.51100000000E-03 0. -1.
    9900012    2    1    2    0    0 -0.40460771009E+02 -0.13193631994E+02 -0.14763730808E+02  0.46142315820E+02  0.99999823014E+01 0.  0.
        -12    1    1    2    0    0  0.40460771009E+02  0.13193631994E+02  0.14763730808E+02  0.45045684180E+02  0.00000000000E+00 0.  1.
         11    1    3    3    0    0 -0.28201884235E+02 -0.11189551793E+02 -0.78221670097E+01  0.31332708800E+02  0.51100000000E-03 0. -1.
        -11    1    3    3    0    0 -0.99866044846E+01 -0.26190267348E+01 -0.40727253929E+01  0.11098588314E+02  0.51100000000E-03 0.  1.
        -12    1    3    3    0    0 -0.22722822896E+01  0.61494653436E+00 -0.28688384059E+01  0.37110187069E+01  0.00000000000E+00 0.  1.
</event>
<event>
 7    1  0.2031146E-008  0.4614232E+02  0.7816164E-02  0.1320468E+00
        -11   -1    0    0    0    0  0.00000000000E+00  0.00000000000E+00  0.45593999997E+02  0.45594000000E+02  0.51100000000E-03 0.  1.
         11   -1    0    0    0    0 -0.00000000000E+00 -0.00000000000E+00 -0.45593999997E+02  0.45594000000E+02  0.51100000000E-03 0. -1.
    9900012    2    1    2    0    0  0.35494832740E+02  0.25875480756E+02  0.99844796092E+01  0.46142317758E+02  0.99999999692E+01 0.  0.
        -12    1    1    2    0    0 -0.35494832740E+02 -0.25875480756E+02 -0.99844796092E+01  0.45045682242E+02  0.00000000000E+00 0.  1.
         11    1    3    3    0    0  0.20518483464E+02  0.15812179638E+02  0.51427514145E+01  0.26409867113E+02  0.51100000000E-03 0. -1.
        -11    1    3    3    0    0  0.15136509070E+02  0.89808250853E+01  0.34052347158E+01  0.17926649151E+02  0.51100000000E-03 0.  1.
        -12    1    3    3    0    0 -0.16015979367E+00  0.10824760320E+01  0.14364934789E+01  0.18058014936E+01  0.00000000000E+00 0.  1.
</event>
<event>
 7    1  0.2031146E-008  0.4614232E+02  0.7816164E-02  0.1320468E+00
        -11   -1    0    0    0    0  0.00000000000E+00  0.00000000000E+00  0.45593999997E+02  0.45594000000E+02  0.51100000000E-03 0. -1.
         11   -1    0    0    0    0 -0.00000000000E+00 -0.00000000000E+00 -0.45593999997E+02  0.45594000000E+02  0.51100000000E-03 0.  1.
    9900012    2    1    2    0    0  0.25882305453E+02 -0.32428836757E+02  0.17538250717E+02  0.46142318440E+02  0.10000006191E+02 0.  0.
        -12    1    1    2    0    0 -0.25882305453E+02  0.32428836757E+02 -0.17538250717E+02  0.45045681560E+02  0.00000000000E+00 0.  1.
         11    1    3    3    0    0  0.45715382514E+01 -0.35425912305E+01  0.44455803902E+01  0.72946624238E+01  0.51100000000E-03 0. -1.
        -11    1    3    3    0    0  0.17974451441E+02 -0.25809240121E+02  0.89436962992E+01  0.32698432439E+02  0.51100000000E-03 0.  1.
        -12    1    3    3    0    0  0.33363157611E+01 -0.30770054060E+01  0.41489740274E+01  0.61492235775E+01  0.00000000000E+00 0.  1.
</event>
<event>
 7    1  0.2031146E-008  0.4614232E+02  0.7816164E-02  0.1320468E+00
        -11   -1    0    0    0    0  0.00000000000E+00  0.00000000000E+00  0.45593999997E+02  0.45594000000E+02  0.51100000000E-03 0.  1.
         11   -1    0    0    0    0 -0.00000000000E+00 -0.00000000000E+00 -0.45593999997E+02  0.45594000000E+02  0.51100000000E-03 0. -1.
    9900012    2    1    2    0    0  0.28350778800E+02  0.34909702879E+02 -0.25805929680E+01  0.46142317924E+02  0.10000001482E+02 0.  0.
        -12    1    1    2    0    0 -0.28350778800E+02 -0.34909702879E+02  0.25805929680E+01  0.45045682076E+02  0.00000000000E+00 0.  1.
         11    1    3    3    0    0  0.10498689701E+02  0.16038324856E+02  0.23839956467E+01  0.19316671171E+02  0.51100000000E-03 0. -1.
        -11    1    3    3    0    0  0.31353255620E+01  0.15134676788E+01  0.20978644886E+00  0.34878161376E+01  0.51100000000E-03 0.  1.
         12    1    3    3    0    0  0.14716763537E+02  0.17357910345E+02 -0.51743750635E+01  0.23337830615E+02  0.00000000000E+00 0. -1.
</event>
<event>
 7    1  0.2031146E-008  0.4614232E+02  0.7816164E-02  0.1320468E+00
        -11   -1    0    0    0    0  0.00000000000E+00  0.00000000000E+00  0.45593999997E+02  0.45594000000E+02  0.51100000000E-03 0.  1.
         11   -1    0    0    0    0 -0.00000000000E+00 -0.00000000000E+00 -0.45593999997E+02  0.45594000000E+02  0.51100000000E-03 0. -1.
    9900012    2    1    2    0    0 -0.23739192422E+02 -0.18793042396E+02 -0.33352448861E+02  0.46142317139E+02  0.99999943273E+01 0.  0.
        -12    1    1    2    0    0  0.23739192422E+02  0.18793042396E+02  0.33352448861E+02  0.45045682861E+02  0.00000000000E+00 0.  1.
         11    1    3    3    0    0 -0.22659692212E+01 -0.51466538043E+01 -0.64933519283E+01  0.85898941448E+01  0.51100000000E-03 0. -1.
        -11    1    3    3    0    0 -0.91226625405E+01 -0.24695494663E+01 -0.79229263421E+01  0.12332656181E+02  0.51100000000E-03 0.  1.
         12    1    3    3    0    0 -0.12350560661E+02 -0.11176839125E+02 -0.18936170591E+02  0.25219766813E+02  0.00000000000E+00 0. -1.
</event>
<event>
 7    1  0.2031146E-008  0.4614232E+02  0.7816164E-02  0.1320468E+00
        -11   -1    0    0    0    0  0.00000000000E+00  0.00000000000E+00  0.45593999997E+02  0.45594000000E+02  0.51100000000E-03 0.  1.
         11   -1    0    0    0    0 -0.00000000000E+00 -0.00000000000E+00 -0.45593999997E+02  0.45594000000E+02  0.51100000000E-03 0. -1.
    9900012    2    1    2    0    0  0.39853298339E+00 -0.14485929013E+02 -0.42651054560E+02  0.46142318487E+02  0.10000006619E+02 0.  0.
        -12    1    1    2    0    0 -0.39853298339E+00  0.14485929013E+02  0.42651054560E+02  0.45045681513E+02  0.00000000000E+00 0.  1.
         11    1    3    3    0    0  0.60454421580E+00  0.37771813707E+00 -0.61465094128E+01  0.61877074044E+01  0.51100000000E-03 0. -1.
        -11    1    3    3    0    0 -0.11895757911E+01 -0.14379209084E+02 -0.35925777642E+02  0.38714832350E+02  0.51100000000E-03 0.  1.
        -12    1    3    3    0    0  0.98356455868E+00 -0.48443806602E+00 -0.57876750512E+00  0.12397787326E+01  0.00000000000E+00 0.  1.
</event>
<event>
 7    1  0.2031146E-008  0.4614232E+02  0.7816164E-02  0.1320468E+00
        -11   -1    0    0    0    0  0.00000000000E+00  0.00000000000E+00  0.45593999997E+02  0.45594000000E+02  0.51100000000E-03 0.  1.
         11   -1    0    0    0    0 -0.00000000000E+00 -0.00000000000E+00 -0.45593999997E+02  0.45594000000E+02  0.51100000000E-03 0. -1.
    9900012    2    1    2    0    0 -0.32698085921E+02 -0.20371854338E+02 -0.23343869645E+02  0.46142317387E+02  0.99999965884E+01 0.  0.
        -12    1    1    2    0    0  0.32698085921E+02  0.20371854338E+02  0.23343869645E+02  0.45045682613E+02  0.00000000000E+00 0.  1.
         11    1    3    3    0    0 -0.13244255272E+02 -0.58888352108E+01 -0.13656745199E+02  0.19914702296E+02  0.51100000000E-03 0. -1.
        -11    1    3    3    0    0 -0.78593986152E+00 -0.25606415825E+00 -0.73839568190E+00  0.11083766342E+01  0.51100000000E-03 0.  1.
        -12    1    3    3    0    0 -0.18667890787E+02 -0.14226954969E+02 -0.89487287634E+01  0.25119238456E+02  0.00000000000E+00 0.  1.
</event>
<event>
 7    1  0.2031146E-008  0.4614232E+02  0.7816164E-02  0.1320468E+00
        -11   -1    0    0    0    0  0.00000000000E+00  0.00000000000E+00  0.45593999997E+02  0.45594000000E+02  0.51100000000E-03 0.  1.
         11   -1    0    0    0    0 -0.00000000000E+00 -0.00000000000E+00 -0.45593999997E+02  0.45594000000E+02  0.51100000000E-03 0. -1.
    9900012    2    1    2    0    0 -0.13548675701E+02 -0.59659274236E+00 -0.42955687196E+02  0.46142316537E+02  0.99999888361E+01 0.  0.
        -12    1    1    2    0    0  0.13548675701E+02  0.59659274236E+00  0.42955687196E+02  0.45045683463E+02  0.00000000000E+00 0.  1.
         11    1    3    3    0    0 -0.77217737213E+00 -0.12944270047E+01 -0.89909917584E+01  0.91164539282E+01  0.51100000000E-03 0. -1.
        -11    1    3    3    0    0 -0.57355976687E+01 -0.31794187033E+01 -0.17878618980E+02  0.19043392576E+02  0.51100000000E-03 0.  1.
        -12    1    3    3    0    0 -0.70409006601E+01  0.38772529656E+01 -0.16086076458E+02  0.17982470033E+02  0.00000000000E+00 0.  1.
</event>
<event>
 7    1  0.2031146E-008  0.4614232E+02  0.7816164E-02  0.1320468E+00
        -11   -1    0    0    0    0  0.00000000000E+00  0.00000000000E+00  0.45593999997E+02  0.45594000000E+02  0.51100000000E-03 0.  1.
         11   -1    0    0    0    0 -0.00000000000E+00 -0.00000000000E+00 -0.45593999997E+02  0.45594000000E+02  0.51100000000E-03 0. -1.
    9900012    2    1    2    0    0  0.41117831884E+02 -0.80452417849E+01 -0.16544225408E+02  0.46142318647E+02  0.10000008079E+02 0.  0.
        -12    1    1    2    0    0 -0.41117831884E+02  0.80452417849E+01  0.16544225408E+02  0.45045681353E+02  0.00000000000E+00 0.  1.
         11    1    3    3    0    0  0.23103960192E+02 -0.22586617634E+01 -0.87280997108E+01  0.24800690602E+02  0.51100000000E-03 0. -1.
        -11    1    3    3    0    0  0.34645754077E+01 -0.27367175097E+01  0.26230020757E+00  0.44228618725E+01  0.51100000000E-03 0.  1.
        -12    1    3    3    0    0  0.14549296284E+02 -0.30498625119E+01 -0.80784259050E+01  0.16918766173E+02  0.00000000000E+00 0.  1.
</event>
<event>
 7    1  0.2031146E-008  0.4614231E+02  0.7816164E-02  0.1320468E+00
        -11   -1    0    0    0    0  0.00000000000E+00  0.00000000000E+00  0.45593999997E+02  0.45594000000E+02  0.51100000000E-03 0.  1.
         11   -1    0    0    0    0 -0.00000000000E+00 -0.00000000000E+00 -0.45593999997E+02  0.45594000000E+02  0.51100000000E-03 0. -1.
    9900012    2    1    2    0    0 -0.10819696787E+02  0.18735822062E+02 -0.39509706294E+02  0.46142314765E+02  0.99999726759E+01 0.  0.
        -12    1    1    2    0    0  0.10819696787E+02 -0.18735822062E+02  0.39509706294E+02  0.45045685235E+02  0.00000000000E+00 0.  1.
         11    1    3    3    0    0 -0.33563490150E+01  0.10395230806E+02 -0.24018493277E+02  0.26385865947E+02  0.51100000000E-03 0. -1.
        -11    1    3    3    0    0 -0.93079286837E+00 -0.25663184910E+00 -0.34524546128E+01  0.35849237627E+01  0.51100000000E-03 0.  1.
         12    1    3    3    0    0 -0.65325549038E+01  0.85972231052E+01 -0.12038758404E+02  0.16171525055E+02  0.00000000000E+00 0. -1.
</event>
<event>
 7    1  0.2031146E-008  0.4614232E+02  0.7816164E-02  0.1320468E+00
        -11   -1    0    0    0    0  0.00000000000E+00  0.00000000000E+00  0.45593999997E+02  0.45594000000E+02  0.51100000000E-03 0.  1.
         11   -1    0    0    0    0 -0.00000000000E+00 -0.00000000000E+00 -0.45593999997E+02  0.45594000000E+02  0.51100000000E-03 0. -1.
    9900012    2    1    2    0    0 -0.27161002750E+02  0.29373805297E+02 -0.20701998181E+02  0.46142320554E+02  0.10000025470E+02 0.  0.
        -12    1    1    2    0    0  0.27161002750E+02 -0.29373805297E+02  0.20701998181E+02  0.45045679446E+02  0.00000000000E+00 0.  1.
         11    1    3    3    0    0 -0.11810561635E+02  0.17482268605E+02 -0.10621201331E+02  0.23620520733E+02  0.51100000000E-03 0. -1.
        -11    1    3    3    0    0 -0.47583645208E+00  0.21567571536E+01 -0.29169645571E+00  0.22278035892E+01  0.51100000000E-03 0.  1.
         12    1    3    3    0    0 -0.14874604663E+02  0.97347795389E+01 -0.97891003940E+01  0.20293996232E+02  0.00000000000E+00 0. -1.
</event>
<event>
 7    1  0.2031146E-008  0.4614232E+02  0.7816164E-02  0.1320468E+00
        -11   -1    0    0    0    0  0.00000000000E+00  0.00000000000E+00  0.45593999997E+02  0.45594000000E+02  0.51100000000E-03 0.  1.
         11   -1    0    0    0    0 -0.00000000000E+00 -0.00000000000E+00 -0.45593999997E+02  0.45594000000E+02  0.51100000000E-03 0. -1.
    9900012    2    1    2    0    0  0.22584904513E+02 -0.20304493932E+02 -0.33268048940E+02  0.46142318010E+02  0.10000002270E+02 0.  0.
        -12    1    1    2    0    0 -0.22584904513E+02  0.20304493932E+02  0.33268048940E+02  0.45045681990E+02  0.00000000000E+00 0.  1.
         11    1    3    3    0    0  0.85057991401E+01 -0.95271486132E+01 -0.17526341864E+02  0.21686120886E+02  0.51100000000E-03 0. -1.
        -11    1    3    3    0    0  0.14349240461E+02 -0.10263170236E+02 -0.16003586359E+02  0.23819070967E+02  0.51100000000E-03 0.  1.
        -12    1    3    3    0    0 -0.27013508782E+00 -0.51417508219E+00  0.26187928331E+00  0.63712615693E+00  0.00000000000E+00 0.  1.
</event>
<event>
 7    1  0.3398585E-008  0.4614232E+02  0.7816164E-02  0.1320468E+00
        -11   -1    0    0    0    0  0.00000000000E+00  0.00000000000E+00  0.45593999997E+02  0.45594000000E+02  0.51100000000E-03 0. -1.
         11   -1    0    0    0    0 -0.00000000000E+00 -0.00000000000E+00 -0.45593999997E+02  0.45594000000E+02  0.51100000000E-03 0.  1.
    9900012    2    1    2    0    0  0.28344845831E+02 -0.32151754604E+02  0.13854526124E+02  0.46142317594E+02  0.99999984793E+01 0.  0.
        -12    1    1    2    0    0 -0.28344845831E+02  0.32151754604E+02 -0.13854526124E+02  0.45045682406E+02  0.00000000000E+00 0.  1.
         11    1    3    3    0    0  0.16463380986E+02 -0.19813615113E+02  0.68432536655E+01  0.26654312565E+02  0.51100000000E-03 0. -1.
        -11    1    3    3    0    0  0.11553005759E+02 -0.94851972038E+01  0.43383302679E+01  0.15564768480E+02  0.51100000000E-03 0.  1.
        -12    1    3    3    0    0  0.32845908553E+00 -0.28529422867E+01  0.26729421907E+01  0.39232365487E+01  0.00000000000E+00 0.  1.
</event>
<event>
 7    1  0.2031146E-008  0.4614232E+02  0.7816164E-02  0.1320468E+00
        -11   -1    0    0    0    0  0.00000000000E+00  0.00000000000E+00  0.45593999997E+02  0.45594000000E+02  0.51100000000E-03 0.  1.
         11   -1    0    0    0    0 -0.00000000000E+00 -0.00000000000E+00 -0.45593999997E+02  0.45594000000E+02  0.51100000000E-03 0. -1.
    9900012    2    1    2    0    0  0.97987459251E+01  0.34850535156E+02 -0.26805562401E+02  0.46142318764E+02  0.10000009148E+02 0.  0.
        -12    1    1    2    0    0 -0.97987459251E+01 -0.34850535156E+02  0.26805562401E+02  0.45045681236E+02  0.00000000000E+00 0.  1.
         11    1    3    3    0    0  0.56877335052E+01  0.16025145543E+02 -0.10008172945E+02  0.19731171482E+02  0.51100000000E-03 0. -1.
        -11    1    3    3    0    0  0.22237661759E+01  0.29463572730E+01 -0.62385171593E+01  0.72488105088E+01  0.51100000000E-03 0.  1.
         12    1    3    3    0    0  0.18872462440E+01  0.15879032340E+02 -0.10558872296E+02  0.19162336773E+02  0.00000000000E+00 0. -1.
</event>
<event>
 7    1  0.2031146E-008  0.4614232E+02  0.7816164E-02  0.1320468E+00
        -11   -1    0    0    0    0  0.00000000000E+00  0.00000000000E+00  0.45593999997E+02  0.45594000000E+02  0.51100000000E-03 0. -1.
         11   -1    0    0    0    0 -0.00000000000E+00 -0.00000000000E+00 -0.45593999997E+02  0.45594000000E+02  0.51100000000E-03 0.  1.
    9900012    2    1    2    0    0 -0.43989750524E+02 -0.26272610582E+01  0.93334228099E+01  0.46142318374E+02  0.10000005587E+02 0.  0.
        -12    1    1    2    0    0  0.43989750524E+02  0.26272610582E+01 -0.93334228099E+01  0.45045681626E+02  0.00000000000E+00 0.  1.
         11    1    3    3    0    0 -0.11687596722E+02  0.42009586857E+00  0.20296103031E+01  0.11869950123E+02  0.51100000000E-03 0. -1.
        -11    1    3    3    0    0 -0.36476213802E+01  0.22905594080E+01  0.14348468763E+01  0.45398887601E+01  0.51100000000E-03 0.  1.
         12    1    3    3    0    0 -0.28654532422E+02 -0.53379163348E+01  0.58689656305E+01  0.29732479491E+02  0.00000000000E+00 0. -1.
</event>
<event>
 7    1  0.2031146E-008  0.4614232E+02  0.7816164E-02  0.1320468E+00
        -11   -1    0    0    0    0  0.00000000000E+00  0.00000000000E+00  0.45593999997E+02  0.45594000000E+02  0.51100000000E-03 0.  1.
         11   -1    0    0    0    0 -0.00000000000E+00 -0.00000000000E+00 -0.45593999997E+02  0.45594000000E+02  0.51100000000E-03 0. -1.
    9900012    2    1    2    0    0 -0.40904207519E+02  0.49908689218E+01 -0.18194795713E+02  0.46142317006E+02  0.99999931163E+01 0.  0.
        -12    1    1    2    0    0  0.40904207519E+02 -0.49908689218E+01  0.18194795713E+02  0.45045682994E+02  0.00000000000E+00 0.  1.
         11    1    3    3    0    0 -0.67139983811E+01 -0.17669909717E+01 -0.40846447769E+01  0.80550825303E+01  0.51100000000E-03 0. -1.
        -11    1    3    3    0    0 -0.12089104654E+01  0.12142276746E+01 -0.17036636559E+01  0.24162540166E+01  0.51100000000E-03 0.  1.
        -12    1    3    3    0    0 -0.32981298673E+02  0.55436322188E+01 -0.12406487280E+02  0.35670980459E+02  0.00000000000E+00 0.  1.
</event>
<event>
 7    1  0.2031146E-008  0.4614232E+02  0.7816164E-02  0.1320468E+00
        -11   -1    0    0    0    0  0.00000000000E+00  0.00000000000E+00  0.45593999997E+02  0.45594000000E+02  0.51100000000E-03 0.  1.
         11   -1    0    0    0    0 -0.00000000000E+00 -0.00000000000E+00 -0.45593999997E+02  0.45594000000E+02  0.51100000000E-03 0. -1.
    9900012    2    1    2    0    0  0.61244543317E+01  0.24141333685E+02 -0.37533992568E+02  0.46142317288E+02  0.99999956828E+01 0.  0.
        -12    1    1    2    0    0 -0.61244543317E+01 -0.24141333685E+02  0.37533992568E+02  0.45045682712E+02  0.00000000000E+00 0.  1.
         11    1    3    3    0    0  0.48414307281E+00  0.14588312944E+01 -0.71602854516E+00  0.16956651789E+01  0.51100000000E-03 0. -1.
        -11    1    3    3    0    0  0.28117078864E+01  0.10333754250E+02 -0.94252586844E+01  0.14266312756E+02  0.51100000000E-03 0.  1.
         12    1    3    3    0    0  0.28286033725E+01  0.12348748141E+02 -0.27392705338E+02  0.30180339352E+02  0.00000000000E+00 0. -1.
</event>
<event>
 7    1  0.2031146E-008  0.4614232E+02  0.7816164E-02  0.1320468E+00
        -11   -1    0    0    0    0  0.00000000000E+00  0.00000000000E+00  0.45593999997E+02  0.45594000000E+02  0.51100000000E-03 0. -1.
         11   -1    0    0    0    0 -0.00000000000E+00 -0.00000000000E+00 -0.45593999997E+02  0.45594000000E+02  0.51100000000E-03 0.  1.
    9900012    2    1    2    0    0 -0.14638996984E+02  0.38703152014E+02 -0.17801102539E+02  0.46142318074E+02  0.10000002855E+02 0.  0.
        -12    1    1    2    0    0  0.14638996984E+02 -0.38703152014E+02  0.17801102539E+02  0.45045681926E+02  0.00000000000E+00 0.  1.
         11    1    3    3    0    0  0.10032233450E+01  0.29482516937E+01 -0.17193568619E+01  0.35573632664E+01  0.51100000000E-03 0. -1.
        -11    1    3    3    0    0 -0.65581776145E+01  0.87205443592E+01 -0.45515219580E+01  0.11822602926E+02  0.51100000000E-03 0.  1.
         12    1    3    3    0    0 -0.90840427145E+01  0.27034355961E+02 -0.11530223719E+02  0.30762351882E+02  0.00000000000E+00 0. -1.
</event>
<event>
 7    1  0.2031146E-008  0.4614232E+02  0.7816164E-02  0.1320468E+00
        -11   -1    0    0    0    0  0.00000000000E+00  0.00000000000E+00  0.45593999997E+02  0.45594000000E+02  0.51100000000E-03 0.  1.
         11   -1    0    0    0    0 -0.00000000000E+00 -0.00000000000E+00 -0.45593999997E+02  0.45594000000E+02  0.51100000000E-03 0. -1.
    9900012    2    1    2    0    0  0.24934525865E+02  0.26608098820E+02 -0.26446020021E+02  0.46142317878E+02  0.10000001063E+02 0.  0.
        -12    1    1    2    0    0 -0.24934525865E+02 -0.26608098820E+02  0.26446020021E+02  0.45045682122E+02  0.00000000000E+00 0.  1.
         11    1    3    3    0    0  0.12248497919E+02  0.95768234117E+01 -0.96758283396E+01  0.18312916268E+02  0.51100000000E-03 0. -1.
        -11    1    3    3    0    0  0.55896407514E+00  0.63263866753E+00 -0.32539430087E+01  0.33616689138E+01  0.51100000000E-03 0.  1.
        -12    1    3    3    0    0  0.12127063870E+02  0.16398636741E+02 -0.13516248673E+02  0.24467732695E+02  0.00000000000E+00 0.  1.
</event>
<event>
 7    1  0.2031146E-008  0.4614232E+02  0.7816164E-02  0.1320468E+00
        -11   -1    0    0    0    0  0.00000000000E+00  0.00000000000E+00  0.45593999997E+02  0.45594000000E+02  0.51100000000E-03 0.  1.
         11   -1    0    0    0    0 -0.00000000000E+00 -0.00000000000E+00 -0.45593999997E+02  0.45594000000E+02  0.51100000000E-03 0. -1.
    9900012    2    1    2    0    0  0.28160458552E+02  0.81922885539E+01 -0.34190474149E+02  0.46142317186E+02  0.99999947591E+01 0.  0.
        -12    1    1    2    0    0 -0.28160458552E+02 -0.81922885539E+01  0.34190474149E+02  0.45045682814E+02  0.00000000000E+00 0.  1.
         11    1    3    3    0    0  0.84415357412E+01  0.26354884326E+01 -0.12579807957E+02  0.15377154920E+02  0.51100000000E-03 0. -1.
        -11    1    3    3    0    0  0.33762280960E+01  0.16089909028E+01 -0.49340247475E+00  0.37724281497E+01  0.51100000000E-03 0.  1.
        -12    1    3    3    0    0  0.16342694715E+02  0.39478092184E+01 -0.21117263717E+02  0.26992734116E+02  0.00000000000E+00 0.  1.
</event>
<event>
 7    1  0.2031146E-008  0.4614232E+02  0.7816164E-02  0.1320468E+00
        -11   -1    0    0    0    0  0.00000000000E+00  0.00000000000E+00  0.45593999997E+02  0.45594000000E+02  0.51100000000E-03 0.  1.
         11   -1    0    0    0    0 -0.00000000000E+00 -0.00000000000E+00 -0.45593999997E+02  0.45594000000E+02  0.51100000000E-03 0. -1.
    9900012    2    1    2    0    0 -0.74316043793E+01 -0.24929437816E+02 -0.36775097853E+02  0.46142318347E+02  0.10000005342E+02 0.  0.
        -12    1    1    2    0    0  0.74316043793E+01  0.24929437816E+02  0.36775097853E+02  0.45045681653E+02  0.00000000000E+00 0.  1.
         11    1    3    3    0    0 -0.57668931835E+01 -0.13921210746E+02 -0.15736500925E+02  0.21787487860E+02  0.51100000000E-03 0. -1.
        -11    1    3    3    0    0 -0.94069284097E+00 -0.81961419315E+01 -0.10119733336E+02  0.13056440887E+02  0.51100000000E-03 0.  1.
        -12    1    3    3    0    0 -0.72401835479E+00 -0.28120851384E+01 -0.10918863592E+02  0.11298389600E+02  0.00000000000E+00 0.  1.
</event>
<event>
 7    1  0.2031146E-008  0.4614232E+02  0.7816164E-02  0.1320468E+00
        -11   -1    0    0    0    0  0.00000000000E+00  0.00000000000E+00  0.45593999997E+02  0.45594000000E+02  0.51100000000E-03 0.  1.
         11   -1    0    0    0    0 -0.00000000000E+00 -0.00000000000E+00 -0.45593999997E+02  0.45594000000E+02  0.51100000000E-03 0. -1.
    9900012    2    1    2    0    0  0.25154153503E+02 -0.24506989307E+01 -0.37287747813E+02  0.46142317624E+02  0.99999987526E+01 0.  0.
        -12    1    1    2    0    0 -0.25154153503E+02  0.24506989307E+01  0.37287747813E+02  0.45045682376E+02  0.00000000000E+00 0.  1.
         11    1    3    3    0    0  0.11954112626E+02 -0.21933867708E+01 -0.14453213044E+02  0.18884044105E+02  0.51100000000E-03 0. -1.
        -11    1    3    3    0    0  0.26428646083E+01  0.16978470581E+01 -0.17459550737E+01  0.35938527169E+01  0.51100000000E-03 0.  1.
         12    1    3    3    0    0  0.10557176269E+02 -0.19551592181E+01 -0.21088579696E+02  0.23664420803E+02  0.00000000000E+00 0. -1.
</event>
<event>
 7    1  0.2031146E-008  0.4614232E+02  0.7816164E-02  0.1320468E+00
        -11   -1    0    0    0    0  0.00000000000E+00  0.00000000000E+00  0.45593999997E+02  0.45594000000E+02  0.51100000000E-03 0.  1.
         11   -1    0    0    0    0 -0.00000000000E+00 -0.00000000000E+00 -0.45593999997E+02  0.45594000000E+02  0.51100000000E-03 0. -1.
    9900012    2    1    2    0    0 -0.43236119072E+02  0.22448086143E+01 -0.12438341726E+02  0.46142317598E+02  0.99999985170E+01 0.  0.
        -12    1    1    2    0    0  0.43236119072E+02 -0.22448086143E+01  0.12438341726E+02  0.45045682402E+02  0.00000000000E+00 0.  1.
         11    1    3    3    0    0 -0.20606222711E+02 -0.24467017657E+01 -0.37245310286E+01  0.21082573267E+02  0.51100000000E-03 0. -1.
        -11    1    3    3    0    0 -0.15027781435E+02  0.37149844658E+01 -0.78199802941E+01  0.17343223936E+02  0.51100000000E-03 0.  1.
        -12    1    3    3    0    0 -0.76021149265E+01  0.97652591417E+00 -0.89383040334E+00  0.77165203950E+01  0.00000000000E+00 0.  1.
</event>
<event>
 7    1  0.2031146E-008  0.4614232E+02  0.7816164E-02  0.1320468E+00
        -11   -1    0    0    0    0  0.00000000000E+00  0.00000000000E+00  0.45593999997E+02  0.45594000000E+02  0.51100000000E-03 0. -1.
         11   -1    0    0    0    0 -0.00000000000E+00 -0.00000000000E+00 -0.45593999997E+02  0.45594000000E+02  0.51100000000E-03 0.  1.
    9900012    2    1    2    0    0  0.15335242826E+02 -0.42332475271E+02  0.13803505366E+01  0.46142317602E+02  0.99999985459E+01 0.  0.
        -12    1    1    2    0    0 -0.15335242826E+02  0.42332475271E+02 -0.13803505366E+01  0.45045682398E+02  0.00000000000E+00 0.  1.
         11    1    3    3    0    0  0.46481084654E+01 -0.12039968846E+02 -0.51214792018E+00  0.12916193630E+02  0.51100000000E-03 0. -1.
        -11    1    3    3    0    0  0.10520734943E+02 -0.27328666653E+02 -0.68933426250E+00  0.29291928356E+02  0.51100000000E-03 0.  1.
        -12    1    3    3    0    0  0.16639941730E+00 -0.29638397716E+01  0.25818327193E+01  0.39341956164E+01  0.00000000000E+00 0.  1.
</event>
<event>
 7    1  0.2031146E-008  0.4614232E+02  0.7816164E-02  0.1320468E+00
        -11   -1    0    0    0    0  0.00000000000E+00  0.00000000000E+00  0.45593999997E+02  0.45594000000E+02  0.51100000000E-03 0. -1.
         11   -1    0    0    0    0 -0.00000000000E+00 -0.00000000000E+00 -0.45593999997E+02  0.45594000000E+02  0.51100000000E-03 0.  1.
    9900012    2    1    2    0    0  0.14405578247E+02 -0.40167025008E+02  0.14429232112E+02  0.46142319608E+02  0.10000016839E+02 0.  0.
        -12    1    1    2    0    0 -0.14405578247E+02  0.40167025008E+02 -0.14429232112E+02  0.45045680392E+02  0.00000000000E+00 0.  1.
         11    1    3    3    0    0  0.34421941425E+01 -0.15271186205E+02  0.55883105286E+01  0.16621884473E+02  0.51100000000E-03 0. -1.
        -11    1    3    3    0    0  0.46899162014E+01 -0.14463195262E+02  0.14375135087E+01  0.15272386078E+02  0.51100000000E-03 0.  1.
        -12    1    3    3    0    0  0.62734679031E+01 -0.10432643541E+02  0.74034080747E+01  0.14248049056E+02  0.00000000000E+00 0.  1.
</event>
<event>
 7    1  0.2031146E-008  0.4614232E+02  0.7816164E-02  0.1320468E+00
        -11   -1    0    0    0    0  0.00000000000E+00  0.00000000000E+00  0.45593999997E+02  0.45594000000E+02  0.51100000000E-03 0.  1.
         11   -1    0    0    0    0 -0.00000000000E+00 -0.00000000000E+00 -0.45593999997E+02  0.45594000000E+02  0.51100000000E-03 0. -1.
    9900012    2    1    2    0    0  0.25887843407E+02 -0.40152310382E+01 -0.36644385139E+02  0.46142317868E+02  0.10000000973E+02 0.  0.
        -12    1    1    2    0    0 -0.25887843407E+02  0.40152310382E+01  0.36644385139E+02  0.45045682132E+02  0.00000000000E+00 0.  1.
         11    1    3    3    0    0  0.13783651769E+02 -0.12593385162E+01 -0.14840950809E+02  0.20293565748E+02  0.51100000000E-03 0. -1.
        -11    1    3    3    0    0  0.88568426649E+01 -0.15067911431E+01 -0.20010247625E+02  0.21934541067E+02  0.51100000000E-03 0.  1.
        -12    1    3    3    0    0  0.32473489735E+01 -0.12491013789E+01 -0.17931867044E+01  0.39142110530E+01  0.00000000000E+00 0.  1.
</event>
<event>
 7    1  0.2031146E-008  0.4614232E+02  0.7816164E-02  0.1320468E+00
        -11   -1    0    0    0    0  0.00000000000E+00  0.00000000000E+00  0.45593999997E+02  0.45594000000E+02  0.51100000000E-03 0. -1.
         11   -1    0    0    0    0 -0.00000000000E+00 -0.00000000000E+00 -0.45593999997E+02  0.45594000000E+02  0.51100000000E-03 0.  1.
    9900012    2    1    2    0    0  0.16262364349E+02 -0.50138823351E+01  0.41707433965E+02  0.46142316986E+02  0.99999929291E+01 0.  0.
        -12    1    1    2    0    0 -0.16262364349E+02  0.50138823351E+01 -0.41707433965E+02  0.45045683014E+02  0.00000000000E+00 0.  1.
         11    1    3    3    0    0  0.11990424263E+02 -0.18902133702E+01  0.25059821192E+02  0.27844888562E+02  0.51100000000E-03 0. -1.
        -11    1    3    3    0    0  0.15406193541E+01 -0.13916272449E+01  0.97327922642E+00  0.22929036388E+01  0.51100000000E-03 0.  1.
        -12    1    3    3    0    0  0.27313207312E+01 -0.17320417200E+01  0.15674333547E+02  0.16004524785E+02  0.00000000000E+00 0.  1.
</event>
<event>
 7    1  0.2031146E-008  0.4614232E+02  0.7816164E-02  0.1320468E+00
        -11   -1    0    0    0    0  0.00000000000E+00  0.00000000000E+00  0.45593999997E+02  0.45594000000E+02  0.51100000000E-03 0.  1.
         11   -1    0    0    0    0 -0.00000000000E+00 -0.00000000000E+00 -0.45593999997E+02  0.45594000000E+02  0.51100000000E-03 0. -1.
    9900012    2    1    2    0    0 -0.29161203942E+02  0.33983404237E+02  0.48852950323E+01  0.46142315563E+02  0.99999799522E+01 0.  0.
        -12    1    1    2    0    0  0.29161203942E+02 -0.33983404237E+02 -0.48852950323E+01  0.45045684437E+02  0.00000000000E+00 0.  1.
         11    1    3    3    0    0 -0.84659212384E+01  0.85430456352E+01 -0.16525742703E+00  0.12028414751E+02  0.51100000000E-03 0. -1.
        -11    1    3    3    0    0 -0.71346878209E+01  0.53599946135E+01 -0.14162108685E+01  0.90354283819E+01  0.51100000000E-03 0.  1.
        -12    1    3    3    0    0 -0.13560594882E+02  0.20080363989E+02  0.64667633279E+01  0.25078472430E+02  0.00000000000E+00 0.  1.
</event>
<event>
 7    1  0.2031146E-008  0.4614231E+02  0.7816164E-02  0.1320468E+00
        -11   -1    0    0    0    0  0.00000000000E+00  0.00000000000E+00  0.45593999997E+02  0.45594000000E+02  0.51100000000E-03 0.  1.
         11   -1    0    0    0    0 -0.00000000000E+00 -0.00000000000E+00 -0.45593999997E+02  0.45594000000E+02  0.51100000000E-03 0. -1.
    9900012    2    1    2    0    0  0.26881750861E+02 -0.35104477803E+02 -0.86117175415E+01  0.46142305753E+02  0.99998904983E+01 0.  0.
        -12    1    1    2    0    0 -0.26881750861E+02  0.35104477803E+02  0.86117175415E+01  0.45045694247E+02  0.00000000000E+00 0.  1.
         11    1    3    3    0    0  0.13031003841E+02 -0.14592250013E+02 -0.59663690991E+01  0.20453322030E+02  0.51100000000E-03 0. -1.
        -11    1    3    3    0    0  0.12476906532E+02 -0.16471338946E+02  0.79032457509E-02  0.20663452422E+02  0.51100000000E-03 0.  1.
         12    1    3    3    0    0  0.13738404875E+01 -0.40408888443E+01 -0.26532516882E+01  0.50255313011E+01  0.00000000000E+00 0. -1.
</event>
<event>
 7    1  0.2031146E-008  0.4614232E+02  0.7816164E-02  0.1320468E+00
        -11   -1    0    0    0    0  0.00000000000E+00  0.00000000000E+00  0.45593999997E+02  0.45594000000E+02  0.51100000000E-03 0. -1.
         11   -1    0    0    0    0 -0.00000000000E+00 -0.00000000000E+00 -0.45593999997E+02  0.45594000000E+02  0.51100000000E-03 0.  1.
    9900012    2    1    2    0    0 -0.32289339148E+02 -0.23413762696E+02  0.20935804456E+02  0.46142316362E+02  0.99999872452E+01 0.  0.
        -12    1    1    2    0    0  0.32289339148E+02  0.23413762696E+02 -0.20935804456E+02  0.45045683638E+02  0.00000000000E+00 0.  1.
         11    1    3    3    0    0 -0.67775447434E+01 -0.67644318339E+01  0.88366202510E+01  0.13029908231E+02  0.51100000000E-03 0. -1.
        -11    1    3    3    0    0 -0.74633693831E+01 -0.57033669372E+01  0.15686647506E+01  0.95231815235E+01  0.51100000000E-03 0.  1.
         12    1    3    3    0    0 -0.18048425021E+02 -0.10945963925E+02  0.10530519454E+02  0.23589226608E+02  0.00000000000E+00 0. -1.
</event>
<event>
 7    1  0.2031146E-008  0.4614232E+02  0.7816164E-02  0.1320468E+00
        -11   -1    0    0    0    0  0.00000000000E+00  0.00000000000E+00  0.45593999997E+02  0.45594000000E+02  0.51100000000E-03 0. -1.
         11   -1    0    0    0    0 -0.00000000000E+00 -0.00000000000E+00 -0.45593999997E+02  0.45594000000E+02  0.51100000000E-03 0.  1.
    9900012    2    1    2    0    0  0.26681511880E+02 -0.35821541270E+02 -0.58333116595E+01  0.46142318519E+02  0.10000006911E+02 0.  0.
        -12    1    1    2    0    0 -0.26681511880E+02  0.35821541270E+02  0.58333116595E+01  0.45045681481E+02  0.00000000000E+00 0.  1.
         11    1    3    3    0    0  0.12831253220E+02 -0.16888742564E+02 -0.72195439351E+01  0.22405189119E+02  0.51100000000E-03 0. -1.
        -11    1    3    3    0    0  0.13229131864E+02 -0.16306721408E+02  0.12211927653E+01  0.21033554265E+02  0.51100000000E-03 0.  1.
         12    1    3    3    0    0  0.62112679580E+00 -0.26260772977E+01  0.16503951034E+00  0.27035751349E+01  0.00000000000E+00 0. -1.
</event>
<event>
 7    1  0.2031146E-008  0.4614232E+02  0.7816164E-02  0.1320468E+00
        -11   -1    0    0    0    0  0.00000000000E+00  0.00000000000E+00  0.45593999997E+02  0.45594000000E+02  0.51100000000E-03 0. -1.
         11   -1    0    0    0    0 -0.00000000000E+00 -0.00000000000E+00 -0.45593999997E+02  0.45594000000E+02  0.51100000000E-03 0.  1.
    9900012    2    1    2    0    0  0.26067983154E+02  0.35593527856E+02  0.90925469649E+01  0.46142318950E+02  0.10000010840E+02 0.  0.
        -12    1    1    2    0    0 -0.26067983154E+02 -0.35593527856E+02 -0.90925469649E+01  0.45045681050E+02  0.00000000000E+00 0.  1.
         11    1    3    3    0    0 -0.84209253823E-01  0.23080214211E+00 -0.80561404562E+00  0.84224407320E+00  0.51100000000E-03 0.  1.
        -11    1    3    3    0    0  0.11757324035E+02  0.12863399711E+02  0.26810300484E+01  0.17632062924E+02  0.51100000000E-03 0. -1.
         12    1    3    3    0    0  0.14394868373E+02  0.22499326003E+02  0.72171309622E+01  0.27668011952E+02  0.00000000000E+00 0. -1.
</event>
<event>
 7    1  0.2031146E-008  0.4614232E+02  0.7816164E-02  0.1320468E+00
        -11   -1    0    0    0    0  0.00000000000E+00  0.00000000000E+00  0.45593999997E+02  0.45594000000E+02  0.51100000000E-03 0. -1.
         11   -1    0    0    0    0 -0.00000000000E+00 -0.00000000000E+00 -0.45593999997E+02  0.45594000000E+02  0.51100000000E-03 0.  1.
    9900012    2    1    2    0    0 -0.18859407752E+02  0.58997626188E+01  0.40479981997E+02  0.46142318717E+02  0.10000008720E+02 0.  0.
        -12    1    1    2    0    0  0.18859407752E+02 -0.58997626188E+01 -0.40479981997E+02  0.45045681283E+02  0.00000000000E+00 0.  1.
         11    1    3    3    0    0 -0.26507595855E+01 -0.24084659592E+01  0.49615057871E+01  0.61191318496E+01  0.51100000000E-03 0. -1.
        -11    1    3    3    0    0 -0.85567173950E+01  0.36735137262E+01  0.15251046729E+02  0.17869150575E+02  0.51100000000E-03 0.  1.
        -12    1    3    3    0    0 -0.76519307717E+01  0.46347148518E+01  0.20267429481E+02  0.22154036293E+02  0.00000000000E+00 0.  1.
</event>
<event>
 7    1  0.2031146E-008  0.4614232E+02  0.7816164E-02  0.1320468E+00
        -11   -1    0    0    0    0  0.00000000000E+00  0.00000000000E+00  0.45593999997E+02  0.45594000000E+02  0.51100000000E-03 0. -1.
         11   -1    0    0    0    0 -0.00000000000E+00 -0.00000000000E+00 -0.45593999997E+02  0.45594000000E+02  0.51100000000E-03 0.  1.
    9900012    2    1    2    0    0 -0.24440634667E+02  0.37836182313E+02  0.43837781817E+00  0.46142317742E+02  0.99999998256E+01 0.  0.
        -12    1    1    2    0    0  0.24440634667E+02 -0.37836182313E+02 -0.43837781817E+00  0.45045682258E+02  0.00000000000E+00 0.  1.
         11    1    3    3    0    0 -0.71285881738E+01  0.92154134693E+01 -0.63993294957E+00  0.11668338751E+02  0.51100000000E-03 0. -1.
        -11    1    3    3    0    0 -0.88436439170E+01  0.11688306650E+02  0.42890193061E+01  0.15271615401E+02  0.51100000000E-03 0.  1.
         12    1    3    3    0    0 -0.84684025762E+01  0.16932462194E+02 -0.32107085383E+01  0.19202363591E+02  0.00000000000E+00 0. -1.
</event>
<event>
 7    1  0.2031146E-008  0.4614232E+02  0.7816164E-02  0.1320468E+00
        -11   -1    0    0    0    0  0.00000000000E+00  0.00000000000E+00  0.45593999997E+02  0.45594000000E+02  0.51100000000E-03 0.  1.
         11   -1    0    0    0    0 -0.00000000000E+00 -0.00000000000E+00 -0.45593999997E+02  0.45594000000E+02  0.51100000000E-03 0. -1.
    9900012    2    1    2    0    0  0.43162694302E+02 -0.12846478536E+02 -0.10311226526E+01  0.46142318696E+02  0.10000008526E+02 0.  0.
        -12    1    1    2    0    0 -0.43162694302E+02  0.12846478536E+02  0.10311226526E+01  0.45045681304E+02  0.00000000000E+00 0.  1.
         11    1    3    3    0    0  0.33289587887E+02 -0.10490833374E+02  0.66754037187E+00  0.34909881939E+02  0.51100000000E-03 0. -1.
        -11    1    3    3    0    0  0.77162761483E+00 -0.97920057967E+00  0.10455773598E+01  0.16271063972E+01  0.51100000000E-03 0.  1.
        -12    1    3    3    0    0  0.91014788004E+01 -0.13764445824E+01 -0.27442403843E+01  0.96053303602E+01  0.00000000000E+00 0.  1.
</event>
<event>
 7    1  0.2031146E-008  0.4614232E+02  0.7816164E-02  0.1320468E+00
        -11   -1    0    0    0    0  0.00000000000E+00  0.00000000000E+00  0.45593999997E+02  0.45594000000E+02  0.51100000000E-03 0.  1.
         11   -1    0    0    0    0 -0.00000000000E+00 -0.00000000000E+00 -0.45593999997E+02  0.45594000000E+02  0.51100000000E-03 0. -1.
    9900012    2    1    2    0    0  0.26839151968E+02  0.98869756880E+01 -0.34799728798E+02  0.46142317731E+02  0.99999997281E+01 0.  0.
        -12    1    1    2    0    0 -0.26839151968E+02 -0.98869756880E+01  0.34799728798E+02  0.45045682269E+02  0.00000000000E+00 0.  1.
         11    1    3    3    0    0  0.24742241951E+02  0.74968196818E+01 -0.29358007970E+02  0.39118710029E+02  0.51100000000E-03 0. -1.
        -11    1    3    3    0    0  0.19990513241E+01  0.26545961891E+00 -0.13953466788E+01  0.24522780472E+01  0.51100000000E-03 0.  1.
        -12    1    3    3    0    0  0.97858693554E-01  0.21246963873E+01 -0.40463741491E+01  0.45713296552E+01  0.00000000000E+00 0.  1.
</event>
<event>
 7    1  0.2031146E-008  0.4614232E+02  0.7816164E-02  0.1320468E+00
        -11   -1    0    0    0    0  0.00000000000E+00  0.00000000000E+00  0.45593999997E+02  0.45594000000E+02  0.51100000000E-03 0. -1.
         11   -1    0    0    0    0 -0.00000000000E+00 -0.00000000000E+00 -0.45593999997E+02  0.45594000000E+02  0.51100000000E-03 0.  1.
    9900012    2    1    2    0    0 -0.19886770226E+02  0.32114037471E+02  0.24542177660E+02  0.46142317444E+02  0.99999971049E+01 0.  0.
        -12    1    1    2    0    0  0.19886770226E+02 -0.32114037471E+02 -0.24542177660E+02  0.45045682556E+02  0.00000000000E+00 0.  1.
         11    1    3    3    0    0 -0.44880111181E+01  0.99853285014E+01  0.38527723621E+01  0.11605726354E+02  0.51100000000E-03 0.  1.
        -11    1    3    3    0    0 -0.10429691980E+02  0.19264427321E+02  0.15985204368E+02  0.27118690856E+02  0.51100000000E-03 0. -1.
         12    1    3    3    0    0 -0.49690671274E+01  0.28642816480E+01  0.47042009298E+01  0.74179002328E+01  0.00000000000E+00 0. -1.
</event>
<event>
 7    1  0.2031146E-008  0.4614232E+02  0.7816164E-02  0.1320468E+00
        -11   -1    0    0    0    0  0.00000000000E+00  0.00000000000E+00  0.45593999997E+02  0.45594000000E+02  0.51100000000E-03 0.  1.
         11   -1    0    0    0    0 -0.00000000000E+00 -0.00000000000E+00 -0.45593999997E+02  0.45594000000E+02  0.51100000000E-03 0. -1.
    9900012    2    1    2    0    0 -0.24669988117E+02 -0.27621732144E+02 -0.25642640747E+02  0.46142318467E+02  0.10000006435E+02 0.  0.
        -12    1    1    2    0    0  0.24669988117E+02  0.27621732144E+02  0.25642640747E+02  0.45045681533E+02  0.00000000000E+00 0.  1.
         11    1    3    3    0    0  0.11493990921E+00 -0.19922989220E+01 -0.40979438143E+00  0.20372525306E+01  0.51100000000E-03 0. -1.
        -11    1    3    3    0    0 -0.54468732768E+01 -0.27547736043E+01 -0.29945027056E+01  0.67988420205E+01  0.51100000000E-03 0.  1.
         12    1    3    3    0    0 -0.19338054749E+02 -0.22874659617E+02 -0.22238343660E+02  0.37306223916E+02  0.00000000000E+00 0. -1.
</event>
<event>
 7    1  0.2031146E-008  0.4614232E+02  0.7816164E-02  0.1320468E+00
        -11   -1    0    0    0    0  0.00000000000E+00  0.00000000000E+00  0.45593999997E+02  0.45594000000E+02  0.51100000000E-03 0.  1.
         11   -1    0    0    0    0 -0.00000000000E+00 -0.00000000000E+00 -0.45593999997E+02  0.45594000000E+02  0.51100000000E-03 0. -1.
    9900012    2    1    2    0    0  0.31416942276E+02 -0.37822918884E+01 -0.32059063733E+02  0.46142316951E+02  0.99999926140E+01 0.  0.
        -12    1    1    2    0    0 -0.31416942276E+02  0.37822918884E+01  0.32059063733E+02  0.45045683049E+02  0.00000000000E+00 0.  1.
         11    1    3    3    0    0  0.15474900094E+02 -0.21907740699E+00 -0.14889338564E+02  0.21475868573E+02  0.51100000000E-03 0. -1.
        -11    1    3    3    0    0  0.36244593544E+01  0.19022542024E+01 -0.27568799770E+01  0.49351458065E+01  0.51100000000E-03 0.  1.
        -12    1    3    3    0    0  0.12317582828E+02 -0.54654686838E+01 -0.14412845192E+02  0.19731302572E+02  0.00000000000E+00 0.  1.
</event>
<event>
 7    1  0.2031146E-008  0.4614232E+02  0.7816164E-02  0.1320468E+00
        -11   -1    0    0    0    0  0.00000000000E+00  0.00000000000E+00  0.45593999997E+02  0.45594000000E+02  0.51100000000E-03 0.  1.
         11   -1    0    0    0    0 -0.00000000000E+00 -0.00000000000E+00 -0.45593999997E+02  0.45594000000E+02  0.51100000000E-03 0. -1.
    9900012    2    1    2    0    0 -0.40195860666E+02  0.20128319419E+02 -0.28735032553E+01  0.46142317873E+02  0.10000001022E+02 0.  0.
        -12    1    1    2    0    0  0.40195860666E+02 -0.20128319419E+02  0.28735032553E+01  0.45045682127E+02  0.00000000000E+00 0.  1.
         11    1    3    3    0    0 -0.93970771301E+01  0.37252654669E+01  0.28957355807E+01  0.10515129395E+02  0.51100000000E-03 0.  1.
        -11    1    3    3    0    0 -0.23411523757E+02  0.10325882154E+02 -0.39704399348E+01  0.25893776866E+02  0.51100000000E-03 0. -1.
        -12    1    3    3    0    0 -0.73872597793E+01  0.60771717981E+01 -0.17987989011E+01  0.97334116114E+01  0.00000000000E+00 0.  1.
</event>
<event>
 7    1  0.2031146E-008  0.4614232E+02  0.7816164E-02  0.1320468E+00
        -11   -1    0    0    0    0  0.00000000000E+00  0.00000000000E+00  0.45593999997E+02  0.45594000000E+02  0.51100000000E-03 0. -1.
         11   -1    0    0    0    0 -0.00000000000E+00 -0.00000000000E+00 -0.45593999997E+02  0.45594000000E+02  0.51100000000E-03 0.  1.
    9900012    2    1    2    0    0 -0.91560930146E+01 -0.19975605008E+02  0.39322445157E+02  0.46142317323E+02  0.99999960047E+01 0.  0.
        -12    1    1    2    0    0  0.91560930146E+01  0.19975605008E+02 -0.39322445157E+02  0.45045682677E+02  0.00000000000E+00 0.  1.
         11    1    3    3    0    0 -0.20314784617E+01 -0.33740025055E+01  0.30339226282E+01  0.49714670292E+01  0.51100000000E-03 0. -1.
        -11    1    3    3    0    0  0.68523538107E+00 -0.17594727359E-01  0.23461802918E+00  0.72450188588E+00  0.51100000000E-03 0.  1.
        -12    1    3    3    0    0 -0.78098499339E+01 -0.16584007775E+02  0.36053904499E+02  0.40446348408E+02  0.00000000000E+00 0.  1.
</event>
<event>
 7    1  0.2031146E-008  0.4614232E+02  0.7816164E-02  0.1320468E+00
        -11   -1    0    0    0    0  0.00000000000E+00  0.00000000000E+00  0.45593999997E+02  0.45594000000E+02  0.51100000000E-03 0.  1.
         11   -1    0    0    0    0 -0.00000000000E+00 -0.00000000000E+00 -0.45593999997E+02  0.45594000000E+02  0.51100000000E-03 0. -1.
    9900012    2    1    2    0    0 -0.38103190929E+02  0.10454527913E+02 -0.21632457070E+02  0.46142317502E+02  0.99999976330E+01 0.  0.
        -12    1    1    2    0    0  0.38103190929E+02 -0.10454527913E+02  0.21632457070E+02  0.45045682498E+02  0.00000000000E+00 0.  1.
         11    1    3    3    0    0 -0.82882678056E+01  0.33106166680E+01 -0.49060635635E+01  0.10184548389E+02  0.51100000000E-03 0. -1.
        -11    1    3    3    0    0 -0.21521911590E+02  0.79748821091E+01 -0.91976277214E+01  0.24726256876E+02  0.51100000000E-03 0.  1.
        -12    1    3    3    0    0 -0.82930115339E+01 -0.83097086370E+00 -0.75287657847E+01  0.11231512237E+02  0.00000000000E+00 0.  1.
</event>
<event>
 7    1  0.2031146E-008  0.4614232E+02  0.7816164E-02  0.1320468E+00
        -11   -1    0    0    0    0  0.00000000000E+00  0.00000000000E+00  0.45593999997E+02  0.45594000000E+02  0.51100000000E-03 0.  1.
         11   -1    0    0    0    0 -0.00000000000E+00 -0.00000000000E+00 -0.45593999997E+02  0.45594000000E+02  0.51100000000E-03 0. -1.
    9900012    2    1    2    0    0 -0.41908281280E+01  0.32963421546E+02 -0.30413208456E+02  0.46142318198E+02  0.10000003981E+02 0.  0.
        -12    1    1    2    0    0  0.41908281280E+01 -0.32963421546E+02  0.30413208456E+02  0.45045681802E+02  0.00000000000E+00 0.  1.
         11    1    3    3    0    0 -0.65952741064E+00  0.21902849747E+02 -0.19915051656E+02  0.29610455690E+02  0.51100000000E-03 0. -1.
        -11    1    3    3    0    0  0.31401255011E+00  0.75489371806E+01 -0.64966713875E+01  0.99645268737E+01  0.51100000000E-03 0.  1.
         12    1    3    3    0    0 -0.38453132675E+01  0.35116346184E+01 -0.40014854125E+01  0.65673356336E+01  0.00000000000E+00 0. -1.
</event>
<event>
 7    1  0.2031146E-008  0.4614232E+02  0.7816164E-02  0.1320468E+00
        -11   -1    0    0    0    0  0.00000000000E+00  0.00000000000E+00  0.45593999997E+02  0.45594000000E+02  0.51100000000E-03 0.  1.
         11   -1    0    0    0    0 -0.00000000000E+00 -0.00000000000E+00 -0.45593999997E+02  0.45594000000E+02  0.51100000000E-03 0. -1.
    9900012    2    1    2    0    0  0.15166278176E+02 -0.12744069114E+02 -0.40455979451E+02  0.46142316915E+02  0.99999922820E+01 0.  0.
        -12    1    1    2    0    0 -0.15166278176E+02  0.12744069114E+02  0.40455979451E+02  0.45045683085E+02  0.00000000000E+00 0.  1.
         11    1    3    3    0    0  0.79039053881E+01 -0.63905003233E+01 -0.26433410796E+02  0.28320229896E+02  0.51100000000E-03 0. -1.
        -11    1    3    3    0    0  0.17847718330E+00 -0.80180244105E+00  0.32653602258E+00  0.88394982584E+00  0.51100000000E-03 0.  1.
        -12    1    3    3    0    0  0.70838956042E+01 -0.55517663496E+01 -0.14349104677E+02  0.16938137193E+02  0.00000000000E+00 0.  1.
</event>
<event>
 7    1  0.2031146E-008  0.4614232E+02  0.7816164E-02  0.1320468E+00
        -11   -1    0    0    0    0  0.00000000000E+00  0.00000000000E+00  0.45593999997E+02  0.45594000000E+02  0.51100000000E-03 0.  1.
         11   -1    0    0    0    0 -0.00000000000E+00 -0.00000000000E+00 -0.45593999997E+02  0.45594000000E+02  0.51100000000E-03 0. -1.
    9900012    2    1    2    0    0  0.20125864372E+02 -0.12305748549E+02 -0.38374882595E+02  0.46142317874E+02  0.10000001025E+02 0.  0.
        -12    1    1    2    0    0 -0.20125864372E+02  0.12305748549E+02  0.38374882595E+02  0.45045682126E+02  0.00000000000E+00 0.  1.
         11    1    3    3    0    0  0.15715103063E+02 -0.83920643014E+01 -0.29070177850E+02  0.34094962209E+02  0.51100000000E-03 0.  1.
        -11    1    3    3    0    0  0.54610261243E+01 -0.36008020884E+01 -0.76882799286E+01  0.10094465342E+02  0.51100000000E-03 0. -1.
        -12    1    3    3    0    0 -0.10502648154E+01 -0.31288215929E+00 -0.16164248159E+01  0.19528903230E+01  0.00000000000E+00 0.  1.
</event>
<event>
 7    1  0.2031146E-008  0.4614232E+02  0.7816164E-02  0.1320468E+00
        -11   -1    0    0    0    0  0.00000000000E+00  0.00000000000E+00  0.45593999997E+02  0.45594000000E+02  0.51100000000E-03 0.  1.
         11   -1    0    0    0    0 -0.00000000000E+00 -0.00000000000E+00 -0.45593999997E+02  0.45594000000E+02  0.51100000000E-03 0. -1.
    9900012    2    1    2    0    0  0.16000674760E+02  0.41962658609E+02  0.34967269900E+01  0.46142318632E+02  0.10000007937E+02 0.  0.
        -12    1    1    2    0    0 -0.16000674760E+02 -0.41962658609E+02 -0.34967269900E+01  0.45045681368E+02  0.00000000000E+00 0.  1.
         11    1    3    3    0    0  0.56809402586E+01  0.24917913908E+02  0.21137472763E+00  0.25558172769E+02  0.51100000000E-03 0. -1.
        -11    1    3    3    0    0  0.82580839632E+01  0.11009064559E+02  0.96053846521E+00  0.13795582177E+02  0.51100000000E-03 0.  1.
        -12    1    3    3    0    0  0.20616505384E+01  0.60356801422E+01  0.23248137972E+01  0.67885636855E+01  0.00000000000E+00 0.  1.
</event>
<event>
 7    1  0.2031146E-008  0.4614232E+02  0.7816164E-02  0.1320468E+00
        -11   -1    0    0    0    0  0.00000000000E+00  0.00000000000E+00  0.45593999997E+02  0.45594000000E+02  0.51100000000E-03 0.  1.
         11   -1    0    0    0    0 -0.00000000000E+00 -0.00000000000E+00 -0.45593999997E+02  0.45594000000E+02  0.51100000000E-03 0. -1.
    9900012    2    1    2    0    0  0.15874983666E+02  0.68105145329E+01 -0.41601866174E+02  0.46142317813E+02  0.10000000469E+02 0.  0.
        -12    1    1    2    0    0 -0.15874983666E+02 -0.68105145329E+01  0.41601866174E+02  0.45045682187E+02  0.00000000000E+00 0.  1.
         11    1    3    3    0    0  0.78774543746E-01 -0.98006989419E+00 -0.38600131214E+01  0.39832705136E+01  0.51100000000E-03 0. -1.
        -11    1    3    3    0    0  0.52700732161E+01  0.71079277757E+00 -0.17319554043E+02  0.18117556419E+02  0.51100000000E-03 0.  1.
         12    1    3    3    0    0  0.10526135906E+02  0.70797916496E+01 -0.20422299009E+02  0.24041490880E+02  0.00000000000E+00 0. -1.
</event>
<event>
 7    1  0.2031146E-008  0.4614232E+02  0.7816164E-02  0.1320468E+00
        -11   -1    0    0    0    0  0.00000000000E+00  0.00000000000E+00  0.45593999997E+02  0.45594000000E+02  0.51100000000E-03 0.  1.
         11   -1    0    0    0    0 -0.00000000000E+00 -0.00000000000E+00 -0.45593999997E+02  0.45594000000E+02  0.51100000000E-03 0. -1.
    9900012    2    1    2    0    0  0.16907235190E+02 -0.45697893503E+01 -0.41501516709E+02  0.46142318013E+02  0.10000002299E+02 0.  0.
        -12    1    1    2    0    0 -0.16907235190E+02  0.45697893503E+01  0.41501516709E+02  0.45045681987E+02  0.00000000000E+00 0.  1.
         11    1    3    3    0    0  0.88605203819E+01 -0.32170000939E+01 -0.20676367663E+02  0.22723778098E+02  0.51100000000E-03 0. -1.
        -11    1    3    3    0    0  0.56518948539E+01 -0.16026520600E+01 -0.20043996436E+02  0.20887177943E+02  0.51100000000E-03 0.  1.
        -12    1    3    3    0    0  0.23948199539E+01  0.24986280359E+00 -0.78115261078E+00  0.25313619720E+01  0.00000000000E+00 0.  1.
</event>
<event>
 7    1  0.2031146E-008  0.4614232E+02  0.7816164E-02  0.1320468E+00
        -11   -1    0    0    0    0  0.00000000000E+00  0.00000000000E+00  0.45593999997E+02  0.45594000000E+02  0.51100000000E-03 0.  1.
         11   -1    0    0    0    0 -0.00000000000E+00 -0.00000000000E+00 -0.45593999997E+02  0.45594000000E+02  0.51100000000E-03 0. -1.
    9900012    2    1    2    0    0 -0.80950251558E+01 -0.29519935777E+02 -0.33047807375E+02  0.46142316379E+02  0.99999873986E+01 0.  0.
        -12    1    1    2    0    0  0.80950251558E+01  0.29519935777E+02  0.33047807375E+02  0.45045683621E+02  0.00000000000E+00 0.  1.
         11    1    3    3    0    0 -0.29813333873E+01 -0.12263843179E+02 -0.10433983721E+02  0.16375537086E+02  0.51100000000E-03 0. -1.
        -11    1    3    3    0    0 -0.29119434929E+01 -0.93175645378E+01 -0.66783637340E+01  0.11827804794E+02  0.51100000000E-03 0.  1.
         12    1    3    3    0    0 -0.22017482756E+01 -0.79385280601E+01 -0.15935459920E+02  0.17938974499E+02  0.00000000000E+00 0. -1.
</event>
<event>
 7    1  0.2031146E-008  0.4614232E+02  0.7816164E-02  0.1320468E+00
        -11   -1    0    0    0    0  0.00000000000E+00  0.00000000000E+00  0.45593999997E+02  0.45594000000E+02  0.51100000000E-03 0. -1.
         11   -1    0    0    0    0 -0.00000000000E+00 -0.00000000000E+00 -0.45593999997E+02  0.45594000000E+02  0.51100000000E-03 0.  1.
    9900012    2    1    2    0    0 -0.43615015980E+02 -0.68839616590E+01 -0.89137446738E+01  0.46142318840E+02  0.10000009834E+02 0.  0.
        -12    1    1    2    0    0  0.43615015980E+02  0.68839616590E+01  0.89137446738E+01  0.45045681160E+02  0.00000000000E+00 0.  1.
         11    1    3    3    0    0 -0.20036331268E+02 -0.32515862452E+01 -0.27475876793E+01  0.20483569565E+02  0.51100000000E-03 0. -1.
        -11    1    3    3    0    0 -0.55943362397E+01 -0.25757995655E+01  0.10577426941E+01  0.62490128207E+01  0.51100000000E-03 0.  1.
         12    1    3    3    0    0 -0.17984348473E+02 -0.10565758483E+01 -0.72238996886E+01  0.19409736454E+02  0.00000000000E+00 0. -1.
</event>
<event>
 7    1  0.2031146E-008  0.4614232E+02  0.7816164E-02  0.1320468E+00
        -11   -1    0    0    0    0  0.00000000000E+00  0.00000000000E+00  0.45593999997E+02  0.45594000000E+02  0.51100000000E-03 0. -1.
         11   -1    0    0    0    0 -0.00000000000E+00 -0.00000000000E+00 -0.45593999997E+02  0.45594000000E+02  0.51100000000E-03 0.  1.
    9900012    2    1    2    0    0  0.15897925042E+02  0.50207946617E-02  0.42146997193E+02  0.46142318540E+02  0.10000007100E+02 0.  0.
        -12    1    1    2    0    0 -0.15897925042E+02 -0.50207946617E-02 -0.42146997193E+02  0.45045681460E+02  0.00000000000E+00 0.  1.
         11    1    3    3    0    0  0.25679284533E+01 -0.95246391658E+00  0.13645553500E+02  0.13917707234E+02  0.51100000000E-03 0. -1.
        -11    1    3    3    0    0  0.30708594853E+01 -0.26948978774E+01  0.91193426545E+01  0.99927505352E+01  0.51100000000E-03 0.  1.
        -12    1    3    3    0    0  0.10259137103E+02  0.36523825887E+01  0.19382101038E+02  0.22231860771E+02  0.00000000000E+00 0.  1.
</event>
<event>
 7    1  0.2031146E-008  0.4614232E+02  0.7816164E-02  0.1320468E+00
        -11   -1    0    0    0    0  0.00000000000E+00  0.00000000000E+00  0.45593999997E+02  0.45594000000E+02  0.51100000000E-03 0.  1.
         11   -1    0    0    0    0 -0.00000000000E+00 -0.00000000000E+00 -0.45593999997E+02  0.45594000000E+02  0.51100000000E-03 0. -1.
    9900012    2    1    2    0    0 -0.62634688285E+01 -0.17851859692E+02 -0.40880236257E+02  0.46142315938E+02  0.99999833711E+01 0.  0.
        -12    1    1    2    0    0  0.62634688285E+01  0.17851859692E+02  0.40880236257E+02  0.45045684062E+02  0.00000000000E+00 0.  1.
         11    1    3    3    0    0 -0.17094212097E+01 -0.91961379068E+01 -0.20819320965E+02  0.22824004885E+02  0.51100000000E-03 0. -1.
        -11    1    3    3    0    0 -0.48258018063E+01 -0.96857093821E+01 -0.18199161292E+02  0.21173351206E+02  0.51100000000E-03 0.  1.
        -12    1    3    3    0    0  0.27175418750E+00  0.10299875966E+01 -0.18617539996E+01  0.21449598463E+01  0.00000000000E+00 0.  1.
</event>
<event>
 7    1  0.2031146E-008  0.4614232E+02  0.7816164E-02  0.1320468E+00
        -11   -1    0    0    0    0  0.00000000000E+00  0.00000000000E+00  0.45593999997E+02  0.45594000000E+02  0.51100000000E-03 0. -1.
         11   -1    0    0    0    0 -0.00000000000E+00 -0.00000000000E+00 -0.45593999997E+02  0.45594000000E+02  0.51100000000E-03 0.  1.
    9900012    2    1    2    0    0 -0.15606507216E+02 -0.42073047523E+02 -0.39254364892E+01  0.46142318220E+02  0.10000004189E+02 0.  0.
        -12    1    1    2    0    0  0.15606507216E+02  0.42073047523E+02  0.39254364892E+01  0.45045681780E+02  0.00000000000E+00 0.  1.
         11    1    3    3    0    0 -0.11245940952E+02 -0.35402039568E+02 -0.46460061249E+01  0.37434756132E+02  0.51100000000E-03 0. -1.
        -11    1    3    3    0    0 -0.22870908570E+01 -0.16249838769E+01 -0.10137002093E+01  0.29831100489E+01  0.51100000000E-03 0.  1.
         12    1    3    3    0    0 -0.20734754076E+01 -0.50460240779E+01  0.17342698450E+01  0.57244520398E+01  0.00000000000E+00 0. -1.
</event>
<event>
 7    1  0.2031146E-008  0.4614233E+02  0.7816164E-02  0.1320468E+00
        -11   -1    0    0    0    0  0.00000000000E+00  0.00000000000E+00  0.45593999997E+02  0.45594000000E+02  0.51100000000E-03 0. -1.
         11   -1    0    0    0    0 -0.00000000000E+00 -0.00000000000E+00 -0.45593999997E+02  0.45594000000E+02  0.51100000000E-03 0.  1.
    9900012    2    1    2    0    0  0.12069216950E+02 -0.43141110537E+02  0.47213042594E+01  0.46142332838E+02  0.10000137483E+02 0.  0.
        -12    1    1    2    0    0 -0.12069216950E+02  0.43141110537E+02 -0.47213042594E+01  0.45045667162E+02  0.00000000000E+00 0.  1.
         11    1    3    3    0    0 -0.12935350389E+01 -0.10287372089E+02  0.15842754135E+01  0.10488717092E+02  0.51100000000E-03 0. -1.
        -11    1    3    3    0    0  0.73050033314E+01 -0.20314725478E+02  0.17473414029E+01  0.21658816846E+02  0.51100000000E-03 0.  1.
        -12    1    3    3    0    0  0.60577486579E+01 -0.12539012969E+02  0.13896874429E+01  0.13994798900E+02  0.00000000000E+00 0.  1.
</event>
<event>
 7    1  0.2031146E-008  0.4614232E+02  0.7816164E-02  0.1320468E+00
        -11   -1    0    0    0    0  0.00000000000E+00  0.00000000000E+00  0.45593999997E+02  0.45594000000E+02  0.51100000000E-03 0.  1.
         11   -1    0    0    0    0 -0.00000000000E+00 -0.00000000000E+00 -0.45593999997E+02  0.45594000000E+02  0.51100000000E-03 0. -1.
    9900012    2    1    2    0    0 -0.23829132048E+02 -0.37989573805E+02  0.42518419591E+01  0.46142318608E+02  0.10000007725E+02 0.  0.
        -12    1    1    2    0    0  0.23829132048E+02  0.37989573805E+02 -0.42518419591E+01  0.45045681392E+02  0.00000000000E+00 0.  1.
         11    1    3    3    0    0 -0.46236316498E+00 -0.38300432198E+01  0.20500440615E+01  0.43687173950E+01  0.51100000000E-03 0. -1.
        -11    1    3    3    0    0 -0.23420573084E+01 -0.44530139861E+01  0.19008637665E+01  0.53784616125E+01  0.51100000000E-03 0.  1.
         12    1    3    3    0    0 -0.21024711574E+02 -0.29706516599E+02  0.30093413106E+00  0.36395139601E+02  0.00000000000E+00 0. -1.
</event>
<event>
 7    1  0.2031146E-008  0.4614232E+02  0.7816164E-02  0.1320468E+00
        -11   -1    0    0    0    0  0.00000000000E+00  0.00000000000E+00  0.45593999997E+02  0.45594000000E+02  0.51100000000E-03 0. -1.
         11   -1    0    0    0    0 -0.00000000000E+00 -0.00000000000E+00 -0.45593999997E+02  0.45594000000E+02  0.51100000000E-03 0.  1.
    9900012    2    1    2    0    0  0.20641219624E+02 -0.26530793281E+02  0.29986172893E+02  0.46142317583E+02  0.99999983744E+01 0.  0.
        -12    1    1    2    0    0 -0.20641219624E+02  0.26530793281E+02 -0.29986172893E+02  0.45045682417E+02  0.00000000000E+00 0.  1.
         11    1    3    3    0    0  0.12872788905E+02 -0.21864445533E+02  0.21915439235E+02  0.33526842228E+02  0.51100000000E-03 0. -1.
        -11    1    3    3    0    0  0.24738252040E+01 -0.16489930204E+01  0.70480374836E+00  0.30554439458E+01  0.51100000000E-03 0.  1.
         12    1    3    3    0    0  0.52946055152E+01 -0.30173547273E+01  0.73659299089E+01  0.95600314087E+01  0.00000000000E+00 0. -1.
</event>
<event>
 7    1  0.2031146E-008  0.4614232E+02  0.7816164E-02  0.1320468E+00
        -11   -1    0    0    0    0  0.00000000000E+00  0.00000000000E+00  0.45593999997E+02  0.45594000000E+02  0.51100000000E-03 0. -1.
         11   -1    0    0    0    0 -0.00000000000E+00 -0.00000000000E+00 -0.45593999997E+02  0.45594000000E+02  0.51100000000E-03 0.  1.
    9900012    2    1    2    0    0  0.39290392895E+02 -0.76692571511E+01 -0.20653354509E+02  0.46142317282E+02  0.99999956294E+01 0.  0.
        -12    1    1    2    0    0 -0.39290392895E+02  0.76692571511E+01  0.20653354509E+02  0.45045682718E+02  0.00000000000E+00 0.  1.
         11    1    3    3    0    0  0.22232275825E+02 -0.61620017620E+01 -0.11879149329E+02  0.25949153033E+02  0.51100000000E-03 0. -1.
        -11    1    3    3    0    0  0.79268755067E+01 -0.23582749911E+01 -0.70377410445E+01  0.10859402171E+02  0.51100000000E-03 0.  1.
         12    1    3    3    0    0  0.91312415628E+01  0.85101960199E+00 -0.17364641358E+01  0.93337620784E+01  0.00000000000E+00 0. -1.
</event>
<event>
 7    1  0.2031146E-008  0.4614232E+02  0.7816164E-02  0.1320468E+00
        -11   -1    0    0    0    0  0.00000000000E+00  0.00000000000E+00  0.45593999997E+02  0.45594000000E+02  0.51100000000E-03 0. -1.
         11   -1    0    0    0    0 -0.00000000000E+00 -0.00000000000E+00 -0.45593999997E+02  0.45594000000E+02  0.51100000000E-03 0.  1.
    9900012    2    1    2    0    0  0.80359223075E+01  0.36072278620E+02 -0.25755158994E+02  0.46142317111E+02  0.99999940696E+01 0.  0.
        -12    1    1    2    0    0 -0.80359223075E+01 -0.36072278620E+02  0.25755158994E+02  0.45045682889E+02  0.00000000000E+00 0.  1.
         11    1    3    3    0    0 -0.49493446756E-01 -0.14204703828E+00 -0.44438015110E-02  0.15048910542E+00  0.51100000000E-03 0. -1.
        -11    1    3    3    0    0  0.45065748587E+01  0.10044012196E+02 -0.37952357718E+01  0.11644535748E+02  0.51100000000E-03 0.  1.
         12    1    3    3    0    0  0.35788408956E+01  0.26170313462E+02 -0.21955479420E+02  0.34347292258E+02  0.00000000000E+00 0. -1.
</event>
<event>
 7    1  0.2031146E-008  0.4614232E+02  0.7816164E-02  0.1320468E+00
        -11   -1    0    0    0    0  0.00000000000E+00  0.00000000000E+00  0.45593999997E+02  0.45594000000E+02  0.51100000000E-03 0.  1.
         11   -1    0    0    0    0 -0.00000000000E+00 -0.00000000000E+00 -0.45593999997E+02  0.45594000000E+02  0.51100000000E-03 0. -1.
    9900012    2    1    2    0    0 -0.25003215752E+02 -0.36409672100E+02 -0.88480705562E+01  0.46142319042E+02  0.10000011684E+02 0.  0.
        -12    1    1    2    0    0  0.25003215752E+02  0.36409672100E+02  0.88480705562E+01  0.45045680958E+02  0.00000000000E+00 0.  1.
         11    1    3    3    0    0 -0.13372990750E+02 -0.19224624944E+02 -0.90634136406E+01  0.25111124087E+02  0.51100000000E-03 0. -1.
        -11    1    3    3    0    0 -0.53120790339E+01 -0.10712346261E+02 -0.41298605999E+00  0.11964242719E+02  0.51100000000E-03 0.  1.
         12    1    3    3    0    0 -0.63181459686E+01 -0.64727008944E+01  0.62832914439E+00  0.90669522367E+01  0.00000000000E+00 0. -1.
</event>
<event>
 7    1  0.2031146E-008  0.4614232E+02  0.7816164E-02  0.1320468E+00
        -11   -1    0    0    0    0  0.00000000000E+00  0.00000000000E+00  0.45593999997E+02  0.45594000000E+02  0.51100000000E-03 0.  1.
         11   -1    0    0    0    0 -0.00000000000E+00 -0.00000000000E+00 -0.45593999997E+02  0.45594000000E+02  0.51100000000E-03 0. -1.
    9900012    2    1    2    0    0 -0.23260161097E+02  0.36565915402E+02 -0.12288693124E+02  0.46142320494E+02  0.10000024919E+02 0.  0.
        -12    1    1    2    0    0  0.23260161097E+02 -0.36565915402E+02  0.12288693124E+02  0.45045679506E+02  0.00000000000E+00 0.  1.
         11    1    3    3    0    0 -0.67918925095E+01  0.68272082346E+01 -0.25149145455E+01  0.99531588740E+01  0.51100000000E-03 0. -1.
        -11    1    3    3    0    0 -0.95351414009E+01  0.10398278724E+02 -0.21319340189E+01  0.14268435965E+02  0.51100000000E-03 0.  1.
         12    1    3    3    0    0 -0.69331271868E+01  0.19340428444E+02 -0.76418445593E+01  0.21920725655E+02  0.00000000000E+00 0. -1.
</event>
<event>
 7    1  0.2031146E-008  0.4614232E+02  0.7816164E-02  0.1320468E+00
        -11   -1    0    0    0    0  0.00000000000E+00  0.00000000000E+00  0.45593999997E+02  0.45594000000E+02  0.51100000000E-03 0.  1.
         11   -1    0    0    0    0 -0.00000000000E+00 -0.00000000000E+00 -0.45593999997E+02  0.45594000000E+02  0.51100000000E-03 0. -1.
    9900012    2    1    2    0    0 -0.34008911374E+02 -0.50859817968E+01 -0.29097082628E+02  0.46142317842E+02  0.10000000736E+02 0.  0.
        -12    1    1    2    0    0  0.34008911374E+02  0.50859817968E+01  0.29097082628E+02  0.45045682158E+02  0.00000000000E+00 0.  1.
         11    1    3    3    0    0 -0.68855178590E+01 -0.30775521144E+01 -0.71486312518E+01  0.10391564475E+02  0.51100000000E-03 0. -1.
        -11    1    3    3    0    0  0.59871954161E-01  0.70955512135E+00 -0.13858767909E+01  0.15581103497E+01  0.51100000000E-03 0.  1.
        -12    1    3    3    0    0 -0.27183265469E+02 -0.27179848037E+01 -0.20562574585E+02  0.34192643017E+02  0.00000000000E+00 0.  1.
</event>
<event>
 7    1  0.2031146E-008  0.4614232E+02  0.7816164E-02  0.1320468E+00
        -11   -1    0    0    0    0  0.00000000000E+00  0.00000000000E+00  0.45593999997E+02  0.45594000000E+02  0.51100000000E-03 0.  1.
         11   -1    0    0    0    0 -0.00000000000E+00 -0.00000000000E+00 -0.45593999997E+02  0.45594000000E+02  0.51100000000E-03 0. -1.
    9900012    2    1    2    0    0  0.93355141405E+01  0.31903791482E+02 -0.30399172037E+02  0.46142318789E+02  0.10000009377E+02 0.  0.
        -12    1    1    2    0    0 -0.93355141405E+01 -0.31903791482E+02  0.30399172037E+02  0.45045681211E+02  0.00000000000E+00 0.  1.
         11    1    3    3    0    0  0.24372232982E+01  0.46693590140E+01 -0.10166305060E+01  0.53643740412E+01  0.51100000000E-03 0. -1.
        -11    1    3    3    0    0  0.61230150400E+01  0.24927094970E+02 -0.25404318305E+02  0.36114135261E+02  0.51100000000E-03 0.  1.
        -12    1    3    3    0    0  0.77527580230E+00  0.23073374975E+01 -0.39782232260E+01  0.46638094872E+01  0.00000000000E+00 0.  1.
</event>
<event>
 7    1  0.2031146E-008  0.4614232E+02  0.7816164E-02  0.1320468E+00
        -11   -1    0    0    0    0  0.00000000000E+00  0.00000000000E+00  0.45593999997E+02  0.45594000000E+02  0.51100000000E-03 0. -1.
         11   -1    0    0    0    0 -0.00000000000E+00 -0.00000000000E+00 -0.45593999997E+02  0.45594000000E+02  0.51100000000E-03 0.  1.
    9900012    2    1    2    0    0  0.37090783825E+02  0.21499596526E+02  0.13825865100E+02  0.46142318284E+02  0.10000004764E+02 0.  0.
        -12    1    1    2    0    0 -0.37090783825E+02 -0.21499596526E+02 -0.13825865100E+02  0.45045681716E+02  0.00000000000E+00 0.  1.
         11    1    3    3    0    0  0.16465962781E+02  0.12124566998E+02  0.79972061530E+01  0.21956510691E+02  0.51100000000E-03 0. -1.
        -11    1    3    3    0    0  0.13685300609E+02  0.66553781539E+01  0.68025744884E+01  0.16669029097E+02  0.51100000000E-03 0.  1.
        -12    1    3    3    0    0  0.69395204350E+01  0.27196513745E+01 -0.97391554123E+00  0.75167784953E+01  0.00000000000E+00 0.  1.
</event>
<event>
 7    1  0.2031146E-008  0.4614232E+02  0.7816164E-02  0.1320468E+00
        -11   -1    0    0    0    0  0.00000000000E+00  0.00000000000E+00  0.45593999997E+02  0.45594000000E+02  0.51100000000E-03 0. -1.
         11   -1    0    0    0    0 -0.00000000000E+00 -0.00000000000E+00 -0.45593999997E+02  0.45594000000E+02  0.51100000000E-03 0.  1.
    9900012    2    1    2    0    0  0.39037046292E+02 -0.20653382322E+01  0.22382069538E+02  0.46142316056E+02  0.99999844493E+01 0.  0.
        -12    1    1    2    0    0 -0.39037046292E+02  0.20653382322E+01 -0.22382069538E+02  0.45045683944E+02  0.00000000000E+00 0.  1.
         11    1    3    3    0    0  0.34378758308E+01 -0.19633211629E+01  0.11136719951E+01  0.41126494855E+01  0.51100000000E-03 0.  1.
        -11    1    3    3    0    0  0.46305698090E+01  0.18284223103E+01  0.47365540613E+01  0.68716991740E+01  0.51100000000E-03 0. -1.
         12    1    3    3    0    0  0.30968600652E+02 -0.19304393796E+01  0.16531843482E+02  0.35157967396E+02  0.00000000000E+00 0. -1.
</event>
<event>
 7    1  0.2031146E-008  0.4614232E+02  0.7816164E-02  0.1320468E+00
        -11   -1    0    0    0    0  0.00000000000E+00  0.00000000000E+00  0.45593999997E+02  0.45594000000E+02  0.51100000000E-03 0.  1.
         11   -1    0    0    0    0 -0.00000000000E+00 -0.00000000000E+00 -0.45593999997E+02  0.45594000000E+02  0.51100000000E-03 0. -1.
    9900012    2    1    2    0    0  0.40506011982E+02 -0.10669161288E+02 -0.16569416603E+02  0.46142316790E+02  0.99999911444E+01 0.  0.
        -12    1    1    2    0    0 -0.40506011982E+02  0.10669161288E+02  0.16569416603E+02  0.45045683210E+02  0.00000000000E+00 0.  1.
         11    1    3    3    0    0  0.17613806417E+02 -0.24850031052E+01 -0.10294450901E+02  0.20552302463E+02  0.51100000000E-03 0. -1.
        -11    1    3    3    0    0  0.80468067534E+01 -0.59624698789E+00 -0.11665947835E+01  0.81527635221E+01  0.51100000000E-03 0.  1.
         12    1    3    3    0    0  0.14845398812E+02 -0.75879111947E+01 -0.51083709189E+01  0.17437250805E+02  0.00000000000E+00 0. -1.
</event>
<event>
 7    1  0.2031146E-008  0.4614232E+02  0.7816164E-02  0.1320468E+00
        -11   -1    0    0    0    0  0.00000000000E+00  0.00000000000E+00  0.45593999997E+02  0.45594000000E+02  0.51100000000E-03 0.  1.
         11   -1    0    0    0    0 -0.00000000000E+00 -0.00000000000E+00 -0.45593999997E+02  0.45594000000E+02  0.51100000000E-03 0. -1.
    9900012    2    1    2    0    0  0.17942187134E+02  0.36253740931E+02  0.19820632682E+02  0.46142319957E+02  0.10000020022E+02 0.  0.
        -12    1    1    2    0    0 -0.17942187134E+02 -0.36253740931E+02 -0.19820632682E+02  0.45045680043E+02  0.00000000000E+00 0.  1.
         11    1    3    3    0    0  0.79739082691E+01  0.12330092102E+02  0.90202183734E+01  0.17233070652E+02  0.51100000000E-03 0. -1.
        -11    1    3    3    0    0  0.10769833725E+02  0.20532142562E+02  0.83249549670E+01  0.24634590967E+02  0.51100000000E-03 0.  1.
        -12    1    3    3    0    0 -0.80155486040E+00  0.33915062679E+01  0.24754593414E+01  0.42746583384E+01  0.00000000000E+00 0.  1.
</event>
<event>
 7    1  0.2031146E-008  0.4614232E+02  0.7816164E-02  0.1320468E+00
        -11   -1    0    0    0    0  0.00000000000E+00  0.00000000000E+00  0.45593999997E+02  0.45594000000E+02  0.51100000000E-03 0.  1.
         11   -1    0    0    0    0 -0.00000000000E+00 -0.00000000000E+00 -0.45593999997E+02  0.45594000000E+02  0.51100000000E-03 0. -1.
    9900012    2    1    2    0    0 -0.42409646692E+02  0.24642960572E+01 -0.14982074955E+02  0.46142318103E+02  0.10000003118E+02 0.  0.
        -12    1    1    2    0    0  0.42409646692E+02 -0.24642960572E+01  0.14982074955E+02  0.45045681897E+02  0.00000000000E+00 0.  1.
         11    1    3    3    0    0 -0.11074721861E+02 -0.98478205495E+00 -0.25916190727E+01  0.11416468354E+02  0.51100000000E-03 0. -1.
        -11    1    3    3    0    0 -0.74035903091E+01  0.19457725551E+01 -0.64805314496E+01  0.10029779082E+02  0.51100000000E-03 0.  1.
        -12    1    3    3    0    0 -0.23931334522E+02  0.15033055571E+01 -0.59099244326E+01  0.24696070667E+02  0.00000000000E+00 0.  1.
</event>
<event>
 7    1  0.2031146E-008  0.4614232E+02  0.7816164E-02  0.1320468E+00
        -11   -1    0    0    0    0  0.00000000000E+00  0.00000000000E+00  0.45593999997E+02  0.45594000000E+02  0.51100000000E-03 0. -1.
         11   -1    0    0    0    0 -0.00000000000E+00 -0.00000000000E+00 -0.45593999997E+02  0.45594000000E+02  0.51100000000E-03 0.  1.
    9900012    2    1    2    0    0 -0.28112036856E+02  0.29658528396E+02  0.18952533195E+02  0.46142318328E+02  0.10000005169E+02 0.  0.
        -12    1    1    2    0    0  0.28112036856E+02 -0.29658528396E+02 -0.18952533195E+02  0.45045681672E+02  0.00000000000E+00 0.  1.
         11    1    3    3    0    0 -0.21218716233E+02  0.17708812533E+02  0.97866830468E+01  0.29319193803E+02  0.51100000000E-03 0. -1.
        -11    1    3    3    0    0 -0.41078388335E+01  0.73409573013E+01  0.38328380721E+01  0.92441679955E+01  0.51100000000E-03 0.  1.
         12    1    3    3    0    0 -0.27854817889E+01  0.46087585615E+01  0.53330120761E+01  0.75789565297E+01  0.00000000000E+00 0. -1.
</event>
<event>
 7    1  0.2031146E-008  0.4614232E+02  0.7816164E-02  0.1320468E+00
        -11   -1    0    0    0    0  0.00000000000E+00  0.00000000000E+00  0.45593999997E+02  0.45594000000E+02  0.51100000000E-03 0.  1.
         11   -1    0    0    0    0 -0.00000000000E+00 -0.00000000000E+00 -0.45593999997E+02  0.45594000000E+02  0.51100000000E-03 0. -1.
    9900012    2    1    2    0    0 -0.35123053528E+02 -0.81549228052E+01 -0.26999664718E+02  0.46142317077E+02  0.99999937594E+01 0.  0.
        -12    1    1    2    0    0  0.35123053528E+02  0.81549228052E+01  0.26999664718E+02  0.45045682923E+02  0.00000000000E+00 0.  1.
         11    1    3    3    0    0 -0.25262930907E+02 -0.64811545775E+01 -0.20816274958E+02  0.33369721995E+02  0.51100000000E-03 0. -1.
        -11    1    3    3    0    0 -0.75749666546E+01 -0.18736346211E+01 -0.20867374338E+01  0.80774438958E+01  0.51100000000E-03 0.  1.
        -12    1    3    3    0    0 -0.22851559667E+01  0.19986639346E+00 -0.40966523269E+01  0.46951511855E+01  0.00000000000E+00 0.  1.
</event>
<event>
 7    1  0.2031146E-008  0.4614232E+02  0.7816164E-02  0.1320468E+00
        -11   -1    0    0    0    0  0.00000000000E+00  0.00000000000E+00  0.45593999997E+02  0.45594000000E+02  0.51100000000E-03 0.  1.
         11   -1    0    0    0    0 -0.00000000000E+00 -0.00000000000E+00 -0.45593999997E+02  0.45594000000E+02  0.51100000000E-03 0. -1.
    9900012    2    1    2    0    0  0.61708646175E+01 -0.22173549979E+02 -0.38721667423E+02  0.46142318555E+02  0.10000007242E+02 0.  0.
        -12    1    1    2    0    0 -0.61708646175E+01  0.22173549979E+02  0.38721667423E+02  0.45045681445E+02  0.00000000000E+00 0.  1.
         11    1    3    3    0    0  0.30661276877E+01 -0.13444985055E+02 -0.13915949528E+02  0.19591386211E+02  0.51100000000E-03 0.  1.
        -11    1    3    3    0    0 -0.61177612693E-01 -0.41723509728E+00 -0.25374988540E+01  0.25723002394E+01  0.51100000000E-03 0. -1.
        -12    1    3    3    0    0  0.31659145424E+01 -0.83113298267E+01 -0.22268219041E+02  0.23978632105E+02  0.00000000000E+00 0.  1.
</event>
<event>
 7    1  0.2031146E-008  0.4614232E+02  0.7816164E-02  0.1320468E+00
        -11   -1    0    0    0    0  0.00000000000E+00  0.00000000000E+00  0.45593999997E+02  0.45594000000E+02  0.51100000000E-03 0.  1.
         11   -1    0    0    0    0 -0.00000000000E+00 -0.00000000000E+00 -0.45593999997E+02  0.45594000000E+02  0.51100000000E-03 0. -1.
    9900012    2    1    2    0    0  0.15510133033E+02 -0.36355511324E+02 -0.21606158130E+02  0.46142317638E+02  0.99999988765E+01 0.  0.
        -12    1    1    2    0    0 -0.15510133033E+02  0.36355511324E+02  0.21606158130E+02  0.45045682362E+02  0.00000000000E+00 0.  1.
         11    1    3    3    0    0  0.10052023318E+02 -0.25811820512E+02 -0.17184370173E+02  0.32597481949E+02  0.51100000000E-03 0. -1.
        -11    1    3    3    0    0  0.56923667373E+01 -0.75093225920E+01 -0.19465733477E+01  0.96219599314E+01  0.51100000000E-03 0.  1.
        -12    1    3    3    0    0 -0.23425702176E+00 -0.30343682202E+01 -0.24752146086E+01  0.39228757572E+01  0.00000000000E+00 0.  1.
</event>
<event>
 7    1  0.2031146E-008  0.4614232E+02  0.7816164E-02  0.1320468E+00
        -11   -1    0    0    0    0  0.00000000000E+00  0.00000000000E+00  0.45593999997E+02  0.45594000000E+02  0.51100000000E-03 0.  1.
         11   -1    0    0    0    0 -0.00000000000E+00 -0.00000000000E+00 -0.45593999997E+02  0.45594000000E+02  0.51100000000E-03 0. -1.
    9900012    2    1    2    0    0 -0.39156602362E+02  0.14507899027E+02 -0.16893634360E+02  0.46142317359E+02  0.99999963292E+01 0.  0.
        -12    1    1    2    0    0  0.39156602362E+02 -0.14507899027E+02  0.16893634360E+02  0.45045682641E+02  0.00000000000E+00 0.  1.
         11    1    3    3    0    0 -0.19055758151E+02  0.93250655091E+01 -0.86523292986E+01  0.22911603349E+02  0.51100000000E-03 0. -1.
        -11    1    3    3    0    0 -0.10494201284E+02  0.49870231233E+01 -0.69416172957E+01  0.13534574657E+02  0.51100000000E-03 0.  1.
        -12    1    3    3    0    0 -0.96066429279E+01  0.19581039429E+00 -0.12996877658E+01  0.96961393525E+01  0.00000000000E+00 0.  1.
</event>
<event>
 7    1  0.2031146E-008  0.4614232E+02  0.7816164E-02  0.1320468E+00
        -11   -1    0    0    0    0  0.00000000000E+00  0.00000000000E+00  0.45593999997E+02  0.45594000000E+02  0.51100000000E-03 0.  1.
         11   -1    0    0    0    0 -0.00000000000E+00 -0.00000000000E+00 -0.45593999997E+02  0.45594000000E+02  0.51100000000E-03 0. -1.
    9900012    2    1    2    0    0 -0.37455208436E+02  0.16816912781E+02  0.18531383975E+02  0.46142318892E+02  0.10000010316E+02 0.  0.
        -12    1    1    2    0    0  0.37455208436E+02 -0.16816912781E+02 -0.18531383975E+02  0.45045681108E+02  0.00000000000E+00 0.  1.
         11    1    3    3    0    0 -0.10469836218E+02  0.84870567001E+01  0.79318154494E+01  0.15638455756E+02  0.51100000000E-03 0. -1.
        -11    1    3    3    0    0 -0.25174803929E+01  0.83125137917E+00 -0.33940139909E+00  0.26728037629E+01  0.51100000000E-03 0.  1.
         12    1    3    3    0    0 -0.24467891825E+02  0.74986047017E+01  0.10938969924E+02  0.27831059373E+02  0.00000000000E+00 0. -1.
</event>
<event>
 7    1  0.2031146E-008  0.4614232E+02  0.7816164E-02  0.1320468E+00
        -11   -1    0    0    0    0  0.00000000000E+00  0.00000000000E+00  0.45593999997E+02  0.45594000000E+02  0.51100000000E-03 0.  1.
         11   -1    0    0    0    0 -0.00000000000E+00 -0.00000000000E+00 -0.45593999997E+02  0.45594000000E+02  0.51100000000E-03 0. -1.
    9900012    2    1    2    0    0  0.12268674525E+02  0.13595438278E+02 -0.41155280381E+02  0.46142318522E+02  0.10000006939E+02 0.  0.
        -12    1    1    2    0    0 -0.12268674525E+02 -0.13595438278E+02  0.41155280381E+02  0.45045681478E+02  0.00000000000E+00 0.  1.
         11    1    3    3    0    0  0.44905411341E+01  0.68357607992E+00 -0.13773148955E+02  0.14502822771E+02  0.51100000000E-03 0. -1.
        -11    1    3    3    0    0  0.67291505114E+00 -0.14338662799E+00 -0.30509622852E+01  0.31275782193E+01  0.51100000000E-03 0.  1.
        -12    1    3    3    0    0  0.71052183396E+01  0.13055248826E+02 -0.24331169141E+02  0.28511917532E+02  0.00000000000E+00 0.  1.
</event>
<event>
 7    1  0.2031146E-008  0.4614232E+02  0.7816164E-02  0.1320468E+00
        -11   -1    0    0    0    0  0.00000000000E+00  0.00000000000E+00  0.45593999997E+02  0.45594000000E+02  0.51100000000E-03 0.  1.
         11   -1    0    0    0    0 -0.00000000000E+00 -0.00000000000E+00 -0.45593999997E+02  0.45594000000E+02  0.51100000000E-03 0. -1.
    9900012    2    1    2    0    0  0.99449462014E+01 -0.14566945065E+01 -0.43910015044E+02  0.46142319464E+02  0.10000015525E+02 0.  0.
        -12    1    1    2    0    0 -0.99449462014E+01  0.14566945065E+01  0.43910015044E+02  0.45045680536E+02  0.00000000000E+00 0.  1.
         11    1    3    3    0    0  0.91311489061E+01 -0.13058280409E+01 -0.20372033068E+02  0.22362978308E+02  0.51100000000E-03 0. -1.
        -11    1    3    3    0    0  0.61195237941E+00  0.86638075024E+00 -0.24987328228E+01  0.27145473471E+01  0.51100000000E-03 0.  1.
         12    1    3    3    0    0  0.20184491596E+00 -0.10172472158E+01 -0.21039249153E+02  0.21064793809E+02  0.00000000000E+00 0. -1.
</event>
<event>
 7    1  0.2031146E-008  0.4614232E+02  0.7816164E-02  0.1320468E+00
        -11   -1    0    0    0    0  0.00000000000E+00  0.00000000000E+00  0.45593999997E+02  0.45594000000E+02  0.51100000000E-03 0.  1.
         11   -1    0    0    0    0 -0.00000000000E+00 -0.00000000000E+00 -0.45593999997E+02  0.45594000000E+02  0.51100000000E-03 0. -1.
    9900012    2    1    2    0    0 -0.15557023725E+02  0.17419192689E+01 -0.42238113422E+02  0.46142317684E+02  0.99999992927E+01 0.  0.
        -12    1    1    2    0    0  0.15557023725E+02 -0.17419192689E+01  0.42238113422E+02  0.45045682316E+02  0.00000000000E+00 0.  1.
         11    1    3    3    0    0 -0.18249943675E+01  0.11063724936E+01 -0.12374472172E+01  0.24669698848E+01  0.51100000000E-03 0. -1.
        -11    1    3    3    0    0 -0.16205531813E+01 -0.11911876713E+01 -0.12403392811E+02  0.12565399881E+02  0.51100000000E-03 0.  1.
         12    1    3    3    0    0 -0.12111476176E+02  0.18267344466E+01 -0.28597273394E+02  0.31109947918E+02  0.00000000000E+00 0. -1.
</event>
<event>
 7    1  0.2031146E-008  0.4614231E+02  0.7816164E-02  0.1320468E+00
        -11   -1    0    0    0    0  0.00000000000E+00  0.00000000000E+00  0.45593999997E+02  0.45594000000E+02  0.51100000000E-03 0. -1.
         11   -1    0    0    0    0 -0.00000000000E+00 -0.00000000000E+00 -0.45593999997E+02  0.45594000000E+02  0.51100000000E-03 0.  1.
    9900012    2    1    2    0    0  0.38173179407E+02 -0.18933683827E+02  0.14609524560E+02  0.46142309671E+02  0.99999262278E+01 0.  0.
        -12    1    1    2    0    0 -0.38173179407E+02  0.18933683827E+02 -0.14609524560E+02  0.45045690329E+02  0.00000000000E+00 0.  1.
         11    1    3    3    0    0  0.19164352951E+02 -0.94367080978E+01  0.72375337664E+01  0.22554506845E+02  0.51100000000E-03 0. -1.
        -11    1    3    3    0    0  0.57548456408E+01  0.51728130240E+00  0.15111218058E+01  0.59723795650E+01  0.51100000000E-03 0.  1.
         12    1    3    3    0    0  0.13253980816E+02 -0.10014257032E+02  0.58608689881E+01  0.17615423261E+02  0.00000000000E+00 0. -1.
</event>
<event>
 7    1  0.2031146E-008  0.4614232E+02  0.7816164E-02  0.1320468E+00
        -11   -1    0    0    0    0  0.00000000000E+00  0.00000000000E+00  0.45593999997E+02  0.45594000000E+02  0.51100000000E-03 0.  1.
         11   -1    0    0    0    0 -0.00000000000E+00 -0.00000000000E+00 -0.45593999997E+02  0.45594000000E+02  0.51100000000E-03 0. -1.
    9900012    2    1    2    0    0 -0.16761123957E+02 -0.89245801727E+01 -0.40847645098E+02  0.46142317436E+02  0.99999970372E+01 0.  0.
        -12    1    1    2    0    0  0.16761123957E+02  0.89245801727E+01  0.40847645098E+02  0.45045682564E+02  0.00000000000E+00 0.  1.
         11    1    3    3    0    0 -0.46269154601E+01 -0.49078992976E+01 -0.69867318895E+01  0.97113461965E+01  0.51100000000E-03 0. -1.
        -11    1    3    3    0    0 -0.17364338897E+01  0.34536250449E+00 -0.22110183166E+01  0.28325042225E+01  0.51100000000E-03 0.  1.
         12    1    3    3    0    0 -0.10397774608E+02 -0.43620433796E+01 -0.31649894892E+02  0.33598467017E+02  0.00000000000E+00 0. -1.
</event>
<event>
 7    1  0.2031146E-008  0.4614232E+02  0.7816164E-02  0.1320468E+00
        -11   -1    0    0    0    0  0.00000000000E+00  0.00000000000E+00  0.45593999997E+02  0.45594000000E+02  0.51100000000E-03 0.  1.
         11   -1    0    0    0    0 -0.00000000000E+00 -0.00000000000E+00 -0.45593999997E+02  0.45594000000E+02  0.51100000000E-03 0. -1.
    9900012    2    1    2    0    0  0.38618381602E+02 -0.31950307319E+01 -0.22967925497E+02  0.46142320734E+02  0.10000027110E+02 0.  0.
        -12    1    1    2    0    0 -0.38618381602E+02  0.31950307319E+01  0.22967925497E+02  0.45045679266E+02  0.00000000000E+00 0.  1.
         11    1    3    3    0    0  0.44744493499E+01  0.87654617208E-01  0.15424174099E+00  0.44779650616E+01  0.51100000000E-03 0. -1.
        -11    1    3    3    0    0  0.77675380553E+01  0.57054600746E+00 -0.72486019181E+01  0.10639661659E+02  0.51100000000E-03 0.  1.
         12    1    3    3    0    0  0.26376394196E+02 -0.38532313566E+01 -0.15873565319E+02  0.31024694014E+02  0.00000000000E+00 0. -1.
</event>
<event>
 7    1  0.2031146E-008  0.4614232E+02  0.7816164E-02  0.1320468E+00
        -11   -1    0    0    0    0  0.00000000000E+00  0.00000000000E+00  0.45593999997E+02  0.45594000000E+02  0.51100000000E-03 0. -1.
         11   -1    0    0    0    0 -0.00000000000E+00 -0.00000000000E+00 -0.45593999997E+02  0.45594000000E+02  0.51100000000E-03 0.  1.
    9900012    2    1    2    0    0 -0.26033410264E+02  0.38646587972E+01  0.36557344958E+02  0.46142317543E+02  0.99999980143E+01 0.  0.
        -12    1    1    2    0    0  0.26033410264E+02 -0.38646587972E+01 -0.36557344958E+02  0.45045682457E+02  0.00000000000E+00 0.  1.
         11    1    3    3    0    0 -0.10204786101E+02  0.53039794856E+01  0.11515081301E+02  0.16274733650E+02  0.51100000000E-03 0.  1.
        -11    1    3    3    0    0 -0.12297495217E+02 -0.56183176959E+00  0.21583887775E+02  0.24847701207E+02  0.51100000000E-03 0. -1.
         12    1    3    3    0    0 -0.35311289467E+01 -0.87748891879E+00  0.34583758818E+01  0.50198826859E+01  0.00000000000E+00 0. -1.
</event>
<event>
 7    1  0.2031146E-008  0.4614232E+02  0.7816164E-02  0.1320468E+00
        -11   -1    0    0    0    0  0.00000000000E+00  0.00000000000E+00  0.45593999997E+02  0.45594000000E+02  0.51100000000E-03 0. -1.
         11   -1    0    0    0    0 -0.00000000000E+00 -0.00000000000E+00 -0.45593999997E+02  0.45594000000E+02  0.51100000000E-03 0.  1.
    9900012    2    1    2    0    0 -0.22491688361E+02 -0.93578611956E+01  0.37890207710E+02  0.46142318167E+02  0.10000003701E+02 0.  0.
        -12    1    1    2    0    0  0.22491688361E+02  0.93578611956E+01 -0.37890207710E+02  0.45045681833E+02  0.00000000000E+00 0.  1.
         11    1    3    3    0    0 -0.44939810356E+01 -0.45981950954E+01  0.83223039058E+01  0.10516653757E+02  0.51100000000E-03 0. -1.
        -11    1    3    3    0    0 -0.62813049376E+01  0.93999742207E+00  0.62278923716E+01  0.88952251532E+01  0.51100000000E-03 0.  1.
        -12    1    3    3    0    0 -0.11716402387E+02 -0.56996635222E+01  0.23340011433E+02  0.26730439257E+02  0.00000000000E+00 0.  1.
</event>
<event>
 7    1  0.2031146E-008  0.4614231E+02  0.7816164E-02  0.1320468E+00
        -11   -1    0    0    0    0  0.00000000000E+00  0.00000000000E+00  0.45593999997E+02  0.45594000000E+02  0.51100000000E-03 0.  1.
         11   -1    0    0    0    0 -0.00000000000E+00 -0.00000000000E+00 -0.45593999997E+02  0.45594000000E+02  0.51100000000E-03 0. -1.
    9900012    2    1    2    0    0 -0.23406427209E+02 -0.23422336489E+02 -0.30539279068E+02  0.46142309338E+02  0.99999231898E+01 0.  0.
        -12    1    1    2    0    0  0.23406427209E+02  0.23422336489E+02  0.30539279068E+02  0.45045690662E+02  0.00000000000E+00 0.  1.
         11    1    3    3    0    0 -0.14593060266E+02 -0.19040244673E+02 -0.20159498537E+02  0.31335183207E+02  0.51100000000E-03 0. -1.
        -11    1    3    3    0    0 -0.39564828508E+01 -0.21066052320E+01 -0.21192778763E+01  0.49581126581E+01  0.51100000000E-03 0.  1.
         12    1    3    3    0    0 -0.48568840919E+01 -0.22754865840E+01 -0.82605026546E+01  0.98490134725E+01  0.00000000000E+00 0. -1.
</event>
<event>
 7    1  0.2031146E-008  0.4614232E+02  0.7816164E-02  0.1320468E+00
        -11   -1    0    0    0    0  0.00000000000E+00  0.00000000000E+00  0.45593999997E+02  0.45594000000E+02  0.51100000000E-03 0.  1.
         11   -1    0    0    0    0 -0.00000000000E+00 -0.00000000000E+00 -0.45593999997E+02  0.45594000000E+02  0.51100000000E-03 0. -1.
    9900012    2    1    2    0    0  0.26309545045E+02 -0.21573311001E+01 -0.36500235887E+02  0.46142318101E+02  0.10000003095E+02 0.  0.
        -12    1    1    2    0    0 -0.26309545045E+02  0.21573311001E+01  0.36500235887E+02  0.45045681899E+02  0.00000000000E+00 0.  1.
         11    1    3    3    0    0  0.17057606521E+02 -0.42138117242E+01 -0.26867726856E+02  0.32102848723E+02  0.51100000000E-03 0. -1.
        -11    1    3    3    0    0  0.51589181822E+01  0.14541485343E+01 -0.27877353480E+01  0.60415605105E+01  0.51100000000E-03 0.  1.
         12    1    3    3    0    0  0.40930203422E+01  0.60233208985E+00 -0.68447736840E+01  0.79979088675E+01  0.00000000000E+00 0. -1.
</event>
<event>
 7    1  0.2031146E-008  0.4614231E+02  0.7816164E-02  0.1320468E+00
        -11   -1    0    0    0    0  0.00000000000E+00  0.00000000000E+00  0.45593999997E+02  0.45594000000E+02  0.51100000000E-03 0.  1.
         11   -1    0    0    0    0 -0.00000000000E+00 -0.00000000000E+00 -0.45593999997E+02  0.45594000000E+02  0.51100000000E-03 0. -1.
    9900012    2    1    2    0    0  0.24065643919E+02  0.23539489169E+01 -0.38005495329E+02  0.46142312438E+02  0.99999514599E+01 0.  0.
        -12    1    1    2    0    0 -0.24065643919E+02 -0.23539489169E+01  0.38005495329E+02  0.45045687562E+02  0.00000000000E+00 0.  1.
         11    1    3    3    0    0  0.57950685389E+01 -0.11689317320E+01 -0.12882286606E+02  0.14174008933E+02  0.51100000000E-03 0. -1.
        -11    1    3    3    0    0  0.30000380672E+01  0.24835594064E+01 -0.86253990248E+01  0.94639211920E+01  0.51100000000E-03 0.  1.
         12    1    3    3    0    0  0.15270537313E+02  0.10393212425E+01 -0.16497809698E+02  0.22504382313E+02  0.00000000000E+00 0. -1.
</event>
<event>
 7    1  0.2031146E-008  0.4614232E+02  0.7816164E-02  0.1320468E+00
        -11   -1    0    0    0    0  0.00000000000E+00  0.00000000000E+00  0.45593999997E+02  0.45594000000E+02  0.51100000000E-03 0.  1.
         11   -1    0    0    0    0 -0.00000000000E+00 -0.00000000000E+00 -0.45593999997E+02  0.45594000000E+02  0.51100000000E-03 0. -1.
    9900012    2    1    2    0    0 -0.44405720125E+01  0.12469946775E+02 -0.43056885303E+02  0.46142316251E+02  0.99999862305E+01 0.  0.
        -12    1    1    2    0    0  0.44405720125E+01 -0.12469946775E+02  0.43056885303E+02  0.45045683749E+02  0.00000000000E+00 0.  1.
         11    1    3    3    0    0  0.68569588810E+00  0.72092559252E+01 -0.13655541872E+02  0.15456952285E+02  0.51100000000E-03 0. -1.
        -11    1    3    3    0    0 -0.33496085932E+01  0.41506107015E+01 -0.11674527941E+02  0.12835187955E+02  0.51100000000E-03 0.  1.
        -12    1    3    3    0    0 -0.17766593074E+01  0.11100801486E+01 -0.17726815490E+02  0.17850176012E+02  0.00000000000E+00 0.  1.
</event>
<event>
 7    1  0.2031146E-008  0.4614232E+02  0.7816164E-02  0.1320468E+00
        -11   -1    0    0    0    0  0.00000000000E+00  0.00000000000E+00  0.45593999997E+02  0.45594000000E+02  0.51100000000E-03 0.  1.
         11   -1    0    0    0    0 -0.00000000000E+00 -0.00000000000E+00 -0.45593999997E+02  0.45594000000E+02  0.51100000000E-03 0. -1.
    9900012    2    1    2    0    0 -0.55680679256E+01  0.18206589941E+02 -0.40824382866E+02  0.46142317254E+02  0.99999953763E+01 0.  0.
        -12    1    1    2    0    0  0.55680679256E+01 -0.18206589941E+02  0.40824382866E+02  0.45045682746E+02  0.00000000000E+00 0.  1.
         11    1    3    3    0    0 -0.67707509569E+01  0.82328014687E+01 -0.21598022687E+02  0.24085196134E+02  0.51100000000E-03 0. -1.
        -11    1    3    3    0    0  0.84718262530E+00  0.85498881760E+01 -0.18545996135E+02  0.20439478445E+02  0.51100000000E-03 0.  1.
         12    1    3    3    0    0  0.35550040601E+00  0.14239002961E+01 -0.68036404337E+00  0.16176426748E+01  0.00000000000E+00 0. -1.
</event>
<event>
 7    1  0.2031146E-008  0.4614232E+02  0.7816164E-02  0.1320468E+00
        -11   -1    0    0    0    0  0.00000000000E+00  0.00000000000E+00  0.45593999997E+02  0.45594000000E+02  0.51100000000E-03 0.  1.
         11   -1    0    0    0    0 -0.00000000000E+00 -0.00000000000E+00 -0.45593999997E+02  0.45594000000E+02  0.51100000000E-03 0. -1.
    9900012    2    1    2    0    0 -0.13092649402E+02 -0.16405205072E+02 -0.39856810252E+02  0.46142317129E+02  0.99999942377E+01 0.  0.
        -12    1    1    2    0    0  0.13092649402E+02  0.16405205072E+02  0.39856810252E+02  0.45045682871E+02  0.00000000000E+00 0.  1.
         11    1    3    3    0    0 -0.14920418444E+01 -0.40568374792E+01 -0.11887918690E+02  0.12649376674E+02  0.51100000000E-03 0. -1.
        -11    1    3    3    0    0 -0.11755206042E+00  0.43074543398E+00 -0.38771111997E+01  0.39027364287E+01  0.51100000000E-03 0.  1.
        -12    1    3    3    0    0 -0.11483055497E+02 -0.12779113026E+02 -0.24091780363E+02  0.29590204027E+02  0.00000000000E+00 0.  1.
</event>
<event>
 7    1  0.2031146E-008  0.4614232E+02  0.7816164E-02  0.1320468E+00
        -11   -1    0    0    0    0  0.00000000000E+00  0.00000000000E+00  0.45593999997E+02  0.45594000000E+02  0.51100000000E-03 0.  1.
         11   -1    0    0    0    0 -0.00000000000E+00 -0.00000000000E+00 -0.45593999997E+02  0.45594000000E+02  0.51100000000E-03 0. -1.
    9900012    2    1    2    0    0 -0.12967738638E+02 -0.22569087187E+02 -0.36763942018E+02  0.46142319025E+02  0.10000011524E+02 0.  0.
        -12    1    1    2    0    0  0.12967738638E+02  0.22569087187E+02  0.36763942018E+02  0.45045680975E+02  0.00000000000E+00 0.  1.
         11    1    3    3    0    0 -0.38730919791E+01 -0.36537468649E+01 -0.13174307719E+02  0.14209612653E+02  0.51100000000E-03 0. -1.
        -11    1    3    3    0    0 -0.95516868768E+01 -0.17432276221E+02 -0.21015686895E+02  0.28927116558E+02  0.51100000000E-03 0.  1.
        -12    1    3    3    0    0  0.45704021769E+00 -0.14830641010E+01 -0.25739474036E+01  0.30055898131E+01  0.00000000000E+00 0.  1.
</event>
<event>
 7    1  0.2031146E-008  0.4614232E+02  0.7816164E-02  0.1320468E+00
        -11   -1    0    0    0    0  0.00000000000E+00  0.00000000000E+00  0.45593999997E+02  0.45594000000E+02  0.51100000000E-03 0.  1.
         11   -1    0    0    0    0 -0.00000000000E+00 -0.00000000000E+00 -0.45593999997E+02  0.45594000000E+02  0.51100000000E-03 0. -1.
    9900012    2    1    2    0    0 -0.32816689839E+02 -0.27680050470E+02  0.13637929134E+02  0.46142318331E+02  0.10000005196E+02 0.  0.
        -12    1    1    2    0    0  0.32816689839E+02  0.27680050470E+02 -0.13637929134E+02  0.45045681669E+02  0.00000000000E+00 0.  1.
         11    1    3    3    0    0 -0.22737689855E+02 -0.17634317294E+02  0.77189393149E+01  0.29791839668E+02  0.51100000000E-03 0. -1.
        -11    1    3    3    0    0 -0.94538113174E+01 -0.62036753713E+01  0.38693046471E+01  0.11951219823E+02  0.51100000000E-03 0.  1.
        -12    1    3    3    0    0 -0.62518866580E+00 -0.38420578045E+01  0.20496851722E+01  0.43992588406E+01  0.00000000000E+00 0.  1.
</event>
<event>
 7    1  0.2031146E-008  0.4614231E+02  0.7816164E-02  0.1320468E+00
        -11   -1    0    0    0    0  0.00000000000E+00  0.00000000000E+00  0.45593999997E+02  0.45594000000E+02  0.51100000000E-03 0. -1.
         11   -1    0    0    0    0 -0.00000000000E+00 -0.00000000000E+00 -0.45593999997E+02  0.45594000000E+02  0.51100000000E-03 0.  1.
    9900012    2    1    2    0    0 -0.12485619057E+02  0.43068660314E+02 -0.42794577423E+01  0.46142312714E+02  0.99999539761E+01 0.  0.
        -12    1    1    2    0    0  0.12485619057E+02 -0.43068660314E+02  0.42794577423E+01  0.45045687286E+02  0.00000000000E+00 0.  1.
         11    1    3    3    0    0 -0.26469213417E+00  0.25247833524E+01 -0.18133581587E+01  0.31197533517E+01  0.51100000000E-03 0.  1.
        -11    1    3    3    0    0 -0.90807435954E+01  0.19714529729E+02  0.72519787600E+00  0.21717469901E+02  0.51100000000E-03 0. -1.
         12    1    3    3    0    0 -0.31401833275E+01  0.20829347233E+02 -0.31912974596E+01  0.21305089461E+02  0.00000000000E+00 0. -1.
</event>
<event>
 7    1  0.2031146E-008  0.4614232E+02  0.7816164E-02  0.1320468E+00
        -11   -1    0    0    0    0  0.00000000000E+00  0.00000000000E+00  0.45593999997E+02  0.45594000000E+02  0.51100000000E-03 0. -1.
         11   -1    0    0    0    0 -0.00000000000E+00 -0.00000000000E+00 -0.45593999997E+02  0.45594000000E+02  0.51100000000E-03 0.  1.
    9900012    2    1    2    0    0 -0.62951052215E+01 -0.20108761868E+02  0.39813601087E+02  0.46142317797E+02  0.10000000330E+02 0.  0.
        -12    1    1    2    0    0  0.62951052215E+01  0.20108761868E+02 -0.39813601087E+02  0.45045682203E+02  0.00000000000E+00 0.  1.
         11    1    3    3    0    0  0.72156454654E+00 -0.61580342327E+01  0.11343256179E+02  0.12927161406E+02  0.51100000000E-03 0. -1.
        -11    1    3    3    0    0 -0.60246622391E+00 -0.89215363656E+01  0.14187661798E+02  0.16770406203E+02  0.51100000000E-03 0.  1.
        -12    1    3    3    0    0 -0.64142035442E+01 -0.50291912694E+01  0.14282683110E+02  0.16444750188E+02  0.00000000000E+00 0.  1.
</event>
<event>
 7    1  0.2031146E-008  0.4614232E+02  0.7816164E-02  0.1320468E+00
        -11   -1    0    0    0    0  0.00000000000E+00  0.00000000000E+00  0.45593999997E+02  0.45594000000E+02  0.51100000000E-03 0. -1.
         11   -1    0    0    0    0 -0.00000000000E+00 -0.00000000000E+00 -0.45593999997E+02  0.45594000000E+02  0.51100000000E-03 0.  1.
    9900012    2    1    2    0    0  0.22074463858E+02  0.38553015746E+02 -0.74495954063E+01  0.46142318193E+02  0.10000003940E+02 0.  0.
        -12    1    1    2    0    0 -0.22074463858E+02 -0.38553015746E+02  0.74495954063E+01  0.45045681807E+02  0.00000000000E+00 0.  1.
         11    1    3    3    0    0  0.18763303489E+02  0.29517755360E+02 -0.42371704984E+01  0.35232272896E+02  0.51100000000E-03 0. -1.
        -11    1    3    3    0    0  0.31107649665E+01  0.66895176535E+01 -0.40441218294E+01  0.84131698394E+01  0.51100000000E-03 0.  1.
         12    1    3    3    0    0  0.20039540256E+00  0.23457427325E+01  0.83169692151E+00  0.24968754582E+01  0.00000000000E+00 0. -1.
</event>
<event>
 7    1  0.2031146E-008  0.4614232E+02  0.7816164E-02  0.1320468E+00
        -11   -1    0    0    0    0  0.00000000000E+00  0.00000000000E+00  0.45593999997E+02  0.45594000000E+02  0.51100000000E-03 0.  1.
         11   -1    0    0    0    0 -0.00000000000E+00 -0.00000000000E+00 -0.45593999997E+02  0.45594000000E+02  0.51100000000E-03 0. -1.
    9900012    2    1    2    0    0  0.18497905562E+02  0.10357289873E+02 -0.39745031194E+02  0.46142317984E+02  0.10000002034E+02 0.  0.
        -12    1    1    2    0    0 -0.18497905562E+02 -0.10357289873E+02  0.39745031194E+02  0.45045682016E+02  0.00000000000E+00 0.  1.
         11    1    3    3    0    0  0.17008314408E+02  0.88003343385E+01 -0.33861280330E+02  0.38901348940E+02  0.51100000000E-03 0. -1.
        -11    1    3    3    0    0  0.10155363026E+01  0.11753710761E+00 -0.56082411824E+01  0.57006577142E+01  0.51100000000E-03 0.  1.
        -12    1    3    3    0    0  0.47405485126E+00  0.14394184268E+01 -0.27550968101E+00  0.15403113301E+01  0.00000000000E+00 0.  1.
</event>
<event>
 7    1  0.2031146E-008  0.4614232E+02  0.7816164E-02  0.1320468E+00
        -11   -1    0    0    0    0  0.00000000000E+00  0.00000000000E+00  0.45593999997E+02  0.45594000000E+02  0.51100000000E-03 0. -1.
         11   -1    0    0    0    0 -0.00000000000E+00 -0.00000000000E+00 -0.45593999997E+02  0.45594000000E+02  0.51100000000E-03 0.  1.
    9900012    2    1    2    0    0 -0.34291550556E+02  0.43737142299E+01  0.28880331940E+02  0.46142318868E+02  0.10000010095E+02 0.  0.
        -12    1    1    2    0    0  0.34291550556E+02 -0.43737142299E+01 -0.28880331940E+02  0.45045681132E+02  0.00000000000E+00 0.  1.
         11    1    3    3    0    0 -0.33555691924E+01  0.21569916026E+01  0.99012116139E+00  0.41100848597E+01  0.51100000000E-03 0.  1.
        -11    1    3    3    0    0 -0.12034863361E+02 -0.74597008773E+00  0.82258091526E+01  0.14596518214E+02  0.51100000000E-03 0. -1.
        -12    1    3    3    0    0 -0.18901118002E+02  0.29626927151E+01  0.19664401626E+02  0.27435715795E+02  0.00000000000E+00 0.  1.
</event>
<event>
 7    1  0.2031146E-008  0.4614232E+02  0.7816164E-02  0.1320468E+00
        -11   -1    0    0    0    0  0.00000000000E+00  0.00000000000E+00  0.45593999997E+02  0.45594000000E+02  0.51100000000E-03 0.  1.
         11   -1    0    0    0    0 -0.00000000000E+00 -0.00000000000E+00 -0.45593999997E+02  0.45594000000E+02  0.51100000000E-03 0. -1.
    9900012    2    1    2    0    0 -0.44042175359E+02  0.92605286267E+01  0.19086112050E+01  0.46142318770E+02  0.10000009198E+02 0.  0.
        -12    1    1    2    0    0  0.44042175359E+02 -0.92605286267E+01 -0.19086112050E+01  0.45045681230E+02  0.00000000000E+00 0.  1.
         11    1    3    3    0    0 -0.18203671294E+02  0.63399987041E+00 -0.13297880395E+01  0.18263185398E+02  0.51100000000E-03 0. -1.
        -11    1    3    3    0    0 -0.58645109429E+01  0.42269160031E+01  0.11505353677E+01  0.73200436740E+01  0.51100000000E-03 0.  1.
        -12    1    3    3    0    0 -0.19973993122E+02  0.43996127532E+01  0.20878638769E+01  0.20559089697E+02  0.00000000000E+00 0.  1.
</event>
<event>
 7    1  0.2031146E-008  0.4614232E+02  0.7816164E-02  0.1320468E+00
        -11   -1    0    0    0    0  0.00000000000E+00  0.00000000000E+00  0.45593999997E+02  0.45594000000E+02  0.51100000000E-03 0.  1.
         11   -1    0    0    0    0 -0.00000000000E+00 -0.00000000000E+00 -0.45593999997E+02  0.45594000000E+02  0.51100000000E-03 0. -1.
    9900012    2    1    2    0    0 -0.36755416606E+02 -0.16280417811E+02 -0.20324879795E+02  0.46142318824E+02  0.10000009690E+02 0.  0.
        -12    1    1    2    0    0  0.36755416606E+02  0.16280417811E+02  0.20324879795E+02  0.45045681176E+02  0.00000000000E+00 0.  1.
         11    1    3    3    0    0 -0.19023484673E+01 -0.22991358132E+01 -0.23649139888E+01  0.38075942030E+01  0.51100000000E-03 0.  1.
        -11    1    3    3    0    0 -0.20678036204E+02 -0.12073222172E+02 -0.12626723620E+02  0.27069873005E+02  0.51100000000E-03 0. -1.
         12    1    3    3    0    0 -0.14175031934E+02 -0.19080598256E+01 -0.53332421862E+01  0.15264851616E+02  0.00000000000E+00 0. -1.
</event>
<event>
 7    1  0.2031146E-008  0.4614232E+02  0.7816164E-02  0.1320468E+00
        -11   -1    0    0    0    0  0.00000000000E+00  0.00000000000E+00  0.45593999997E+02  0.45594000000E+02  0.51100000000E-03 0.  1.
         11   -1    0    0    0    0 -0.00000000000E+00 -0.00000000000E+00 -0.45593999997E+02  0.45594000000E+02  0.51100000000E-03 0. -1.
    9900012    2    1    2    0    0 -0.18251959688E+02  0.33749969347E+02 -0.23599130490E+02  0.46142318484E+02  0.10000006596E+02 0.  0.
        -12    1    1    2    0    0  0.18251959688E+02 -0.33749969347E+02  0.23599130490E+02  0.45045681516E+02  0.00000000000E+00 0.  1.
         11    1    3    3    0    0 -0.16260911416E+02  0.24203042720E+02 -0.16100496221E+02  0.33308114564E+02  0.51100000000E-03 0. -1.
        -11    1    3    3    0    0 -0.12009779193E+01  0.87550731178E+01 -0.51385251836E+01  0.10222430953E+02  0.51100000000E-03 0.  1.
         12    1    3    3    0    0 -0.79007035238E+00  0.79185350880E+00 -0.23601090852E+01  0.26117729678E+01  0.00000000000E+00 0. -1.
</event>
<event>
 7    1  0.2031146E-008  0.4614232E+02  0.7816164E-02  0.1320468E+00
        -11   -1    0    0    0    0  0.00000000000E+00  0.00000000000E+00  0.45593999997E+02  0.45594000000E+02  0.51100000000E-03 0.  1.
         11   -1    0    0    0    0 -0.00000000000E+00 -0.00000000000E+00 -0.45593999997E+02  0.45594000000E+02  0.51100000000E-03 0. -1.
    9900012    2    1    2    0    0  0.12747583663E+02  0.16879332881E+02 -0.39770601313E+02  0.46142317671E+02  0.99999991740E+01 0.  0.
        -12    1    1    2    0    0 -0.12747583663E+02 -0.16879332881E+02  0.39770601313E+02  0.45045682329E+02  0.00000000000E+00 0.  1.
         11    1    3    3    0    0  0.26927509180E+01  0.28547546199E+01 -0.33022205588E+01  0.51288587742E+01  0.51100000000E-03 0. -1.
        -11    1    3    3    0    0  0.10349087964E+02  0.14072900181E+02 -0.36693766070E+02  0.40639667935E+02  0.51100000000E-03 0.  1.
        -12    1    3    3    0    0 -0.29425521893E+00 -0.48321919967E-01  0.22538531637E+00  0.37379096117E+00  0.00000000000E+00 0.  1.
</event>
<event>
 7    1  0.2031146E-008  0.4614232E+02  0.7816164E-02  0.1320468E+00
        -11   -1    0    0    0    0  0.00000000000E+00  0.00000000000E+00  0.45593999997E+02  0.45594000000E+02  0.51100000000E-03 0.  1.
         11   -1    0    0    0    0 -0.00000000000E+00 -0.00000000000E+00 -0.45593999997E+02  0.45594000000E+02  0.51100000000E-03 0. -1.
    9900012    2    1    2    0    0 -0.47500640827E+01 -0.18156791260E+02 -0.40949741018E+02  0.46142317997E+02  0.10000002154E+02 0.  0.
        -12    1    1    2    0    0  0.47500640827E+01  0.18156791260E+02  0.40949741018E+02  0.45045682003E+02  0.00000000000E+00 0.  1.
         11    1    3    3    0    0 -0.70253923125E+01 -0.15232758461E+02 -0.32517001987E+02  0.36588912064E+02  0.51100000000E-03 0. -1.
        -11    1    3    3    0    0  0.10859671206E+01 -0.99744961866E-01 -0.87557928465E+00  0.13985395916E+01  0.51100000000E-03 0.  1.
        -12    1    3    3    0    0  0.11893611091E+01 -0.28242878372E+01 -0.75571597458E+01  0.81548663422E+01  0.00000000000E+00 0.  1.
</event>
<event>
 7    1  0.2031146E-008  0.4614232E+02  0.7816164E-02  0.1320468E+00
        -11   -1    0    0    0    0  0.00000000000E+00  0.00000000000E+00  0.45593999997E+02  0.45594000000E+02  0.51100000000E-03 0.  1.
         11   -1    0    0    0    0 -0.00000000000E+00 -0.00000000000E+00 -0.45593999997E+02  0.45594000000E+02  0.51100000000E-03 0. -1.
    9900012    2    1    2    0    0  0.14561191674E+02 -0.19793841049E+02 -0.37752999527E+02  0.46142318523E+02  0.10000006946E+02 0.  0.
        -12    1    1    2    0    0 -0.14561191674E+02  0.19793841049E+02  0.37752999527E+02  0.45045681477E+02  0.00000000000E+00 0.  1.
         11    1    3    3    0    0  0.47998038866E+01 -0.54163060613E+01 -0.50884591085E+01  0.88468584854E+01  0.51100000000E-03 0.  1.
        -11    1    3    3    0    0  0.77819972216E+01 -0.94284589784E+01 -0.26236599621E+02  0.28945025123E+02  0.51100000000E-03 0. -1.
        -12    1    3    3    0    0  0.19793905661E+01 -0.49490760088E+01 -0.64279407979E+01  0.83504349142E+01  0.00000000000E+00 0.  1.
</event>
<event>
 7    1  0.2031146E-008  0.4614232E+02  0.7816164E-02  0.1320468E+00
        -11   -1    0    0    0    0  0.00000000000E+00  0.00000000000E+00  0.45593999997E+02  0.45594000000E+02  0.51100000000E-03 0.  1.
         11   -1    0    0    0    0 -0.00000000000E+00 -0.00000000000E+00 -0.45593999997E+02  0.45594000000E+02  0.51100000000E-03 0. -1.
    9900012    2    1    2    0    0  0.22480568222E+02 -0.28830875304E+02 -0.26315739865E+02  0.46142317820E+02  0.10000000538E+02 0.  0.
        -12    1    1    2    0    0 -0.22480568222E+02  0.28830875304E+02  0.26315739865E+02  0.45045682180E+02  0.00000000000E+00 0.  1.
         11    1    3    3    0    0  0.16770105822E+01 -0.48186896968E+01 -0.52976816288E+01  0.73551047435E+01  0.51100000000E-03 0. -1.
        -11    1    3    3    0    0  0.67765399936E+01 -0.11762205096E+02 -0.59049469447E+01  0.14803356433E+02  0.51100000000E-03 0.  1.
         12    1    3    3    0    0  0.14027017646E+02 -0.12249980512E+02 -0.15113111292E+02  0.23983856644E+02  0.00000000000E+00 0. -1.
</event>
<event>
 7    1  0.2031146E-008  0.4614232E+02  0.7816164E-02  0.1320468E+00
        -11   -1    0    0    0    0  0.00000000000E+00  0.00000000000E+00  0.45593999997E+02  0.45594000000E+02  0.51100000000E-03 0.  1.
         11   -1    0    0    0    0 -0.00000000000E+00 -0.00000000000E+00 -0.45593999997E+02  0.45594000000E+02  0.51100000000E-03 0. -1.
    9900012    2    1    2    0    0 -0.30787257063E+02 -0.30324163495E+02 -0.12716268989E+02  0.46142316676E+02  0.99999901051E+01 0.  0.
        -12    1    1    2    0    0  0.30787257063E+02  0.30324163495E+02  0.12716268989E+02  0.45045683324E+02  0.00000000000E+00 0.  1.
         11    1    3    3    0    0 -0.12489561911E+02 -0.14385646230E+02 -0.96428885059E+01  0.21352313064E+02  0.51100000000E-03 0. -1.
        -11    1    3    3    0    0 -0.13625295562E+02 -0.11462667611E+02 -0.40118307281E+01  0.18252019449E+02  0.51100000000E-03 0.  1.
        -12    1    3    3    0    0 -0.46723995894E+01 -0.44758496540E+01  0.93845024537E+00  0.65379841627E+01  0.00000000000E+00 0.  1.
</event>
<event>
 7    1  0.2031146E-008  0.4614232E+02  0.7816164E-02  0.1320468E+00
        -11   -1    0    0    0    0  0.00000000000E+00  0.00000000000E+00  0.45593999997E+02  0.45594000000E+02  0.51100000000E-03 0.  1.
         11   -1    0    0    0    0 -0.00000000000E+00 -0.00000000000E+00 -0.45593999997E+02  0.45594000000E+02  0.51100000000E-03 0. -1.
    9900012    2    1    2    0    0  0.71560458240E+01  0.37841555713E+02 -0.23364950740E+02  0.46142320366E+02  0.10000023750E+02 0.  0.
        -12    1    1    2    0    0 -0.71560458240E+01 -0.37841555713E+02  0.23364950740E+02  0.45045679634E+02  0.00000000000E+00 0.  1.
         11    1    3    3    0    0  0.47158961447E+00  0.79437514402E+01 -0.90387879506E+01  0.12042643879E+02  0.51100000000E-03 0. -1.
        -11    1    3    3    0    0  0.22640545551E+01  0.82998146109E+01 -0.19637727474E+01  0.88243565923E+01  0.51100000000E-03 0.  1.
         12    1    3    3    0    0  0.44204016544E+01  0.21597989662E+02 -0.12362390042E+02  0.25275319895E+02  0.00000000000E+00 0. -1.
</event>
<event>
 7    1  0.2031146E-008  0.4614232E+02  0.7816164E-02  0.1320468E+00
        -11   -1    0    0    0    0  0.00000000000E+00  0.00000000000E+00  0.45593999997E+02  0.45594000000E+02  0.51100000000E-03 0.  1.
         11   -1    0    0    0    0 -0.00000000000E+00 -0.00000000000E+00 -0.45593999997E+02  0.45594000000E+02  0.51100000000E-03 0. -1.
    9900012    2    1    2    0    0  0.32418773930E+02  0.16337833637E+02 -0.26668552978E+02  0.46142318420E+02  0.10000006010E+02 0.  0.
        -12    1    1    2    0    0 -0.32418773930E+02 -0.16337833637E+02  0.26668552978E+02  0.45045681580E+02  0.00000000000E+00 0.  1.
         11    1    3    3    0    0  0.13148689509E+02  0.10605578462E+02 -0.13340143890E+02  0.21525003359E+02  0.51100000000E-03 0. -1.
        -11    1    3    3    0    0  0.78624463602E-01  0.15651159418E+00  0.35559707972E+00  0.39639277190E+00  0.51100000000E-03 0.  1.
        -12    1    3    3    0    0  0.19191459957E+02  0.55757435803E+01 -0.13684006168E+02  0.24220922289E+02  0.00000000000E+00 0.  1.
</event>
<event>
 7    1  0.2031146E-008  0.4614232E+02  0.7816164E-02  0.1320468E+00
        -11   -1    0    0    0    0  0.00000000000E+00  0.00000000000E+00  0.45593999997E+02  0.45594000000E+02  0.51100000000E-03 0.  1.
         11   -1    0    0    0    0 -0.00000000000E+00 -0.00000000000E+00 -0.45593999997E+02  0.45594000000E+02  0.51100000000E-03 0. -1.
    9900012    2    1    2    0    0  0.40360239223E+02 -0.11408302060E+02  0.16432139950E+02  0.46142317750E+02  0.99999998982E+01 0.  0.
        -12    1    1    2    0    0 -0.40360239223E+02  0.11408302060E+02 -0.16432139950E+02  0.45045682250E+02  0.00000000000E+00 0.  1.
         11    1    3    3    0    0  0.18800918056E+02 -0.49388323310E+01  0.96176086143E+01  0.21687899397E+02  0.51100000000E-03 0. -1.
        -11    1    3    3    0    0  0.14226300093E+02 -0.74723705711E+01  0.42562380742E+01  0.16623462308E+02  0.51100000000E-03 0.  1.
         12    1    3    3    0    0  0.73330210738E+01  0.10029008417E+01  0.25582932616E+01  0.78309560451E+01  0.00000000000E+00 0. -1.
</event>
<event>
 7    1  0.2031146E-008  0.4614232E+02  0.7816164E-02  0.1320468E+00
        -11   -1    0    0    0    0  0.00000000000E+00  0.00000000000E+00  0.45593999997E+02  0.45594000000E+02  0.51100000000E-03 0.  1.
         11   -1    0    0    0    0 -0.00000000000E+00 -0.00000000000E+00 -0.45593999997E+02  0.45594000000E+02  0.51100000000E-03 0. -1.
    9900012    2    1    2    0    0 -0.12000496423E+02 -0.12007926768E+02 -0.41724222656E+02  0.46142323449E+02  0.10000051868E+02 0.  0.
        -12    1    1    2    0    0  0.12000496423E+02  0.12007926768E+02  0.41724222656E+02  0.45045676551E+02  0.00000000000E+00 0.  1.
         11    1    3    3    0    0 -0.71137231012E+01 -0.16938530956E+01 -0.10044142926E+02  0.12424129831E+02  0.51100000000E-03 0.  1.
        -11    1    3    3    0    0 -0.23596560701E+01 -0.52312538237E+01 -0.13402960387E+02  0.14579895087E+02  0.51100000000E-03 0. -1.
        -12    1    3    3    0    0 -0.25271172519E+01 -0.50828198487E+01 -0.18277119342E+02  0.19138298531E+02  0.00000000000E+00 0.  1.
</event>
<event>
 7    1  0.2031146E-008  0.4614232E+02  0.7816164E-02  0.1320468E+00
        -11   -1    0    0    0    0  0.00000000000E+00  0.00000000000E+00  0.45593999997E+02  0.45594000000E+02  0.51100000000E-03 0. -1.
         11   -1    0    0    0    0 -0.00000000000E+00 -0.00000000000E+00 -0.45593999997E+02  0.45594000000E+02  0.51100000000E-03 0.  1.
    9900012    2    1    2    0    0  0.85153346058E+01 -0.39362813082E+02  0.20178489221E+02  0.46142318693E+02  0.10000008497E+02 0.  0.
        -12    1    1    2    0    0 -0.85153346058E+01  0.39362813082E+02 -0.20178489221E+02  0.45045681307E+02  0.00000000000E+00 0.  1.
         11    1    3    3    0    0 -0.56544525155E+00 -0.16617129564E+02  0.74216748519E+01  0.18207964773E+02  0.51100000000E-03 0. -1.
        -11    1    3    3    0    0  0.44551642106E+01 -0.14502531088E+02  0.96685324032E+01  0.17990342276E+02  0.51100000000E-03 0.  1.
        -12    1    3    3    0    0  0.46256156467E+01 -0.82431524297E+01  0.30882819654E+01  0.99440116446E+01  0.00000000000E+00 0.  1.
</event>
<event>
 7    1  0.2031146E-008  0.4614232E+02  0.7816164E-02  0.1320468E+00
        -11   -1    0    0    0    0  0.00000000000E+00  0.00000000000E+00  0.45593999997E+02  0.45594000000E+02  0.51100000000E-03 0.  1.
         11   -1    0    0    0    0 -0.00000000000E+00 -0.00000000000E+00 -0.45593999997E+02  0.45594000000E+02  0.51100000000E-03 0. -1.
    9900012    2    1    2    0    0 -0.37855257200E+02  0.23930530067E+02 -0.48396682432E+01  0.46142321454E+02  0.10000033676E+02 0.  0.
        -12    1    1    2    0    0  0.37855257200E+02 -0.23930530067E+02  0.48396682432E+01  0.45045678546E+02  0.00000000000E+00 0.  1.
         11    1    3    3    0    0 -0.72596897791E+01  0.87219062438E+01  0.13789911026E-01  0.11347904416E+02  0.51100000000E-03 0. -1.
        -11    1    3    3    0    0 -0.23338919727E+02  0.11905348888E+02 -0.18180593412E+01  0.26263050969E+02  0.51100000000E-03 0.  1.
        -12    1    3    3    0    0 -0.72566476936E+01  0.33032749345E+01 -0.30353988130E+01  0.85313660686E+01  0.00000000000E+00 0.  1.
</event>
<event>
 7    1  0.2031146E-008  0.4614232E+02  0.7816164E-02  0.1320468E+00
        -11   -1    0    0    0    0  0.00000000000E+00  0.00000000000E+00  0.45593999997E+02  0.45594000000E+02  0.51100000000E-03 0. -1.
         11   -1    0    0    0    0 -0.00000000000E+00 -0.00000000000E+00 -0.45593999997E+02  0.45594000000E+02  0.51100000000E-03 0.  1.
    9900012    2    1    2    0    0  0.47568795202E+01 -0.17262413426E+02  0.41333942008E+02  0.46142316722E+02  0.99999905259E+01 0.  0.
        -12    1    1    2    0    0 -0.47568795202E+01  0.17262413426E+02 -0.41333942008E+02  0.45045683278E+02  0.00000000000E+00 0.  1.
         11    1    3    3    0    0 -0.31760146905E+00 -0.89629811649E+01  0.25765642652E+02  0.27281939879E+02  0.51100000000E-03 0. -1.
        -11    1    3    3    0    0 -0.65649079169E+00 -0.21118074519E+01  0.33295360888E+01  0.39970641353E+01  0.51100000000E-03 0.  1.
        -12    1    3    3    0    0  0.57309717809E+01 -0.61876248092E+01  0.12238763267E+02  0.14863312708E+02  0.00000000000E+00 0.  1.
</event>
<event>
 7    1  0.2031146E-008  0.4614232E+02  0.7816164E-02  0.1320468E+00
        -11   -1    0    0    0    0  0.00000000000E+00  0.00000000000E+00  0.45593999997E+02  0.45594000000E+02  0.51100000000E-03 0.  1.
         11   -1    0    0    0    0 -0.00000000000E+00 -0.00000000000E+00 -0.45593999997E+02  0.45594000000E+02  0.51100000000E-03 0. -1.
    9900012    2    1    2    0    0  0.25542404433E+02  0.10429469224E+02 -0.35607939368E+02  0.46142316538E+02  0.99999888427E+01 0.  0.
        -12    1    1    2    0    0 -0.25542404433E+02 -0.10429469224E+02  0.35607939368E+02  0.45045683462E+02  0.00000000000E+00 0.  1.
         11    1    3    3    0    0  0.26697447858E+01  0.14209999615E+01 -0.65389837148E+01  0.72045184708E+01  0.51100000000E-03 0. -1.
        -11    1    3    3    0    0  0.16803626946E+01  0.36167527359E+01 -0.36391880215E+01  0.53989081169E+01  0.51100000000E-03 0.  1.
         12    1    3    3    0    0  0.21192296953E+02  0.53917165267E+01 -0.25429767632E+02  0.33538889950E+02  0.00000000000E+00 0. -1.
</event>
<event>
 7    1  0.2031146E-008  0.4614232E+02  0.7816164E-02  0.1320468E+00
        -11   -1    0    0    0    0  0.00000000000E+00  0.00000000000E+00  0.45593999997E+02  0.45594000000E+02  0.51100000000E-03 0. -1.
         11   -1    0    0    0    0 -0.00000000000E+00 -0.00000000000E+00 -0.45593999997E+02  0.45594000000E+02  0.51100000000E-03 0.  1.
    9900012    2    1    2    0    0 -0.39286844561E+02 -0.15266871719E+02  0.15892762800E+02  0.46142318330E+02  0.10000005189E+02 0.  0.
        -12    1    1    2    0    0  0.39286844561E+02  0.15266871719E+02 -0.15892762800E+02  0.45045681670E+02  0.00000000000E+00 0.  1.
         11    1    3    3    0    0 -0.40964937778E+01 -0.34420016755E+01  0.17678447174E+01  0.56350609590E+01  0.51100000000E-03 0. -1.
        -11    1    3    3    0    0 -0.16711662769E+02 -0.95260248374E+01  0.56527994172E+01  0.20049413039E+02  0.51100000000E-03 0.  1.
         12    1    3    3    0    0 -0.18478688015E+02 -0.22988452060E+01  0.84721186657E+01  0.20457844332E+02  0.00000000000E+00 0. -1.
</event>
<event>
 7    1  0.2031146E-008  0.4614232E+02  0.7816164E-02  0.1320468E+00
        -11   -1    0    0    0    0  0.00000000000E+00  0.00000000000E+00  0.45593999997E+02  0.45594000000E+02  0.51100000000E-03 0.  1.
         11   -1    0    0    0    0 -0.00000000000E+00 -0.00000000000E+00 -0.45593999997E+02  0.45594000000E+02  0.51100000000E-03 0. -1.
    9900012    2    1    2    0    0 -0.20278280059E+02  0.33264765280E+02 -0.22613265392E+02  0.46142322927E+02  0.10000047105E+02 0.  0.
        -12    1    1    2    0    0  0.20278280059E+02 -0.33264765280E+02  0.22613265392E+02  0.45045677073E+02  0.00000000000E+00 0.  1.
         11    1    3    3    0    0 -0.11833362036E+02  0.18736322715E+02 -0.97420959155E+01  0.24207161730E+02  0.51100000000E-03 0. -1.
        -11    1    3    3    0    0 -0.11409210276E+01  0.12671414454E+01  0.45629118391E+00  0.17650921051E+01  0.51100000000E-03 0.  1.
         12    1    3    3    0    0 -0.73039969960E+01  0.13261301120E+02 -0.13327460661E+02  0.20170069092E+02  0.00000000000E+00 0. -1.
</event>
<event>
 7    1  0.2031146E-008  0.4614232E+02  0.7816164E-02  0.1320468E+00
        -11   -1    0    0    0    0  0.00000000000E+00  0.00000000000E+00  0.45593999997E+02  0.45594000000E+02  0.51100000000E-03 0.  1.
         11   -1    0    0    0    0 -0.00000000000E+00 -0.00000000000E+00 -0.45593999997E+02  0.45594000000E+02  0.51100000000E-03 0. -1.
    9900012    2    1    2    0    0  0.26028870682E+02 -0.11769983991E+01 -0.36745421867E+02  0.46142318050E+02  0.10000002631E+02 0.  0.
        -12    1    1    2    0    0 -0.26028870682E+02  0.11769983991E+01  0.36745421867E+02  0.45045681950E+02  0.00000000000E+00 0.  1.
         11    1    3    3    0    0  0.14705268498E+02 -0.25090591335E+00 -0.21536707035E+02  0.26079448337E+02  0.51100000000E-03 0. -1.
        -11    1    3    3    0    0  0.60587933001E+01  0.92674024551E+00 -0.34180212332E+01  0.70178838083E+01  0.51100000000E-03 0.  1.
         12    1    3    3    0    0  0.52648088839E+01 -0.18528327313E+01 -0.11790693599E+02  0.13044985904E+02  0.00000000000E+00 0. -1.
</event>
<event>
 7    1  0.2031146E-008  0.4614231E+02  0.7816164E-02  0.1320468E+00
        -11   -1    0    0    0    0  0.00000000000E+00  0.00000000000E+00  0.45593999997E+02  0.45594000000E+02  0.51100000000E-03 0. -1.
         11   -1    0    0    0    0 -0.00000000000E+00 -0.00000000000E+00 -0.45593999997E+02  0.45594000000E+02  0.51100000000E-03 0.  1.
    9900012    2    1    2    0    0  0.34105553903E+02  0.54865154619E+01  0.28910609137E+02  0.46142312309E+02  0.99999502795E+01 0.  0.
        -12    1    1    2    0    0 -0.34105553903E+02 -0.54865154619E+01 -0.28910609137E+02  0.45045687691E+02  0.00000000000E+00 0.  1.
         11    1    3    3    0    0  0.46020865178E+01 -0.52395566693E+00  0.64715597418E+01  0.79583173857E+01  0.51100000000E-03 0. -1.
        -11    1    3    3    0    0  0.12045497542E+02  0.26160404468E+01  0.13493716234E+02  0.18276160886E+02  0.51100000000E-03 0.  1.
        -12    1    3    3    0    0  0.17457969843E+02  0.33944306820E+01  0.89453331606E+01  0.19907834037E+02  0.00000000000E+00 0.  1.
</event>
<event>
 7    1  0.2031146E-008  0.4614232E+02  0.7816164E-02  0.1320468E+00
        -11   -1    0    0    0    0  0.00000000000E+00  0.00000000000E+00  0.45593999997E+02  0.45594000000E+02  0.51100000000E-03 0.  1.
         11   -1    0    0    0    0 -0.00000000000E+00 -0.00000000000E+00 -0.45593999997E+02  0.45594000000E+02  0.51100000000E-03 0. -1.
    9900012    2    1    2    0    0  0.23212312633E+02  0.21439716446E+02 -0.32103591323E+02  0.46142317911E+02  0.10000001367E+02 0.  0.
        -12    1    1    2    0    0 -0.23212312633E+02 -0.21439716446E+02  0.32103591323E+02  0.45045682089E+02  0.00000000000E+00 0.  1.
         11    1    3    3    0    0  0.16516045026E+02  0.14584533380E+02 -0.15825418440E+02  0.27128070817E+02  0.51100000000E-03 0.  1.
        -11    1    3    3    0    0  0.57586965866E+01  0.67314179400E+01 -0.14298289383E+02  0.16820096712E+02  0.51100000000E-03 0. -1.
        -12    1    3    3    0    0  0.93757102042E+00  0.12376512590E+00 -0.19798835000E+01  0.21941503819E+01  0.00000000000E+00 0.  1.
</event>
<event>
 7    1  0.2031146E-008  0.4614231E+02  0.7816164E-02  0.1320468E+00
        -11   -1    0    0    0    0  0.00000000000E+00  0.00000000000E+00  0.45593999997E+02  0.45594000000E+02  0.51100000000E-03 0.  1.
         11   -1    0    0    0    0 -0.00000000000E+00 -0.00000000000E+00 -0.45593999997E+02  0.45594000000E+02  0.51100000000E-03 0. -1.
    9900012    2    1    2    0    0 -0.14602190367E+02  0.35825101331E+02 -0.23074927501E+02  0.46142310660E+02  0.99999352458E+01 0.  0.
        -12    1    1    2    0    0  0.14602190367E+02 -0.35825101331E+02  0.23074927501E+02  0.45045689340E+02  0.00000000000E+00 0.  1.
         11    1    3    3    0    0 -0.14993412603E+02  0.30323684447E+02 -0.18230719014E+02  0.38427690224E+02  0.51100000000E-03 0. -1.
        -11    1    3    3    0    0 -0.13208761966E+00  0.37466488003E+01 -0.44903231954E+01  0.58496005875E+01  0.51100000000E-03 0.  1.
        -12    1    3    3    0    0  0.52330985607E+00  0.17547680846E+01 -0.35388529212E+00  0.18650198488E+01  0.00000000000E+00 0.  1.
</event>
<event>
 7    1  0.2031146E-008  0.4614232E+02  0.7816164E-02  0.1320468E+00
        -11   -1    0    0    0    0  0.00000000000E+00  0.00000000000E+00  0.45593999997E+02  0.45594000000E+02  0.51100000000E-03 0.  1.
         11   -1    0    0    0    0 -0.00000000000E+00 -0.00000000000E+00 -0.45593999997E+02  0.45594000000E+02  0.51100000000E-03 0. -1.
    9900012    2    1    2    0    0  0.18046667963E+01  0.42154580306E+02 -0.15774918463E+02  0.46142317459E+02  0.99999972486E+01 0.  0.
        -12    1    1    2    0    0 -0.18046667963E+01 -0.42154580306E+02  0.15774918463E+02  0.45045682541E+02  0.00000000000E+00 0.  1.
         11    1    3    3    0    0  0.14886835538E+01  0.21603783010E+02 -0.56863940709E+01  0.22389164720E+02  0.51100000000E-03 0.  1.
        -11    1    3    3    0    0  0.19851966580E+01  0.19252974280E+02 -0.94857721039E+01  0.21554533098E+02  0.51100000000E-03 0. -1.
        -12    1    3    3    0    0 -0.16692134154E+01  0.12978230163E+01 -0.60275228788E+00  0.21986196416E+01  0.00000000000E+00 0.  1.
</event>
<event>
 7    1  0.2031146E-008  0.4614232E+02  0.7816164E-02  0.1320468E+00
        -11   -1    0    0    0    0  0.00000000000E+00  0.00000000000E+00  0.45593999997E+02  0.45594000000E+02  0.51100000000E-03 0. -1.
         11   -1    0    0    0    0 -0.00000000000E+00 -0.00000000000E+00 -0.45593999997E+02  0.45594000000E+02  0.51100000000E-03 0.  1.
    9900012    2    1    2    0    0 -0.40285965883E+02  0.73305640362E+01  0.18772781679E+02  0.46142317097E+02  0.99999939435E+01 0.  0.
        -12    1    1    2    0    0  0.40285965883E+02 -0.73305640362E+01 -0.18772781679E+02  0.45045682903E+02  0.00000000000E+00 0.  1.
         11    1    3    3    0    0 -0.10454050969E+02  0.29531378263E+01  0.18352503048E+01  0.11017093474E+02  0.51100000000E-03 0.  1.
        -11    1    3    3    0    0 -0.94834763680E+01  0.31213319508E+01  0.29844384233E+01  0.10420456330E+02  0.51100000000E-03 0. -1.
        -12    1    3    3    0    0 -0.20348438547E+02  0.12560942592E+01  0.13953092951E+02  0.24704767292E+02  0.00000000000E+00 0.  1.
</event>
<event>
 7    1  0.2031146E-008  0.4614232E+02  0.7816164E-02  0.1320468E+00
        -11   -1    0    0    0    0  0.00000000000E+00  0.00000000000E+00  0.45593999997E+02  0.45594000000E+02  0.51100000000E-03 0. -1.
         11   -1    0    0    0    0 -0.00000000000E+00 -0.00000000000E+00 -0.45593999997E+02  0.45594000000E+02  0.51100000000E-03 0.  1.
    9900012    2    1    2    0    0  0.42220881668E+02  0.10194723058E+02  0.11940612303E+02  0.46142318196E+02  0.10000003965E+02 0.  0.
        -12    1    1    2    0    0 -0.42220881668E+02 -0.10194723058E+02 -0.11940612303E+02  0.45045681804E+02  0.00000000000E+00 0.  1.
         11    1    3    3    0    0  0.12746469754E+02  0.26234184523E+01 -0.65904176387E+00  0.13030316645E+02  0.51100000000E-03 0. -1.
        -11    1    3    3    0    0  0.14086684866E+02  0.24237534508E+01  0.45590247810E+01  0.15003132290E+02  0.51100000000E-03 0.  1.
         12    1    3    3    0    0  0.15387727048E+02  0.51475511550E+01  0.80406292854E+01  0.18108869261E+02  0.00000000000E+00 0. -1.
</event>
<event>
 7    1  0.2031146E-008  0.4614232E+02  0.7816164E-02  0.1320468E+00
        -11   -1    0    0    0    0  0.00000000000E+00  0.00000000000E+00  0.45593999997E+02  0.45594000000E+02  0.51100000000E-03 0.  1.
         11   -1    0    0    0    0 -0.00000000000E+00 -0.00000000000E+00 -0.45593999997E+02  0.45594000000E+02  0.51100000000E-03 0. -1.
    9900012    2    1    2    0    0  0.42562373298E+02 -0.81164394532E+01  0.12315900463E+02  0.46142316362E+02  0.99999872438E+01 0.  0.
        -12    1    1    2    0    0 -0.42562373298E+02  0.81164394532E+01 -0.12315900463E+02  0.45045683638E+02  0.00000000000E+00 0.  1.
         11    1    3    3    0    0  0.72704163358E+01 -0.18112351880E+01  0.18387837534E+01  0.77149629004E+01  0.51100000000E-03 0. -1.
        -11    1    3    3    0    0  0.83972054438E+01  0.10786377772E+01 -0.43815673620E+00  0.84775291392E+01  0.51100000000E-03 0.  1.
        -12    1    3    3    0    0  0.26894751519E+02 -0.73838420423E+01  0.10915273445E+02  0.29949824323E+02  0.00000000000E+00 0.  1.
</event>
<event>
 7    1  0.2031146E-008  0.4614232E+02  0.7816164E-02  0.1320468E+00
        -11   -1    0    0    0    0  0.00000000000E+00  0.00000000000E+00  0.45593999997E+02  0.45594000000E+02  0.51100000000E-03 0. -1.
         11   -1    0    0    0    0 -0.00000000000E+00 -0.00000000000E+00 -0.45593999997E+02  0.45594000000E+02  0.51100000000E-03 0.  1.
    9900012    2    1    2    0    0 -0.36035623055E+02  0.10626965173E+02 -0.24851857583E+02  0.46142319374E+02  0.10000014708E+02 0.  0.
        -12    1    1    2    0    0  0.36035623055E+02 -0.10626965173E+02  0.24851857583E+02  0.45045680626E+02  0.00000000000E+00 0.  1.
         11    1    3    3    0    0 -0.23808371649E+02  0.49580311223E+01 -0.18606394649E+02  0.30620557723E+02  0.51100000000E-03 0. -1.
        -11    1    3    3    0    0 -0.10428955935E+01 -0.44154074800E-01  0.61456007000E+00  0.12113072038E+01  0.51100000000E-03 0.  1.
         12    1    3    3    0    0 -0.11184355812E+02  0.57130881258E+01 -0.68600230043E+01  0.14310454447E+02  0.00000000000E+00 0. -1.
</event>
<event>
 7    1  0.2031146E-008  0.4614232E+02  0.7816164E-02  0.1320468E+00
        -11   -1    0    0    0    0  0.00000000000E+00  0.00000000000E+00  0.45593999997E+02  0.45594000000E+02  0.51100000000E-03 0.  1.
         11   -1    0    0    0    0 -0.00000000000E+00 -0.00000000000E+00 -0.45593999997E+02  0.45594000000E+02  0.51100000000E-03 0. -1.
    9900012    2    1    2    0    0  0.28018219633E+02  0.33008232941E+02 -0.12431789826E+02  0.46142317948E+02  0.10000001700E+02 0.  0.
        -12    1    1    2    0    0 -0.28018219633E+02 -0.33008232941E+02  0.12431789826E+02  0.45045682052E+02  0.00000000000E+00 0.  1.
         11    1    3    3    0    0  0.16324518127E+02  0.13611830141E+02 -0.75963764203E+01  0.22571591589E+02  0.51100000000E-03 0. -1.
        -11    1    3    3    0    0  0.59388982627E+01  0.86911999189E+01 -0.10044996439E+00  0.10526991928E+02  0.51100000000E-03 0.  1.
         12    1    3    3    0    0  0.57548032429E+01  0.10705202882E+02 -0.47349634411E+01  0.13043734430E+02  0.00000000000E+00 0. -1.
</event>
<event>
 7    1  0.2031146E-008  0.4614232E+02  0.7816164E-02  0.1320468E+00
        -11   -1    0    0    0    0  0.00000000000E+00  0.00000000000E+00  0.45593999997E+02  0.45594000000E+02  0.51100000000E-03 0.  1.
         11   -1    0    0    0    0 -0.00000000000E+00 -0.00000000000E+00 -0.45593999997E+02  0.45594000000E+02  0.51100000000E-03 0. -1.
    9900012    2    1    2    0    0 -0.78700789132E+01 -0.32770867916E+02 -0.29887214815E+02  0.46142317238E+02  0.99999952340E+01 0.  0.
        -12    1    1    2    0    0  0.78700789132E+01  0.32770867916E+02  0.29887214815E+02  0.45045682762E+02  0.00000000000E+00 0.  1.
         11    1    3    3    0    0 -0.69132834125E+01 -0.15053892372E+02 -0.15527299576E+02  0.22704849603E+02  0.51100000000E-03 0. -1.
        -11    1    3    3    0    0 -0.29991055531E+00 -0.12639934652E+02 -0.69402369969E+01  0.14423064313E+02  0.51100000000E-03 0.  1.
        -12    1    3    3    0    0 -0.65688494538E+00 -0.50770408915E+01 -0.74196782415E+01  0.90144033221E+01  0.00000000000E+00 0.  1.
</event>
<event>
 7    1  0.2031146E-008  0.4614232E+02  0.7816164E-02  0.1320468E+00
        -11   -1    0    0    0    0  0.00000000000E+00  0.00000000000E+00  0.45593999997E+02  0.45594000000E+02  0.51100000000E-03 0.  1.
         11   -1    0    0    0    0 -0.00000000000E+00 -0.00000000000E+00 -0.45593999997E+02  0.45594000000E+02  0.51100000000E-03 0. -1.
    9900012    2    1    2    0    0 -0.35552757640E+02 -0.10817071520E+02 -0.25457925840E+02  0.46142316520E+02  0.99999886815E+01 0.  0.
        -12    1    1    2    0    0  0.35552757640E+02  0.10817071520E+02  0.25457925840E+02  0.45045683480E+02  0.00000000000E+00 0.  1.
         11    1    3    3    0    0  0.28628726418E+00 -0.78684591893E-01 -0.24515438803E+00  0.38503583953E+00  0.51100000000E-03 0.  1.
        -11    1    3    3    0    0 -0.19259767183E+02 -0.23790422657E+01 -0.15281489225E+02  0.24700655603E+02  0.51100000000E-03 0. -1.
         12    1    3    3    0    0 -0.16579277721E+02 -0.83593446628E+01 -0.99312822276E+01  0.21056625077E+02  0.00000000000E+00 0. -1.
</event>
<event>
 7    1  0.2031146E-008  0.4614232E+02  0.7816164E-02  0.1320468E+00
        -11   -1    0    0    0    0  0.00000000000E+00  0.00000000000E+00  0.45593999997E+02  0.45594000000E+02  0.51100000000E-03 0.  1.
         11   -1    0    0    0    0 -0.00000000000E+00 -0.00000000000E+00 -0.45593999997E+02  0.45594000000E+02  0.51100000000E-03 0. -1.
    9900012    2    1    2    0    0 -0.36000866884E+01  0.44849323286E+02 -0.21659009128E+01  0.46142317075E+02  0.99999937474E+01 0.  0.
        -12    1    1    2    0    0  0.36000866884E+01 -0.44849323286E+02  0.21659009128E+01  0.45045682925E+02  0.00000000000E+00 0.  1.
         11    1    3    3    0    0 -0.15754126735E+01  0.18229655100E+02  0.14248433092E+01  0.18352995093E+02  0.51100000000E-03 0.  1.
        -11    1    3    3    0    0  0.17579051420E+01  0.18037461655E+02 -0.31931912542E+01  0.18402084775E+02  0.51100000000E-03 0. -1.
         12    1    3    3    0    0 -0.37825791569E+01  0.85822065313E+01 -0.39755296777E+00  0.93872372073E+01  0.00000000000E+00 0. -1.
</event>
<event>
 7    1  0.2031146E-008  0.4614232E+02  0.7816164E-02  0.1320468E+00
        -11   -1    0    0    0    0  0.00000000000E+00  0.00000000000E+00  0.45593999997E+02  0.45594000000E+02  0.51100000000E-03 0.  1.
         11   -1    0    0    0    0 -0.00000000000E+00 -0.00000000000E+00 -0.45593999997E+02  0.45594000000E+02  0.51100000000E-03 0. -1.
    9900012    2    1    2    0    0  0.74744635859E-01 -0.52385265068E+01 -0.44739978636E+02  0.46142318353E+02  0.10000005397E+02 0.  0.
        -12    1    1    2    0    0 -0.74744635859E-01  0.52385265068E+01  0.44739978636E+02  0.45045681647E+02  0.00000000000E+00 0.  1.
         11    1    3    3    0    0 -0.81176086647E+00 -0.17509652200E+01 -0.31277699670E+02  0.31337187682E+02  0.51100000000E-03 0. -1.
        -11    1    3    3    0    0 -0.38448853626E+00 -0.72277135202E+00  0.17103696862E+00  0.83635146175E+00  0.51100000000E-03 0.  1.
         12    1    3    3    0    0  0.12709940386E+01 -0.27647899348E+01 -0.13633315934E+02  0.13968779209E+02  0.00000000000E+00 0. -1.
</event>
<event>
 7    1  0.2031146E-008  0.4614232E+02  0.7816164E-02  0.1320468E+00
        -11   -1    0    0    0    0  0.00000000000E+00  0.00000000000E+00  0.45593999997E+02  0.45594000000E+02  0.51100000000E-03 0.  1.
         11   -1    0    0    0    0 -0.00000000000E+00 -0.00000000000E+00 -0.45593999997E+02  0.45594000000E+02  0.51100000000E-03 0. -1.
    9900012    2    1    2    0    0  0.31645116808E+02 -0.63741583252E+01 -0.31417672785E+02  0.46142317905E+02  0.10000001315E+02 0.  0.
        -12    1    1    2    0    0 -0.31645116808E+02  0.63741583252E+01  0.31417672785E+02  0.45045682095E+02  0.00000000000E+00 0.  1.
         11    1    3    3    0    0  0.16072134985E+02 -0.57866153699E+01 -0.12791277856E+02  0.21340459926E+02  0.51100000000E-03 0. -1.
        -11    1    3    3    0    0  0.11908732682E+02  0.96005950416E+00 -0.11194379712E+02  0.16372347594E+02  0.51100000000E-03 0.  1.
        -12    1    3    3    0    0  0.36642491406E+01 -0.15476024595E+01 -0.74320152180E+01  0.84295103855E+01  0.00000000000E+00 0.  1.
</event>
<event>
 7    1  0.3104302E-008  0.4614232E+02  0.7816164E-02  0.1320468E+00
        -11   -1    0    0    0    0  0.00000000000E+00  0.00000000000E+00  0.45593999997E+02  0.45594000000E+02  0.51100000000E-03 0.  1.
         11   -1    0    0    0    0 -0.00000000000E+00 -0.00000000000E+00 -0.45593999997E+02  0.45594000000E+02  0.51100000000E-03 0. -1.
    9900012    2    1    2    0    0 -0.41401397468E+02  0.12904539235E+02  0.12186492332E+02  0.46142318292E+02  0.10000004839E+02 0.  0.
        -12    1    1    2    0    0  0.41401397468E+02 -0.12904539235E+02 -0.12186492332E+02  0.45045681708E+02  0.00000000000E+00 0.  1.
         11    1    3    3    0    0 -0.19956819518E+02  0.55424074139E+01  0.42246270219E+01  0.21138599739E+02  0.51100000000E-03 0. -1.
        -11    1    3    3    0    0 -0.15794326800E+02  0.22479891007E+01  0.41596307021E+01  0.16486865739E+02  0.51100000000E-03 0.  1.
        -12    1    3    3    0    0 -0.56502511505E+01  0.51141427201E+01  0.38022346083E+01  0.85168528132E+01  0.00000000000E+00 0.  1.
</event>
<event>
 7    1  0.2031146E-008  0.4614232E+02  0.7816164E-02  0.1320468E+00
        -11   -1    0    0    0    0  0.00000000000E+00  0.00000000000E+00  0.45593999997E+02  0.45594000000E+02  0.51100000000E-03 0.  1.
         11   -1    0    0    0    0 -0.00000000000E+00 -0.00000000000E+00 -0.45593999997E+02  0.45594000000E+02  0.51100000000E-03 0. -1.
    9900012    2    1    2    0    0  0.43437015758E+02 -0.11857442499E+02 -0.13191676302E+01  0.46142317812E+02  0.10000000465E+02 0.  0.
        -12    1    1    2    0    0 -0.43437015758E+02  0.11857442499E+02  0.13191676302E+01  0.45045682188E+02  0.00000000000E+00 0.  1.
         11    1    3    3    0    0  0.29332172756E+01  0.28099537561E+00 -0.18572456021E+00  0.29524931601E+01  0.51100000000E-03 0. -1.
        -11    1    3    3    0    0  0.22682195899E+01 -0.40929502350E+00  0.20291857547E+01  0.30708203484E+01  0.51100000000E-03 0.  1.
         12    1    3    3    0    0  0.38235578892E+02 -0.11729142851E+02 -0.31626288247E+01  0.40119004304E+02  0.00000000000E+00 0. -1.
</event>
<event>
 7    1  0.2100522E-008  0.4614232E+02  0.7816164E-02  0.1320468E+00
        -11   -1    0    0    0    0  0.00000000000E+00  0.00000000000E+00  0.45593999997E+02  0.45594000000E+02  0.51100000000E-03 0. -1.
         11   -1    0    0    0    0 -0.00000000000E+00 -0.00000000000E+00 -0.45593999997E+02  0.45594000000E+02  0.51100000000E-03 0.  1.
    9900012    2    1    2    0    0 -0.15798967455E+02  0.96089069146E+01  0.41075235997E+02  0.46142317888E+02  0.10000001160E+02 0.  0.
        -12    1    1    2    0    0  0.15798967455E+02 -0.96089069146E+01 -0.41075235997E+02  0.45045682112E+02  0.00000000000E+00 0.  1.
         11    1    3    3    0    0 -0.88246675935E+01  0.30956375174E+01  0.18928524618E+02  0.21112715938E+02  0.51100000000E-03 0. -1.
        -11    1    3    3    0    0 -0.18252522564E+01 -0.11841215767E+01  0.25304008770E+01  0.33371572584E+01  0.51100000000E-03 0.  1.
        -12    1    3    3    0    0 -0.51490476051E+01  0.76973909739E+01  0.19616310501E+02  0.21692444692E+02  0.00000000000E+00 0.  1.
</event>
<event>
 7    1  0.2031146E-008  0.4614232E+02  0.7816164E-02  0.1320468E+00
        -11   -1    0    0    0    0  0.00000000000E+00  0.00000000000E+00  0.45593999997E+02  0.45594000000E+02  0.51100000000E-03 0.  1.
         11   -1    0    0    0    0 -0.00000000000E+00 -0.00000000000E+00 -0.45593999997E+02  0.45594000000E+02  0.51100000000E-03 0. -1.
    9900012    2    1    2    0    0 -0.35227687672E+02 -0.82294210470E+01 -0.26840270816E+02  0.46142317777E+02  0.10000000142E+02 0.  0.
        -12    1    1    2    0    0  0.35227687672E+02  0.82294210470E+01  0.26840270816E+02  0.45045682223E+02  0.00000000000E+00 0.  1.
         11    1    3    3    0    0 -0.24676222108E+02 -0.32846914613E+01 -0.15669852679E+02  0.29415122280E+02  0.51100000000E-03 0. -1.
        -11    1    3    3    0    0 -0.10698959163E+02 -0.38876447952E+01 -0.10221949055E+02  0.15299338285E+02  0.51100000000E-03 0.  1.
         12    1    3    3    0    0  0.14749359884E+00 -0.10570847905E+01 -0.94846908233E+00  0.14278572114E+01  0.00000000000E+00 0. -1.
</event>
<event>
 7    1  0.2031146E-008  0.4614232E+02  0.7816164E-02  0.1320468E+00
        -11   -1    0    0    0    0  0.00000000000E+00  0.00000000000E+00  0.45593999997E+02  0.45594000000E+02  0.51100000000E-03 0.  1.
         11   -1    0    0    0    0 -0.00000000000E+00 -0.00000000000E+00 -0.45593999997E+02  0.45594000000E+02  0.51100000000E-03 0. -1.
    9900012    2    1    2    0    0  0.20623782320E+02  0.37999807581E+02 -0.12640715440E+02  0.46142318074E+02  0.10000002851E+02 0.  0.
        -12    1    1    2    0    0 -0.20623782320E+02 -0.37999807581E+02  0.12640715440E+02  0.45045681926E+02  0.00000000000E+00 0.  1.
         11    1    3    3    0    0  0.13385538588E+01  0.49725318885E+01 -0.16456273672E+01  0.54060974379E+01  0.51100000000E-03 0. -1.
        -11    1    3    3    0    0  0.11558927152E+02  0.11355734052E+02 -0.40290935420E+01  0.16697158075E+02  0.51100000000E-03 0.  1.
        -12    1    3    3    0    0  0.77263013100E+01  0.21671541640E+02 -0.69659945310E+01  0.24039062561E+02  0.00000000000E+00 0.  1.
</event>
<event>
 7    1  0.2031146E-008  0.4614232E+02  0.7816164E-02  0.1320468E+00
        -11   -1    0    0    0    0  0.00000000000E+00  0.00000000000E+00  0.45593999997E+02  0.45594000000E+02  0.51100000000E-03 0.  1.
         11   -1    0    0    0    0 -0.00000000000E+00 -0.00000000000E+00 -0.45593999997E+02  0.45594000000E+02  0.51100000000E-03 0. -1.
    9900012    2    1    2    0    0 -0.28739416256E+01 -0.80841704430E+01 -0.44221038752E+02  0.46142316294E+02  0.99999866228E+01 0.  0.
        -12    1    1    2    0    0  0.28739416256E+01  0.80841704430E+01  0.44221038752E+02  0.45045683706E+02  0.00000000000E+00 0.  1.
         11    1    3    3    0    0  0.18915783888E+01 -0.90409700270E+00 -0.96427137786E+01  0.98679982504E+01  0.51100000000E-03 0. -1.
        -11    1    3    3    0    0 -0.60161240142E-01 -0.58021054410E+01 -0.22562783469E+02  0.23296936387E+02  0.51100000000E-03 0.  1.
        -12    1    3    3    0    0 -0.47053587743E+01 -0.13779679993E+01 -0.12015541505E+02  0.12977381656E+02  0.00000000000E+00 0.  1.
</event>
<event>
 7    1  0.2031146E-008  0.4614232E+02  0.7816164E-02  0.1320468E+00
        -11   -1    0    0    0    0  0.00000000000E+00  0.00000000000E+00  0.45593999997E+02  0.45594000000E+02  0.51100000000E-03 0.  1.
         11   -1    0    0    0    0 -0.00000000000E+00 -0.00000000000E+00 -0.45593999997E+02  0.45594000000E+02  0.51100000000E-03 0. -1.
    9900012    2    1    2    0    0 -0.11201827723E+02 -0.23716504960E+01 -0.43566131892E+02  0.46142317427E+02  0.99999969522E+01 0.  0.
        -12    1    1    2    0    0  0.11201827723E+02  0.23716504960E+01  0.43566131892E+02  0.45045682573E+02  0.00000000000E+00 0.  1.
         11    1    3    3    0    0 -0.10799778506E+02 -0.30170000783E+01 -0.27550663082E+02  0.29745193591E+02  0.51100000000E-03 0. -1.
        -11    1    3    3    0    0 -0.47961846353E+00  0.16389325404E+01 -0.41186316298E+01  0.44586164341E+01  0.51100000000E-03 0.  1.
        -12    1    3    3    0    0  0.77569246134E-01 -0.99358295807E+00 -0.11896837181E+02  0.11938507402E+02  0.00000000000E+00 0.  1.
</event>
<event>
 7    1  0.2031146E-008  0.4614232E+02  0.7816164E-02  0.1320468E+00
        -11   -1    0    0    0    0  0.00000000000E+00  0.00000000000E+00  0.45593999997E+02  0.45594000000E+02  0.51100000000E-03 0. -1.
         11   -1    0    0    0    0 -0.00000000000E+00 -0.00000000000E+00 -0.45593999997E+02  0.45594000000E+02  0.51100000000E-03 0.  1.
    9900012    2    1    2    0    0  0.18064712012E+02  0.38988579724E+02  0.13515556244E+02  0.46142318414E+02  0.10000005956E+02 0.  0.
        -12    1    1    2    0    0 -0.18064712012E+02 -0.38988579724E+02 -0.13515556244E+02  0.45045681586E+02  0.00000000000E+00 0.  1.
         11    1    3    3    0    0  0.31047192116E+01  0.45840275537E+01  0.21463716512E+01  0.59379711621E+01  0.51100000000E-03 0. -1.
        -11    1    3    3    0    0  0.11059125618E+02  0.16991283560E+02  0.29989006727E+01  0.20493935249E+02  0.51100000000E-03 0.  1.
        -12    1    3    3    0    0  0.39008671816E+01  0.17413268610E+02  0.83702839201E+01  0.19710412004E+02  0.00000000000E+00 0.  1.
</event>
<event>
 7    1  0.2031146E-008  0.4614232E+02  0.7816164E-02  0.1320468E+00
        -11   -1    0    0    0    0  0.00000000000E+00  0.00000000000E+00  0.45593999997E+02  0.45594000000E+02  0.51100000000E-03 0.  1.
         11   -1    0    0    0    0 -0.00000000000E+00 -0.00000000000E+00 -0.45593999997E+02  0.45594000000E+02  0.51100000000E-03 0. -1.
    9900012    2    1    2    0    0 -0.16975377703E+02 -0.34286152763E+02 -0.23778346699E+02  0.46142317730E+02  0.99999997149E+01 0.  0.
        -12    1    1    2    0    0  0.16975377703E+02  0.34286152763E+02  0.23778346699E+02  0.45045682270E+02  0.00000000000E+00 0.  1.
         11    1    3    3    0    0 -0.55018401322E+01 -0.56994922054E+01 -0.30421691985E+01  0.84858264143E+01  0.51100000000E-03 0. -1.
        -11    1    3    3    0    0 -0.21603366647E+01 -0.10139472909E+02 -0.41824484040E+01  0.11178946296E+02  0.51100000000E-03 0.  1.
        -12    1    3    3    0    0 -0.93132009060E+01 -0.18447187649E+02 -0.16553729097E+02  0.26477545020E+02  0.00000000000E+00 0.  1.
</event>
<event>
 7    1  0.2031146E-008  0.4614232E+02  0.7816164E-02  0.1320468E+00
        -11   -1    0    0    0    0  0.00000000000E+00  0.00000000000E+00  0.45593999997E+02  0.45594000000E+02  0.51100000000E-03 0.  1.
         11   -1    0    0    0    0 -0.00000000000E+00 -0.00000000000E+00 -0.45593999997E+02  0.45594000000E+02  0.51100000000E-03 0. -1.
    9900012    2    1    2    0    0  0.20068847083E+02  0.51208596611E+01 -0.40001646776E+02  0.46142316836E+02  0.99999915681E+01 0.  0.
        -12    1    1    2    0    0 -0.20068847083E+02 -0.51208596611E+01  0.40001646776E+02  0.45045683164E+02  0.00000000000E+00 0.  1.
         11    1    3    3    0    0  0.93340980388E+01  0.41452770447E+01 -0.13608655634E+02  0.17014823432E+02  0.51100000000E-03 0. -1.
        -11    1    3    3    0    0  0.11431020372E+02  0.43364875444E+00 -0.24505269268E+02  0.27043751591E+02  0.51100000000E-03 0.  1.
        -12    1    3    3    0    0 -0.69627132799E+00  0.54193386194E+00 -0.18877218736E+01  0.20837418134E+01  0.00000000000E+00 0.  1.
</event>
<event>
 7    1  0.2031146E-008  0.4614231E+02  0.7816164E-02  0.1320468E+00
        -11   -1    0    0    0    0  0.00000000000E+00  0.00000000000E+00  0.45593999997E+02  0.45594000000E+02  0.51100000000E-03 0.  1.
         11   -1    0    0    0    0 -0.00000000000E+00 -0.00000000000E+00 -0.45593999997E+02  0.45594000000E+02  0.51100000000E-03 0. -1.
    9900012    2    1    2    0    0  0.24219167419E+02 -0.39673430492E+01 -0.37773089220E+02  0.46142310411E+02  0.99999329733E+01 0.  0.
        -12    1    1    2    0    0 -0.24219167419E+02  0.39673430492E+01  0.37773089220E+02  0.45045689589E+02  0.00000000000E+00 0.  1.
         11    1    3    3    0    0 -0.11015824055E+00 -0.19241161023E+01 -0.24550547124E+01  0.31211618854E+01  0.51100000000E-03 0. -1.
        -11    1    3    3    0    0  0.80053093313E+00 -0.49835047169E+00 -0.19085703161E+01  0.21288127865E+01  0.51100000000E-03 0.  1.
         12    1    3    3    0    0  0.23528794727E+02 -0.15448764753E+01 -0.33409464192E+02  0.40892335739E+02  0.00000000000E+00 0. -1.
</event>
<event>
 7    1  0.2031146E-008  0.4614232E+02  0.7816164E-02  0.1320468E+00
        -11   -1    0    0    0    0  0.00000000000E+00  0.00000000000E+00  0.45593999997E+02  0.45594000000E+02  0.51100000000E-03 0.  1.
         11   -1    0    0    0    0 -0.00000000000E+00 -0.00000000000E+00 -0.45593999997E+02  0.45594000000E+02  0.51100000000E-03 0. -1.
    9900012    2    1    2    0    0  0.25353652266E+02 -0.29755723604E+02 -0.22380855977E+02  0.46142317802E+02  0.10000000368E+02 0.  0.
        -12    1    1    2    0    0 -0.25353652266E+02  0.29755723604E+02  0.22380855977E+02  0.45045682198E+02  0.00000000000E+00 0.  1.
         11    1    3    3    0    0  0.33643318931E+01 -0.13621970264E+01 -0.31910423883E+00  0.36436434516E+01  0.51100000000E-03 0. -1.
        -11    1    3    3    0    0  0.26265360200E+01 -0.15397149938E+01 -0.31064538578E+01  0.43496516594E+01  0.51100000000E-03 0.  1.
         12    1    3    3    0    0  0.19362784353E+02 -0.26853811584E+02 -0.18955297881E+02  0.38149022691E+02  0.00000000000E+00 0. -1.
</event>
<event>
 7    1  0.2031146E-008  0.4614232E+02  0.7816164E-02  0.1320468E+00
        -11   -1    0    0    0    0  0.00000000000E+00  0.00000000000E+00  0.45593999997E+02  0.45594000000E+02  0.51100000000E-03 0.  1.
         11   -1    0    0    0    0 -0.00000000000E+00 -0.00000000000E+00 -0.45593999997E+02  0.45594000000E+02  0.51100000000E-03 0. -1.
    9900012    2    1    2    0    0 -0.10361886881E+02 -0.13313252951E+02 -0.41767234188E+02  0.46142320345E+02  0.10000023561E+02 0.  0.
        -12    1    1    2    0    0  0.10361886881E+02  0.13313252951E+02  0.41767234188E+02  0.45045679655E+02  0.00000000000E+00 0.  1.
         11    1    3    3    0    0 -0.17914161885E+01 -0.88976322837E+01 -0.17433871581E+02  0.19654946216E+02  0.51100000000E-03 0. -1.
        -11    1    3    3    0    0 -0.18834101625E+01 -0.24918304311E+01 -0.11164262259E+02  0.11592980841E+02  0.51100000000E-03 0.  1.
        -12    1    3    3    0    0 -0.66870605303E+01 -0.19237902360E+01 -0.13169100349E+02  0.14894393287E+02  0.00000000000E+00 0.  1.
</event>
<event>
 7    1  0.2031146E-008  0.4614232E+02  0.7816164E-02  0.1320468E+00
        -11   -1    0    0    0    0  0.00000000000E+00  0.00000000000E+00  0.45593999997E+02  0.45594000000E+02  0.51100000000E-03 0. -1.
         11   -1    0    0    0    0 -0.00000000000E+00 -0.00000000000E+00 -0.45593999997E+02  0.45594000000E+02  0.51100000000E-03 0.  1.
    9900012    2    1    2    0    0 -0.22977479950E+02  0.12780564178E+02  0.36576028882E+02  0.46142319916E+02  0.10000019646E+02 0.  0.
        -12    1    1    2    0    0  0.22977479950E+02 -0.12780564178E+02 -0.36576028882E+02  0.45045680084E+02  0.00000000000E+00 0.  1.
         11    1    3    3    0    0 -0.20456979367E+02  0.11662163220E+02  0.32484997035E+02  0.40121927775E+02  0.51100000000E-03 0. -1.
        -11    1    3    3    0    0 -0.26733995889E+01  0.59465978819E+00  0.45478320414E+01  0.53088098633E+01  0.51100000000E-03 0.  1.
         12    1    3    3    0    0  0.15289900628E+00  0.52374116940E+00 -0.45680019493E+00  0.71158227686E+00  0.00000000000E+00 0. -1.
</event>
<event>
 7    1  0.2031146E-008  0.4614232E+02  0.7816164E-02  0.1320468E+00
        -11   -1    0    0    0    0  0.00000000000E+00  0.00000000000E+00  0.45593999997E+02  0.45594000000E+02  0.51100000000E-03 0. -1.
         11   -1    0    0    0    0 -0.00000000000E+00 -0.00000000000E+00 -0.45593999997E+02  0.45594000000E+02  0.51100000000E-03 0.  1.
    9900012    2    1    2    0    0  0.71635663856E+00  0.44974368008E+02  0.24303330151E+01  0.46142318041E+02  0.10000002554E+02 0.  0.
        -12    1    1    2    0    0 -0.71635663856E+00 -0.44974368008E+02 -0.24303330151E+01  0.45045681959E+02  0.00000000000E+00 0.  1.
         11    1    3    3    0    0  0.37962819486E+01  0.34707422067E+02  0.34440158970E+01  0.35083873060E+02  0.51100000000E-03 0. -1.
        -11    1    3    3    0    0  0.12420426604E+00 -0.74122980152E-01  0.99077119995E-01  0.17532099908E+00  0.51100000000E-03 0.  1.
        -12    1    3    3    0    0 -0.32041295761E+01  0.10341068922E+02 -0.11127600019E+01  0.10883123982E+02  0.00000000000E+00 0.  1.
</event>
<event>
 7    1  0.2031146E-008  0.4614232E+02  0.7816164E-02  0.1320468E+00
        -11   -1    0    0    0    0  0.00000000000E+00  0.00000000000E+00  0.45593999997E+02  0.45594000000E+02  0.51100000000E-03 0.  1.
         11   -1    0    0    0    0 -0.00000000000E+00 -0.00000000000E+00 -0.45593999997E+02  0.45594000000E+02  0.51100000000E-03 0. -1.
    9900012    2    1    2    0    0 -0.33717135396E+02 -0.20673630690E+02 -0.21560828143E+02  0.46142317239E+02  0.99999952376E+01 0.  0.
        -12    1    1    2    0    0  0.33717135396E+02  0.20673630690E+02  0.21560828143E+02  0.45045682761E+02  0.00000000000E+00 0.  1.
         11    1    3    3    0    0 -0.46585265297E+01 -0.11539023073E+01 -0.43520729253E+01  0.64787266473E+01  0.51100000000E-03 0. -1.
        -11    1    3    3    0    0 -0.15594414634E+02 -0.14530818922E+02 -0.91293099619E+01  0.23187815054E+02  0.51100000000E-03 0.  1.
         12    1    3    3    0    0 -0.13464194232E+02 -0.49889094605E+01 -0.80794452557E+01  0.16475775538E+02  0.00000000000E+00 0. -1.
</event>
<event>
 7    1  0.2031146E-008  0.4614231E+02  0.7816164E-02  0.1320468E+00
        -11   -1    0    0    0    0  0.00000000000E+00  0.00000000000E+00  0.45593999997E+02  0.45594000000E+02  0.51100000000E-03 0.  1.
         11   -1    0    0    0    0 -0.00000000000E+00 -0.00000000000E+00 -0.45593999997E+02  0.45594000000E+02  0.51100000000E-03 0. -1.
    9900012    2    1    2    0    0  0.26264475893E+02 -0.36550951813E+02 -0.18219958910E+01  0.46142307182E+02  0.99999035331E+01 0.  0.
        -12    1    1    2    0    0 -0.26264475893E+02  0.36550951813E+02  0.18219958910E+01  0.45045692818E+02  0.00000000000E+00 0.  1.
         11    1    3    3    0    0  0.95570937268E+01 -0.96601183226E+01  0.36507402282E+00  0.13593719352E+02  0.51100000000E-03 0. -1.
        -11    1    3    3    0    0  0.40183981242E+01 -0.34609940152E+01  0.18131315989E+01  0.56047702463E+01  0.51100000000E-03 0.  1.
         12    1    3    3    0    0  0.12688984042E+02 -0.23429839475E+02 -0.40002015128E+01  0.26943817584E+02  0.00000000000E+00 0. -1.
</event>
<event>
 7    1  0.2031146E-008  0.4614232E+02  0.7816164E-02  0.1320468E+00
        -11   -1    0    0    0    0  0.00000000000E+00  0.00000000000E+00  0.45593999997E+02  0.45594000000E+02  0.51100000000E-03 0.  1.
         11   -1    0    0    0    0 -0.00000000000E+00 -0.00000000000E+00 -0.45593999997E+02  0.45594000000E+02  0.51100000000E-03 0. -1.
    9900012    2    1    2    0    0 -0.38353532866E+02  0.18681592210E+02  0.14460916511E+02  0.46142317886E+02  0.10000001138E+02 0.  0.
        -12    1    1    2    0    0  0.38353532866E+02 -0.18681592210E+02 -0.14460916511E+02  0.45045682114E+02  0.00000000000E+00 0.  1.
         11    1    3    3    0    0 -0.21829065379E+02  0.77772742440E+01  0.44092658896E+01  0.23588889672E+02  0.51100000000E-03 0. -1.
        -11    1    3    3    0    0 -0.69242980955E+01  0.61808677960E+01  0.30632658974E+01  0.97740794475E+01  0.51100000000E-03 0.  1.
        -12    1    3    3    0    0 -0.96001693909E+01  0.47234501697E+01  0.69883847244E+01  0.12779348767E+02  0.00000000000E+00 0.  1.
</event>
<event>
 7    1  0.2031146E-008  0.4614232E+02  0.7816164E-02  0.1320468E+00
        -11   -1    0    0    0    0  0.00000000000E+00  0.00000000000E+00  0.45593999997E+02  0.45594000000E+02  0.51100000000E-03 0.  1.
         11   -1    0    0    0    0 -0.00000000000E+00 -0.00000000000E+00 -0.45593999997E+02  0.45594000000E+02  0.51100000000E-03 0. -1.
    9900012    2    1    2    0    0  0.68028885392E+01 -0.15442040381E+02 -0.41765747186E+02  0.46142317170E+02  0.99999946103E+01 0.  0.
        -12    1    1    2    0    0 -0.68028885392E+01  0.15442040381E+02  0.41765747186E+02  0.45045682830E+02  0.00000000000E+00 0.  1.
         11    1    3    3    0    0  0.34494745526E+01 -0.54434421453E+01 -0.24984503268E+02  0.25802235191E+02  0.51100000000E-03 0. -1.
        -11    1    3    3    0    0 -0.64633992664E+00 -0.86796553741E+00 -0.39283127849E+01  0.40746485827E+01  0.51100000000E-03 0.  1.
        -12    1    3    3    0    0  0.39997539133E+01 -0.91306326984E+01 -0.12852931134E+02  0.16265433396E+02  0.00000000000E+00 0.  1.
</event>
<event>
 7    1  0.2031146E-008  0.4614232E+02  0.7816164E-02  0.1320468E+00
        -11   -1    0    0    0    0  0.00000000000E+00  0.00000000000E+00  0.45593999997E+02  0.45594000000E+02  0.51100000000E-03 0. -1.
         11   -1    0    0    0    0 -0.00000000000E+00 -0.00000000000E+00 -0.45593999997E+02  0.45594000000E+02  0.51100000000E-03 0.  1.
    9900012    2    1    2    0    0 -0.32640593038E+01 -0.40096639804E+02  0.20266201626E+02  0.46142317243E+02  0.99999952727E+01 0.  0.
        -12    1    1    2    0    0  0.32640593038E+01  0.40096639804E+02 -0.20266201626E+02  0.45045682757E+02  0.00000000000E+00 0.  1.
         11    1    3    3    0    0 -0.24706270676E+01 -0.34372404296E+02  0.20335115677E+02  0.40013536523E+02  0.51100000000E-03 0. -1.
        -11    1    3    3    0    0 -0.91679452154E+00 -0.85216271787E+00  0.64290517666E-01  0.12533263838E+01  0.51100000000E-03 0.  1.
         12    1    3    3    0    0  0.12336228532E+00 -0.48720727900E+01 -0.13320456878E+00  0.48754543359E+01  0.00000000000E+00 0. -1.
</event>
<event>
 7    1  0.2031146E-008  0.4614232E+02  0.7816164E-02  0.1320468E+00
        -11   -1    0    0    0    0  0.00000000000E+00  0.00000000000E+00  0.45593999997E+02  0.45594000000E+02  0.51100000000E-03 0.  1.
         11   -1    0    0    0    0 -0.00000000000E+00 -0.00000000000E+00 -0.45593999997E+02  0.45594000000E+02  0.51100000000E-03 0. -1.
    9900012    2    1    2    0    0 -0.67199657045E+00  0.44519098651E+02 -0.68345867554E+01  0.46142319849E+02  0.10000019043E+02 0.  0.
        -12    1    1    2    0    0  0.67199657045E+00 -0.44519098651E+02  0.68345867554E+01  0.45045680151E+02  0.00000000000E+00 0.  1.
         11    1    3    3    0    0  0.91220655414E+00  0.18389316730E+01 -0.25494009835E+00  0.20685224704E+01  0.51100000000E-03 0. -1.
        -11    1    3    3    0    0 -0.45088715779E+01  0.29565061461E+02 -0.66456998586E+01  0.30636385377E+02  0.51100000000E-03 0.  1.
        -12    1    3    3    0    0  0.29246684534E+01  0.13115105517E+02  0.66053201575E-01  0.13437412002E+02  0.00000000000E+00 0.  1.
</event>
<event>
 7    1  0.2031146E-008  0.4614232E+02  0.7816164E-02  0.1320468E+00
        -11   -1    0    0    0    0  0.00000000000E+00  0.00000000000E+00  0.45593999997E+02  0.45594000000E+02  0.51100000000E-03 0.  1.
         11   -1    0    0    0    0 -0.00000000000E+00 -0.00000000000E+00 -0.45593999997E+02  0.45594000000E+02  0.51100000000E-03 0. -1.
    9900012    2    1    2    0    0  0.19702272349E+02  0.13155372333E+02 -0.38312792836E+02  0.46142318167E+02  0.10000003700E+02 0.  0.
        -12    1    1    2    0    0 -0.19702272349E+02 -0.13155372333E+02  0.38312792836E+02  0.45045681833E+02  0.00000000000E+00 0.  1.
         11    1    3    3    0    0  0.32235524521E+01  0.38830939957E+01 -0.10048251665E+02  0.11244424004E+02  0.51100000000E-03 0. -1.
        -11    1    3    3    0    0  0.10133677278E+02  0.24233248645E+01 -0.10294465976E+02  0.14647182274E+02  0.51100000000E-03 0.  1.
        -12    1    3    3    0    0  0.63450426185E+01  0.68489534725E+01 -0.17970075195E+02  0.20250711889E+02  0.00000000000E+00 0.  1.
</event>
<event>
 7    1  0.2031146E-008  0.4614232E+02  0.7816164E-02  0.1320468E+00
        -11   -1    0    0    0    0  0.00000000000E+00  0.00000000000E+00  0.45593999997E+02  0.45594000000E+02  0.51100000000E-03 0.  1.
         11   -1    0    0    0    0 -0.00000000000E+00 -0.00000000000E+00 -0.45593999997E+02  0.45594000000E+02  0.51100000000E-03 0. -1.
    9900012    2    1    2    0    0 -0.15592435973E+02  0.82436985596E+01 -0.41449135735E+02  0.46142317869E+02  0.10000000983E+02 0.  0.
        -12    1    1    2    0    0  0.15592435973E+02 -0.82436985596E+01  0.41449135735E+02  0.45045682131E+02  0.00000000000E+00 0.  1.
         11    1    3    3    0    0 -0.83446124845E+01  0.22938244591E+01 -0.16885699014E+02  0.18974219868E+02  0.51100000000E-03 0. -1.
        -11    1    3    3    0    0 -0.56811290731E+01  0.51958513931E+01 -0.10621952537E+02  0.13118611787E+02  0.51100000000E-03 0.  1.
        -12    1    3    3    0    0 -0.15666944156E+01  0.75402270735E+00 -0.13941484184E+02  0.14049486214E+02  0.00000000000E+00 0.  1.
</event>
<event>
 7    1  0.2031146E-008  0.4614232E+02  0.7816164E-02  0.1320468E+00
        -11   -1    0    0    0    0  0.00000000000E+00  0.00000000000E+00  0.45593999997E+02  0.45594000000E+02  0.51100000000E-03 0.  1.
         11   -1    0    0    0    0 -0.00000000000E+00 -0.00000000000E+00 -0.45593999997E+02  0.45594000000E+02  0.51100000000E-03 0. -1.
    9900012    2    1    2    0    0 -0.42985096159E+02  0.91404045379E+01 -0.98918126375E+01  0.46142318252E+02  0.10000004474E+02 0.  0.
        -12    1    1    2    0    0  0.42985096159E+02 -0.91404045379E+01  0.98918126375E+01  0.45045681748E+02  0.00000000000E+00 0.  1.
         11    1    3    3    0    0 -0.22555696024E+02  0.62219925743E+01 -0.49304528721E+01  0.23911963126E+02  0.51100000000E-03 0. -1.
        -11    1    3    3    0    0 -0.10944403724E+02  0.41022432988E+01 -0.48948371323E+01  0.12671535178E+02  0.51100000000E-03 0.  1.
         12    1    3    3    0    0 -0.94849964104E+01 -0.11838313352E+01 -0.66522633165E-01  0.95588199479E+01  0.00000000000E+00 0. -1.
</event>
<event>
 7    1  0.2031146E-008  0.4614232E+02  0.7816164E-02  0.1320468E+00
        -11   -1    0    0    0    0  0.00000000000E+00  0.00000000000E+00  0.45593999997E+02  0.45594000000E+02  0.51100000000E-03 0.  1.
         11   -1    0    0    0    0 -0.00000000000E+00 -0.00000000000E+00 -0.45593999997E+02  0.45594000000E+02  0.51100000000E-03 0. -1.
    9900012    2    1    2    0    0  0.42541633166E+02  0.14748016341E+02  0.13487543090E+01  0.46142315671E+02  0.99999809440E+01 0.  0.
        -12    1    1    2    0    0 -0.42541633166E+02 -0.14748016341E+02 -0.13487543090E+01  0.45045684329E+02  0.00000000000E+00 0.  1.
         11    1    3    3    0    0  0.28208132105E+02  0.85342966560E+01  0.34436535274E+01  0.29671395082E+02  0.51100000000E-03 0. -1.
        -11    1    3    3    0    0  0.18395071060E+01 -0.49115254384E+00 -0.12268328657E+01  0.22649804317E+01  0.51100000000E-03 0.  1.
         12    1    3    3    0    0  0.12493993956E+02  0.67048722285E+01 -0.86806635266E+00  0.14205940157E+02  0.00000000000E+00 0. -1.
</event>
<event>
 7    1  0.2031146E-008  0.4614232E+02  0.7816164E-02  0.1320468E+00
        -11   -1    0    0    0    0  0.00000000000E+00  0.00000000000E+00  0.45593999997E+02  0.45594000000E+02  0.51100000000E-03 0.  1.
         11   -1    0    0    0    0 -0.00000000000E+00 -0.00000000000E+00 -0.45593999997E+02  0.45594000000E+02  0.51100000000E-03 0. -1.
    9900012    2    1    2    0    0 -0.13422815461E+02  0.63387998223E+01 -0.42529531398E+02  0.46142318752E+02  0.10000009039E+02 0.  0.
        -12    1    1    2    0    0  0.13422815461E+02 -0.63387998223E+01  0.42529531398E+02  0.45045681248E+02  0.00000000000E+00 0.  1.
         11    1    3    3    0    0 -0.87407308391E+01  0.30858611484E+01 -0.13554893911E+02  0.16421268643E+02  0.51100000000E-03 0.  1.
        -11    1    3    3    0    0 -0.16772975469E+01  0.31886729089E+01 -0.16630841574E+02  0.17016634618E+02  0.51100000000E-03 0. -1.
         12    1    3    3    0    0 -0.30047870750E+01  0.64265764963E-01 -0.12343795913E+02  0.12704415492E+02  0.00000000000E+00 0. -1.
</event>
<event>
 7    1  0.2031146E-008  0.4614232E+02  0.7816164E-02  0.1320468E+00
        -11   -1    0    0    0    0  0.00000000000E+00  0.00000000000E+00  0.45593999997E+02  0.45594000000E+02  0.51100000000E-03 0. -1.
         11   -1    0    0    0    0 -0.00000000000E+00 -0.00000000000E+00 -0.45593999997E+02  0.45594000000E+02  0.51100000000E-03 0.  1.
    9900012    2    1    2    0    0 -0.28534104960E+02 -0.18102846754E+02  0.29785991072E+02  0.46142317958E+02  0.10000001797E+02 0.  0.
        -12    1    1    2    0    0  0.28534104960E+02  0.18102846754E+02 -0.29785991072E+02  0.45045682042E+02  0.00000000000E+00 0.  1.
         11    1    3    3    0    0 -0.44912649912E+01 -0.54339382809E+01  0.69942840244E+01  0.99307177856E+01  0.51100000000E-03 0.  1.
        -11    1    3    3    0    0 -0.64661424553E+01 -0.51496455235E+01  0.10964417490E+02  0.13731289030E+02  0.51100000000E-03 0. -1.
         12    1    3    3    0    0 -0.17576697513E+02 -0.75192629501E+01  0.11827289558E+02  0.22480311143E+02  0.00000000000E+00 0. -1.
</event>
<event>
 7    1  0.2031146E-008  0.4614232E+02  0.7816164E-02  0.1320468E+00
        -11   -1    0    0    0    0  0.00000000000E+00  0.00000000000E+00  0.45593999997E+02  0.45594000000E+02  0.51100000000E-03 0. -1.
         11   -1    0    0    0    0 -0.00000000000E+00 -0.00000000000E+00 -0.45593999997E+02  0.45594000000E+02  0.51100000000E-03 0.  1.
    9900012    2    1    2    0    0  0.44450454065E+00  0.22947986013E+02  0.38759590367E+02  0.46142317723E+02  0.99999996527E+01 0.  0.
        -12    1    1    2    0    0 -0.44450454065E+00 -0.22947986013E+02 -0.38759590367E+02  0.45045682277E+02  0.00000000000E+00 0.  1.
         11    1    3    3    0    0  0.12567974152E+01  0.39514469183E+01  0.10605854125E+02  0.11387607934E+02  0.51100000000E-03 0. -1.
        -11    1    3    3    0    0  0.21068939405E+01  0.12227310739E+02  0.13402322715E+02  0.18263854588E+02  0.51100000000E-03 0.  1.
         12    1    3    3    0    0 -0.29191868150E+01  0.67692283561E+01  0.14751413527E+02  0.16490855201E+02  0.00000000000E+00 0. -1.
</event>
<event>
 7    1  0.2031146E-008  0.4614232E+02  0.7816164E-02  0.1320468E+00
        -11   -1    0    0    0    0  0.00000000000E+00  0.00000000000E+00  0.45593999997E+02  0.45594000000E+02  0.51100000000E-03 0. -1.
         11   -1    0    0    0    0 -0.00000000000E+00 -0.00000000000E+00 -0.45593999997E+02  0.45594000000E+02  0.51100000000E-03 0.  1.
    9900012    2    1    2    0    0 -0.41589664130E+02  0.15690748477E+02  0.72947796078E+01  0.46142316969E+02  0.99999927762E+01 0.  0.
        -12    1    1    2    0    0  0.41589664130E+02 -0.15690748477E+02 -0.72947796078E+01  0.45045683031E+02  0.00000000000E+00 0.  1.
         11    1    3    3    0    0 -0.21401474706E+02  0.36917483611E+01  0.48207887696E+01  0.22246171135E+02  0.51100000000E-03 0. -1.
        -11    1    3    3    0    0 -0.30008166090E+01  0.33972746445E+01  0.13654682527E+00  0.45348672116E+01  0.51100000000E-03 0.  1.
         12    1    3    3    0    0 -0.17187372815E+02  0.86017254717E+01  0.23374440129E+01  0.19361278622E+02  0.00000000000E+00 0. -1.
</event>
<event>
 7    1  0.2031146E-008  0.4614232E+02  0.7816164E-02  0.1320468E+00
        -11   -1    0    0    0    0  0.00000000000E+00  0.00000000000E+00  0.45593999997E+02  0.45594000000E+02  0.51100000000E-03 0.  1.
         11   -1    0    0    0    0 -0.00000000000E+00 -0.00000000000E+00 -0.45593999997E+02  0.45594000000E+02  0.51100000000E-03 0. -1.
    9900012    2    1    2    0    0  0.20502441647E+02  0.36191070239E+01 -0.39945775405E+02  0.46142322939E+02  0.10000047219E+02 0.  0.
        -12    1    1    2    0    0 -0.20502441647E+02 -0.36191070239E+01  0.39945775405E+02  0.45045677061E+02  0.00000000000E+00 0.  1.
         11    1    3    3    0    0  0.14300192488E+02  0.22874810404E+01 -0.32558820480E+02  0.35634321461E+02  0.51100000000E-03 0. -1.
        -11    1    3    3    0    0  0.40989578342E+01  0.78401997883E+00 -0.72058124771E+01  0.83270568853E+01  0.51100000000E-03 0.  1.
        -12    1    3    3    0    0  0.21032913241E+01  0.54760600468E+00 -0.18114244846E+00  0.21809445929E+01  0.00000000000E+00 0.  1.
</event>
<event>
 7    1  0.2031146E-008  0.4614232E+02  0.7816164E-02  0.1320468E+00
        -11   -1    0    0    0    0  0.00000000000E+00  0.00000000000E+00  0.45593999997E+02  0.45594000000E+02  0.51100000000E-03 0. -1.
         11   -1    0    0    0    0 -0.00000000000E+00 -0.00000000000E+00 -0.45593999997E+02  0.45594000000E+02  0.51100000000E-03 0.  1.
    9900012    2    1    2    0    0 -0.29607512408E+02 -0.29710616764E+02  0.16425203822E+02  0.46142324735E+02  0.10000063593E+02 0.  0.
        -12    1    1    2    0    0  0.29607512408E+02  0.29710616764E+02 -0.16425203822E+02  0.45045675265E+02  0.00000000000E+00 0.  1.
         11    1    3    3    0    0 -0.86489151359E+01 -0.10218020278E+02  0.72017537332E+01  0.15201214705E+02  0.51100000000E-03 0. -1.
        -11    1    3    3    0    0 -0.10798935002E+02 -0.14605311949E+02  0.44702025762E+01  0.18706010949E+02  0.51100000000E-03 0.  1.
         12    1    3    3    0    0 -0.10159662270E+02 -0.48872845380E+01  0.47532475127E+01  0.12235099081E+02  0.00000000000E+00 0. -1.
</event>
<event>
 7    1  0.2031146E-008  0.4614232E+02  0.7816164E-02  0.1320468E+00
        -11   -1    0    0    0    0  0.00000000000E+00  0.00000000000E+00  0.45593999997E+02  0.45594000000E+02  0.51100000000E-03 0. -1.
         11   -1    0    0    0    0 -0.00000000000E+00 -0.00000000000E+00 -0.45593999997E+02  0.45594000000E+02  0.51100000000E-03 0.  1.
    9900012    2    1    2    0    0 -0.43190815712E+02  0.55450653750E+01  0.11529055349E+02  0.46142318419E+02  0.10000006000E+02 0.  0.
        -12    1    1    2    0    0  0.43190815712E+02 -0.55450653750E+01 -0.11529055349E+02  0.45045681581E+02  0.00000000000E+00 0.  1.
         11    1    3    3    0    0 -0.84839667735E+01  0.20443665562E+01 -0.32315745416E+00  0.87327863727E+01  0.51100000000E-03 0. -1.
        -11    1    3    3    0    0 -0.38836776503E+01  0.11377644772E+01  0.35926800470E+01  0.54115441677E+01  0.51100000000E-03 0.  1.
         12    1    3    3    0    0 -0.30823171288E+02  0.23629343416E+01  0.82595327557E+01  0.31997987879E+02  0.00000000000E+00 0. -1.
</event>
<event>
 7    1  0.2031146E-008  0.4614232E+02  0.7816164E-02  0.1320468E+00
        -11   -1    0    0    0    0  0.00000000000E+00  0.00000000000E+00  0.45593999997E+02  0.45594000000E+02  0.51100000000E-03 0.  1.
         11   -1    0    0    0    0 -0.00000000000E+00 -0.00000000000E+00 -0.45593999997E+02  0.45594000000E+02  0.51100000000E-03 0. -1.
    9900012    2    1    2    0    0  0.14734704078E+02 -0.18135887762E+02 -0.38510926689E+02  0.46142318702E+02  0.10000008577E+02 0.  0.
        -12    1    1    2    0    0 -0.14734704078E+02  0.18135887762E+02  0.38510926689E+02  0.45045681298E+02  0.00000000000E+00 0.  1.
         11    1    3    3    0    0  0.13095732519E+02 -0.18176836445E+02 -0.32356102999E+02  0.39354961503E+02  0.51100000000E-03 0. -1.
        -11    1    3    3    0    0  0.20083927821E+01 -0.29866965863E+00 -0.31972360981E+01  0.37875010310E+01  0.51100000000E-03 0.  1.
        -12    1    3    3    0    0 -0.36942122382E+00  0.33961834222E+00 -0.29575875922E+01  0.29998561673E+01  0.00000000000E+00 0.  1.
</event>
<event>
 7    1  0.2031146E-008  0.4614232E+02  0.7816164E-02  0.1320468E+00
        -11   -1    0    0    0    0  0.00000000000E+00  0.00000000000E+00  0.45593999997E+02  0.45594000000E+02  0.51100000000E-03 0.  1.
         11   -1    0    0    0    0 -0.00000000000E+00 -0.00000000000E+00 -0.45593999997E+02  0.45594000000E+02  0.51100000000E-03 0. -1.
    9900012    2    1    2    0    0 -0.35415179996E+02 -0.14751931495E+02 -0.23606331769E+02  0.46142319225E+02  0.10000013344E+02 0.  0.
        -12    1    1    2    0    0  0.35415179996E+02  0.14751931495E+02  0.23606331769E+02  0.45045680775E+02  0.00000000000E+00 0.  1.
         11    1    3    3    0    0 -0.25978773466E+02 -0.12592015520E+02 -0.16259351631E+02  0.33133397673E+02  0.51100000000E-03 0. -1.
        -11    1    3    3    0    0 -0.72910511206E+01 -0.66687405501E+00 -0.73791056729E+01  0.10394967448E+02  0.51100000000E-03 0.  1.
         12    1    3    3    0    0 -0.21453554089E+01 -0.14930419201E+01  0.32125534779E-01  0.26139541036E+01  0.00000000000E+00 0. -1.
</event>
<event>
 7    1  0.2031146E-008  0.4614232E+02  0.7816164E-02  0.1320468E+00
        -11   -1    0    0    0    0  0.00000000000E+00  0.00000000000E+00  0.45593999997E+02  0.45594000000E+02  0.51100000000E-03 0.  1.
         11   -1    0    0    0    0 -0.00000000000E+00 -0.00000000000E+00 -0.45593999997E+02  0.45594000000E+02  0.51100000000E-03 0. -1.
    9900012    2    1    2    0    0  0.16844490803E+02 -0.71376313080E+01 -0.41163465188E+02  0.46142317439E+02  0.99999970609E+01 0.  0.
        -12    1    1    2    0    0 -0.16844490803E+02  0.71376313080E+01  0.41163465188E+02  0.45045682561E+02  0.00000000000E+00 0.  1.
         11    1    3    3    0    0  0.14883716513E+02 -0.39505382342E+01 -0.24614918024E+02  0.29034909319E+02  0.51100000000E-03 0. -1.
        -11    1    3    3    0    0 -0.71245492781E-01 -0.35143646886E+00 -0.57104519171E+01  0.57216994739E+01  0.51100000000E-03 0.  1.
        -12    1    3    3    0    0  0.20320197827E+01 -0.28356566049E+01 -0.10838095248E+02  0.11385708646E+02  0.00000000000E+00 0.  1.
</event>
<event>
 7    1  0.2031146E-008  0.4614232E+02  0.7816164E-02  0.1320468E+00
        -11   -1    0    0    0    0  0.00000000000E+00  0.00000000000E+00  0.45593999997E+02  0.45594000000E+02  0.51100000000E-03 0. -1.
         11   -1    0    0    0    0 -0.00000000000E+00 -0.00000000000E+00 -0.45593999997E+02  0.45594000000E+02  0.51100000000E-03 0.  1.
    9900012    2    1    2    0    0 -0.20519204007E+02 -0.37800644861E+02  0.13386083437E+02  0.46142315248E+02  0.99999770880E+01 0.  0.
        -12    1    1    2    0    0  0.20519204007E+02  0.37800644861E+02 -0.13386083437E+02  0.45045684752E+02  0.00000000000E+00 0.  1.
         11    1    3    3    0    0 -0.69686315587E+01 -0.16704425021E+02  0.43539900295E+01  0.18616037992E+02  0.51100000000E-03 0. -1.
        -11    1    3    3    0    0  0.18265248619E-01 -0.28894831359E+01 -0.44036073899E+00  0.29229033945E+01  0.51100000000E-03 0.  1.
        -12    1    3    3    0    0 -0.13568837697E+02 -0.18206736704E+02  0.94724541467E+01  0.24603373862E+02  0.00000000000E+00 0.  1.
</event>
<event>
 7    1  0.2031146E-008  0.4614232E+02  0.7816164E-02  0.1320468E+00
        -11   -1    0    0    0    0  0.00000000000E+00  0.00000000000E+00  0.45593999997E+02  0.45594000000E+02  0.51100000000E-03 0.  1.
         11   -1    0    0    0    0 -0.00000000000E+00 -0.00000000000E+00 -0.45593999997E+02  0.45594000000E+02  0.51100000000E-03 0. -1.
    9900012    2    1    2    0    0  0.11191602390E+02  0.39103890440E+02 -0.19358391106E+02  0.46142317435E+02  0.99999970225E+01 0.  0.
        -12    1    1    2    0    0 -0.11191602390E+02 -0.39103890440E+02  0.19358391106E+02  0.45045682565E+02  0.00000000000E+00 0.  1.
         11    1    3    3    0    0  0.95233781751E+01  0.26820628232E+02 -0.15283620509E+02  0.32305260976E+02  0.51100000000E-03 0. -1.
        -11    1    3    3    0    0  0.26924036116E+01  0.37161437651E+01 -0.12108213023E+01  0.47460352062E+01  0.51100000000E-03 0.  1.
         12    1    3    3    0    0 -0.10241793967E+01  0.85671184422E+01 -0.28639492952E+01  0.90910212520E+01  0.00000000000E+00 0. -1.
</event>
<event>
 7    1  0.2031146E-008  0.4614232E+02  0.7816164E-02  0.1320468E+00
        -11   -1    0    0    0    0  0.00000000000E+00  0.00000000000E+00  0.45593999997E+02  0.45594000000E+02  0.51100000000E-03 0.  1.
         11   -1    0    0    0    0 -0.00000000000E+00 -0.00000000000E+00 -0.45593999997E+02  0.45594000000E+02  0.51100000000E-03 0. -1.
    9900012    2    1    2    0    0 -0.16737430475E+02  0.26109807072E+01 -0.41739126095E+02  0.46142318228E+02  0.10000004255E+02 0.  0.
        -12    1    1    2    0    0  0.16737430475E+02 -0.26109807072E+01  0.41739126095E+02  0.45045681772E+02  0.00000000000E+00 0.  1.
         11    1    3    3    0    0 -0.48839145850E+01  0.30963306868E+01 -0.18394803518E+02  0.19282341199E+02  0.51100000000E-03 0. -1.
        -11    1    3    3    0    0 -0.37792220080E+00  0.70728176125E+00 -0.58439338726E+01  0.58986978265E+01  0.51100000000E-03 0.  1.
        -12    1    3    3    0    0 -0.11475593689E+02 -0.11926317408E+01 -0.17500388705E+02  0.20961279203E+02  0.00000000000E+00 0.  1.
</event>
<event>
 7    1  0.2031146E-008  0.4614232E+02  0.7816164E-02  0.1320468E+00
        -11   -1    0    0    0    0  0.00000000000E+00  0.00000000000E+00  0.45593999997E+02  0.45594000000E+02  0.51100000000E-03 0.  1.
         11   -1    0    0    0    0 -0.00000000000E+00 -0.00000000000E+00 -0.45593999997E+02  0.45594000000E+02  0.51100000000E-03 0. -1.
    9900012    2    1    2    0    0  0.21497160234E+02 -0.27762152566E+02 -0.28217874492E+02  0.46142318142E+02  0.10000003475E+02 0.  0.
        -12    1    1    2    0    0 -0.21497160234E+02  0.27762152566E+02  0.28217874492E+02  0.45045681858E+02  0.00000000000E+00 0.  1.
         11    1    3    3    0    0  0.77444131363E+01 -0.85205136966E+01 -0.92749105885E+01  0.14785095710E+02  0.51100000000E-03 0. -1.
        -11    1    3    3    0    0  0.11156231461E+02 -0.15217214326E+02 -0.18694504191E+02  0.26561430674E+02  0.51100000000E-03 0.  1.
        -12    1    3    3    0    0  0.25965156364E+01 -0.40244245430E+01 -0.24845971225E+00  0.47957917575E+01  0.00000000000E+00 0.  1.
</event>
<event>
 7    1  0.2031146E-008  0.4614232E+02  0.7816164E-02  0.1320468E+00
        -11   -1    0    0    0    0  0.00000000000E+00  0.00000000000E+00  0.45593999997E+02  0.45594000000E+02  0.51100000000E-03 0. -1.
         11   -1    0    0    0    0 -0.00000000000E+00 -0.00000000000E+00 -0.45593999997E+02  0.45594000000E+02  0.51100000000E-03 0.  1.
    9900012    2    1    2    0    0 -0.18014336089E+02  0.28091803146E+02  0.30256367618E+02  0.46142317741E+02  0.99999998207E+01 0.  0.
        -12    1    1    2    0    0  0.18014336089E+02 -0.28091803146E+02 -0.30256367618E+02  0.45045682259E+02  0.00000000000E+00 0.  1.
         11    1    3    3    0    0 -0.11474506899E+02  0.15308191826E+02  0.15635313419E+02  0.24707652084E+02  0.51100000000E-03 0. -1.
        -11    1    3    3    0    0 -0.10228674104E+01 -0.56997029292E+00  0.16140353308E+01  0.19940496945E+01  0.51100000000E-03 0.  1.
         12    1    3    3    0    0 -0.55169617800E+01  0.13353581613E+02  0.13007018868E+02  0.19440615963E+02  0.00000000000E+00 0. -1.
</event>
<event>
 7    1  0.2031146E-008  0.4614232E+02  0.7816164E-02  0.1320468E+00
        -11   -1    0    0    0    0  0.00000000000E+00  0.00000000000E+00  0.45593999997E+02  0.45594000000E+02  0.51100000000E-03 0. -1.
         11   -1    0    0    0    0 -0.00000000000E+00 -0.00000000000E+00 -0.45593999997E+02  0.45594000000E+02  0.51100000000E-03 0.  1.
    9900012    2    1    2    0    0  0.35479236665E+02  0.25918966645E+02  0.99269493843E+01  0.46142318849E+02  0.10000009920E+02 0.  0.
        -12    1    1    2    0    0 -0.35479236665E+02 -0.25918966645E+02 -0.99269493843E+01  0.45045681151E+02  0.00000000000E+00 0.  1.
         11    1    3    3    0    0  0.23548734502E+02  0.14408775376E+02  0.33884246317E+01  0.27814333108E+02  0.51100000000E-03 0. -1.
        -11    1    3    3    0    0  0.73504294272E+01  0.54687571909E+01  0.16549714075E+01  0.93099435335E+01  0.51100000000E-03 0.  1.
        -12    1    3    3    0    0  0.45800727359E+01  0.60414340780E+01  0.48835533452E+01  0.90180422077E+01  0.00000000000E+00 0.  1.
</event>
<event>
 7    1  0.2031146E-008  0.4614232E+02  0.7816164E-02  0.1320468E+00
        -11   -1    0    0    0    0  0.00000000000E+00  0.00000000000E+00  0.45593999997E+02  0.45594000000E+02  0.51100000000E-03 0.  1.
         11   -1    0    0    0    0 -0.00000000000E+00 -0.00000000000E+00 -0.45593999997E+02  0.45594000000E+02  0.51100000000E-03 0. -1.
    9900012    2    1    2    0    0 -0.13917573917E+02 -0.15277679968E+02 -0.40025080943E+02  0.46142317928E+02  0.10000001518E+02 0.  0.
        -12    1    1    2    0    0  0.13917573917E+02  0.15277679968E+02  0.40025080943E+02  0.45045682072E+02  0.00000000000E+00 0.  1.
         11    1    3    3    0    0 -0.25302551990E+01 -0.80149995563E+01 -0.10711476664E+02  0.13615364183E+02  0.51100000000E-03 0. -1.
        -11    1    3    3    0    0 -0.45841401960E+01 -0.77313513404E+00 -0.84980138709E+01  0.96865019116E+01  0.51100000000E-03 0.  1.
         12    1    3    3    0    0 -0.68031785217E+01 -0.64895452773E+01 -0.20815590407E+02  0.22840451833E+02  0.00000000000E+00 0. -1.
</event>
<event>
 7    1  0.2031146E-008  0.4614232E+02  0.7816164E-02  0.1320468E+00
        -11   -1    0    0    0    0  0.00000000000E+00  0.00000000000E+00  0.45593999997E+02  0.45594000000E+02  0.51100000000E-03 0.  1.
         11   -1    0    0    0    0 -0.00000000000E+00 -0.00000000000E+00 -0.45593999997E+02  0.45594000000E+02  0.51100000000E-03 0. -1.
    9900012    2    1    2    0    0  0.76598795095E+01  0.36055889711E+02 -0.25892324682E+02  0.46142318582E+02  0.10000007485E+02 0.  0.
        -12    1    1    2    0    0 -0.76598795095E+01 -0.36055889711E+02  0.25892324682E+02  0.45045681418E+02  0.00000000000E+00 0.  1.
         11    1    3    3    0    0  0.67325546546E+01  0.20954369109E+02 -0.17397227065E+02  0.28054881692E+02  0.51100000000E-03 0. -1.
        -11    1    3    3    0    0  0.21802457346E+01  0.12911784198E+02 -0.84110177540E+01  0.15563189344E+02  0.51100000000E-03 0.  1.
        -12    1    3    3    0    0 -0.12529208796E+01  0.21897364039E+01 -0.84079863153E-01  0.25242475458E+01  0.00000000000E+00 0.  1.
</event>
<event>
 7    1  0.2031146E-008  0.4614232E+02  0.7816164E-02  0.1320468E+00
        -11   -1    0    0    0    0  0.00000000000E+00  0.00000000000E+00  0.45593999997E+02  0.45594000000E+02  0.51100000000E-03 0. -1.
         11   -1    0    0    0    0 -0.00000000000E+00 -0.00000000000E+00 -0.45593999997E+02  0.45594000000E+02  0.51100000000E-03 0.  1.
    9900012    2    1    2    0    0  0.50207793040E+01  0.43976594821E+02 -0.83644715375E+01  0.46142317621E+02  0.99999987249E+01 0.  0.
        -12    1    1    2    0    0 -0.50207793040E+01 -0.43976594821E+02  0.83644715375E+01  0.45045682379E+02  0.00000000000E+00 0.  1.
         11    1    3    3    0    0  0.57440643613E+01  0.38644583884E+02 -0.64800910357E+01  0.39602900387E+02  0.51100000000E-03 0. -1.
        -11    1    3    3    0    0  0.12526976847E+01  0.22218262769E+01 -0.10683154289E+01  0.27653320977E+01  0.51100000000E-03 0.  1.
        -12    1    3    3    0    0 -0.19759827420E+01  0.31101846599E+01 -0.81606507289E+00  0.37740851366E+01  0.00000000000E+00 0.  1.
</event>
<event>
 7    1  0.2031146E-008  0.4614232E+02  0.7816164E-02  0.1320468E+00
        -11   -1    0    0    0    0  0.00000000000E+00  0.00000000000E+00  0.45593999997E+02  0.45594000000E+02  0.51100000000E-03 0.  1.
         11   -1    0    0    0    0 -0.00000000000E+00 -0.00000000000E+00 -0.45593999997E+02  0.45594000000E+02  0.51100000000E-03 0. -1.
    9900012    2    1    2    0    0  0.17999104087E+02  0.17556427525E+02 -0.37375359314E+02  0.46142318972E+02  0.10000011045E+02 0.  0.
        -12    1    1    2    0    0 -0.17999104087E+02 -0.17556427525E+02  0.37375359314E+02  0.45045681028E+02  0.00000000000E+00 0.  1.
         11    1    3    3    0    0  0.10019367294E+02  0.46001911735E+01 -0.14586932147E+02  0.18284640263E+02  0.51100000000E-03 0. -1.
        -11    1    3    3    0    0  0.68754460699E+01  0.75626463911E+01 -0.17235333116E+02  0.20038016044E+02  0.51100000000E-03 0.  1.
        -12    1    3    3    0    0  0.11042907228E+01  0.53935899609E+01 -0.55530940509E+01  0.78196626656E+01  0.00000000000E+00 0.  1.
</event>
<event>
 7    1  0.2031146E-008  0.4614232E+02  0.7816164E-02  0.1320468E+00
        -11   -1    0    0    0    0  0.00000000000E+00  0.00000000000E+00  0.45593999997E+02  0.45594000000E+02  0.51100000000E-03 0. -1.
         11   -1    0    0    0    0 -0.00000000000E+00 -0.00000000000E+00 -0.45593999997E+02  0.45594000000E+02  0.51100000000E-03 0.  1.
    9900012    2    1    2    0    0  0.13387534650E+02 -0.83210450402E+01  0.42197720537E+02  0.46142317709E+02  0.99999995204E+01 0.  0.
        -12    1    1    2    0    0 -0.13387534650E+02  0.83210450402E+01 -0.42197720537E+02  0.45045682291E+02  0.00000000000E+00 0.  1.
         11    1    3    3    0    0  0.11359743144E+02 -0.67681306273E+01  0.30898036934E+02  0.33608630486E+02  0.51100000000E-03 0. -1.
        -11    1    3    3    0    0 -0.15569218233E+00  0.39110985536E+00 -0.33458328327E+00  0.53772968038E+00  0.51100000000E-03 0.  1.
        -12    1    3    3    0    0  0.21834836879E+01 -0.19440242682E+01  0.11634266886E+02  0.11995957542E+02  0.00000000000E+00 0.  1.
</event>
<event>
 7    1  0.2031146E-008  0.4614232E+02  0.7816164E-02  0.1320468E+00
        -11   -1    0    0    0    0  0.00000000000E+00  0.00000000000E+00  0.45593999997E+02  0.45594000000E+02  0.51100000000E-03 0. -1.
         11   -1    0    0    0    0 -0.00000000000E+00 -0.00000000000E+00 -0.45593999997E+02  0.45594000000E+02  0.51100000000E-03 0.  1.
    9900012    2    1    2    0    0 -0.19921524516E+02 -0.39130500842E+02  0.10052368901E+02  0.46142319234E+02  0.10000013430E+02 0.  0.
        -12    1    1    2    0    0  0.19921524516E+02  0.39130500842E+02 -0.10052368901E+02  0.45045680766E+02  0.00000000000E+00 0.  1.
         11    1    3    3    0    0 -0.89363052174E+01 -0.24508311051E+02  0.74870922583E+01  0.27139849157E+02  0.51100000000E-03 0. -1.
        -11    1    3    3    0    0 -0.74502881416E+01 -0.79685614167E+01  0.33889863500E+01  0.11423221664E+02  0.51100000000E-03 0.  1.
         12    1    3    3    0    0 -0.35349311571E+01 -0.66536283736E+01 -0.82370970733E+00  0.75792484126E+01  0.00000000000E+00 0. -1.
</event>
<event>
 7    1  0.2031146E-008  0.4614232E+02  0.7816164E-02  0.1320468E+00
        -11   -1    0    0    0    0  0.00000000000E+00  0.00000000000E+00  0.45593999997E+02  0.45594000000E+02  0.51100000000E-03 0. -1.
         11   -1    0    0    0    0 -0.00000000000E+00 -0.00000000000E+00 -0.45593999997E+02  0.45594000000E+02  0.51100000000E-03 0.  1.
    9900012    2    1    2    0    0  0.37722733220E+01 -0.36421201713E+02 -0.26236990164E+02  0.46142316154E+02  0.99999853492E+01 0.  0.
        -12    1    1    2    0    0 -0.37722733220E+01  0.36421201713E+02  0.26236990164E+02  0.45045683846E+02  0.00000000000E+00 0.  1.
         11    1    3    3    0    0 -0.20412852449E+01 -0.19753664322E+02 -0.13896731364E+02  0.24238259889E+02  0.51100000000E-03 0. -1.
        -11    1    3    3    0    0  0.35750404207E+00 -0.61026143938E-01  0.17801783751E+00  0.40400982900E+00  0.51100000000E-03 0.  1.
        -12    1    3    3    0    0  0.54560545248E+01 -0.16606511247E+02 -0.12518276638E+02  0.21500046436E+02  0.00000000000E+00 0.  1.
</event>
<event>
 7    1  0.2031146E-008  0.4614232E+02  0.7816164E-02  0.1320468E+00
        -11   -1    0    0    0    0  0.00000000000E+00  0.00000000000E+00  0.45593999997E+02  0.45594000000E+02  0.51100000000E-03 0. -1.
         11   -1    0    0    0    0 -0.00000000000E+00 -0.00000000000E+00 -0.45593999997E+02  0.45594000000E+02  0.51100000000E-03 0.  1.
    9900012    2    1    2    0    0 -0.34030803158E+00  0.39568976643E+02  0.21524262911E+02  0.46142316344E+02  0.99999870777E+01 0.  0.
        -12    1    1    2    0    0  0.34030803158E+00 -0.39568976643E+02 -0.21524262911E+02  0.45045683656E+02  0.00000000000E+00 0.  1.
         11    1    3    3    0    0 -0.38031031188E+01  0.18874178808E+02  0.11211000248E+02  0.22279693576E+02  0.51100000000E-03 0. -1.
        -11    1    3    3    0    0  0.26010384653E+01  0.19545551479E+02  0.83096587250E+01  0.21397299178E+02  0.51100000000E-03 0.  1.
         12    1    3    3    0    0  0.86175662190E+00  0.11492463561E+01  0.20036039386E+01  0.24653235903E+01  0.00000000000E+00 0. -1.
</event>
<event>
 7    1  0.2031146E-008  0.4614232E+02  0.7816164E-02  0.1320468E+00
        -11   -1    0    0    0    0  0.00000000000E+00  0.00000000000E+00  0.45593999997E+02  0.45594000000E+02  0.51100000000E-03 0.  1.
         11   -1    0    0    0    0 -0.00000000000E+00 -0.00000000000E+00 -0.45593999997E+02  0.45594000000E+02  0.51100000000E-03 0. -1.
    9900012    2    1    2    0    0  0.25827426861E+02  0.24297249784E+02 -0.27779511741E+02  0.46142316545E+02  0.99999889124E+01 0.  0.
        -12    1    1    2    0    0 -0.25827426861E+02 -0.24297249784E+02  0.27779511741E+02  0.45045683455E+02  0.00000000000E+00 0.  1.
         11    1    3    3    0    0  0.13312990283E+02  0.73157457302E+01 -0.10741946420E+02  0.18604979415E+02  0.51100000000E-03 0. -1.
        -11    1    3    3    0    0  0.24547344026E+01  0.36142981838E+01 -0.62699989302E+01  0.76421043695E+01  0.51100000000E-03 0.  1.
         12    1    3    3    0    0  0.10059702175E+02  0.13367205870E+02 -0.10767566391E+02  0.19895232761E+02  0.00000000000E+00 0. -1.
</event>
<event>
 7    1  0.2031146E-008  0.4614232E+02  0.7816164E-02  0.1320468E+00
        -11   -1    0    0    0    0  0.00000000000E+00  0.00000000000E+00  0.45593999997E+02  0.45594000000E+02  0.51100000000E-03 0.  1.
         11   -1    0    0    0    0 -0.00000000000E+00 -0.00000000000E+00 -0.45593999997E+02  0.45594000000E+02  0.51100000000E-03 0. -1.
    9900012    2    1    2    0    0 -0.23921897352E+02 -0.64266623522E+01 -0.37623854121E+02  0.46142316957E+02  0.99999926683E+01 0.  0.
        -12    1    1    2    0    0  0.23921897352E+02  0.64266623522E+01  0.37623854121E+02  0.45045683043E+02  0.00000000000E+00 0.  1.
         11    1    3    3    0    0 -0.32642158878E+01 -0.15951289415E+01 -0.15477372447E+01  0.39490546391E+01  0.51100000000E-03 0. -1.
        -11    1    3    3    0    0 -0.35718282671E+01 -0.20403007450E+01 -0.10798555156E+02  0.11555499904E+02  0.51100000000E-03 0.  1.
         12    1    3    3    0    0 -0.17085853197E+02 -0.27912326657E+01 -0.25277561720E+02  0.30637762414E+02  0.00000000000E+00 0. -1.
</event>
<event>
 7    1  0.2031146E-008  0.4614232E+02  0.7816164E-02  0.1320468E+00
        -11   -1    0    0    0    0  0.00000000000E+00  0.00000000000E+00  0.45593999997E+02  0.45594000000E+02  0.51100000000E-03 0.  1.
         11   -1    0    0    0    0 -0.00000000000E+00 -0.00000000000E+00 -0.45593999997E+02  0.45594000000E+02  0.51100000000E-03 0. -1.
    9900012    2    1    2    0    0 -0.28531107113E+02 -0.16994660185E+02 -0.30434699695E+02  0.46142317705E+02  0.99999994884E+01 0.  0.
        -12    1    1    2    0    0  0.28531107113E+02  0.16994660185E+02  0.30434699695E+02  0.45045682295E+02  0.00000000000E+00 0.  1.
         11    1    3    3    0    0 -0.89881458656E+01 -0.49913345416E+01 -0.46779945494E+01  0.11295300787E+02  0.51100000000E-03 0. -1.
        -11    1    3    3    0    0 -0.40349769136E+01 -0.31910507537E+00 -0.41295333963E+01  0.57823795340E+01  0.51100000000E-03 0.  1.
         12    1    3    3    0    0 -0.15507984333E+02 -0.11684220568E+02 -0.21627171749E+02  0.29064637384E+02  0.00000000000E+00 0. -1.
</event>
<event>
 7    1  0.2031146E-008  0.4614232E+02  0.7816164E-02  0.1320468E+00
        -11   -1    0    0    0    0  0.00000000000E+00  0.00000000000E+00  0.45593999997E+02  0.45594000000E+02  0.51100000000E-03 0.  1.
         11   -1    0    0    0    0 -0.00000000000E+00 -0.00000000000E+00 -0.45593999997E+02  0.45594000000E+02  0.51100000000E-03 0. -1.
    9900012    2    1    2    0    0 -0.12492471469E+01  0.13408441240E+02 -0.42985655957E+02  0.46142317266E+02  0.99999954830E+01 0.  0.
        -12    1    1    2    0    0  0.12492471469E+01 -0.13408441240E+02  0.42985655957E+02  0.45045682734E+02  0.00000000000E+00 0.  1.
         11    1    3    3    0    0 -0.35207036457E+01  0.43093133713E+01 -0.22377297880E+02  0.23058816027E+02  0.51100000000E-03 0. -1.
        -11    1    3    3    0    0  0.51348840777E+00  0.37483504284E+01 -0.38236316337E+01  0.53790296904E+01  0.51100000000E-03 0.  1.
        -12    1    3    3    0    0  0.17579680910E+01  0.53507774403E+01 -0.16784726444E+02  0.17704471548E+02  0.00000000000E+00 0.  1.
</event>
<event>
 7    1  0.2031146E-008  0.4614232E+02  0.7816164E-02  0.1320468E+00
        -11   -1    0    0    0    0  0.00000000000E+00  0.00000000000E+00  0.45593999997E+02  0.45594000000E+02  0.51100000000E-03 0.  1.
         11   -1    0    0    0    0 -0.00000000000E+00 -0.00000000000E+00 -0.45593999997E+02  0.45594000000E+02  0.51100000000E-03 0. -1.
    9900012    2    1    2    0    0  0.23996413823E+00  0.12908793735E+02 -0.43155751159E+02  0.46142318780E+02  0.10000009292E+02 0.  0.
        -12    1    1    2    0    0 -0.23996413823E+00 -0.12908793735E+02  0.43155751159E+02  0.45045681220E+02  0.00000000000E+00 0.  1.
         11    1    3    3    0    0 -0.19661318380E+01  0.12386315862E+01 -0.75682776370E+01  0.79169886486E+01  0.51100000000E-03 0. -1.
        -11    1    3    3    0    0  0.80250646896E+00  0.10607713355E+02 -0.21087137711E+02  0.23618530360E+02  0.51100000000E-03 0.  1.
         12    1    3    3    0    0  0.14035895072E+01  0.10624487936E+01 -0.14500335811E+02  0.14606799772E+02  0.00000000000E+00 0. -1.
</event>
<event>
 7    1  0.2031146E-008  0.4614232E+02  0.7816164E-02  0.1320468E+00
        -11   -1    0    0    0    0  0.00000000000E+00  0.00000000000E+00  0.45593999997E+02  0.45594000000E+02  0.51100000000E-03 0.  1.
         11   -1    0    0    0    0 -0.00000000000E+00 -0.00000000000E+00 -0.45593999997E+02  0.45594000000E+02  0.51100000000E-03 0. -1.
    9900012    2    1    2    0    0  0.26077241259E+02 -0.36707837779E+02 -0.12749903767E+01  0.46142318003E+02  0.10000002209E+02 0.  0.
        -12    1    1    2    0    0 -0.26077241259E+02  0.36707837779E+02  0.12749903767E+01  0.45045681997E+02  0.00000000000E+00 0.  1.
         11    1    3    3    0    0  0.12734868727E+02 -0.17580082336E+02 -0.16845355143E+01  0.21773236704E+02  0.51100000000E-03 0. -1.
        -11    1    3    3    0    0  0.70417098581E+01 -0.15159547706E+02  0.17382196228E+01  0.16805325707E+02  0.51100000000E-03 0.  1.
        -12    1    3    3    0    0  0.63006626742E+01 -0.39682077370E+01 -0.13286744851E+01  0.75637555927E+01  0.00000000000E+00 0.  1.
</event>
<event>
 7    1  0.2031146E-008  0.4614232E+02  0.7816164E-02  0.1320468E+00
        -11   -1    0    0    0    0  0.00000000000E+00  0.00000000000E+00  0.45593999997E+02  0.45594000000E+02  0.51100000000E-03 0.  1.
         11   -1    0    0    0    0 -0.00000000000E+00 -0.00000000000E+00 -0.45593999997E+02  0.45594000000E+02  0.51100000000E-03 0. -1.
    9900012    2    1    2    0    0  0.22286527724E+02 -0.21494940620E+02 -0.32716841214E+02  0.46142317751E+02  0.99999999110E+01 0.  0.
        -12    1    1    2    0    0 -0.22286527724E+02  0.21494940620E+02  0.32716841214E+02  0.45045682249E+02  0.00000000000E+00 0.  1.
         11    1    3    3    0    0  0.91829131161E+01 -0.50326716627E+01 -0.10045739331E+02  0.14511049456E+02  0.51100000000E-03 0. -1.
        -11    1    3    3    0    0  0.40087196263E+01 -0.25958893210E+01 -0.87974368233E+01  0.10010163302E+02  0.51100000000E-03 0.  1.
        -12    1    3    3    0    0  0.90948949821E+01 -0.13866379636E+02 -0.13873665060E+02  0.21621104993E+02  0.00000000000E+00 0.  1.
</event>
<event>
 7    1  0.2031146E-008  0.4614232E+02  0.7816164E-02  0.1320468E+00
        -11   -1    0    0    0    0  0.00000000000E+00  0.00000000000E+00  0.45593999997E+02  0.45594000000E+02  0.51100000000E-03 0.  1.
         11   -1    0    0    0    0 -0.00000000000E+00 -0.00000000000E+00 -0.45593999997E+02  0.45594000000E+02  0.51100000000E-03 0. -1.
    9900012    2    1    2    0    0 -0.68057422355E+01 -0.27646965829E+02 -0.34906168862E+02  0.46142317948E+02  0.10000001703E+02 0.  0.
        -12    1    1    2    0    0  0.68057422355E+01  0.27646965829E+02  0.34906168862E+02  0.45045682052E+02  0.00000000000E+00 0.  1.
         11    1    3    3    0    0  0.33764928515E+00 -0.14572558202E+01 -0.30593840853E+01  0.34055003756E+01  0.51100000000E-03 0. -1.
        -11    1    3    3    0    0  0.18189503753E+01 -0.78963546368E+01 -0.82600569377E+01  0.11571064683E+02  0.51100000000E-03 0.  1.
        -12    1    3    3    0    0 -0.89623418960E+01 -0.18293355372E+02 -0.23586727839E+02  0.31165752890E+02  0.00000000000E+00 0.  1.
</event>
<event>
 7    1  0.2031146E-008  0.4614232E+02  0.7816164E-02  0.1320468E+00
        -11   -1    0    0    0    0  0.00000000000E+00  0.00000000000E+00  0.45593999997E+02  0.45594000000E+02  0.51100000000E-03 0.  1.
         11   -1    0    0    0    0 -0.00000000000E+00 -0.00000000000E+00 -0.45593999997E+02  0.45594000000E+02  0.51100000000E-03 0. -1.
    9900012    2    1    2    0    0 -0.36599139830E+02 -0.19669442264E+02 -0.17399124522E+02  0.46142317305E+02  0.99999958444E+01 0.  0.
        -12    1    1    2    0    0  0.36599139830E+02  0.19669442264E+02  0.17399124522E+02  0.45045682695E+02  0.00000000000E+00 0.  1.
         11    1    3    3    0    0 -0.63570223051E+01 -0.41562462203E+01 -0.16843671027E+01  0.77796663186E+01  0.51100000000E-03 0. -1.
        -11    1    3    3    0    0 -0.16853576915E+00 -0.89519001084E+00 -0.20442464660E+01  0.22380154905E+01  0.51100000000E-03 0.  1.
         12    1    3    3    0    0 -0.30073581756E+02 -0.14618006032E+02 -0.13670510953E+02  0.36124635496E+02  0.00000000000E+00 0. -1.
</event>
<event>
 7    1  0.2031146E-008  0.4614232E+02  0.7816164E-02  0.1320468E+00
        -11   -1    0    0    0    0  0.00000000000E+00  0.00000000000E+00  0.45593999997E+02  0.45594000000E+02  0.51100000000E-03 0. -1.
         11   -1    0    0    0    0 -0.00000000000E+00 -0.00000000000E+00 -0.45593999997E+02  0.45594000000E+02  0.51100000000E-03 0.  1.
    9900012    2    1    2    0    0 -0.15897112552E+02 -0.34765333565E+02  0.23827854204E+02  0.46142320503E+02  0.10000025001E+02 0.  0.
        -12    1    1    2    0    0  0.15897112552E+02  0.34765333565E+02 -0.23827854204E+02  0.45045679497E+02  0.00000000000E+00 0.  1.
         11    1    3    3    0    0 -0.56332689003E+01 -0.14691424344E+02  0.54603865769E+01  0.16654953906E+02  0.51100000000E-03 0. -1.
        -11    1    3    3    0    0 -0.88646647419E+01 -0.12256571104E+02  0.11974415753E+02  0.19292289888E+02  0.51100000000E-03 0.  1.
        -12    1    3    3    0    0 -0.13991789100E+01 -0.78173381164E+01  0.63930518744E+01  0.10195076710E+02  0.00000000000E+00 0.  1.
</event>
<event>
 7    1  0.2031146E-008  0.4614232E+02  0.7816164E-02  0.1320468E+00
        -11   -1    0    0    0    0  0.00000000000E+00  0.00000000000E+00  0.45593999997E+02  0.45594000000E+02  0.51100000000E-03 0. -1.
         11   -1    0    0    0    0 -0.00000000000E+00 -0.00000000000E+00 -0.45593999997E+02  0.45594000000E+02  0.51100000000E-03 0.  1.
    9900012    2    1    2    0    0  0.25896793940E+02  0.26482176275E+02  0.25635206735E+02  0.46142318509E+02  0.10000006820E+02 0.  0.
        -12    1    1    2    0    0 -0.25896793940E+02 -0.26482176275E+02 -0.25635206735E+02  0.45045681491E+02  0.00000000000E+00 0.  1.
         11    1    3    3    0    0 -0.25489673537E+00  0.28662747829E+01  0.11606358514E+01  0.31028340782E+01  0.51100000000E-03 0. -1.
        -11    1    3    3    0    0  0.20401062568E+02  0.17713362080E+02  0.17053644369E+02  0.31949856597E+02  0.51100000000E-03 0.  1.
         12    1    3    3    0    0  0.57506281072E+01  0.59025394126E+01  0.74209265149E+01  0.11089627833E+02  0.00000000000E+00 0. -1.
</event>
<event>
 7    1  0.2031146E-008  0.4614232E+02  0.7816164E-02  0.1320468E+00
        -11   -1    0    0    0    0  0.00000000000E+00  0.00000000000E+00  0.45593999997E+02  0.45594000000E+02  0.51100000000E-03 0.  1.
         11   -1    0    0    0    0 -0.00000000000E+00 -0.00000000000E+00 -0.45593999997E+02  0.45594000000E+02  0.51100000000E-03 0. -1.
    9900012    2    1    2    0    0 -0.37537429564E+02  0.91290257442E+01 -0.23167127751E+02  0.46142317215E+02  0.99999950203E+01 0.  0.
        -12    1    1    2    0    0  0.37537429564E+02 -0.91290257442E+01  0.23167127751E+02  0.45045682785E+02  0.00000000000E+00 0.  1.
         11    1    3    3    0    0 -0.11221991957E+02 -0.54938701171E+00 -0.53259997901E+01  0.12433873234E+02  0.51100000000E-03 0.  1.
        -11    1    3    3    0    0 -0.15775446249E+02  0.31260449351E+01 -0.11506056766E+02  0.19774382515E+02  0.51100000000E-03 0. -1.
        -12    1    3    3    0    0 -0.10539991358E+02  0.65523678208E+01 -0.63350711948E+01  0.13934061466E+02  0.00000000000E+00 0.  1.
</event>
<event>
 7    1  0.2031146E-008  0.4614232E+02  0.7816164E-02  0.1320468E+00
        -11   -1    0    0    0    0  0.00000000000E+00  0.00000000000E+00  0.45593999997E+02  0.45594000000E+02  0.51100000000E-03 0.  1.
         11   -1    0    0    0    0 -0.00000000000E+00 -0.00000000000E+00 -0.45593999997E+02  0.45594000000E+02  0.51100000000E-03 0. -1.
    9900012    2    1    2    0    0 -0.17404899791E+02 -0.10480951675E+02 -0.40203638385E+02  0.46142318474E+02  0.10000006497E+02 0.  0.
        -12    1    1    2    0    0  0.17404899791E+02  0.10480951675E+02  0.40203638385E+02  0.45045681526E+02  0.00000000000E+00 0.  1.
         11    1    3    3    0    0 -0.12217845483E+01 -0.32996506444E+01 -0.36060550365E+01  0.50382621057E+01  0.51100000000E-03 0. -1.
        -11    1    3    3    0    0 -0.56529426235E+00 -0.19445074227E+01 -0.63082784297E+01  0.66253334805E+01  0.51100000000E-03 0.  1.
        -12    1    3    3    0    0 -0.15617820980E+02 -0.52367936081E+01 -0.30289304919E+02  0.34478722887E+02  0.00000000000E+00 0.  1.
</event>
<event>
 7    1  0.2031146E-008  0.4614232E+02  0.7816164E-02  0.1320468E+00
        -11   -1    0    0    0    0  0.00000000000E+00  0.00000000000E+00  0.45593999997E+02  0.45594000000E+02  0.51100000000E-03 0.  1.
         11   -1    0    0    0    0 -0.00000000000E+00 -0.00000000000E+00 -0.45593999997E+02  0.45594000000E+02  0.51100000000E-03 0. -1.
    9900012    2    1    2    0    0  0.17926676830E+01 -0.24294991047E+02 -0.37890013772E+02  0.46142318842E+02  0.10000009853E+02 0.  0.
        -12    1    1    2    0    0 -0.17926676830E+01  0.24294991047E+02  0.37890013772E+02  0.45045681158E+02  0.00000000000E+00 0.  1.
         11    1    3    3    0    0  0.21049625489E+01 -0.70176870343E+01 -0.68393460068E+01  0.10022746764E+02  0.51100000000E-03 0. -1.
        -11    1    3    3    0    0 -0.43342091443E+00 -0.12180213347E+01 -0.75232717665E+01  0.76335475367E+01  0.51100000000E-03 0.  1.
         12    1    3    3    0    0  0.12112604859E+00 -0.16059282678E+02 -0.23527395998E+02  0.28486024540E+02  0.00000000000E+00 0. -1.
</event>
<event>
 7    1  0.2031146E-008  0.4614232E+02  0.7816164E-02  0.1320468E+00
        -11   -1    0    0    0    0  0.00000000000E+00  0.00000000000E+00  0.45593999997E+02  0.45594000000E+02  0.51100000000E-03 0.  1.
         11   -1    0    0    0    0 -0.00000000000E+00 -0.00000000000E+00 -0.45593999997E+02  0.45594000000E+02  0.51100000000E-03 0. -1.
    9900012    2    1    2    0    0 -0.22295993051E+01 -0.68168553486E+01 -0.44471036312E+02  0.46142315406E+02  0.99999785201E+01 0.  0.
        -12    1    1    2    0    0  0.22295993051E+01  0.68168553486E+01  0.44471036312E+02  0.45045684594E+02  0.00000000000E+00 0.  1.
         11    1    3    3    0    0 -0.23095797449E+01 -0.98390014136E+00 -0.14414518852E+02  0.14631492477E+02  0.51100000000E-03 0. -1.
        -11    1    3    3    0    0  0.23020139685E+01 -0.29221942385E+01 -0.24956770860E+02  0.25232496894E+02  0.51100000000E-03 0.  1.
         12    1    3    3    0    0 -0.22220335287E+01 -0.29107609687E+01 -0.50997465993E+01  0.62783260346E+01  0.00000000000E+00 0. -1.
</event>
<event>
 7    1  0.2031146E-008  0.4614232E+02  0.7816164E-02  0.1320468E+00
        -11   -1    0    0    0    0  0.00000000000E+00  0.00000000000E+00  0.45593999997E+02  0.45594000000E+02  0.51100000000E-03 0. -1.
         11   -1    0    0    0    0 -0.00000000000E+00 -0.00000000000E+00 -0.45593999997E+02  0.45594000000E+02  0.51100000000E-03 0.  1.
    9900012    2    1    2    0    0 -0.38496029325E+02 -0.20007815014E+02  0.12118438594E+02  0.46142317750E+02  0.99999999010E+01 0.  0.
        -12    1    1    2    0    0  0.38496029325E+02  0.20007815014E+02 -0.12118438594E+02  0.45045682250E+02  0.00000000000E+00 0.  1.
         11    1    3    3    0    0 -0.43389539309E+01 -0.31136897442E+01  0.21380518146E+01  0.57526385999E+01  0.51100000000E-03 0. -1.
        -11    1    3    3    0    0 -0.31504681169E+02 -0.13414703504E+02  0.10868683735E+02  0.35925304342E+02  0.51100000000E-03 0.  1.
        -12    1    3    3    0    0 -0.26523942243E+01 -0.34794217663E+01 -0.88829695573E+00  0.44643748085E+01  0.00000000000E+00 0.  1.
</event>
<event>
 7    1  0.2031146E-008  0.4614232E+02  0.7816164E-02  0.1320468E+00
        -11   -1    0    0    0    0  0.00000000000E+00  0.00000000000E+00  0.45593999997E+02  0.45594000000E+02  0.51100000000E-03 0. -1.
         11   -1    0    0    0    0 -0.00000000000E+00 -0.00000000000E+00 -0.45593999997E+02  0.45594000000E+02  0.51100000000E-03 0.  1.
    9900012    2    1    2    0    0  0.25845498553E+02  0.36884993213E+02  0.78803112859E+00  0.46142317490E+02  0.99999975266E+01 0.  0.
        -12    1    1    2    0    0 -0.25845498553E+02 -0.36884993213E+02 -0.78803112859E+00  0.45045682510E+02  0.00000000000E+00 0.  1.
         11    1    3    3    0    0  0.15224787305E+02  0.17656744644E+02 -0.91600998181E+00  0.23332249237E+02  0.51100000000E-03 0. -1.
        -11    1    3    3    0    0  0.58670579292E+01  0.10742904856E+02  0.38850791946E+01  0.12842360145E+02  0.51100000000E-03 0.  1.
        -12    1    3    3    0    0  0.47536533188E+01  0.84853437131E+01 -0.21810380842E+01  0.99677081082E+01  0.00000000000E+00 0.  1.
</event>
<event>
 7    1  0.2031146E-008  0.4614232E+02  0.7816164E-02  0.1320468E+00
        -11   -1    0    0    0    0  0.00000000000E+00  0.00000000000E+00  0.45593999997E+02  0.45594000000E+02  0.51100000000E-03 0. -1.
         11   -1    0    0    0    0 -0.00000000000E+00 -0.00000000000E+00 -0.45593999997E+02  0.45594000000E+02  0.51100000000E-03 0.  1.
    9900012    2    1    2    0    0 -0.25730672356E+02  0.73993674376E+00  0.36966179157E+02  0.46142318656E+02  0.10000008161E+02 0.  0.
        -12    1    1    2    0    0  0.25730672356E+02 -0.73993674376E+00 -0.36966179157E+02  0.45045681344E+02  0.00000000000E+00 0.  1.
         11    1    3    3    0    0 -0.14228071614E+00 -0.77665737314E+00  0.10287560993E+01  0.12968345501E+01  0.51100000000E-03 0.  1.
        -11    1    3    3    0    0 -0.89730981714E+01 -0.23666619415E+01  0.16901582674E+02  0.19281625364E+02  0.51100000000E-03 0. -1.
         12    1    3    3    0    0 -0.16615293468E+02  0.38832560584E+01  0.19035840384E+02  0.25563858742E+02  0.00000000000E+00 0. -1.
</event>
<event>
 7    1  0.2031146E-008  0.4614231E+02  0.7816164E-02  0.1320468E+00
        -11   -1    0    0    0    0  0.00000000000E+00  0.00000000000E+00  0.45593999997E+02  0.45594000000E+02  0.51100000000E-03 0.  1.
         11   -1    0    0    0    0 -0.00000000000E+00 -0.00000000000E+00 -0.45593999997E+02  0.45594000000E+02  0.51100000000E-03 0. -1.
    9900012    2    1    2    0    0  0.33508736400E+01 -0.13468982547E+02 -0.42854077117E+02  0.46142314629E+02  0.99999714390E+01 0.  0.
        -12    1    1    2    0    0 -0.33508736400E+01  0.13468982547E+02  0.42854077117E+02  0.45045685371E+02  0.00000000000E+00 0.  1.
         11    1    3    3    0    0 -0.26738620859E+00 -0.61636956218E+01 -0.24687765751E+02  0.25446972652E+02  0.51100000000E-03 0. -1.
        -11    1    3    3    0    0  0.28841635791E+01 -0.33468975862E+00 -0.54609274081E+01  0.61848318654E+01  0.51100000000E-03 0.  1.
         12    1    3    3    0    0  0.73409626946E+00 -0.69705971664E+01 -0.12705383958E+02  0.14510510112E+02  0.00000000000E+00 0. -1.
</event>
<event>
 7    1  0.2031146E-008  0.4614232E+02  0.7816164E-02  0.1320468E+00
        -11   -1    0    0    0    0  0.00000000000E+00  0.00000000000E+00  0.45593999997E+02  0.45594000000E+02  0.51100000000E-03 0.  1.
         11   -1    0    0    0    0 -0.00000000000E+00 -0.00000000000E+00 -0.45593999997E+02  0.45594000000E+02  0.51100000000E-03 0. -1.
    9900012    2    1    2    0    0  0.40415581614E+02 -0.16453887232E+02  0.11178717035E+02  0.46142319222E+02  0.10000013320E+02 0.  0.
        -12    1    1    2    0    0 -0.40415581614E+02  0.16453887232E+02 -0.11178717035E+02  0.45045680778E+02  0.00000000000E+00 0.  1.
         11    1    3    3    0    0  0.81034544889E+01 -0.15500668457E+01  0.28556663122E+01  0.87306077811E+01  0.51100000000E-03 0. -1.
        -11    1    3    3    0    0  0.94455353267E+01 -0.79836748789E+00  0.35596642656E+01  0.10125548785E+02  0.51100000000E-03 0.  1.
         12    1    3    3    0    0  0.22866591798E+02 -0.14105452899E+02  0.47633864568E+01  0.27286162656E+02  0.00000000000E+00 0. -1.
</event>
<event>
 7    1  0.2031146E-008  0.4614232E+02  0.7816164E-02  0.1320468E+00
        -11   -1    0    0    0    0  0.00000000000E+00  0.00000000000E+00  0.45593999997E+02  0.45594000000E+02  0.51100000000E-03 0. -1.
         11   -1    0    0    0    0 -0.00000000000E+00 -0.00000000000E+00 -0.45593999997E+02  0.45594000000E+02  0.51100000000E-03 0.  1.
    9900012    2    1    2    0    0 -0.24094615043E+02 -0.34327145760E+02 -0.16438068473E+02  0.46142317574E+02  0.99999982947E+01 0.  0.
        -12    1    1    2    0    0  0.24094615043E+02  0.34327145760E+02  0.16438068473E+02  0.45045682426E+02  0.00000000000E+00 0.  1.
         11    1    3    3    0    0 -0.26130218402E+01 -0.27735347368E+01 -0.98119229538E+00  0.39348591659E+01  0.51100000000E-03 0. -1.
        -11    1    3    3    0    0 -0.45616849943E+01 -0.20553585684E+01 -0.37124135798E+01  0.62302073545E+01  0.51100000000E-03 0.  1.
         12    1    3    3    0    0 -0.16919908208E+02 -0.29498252455E+02 -0.11744462598E+02  0.35977251054E+02  0.00000000000E+00 0. -1.
</event>
<event>
 7    1  0.2031146E-008  0.4614232E+02  0.7816164E-02  0.1320468E+00
        -11   -1    0    0    0    0  0.00000000000E+00  0.00000000000E+00  0.45593999997E+02  0.45594000000E+02  0.51100000000E-03 0. -1.
         11   -1    0    0    0    0 -0.00000000000E+00 -0.00000000000E+00 -0.45593999997E+02  0.45594000000E+02  0.51100000000E-03 0.  1.
    9900012    2    1    2    0    0  0.29529901602E+02 -0.10771433825E+02 -0.32265686673E+02  0.46142318612E+02  0.10000007756E+02 0.  0.
        -12    1    1    2    0    0 -0.29529901602E+02  0.10771433825E+02  0.32265686673E+02  0.45045681388E+02  0.00000000000E+00 0.  1.
         11    1    3    3    0    0  0.21773187702E+02 -0.65855828995E+01 -0.20301135870E+02  0.30488977069E+02  0.51100000000E-03 0. -1.
        -11    1    3    3    0    0  0.44079175529E+01  0.24492350732E+00 -0.40965617638E+01  0.60225860910E+01  0.51100000000E-03 0.  1.
        -12    1    3    3    0    0  0.33487963466E+01 -0.44307744324E+01 -0.78679890402E+01  0.96307554521E+01  0.00000000000E+00 0.  1.
</event>
<event>
 7    1  0.2031146E-008  0.4614232E+02  0.7816164E-02  0.1320468E+00
        -11   -1    0    0    0    0  0.00000000000E+00  0.00000000000E+00  0.45593999997E+02  0.45594000000E+02  0.51100000000E-03 0.  1.
         11   -1    0    0    0    0 -0.00000000000E+00 -0.00000000000E+00 -0.45593999997E+02  0.45594000000E+02  0.51100000000E-03 0. -1.
    9900012    2    1    2    0    0 -0.99534969430E+01 -0.14879592922E+02 -0.41335687175E+02  0.46142318508E+02  0.10000006808E+02 0.  0.
        -12    1    1    2    0    0  0.99534969430E+01  0.14879592922E+02  0.41335687175E+02  0.45045681492E+02  0.00000000000E+00 0.  1.
         11    1    3    3    0    0 -0.13462948457E+01 -0.10570890621E+01 -0.27540070091E+01  0.32426072788E+01  0.51100000000E-03 0. -1.
        -11    1    3    3    0    0 -0.81421879243E+01 -0.56299235024E+01 -0.15386034511E+02  0.18295390706E+02  0.51100000000E-03 0.  1.
         12    1    3    3    0    0 -0.46501417298E+00 -0.81925803572E+01 -0.23195645654E+02  0.24604320523E+02  0.00000000000E+00 0. -1.
</event>
<event>
 7    1  0.2031146E-008  0.4614232E+02  0.7816164E-02  0.1320468E+00
        -11   -1    0    0    0    0  0.00000000000E+00  0.00000000000E+00  0.45593999997E+02  0.45594000000E+02  0.51100000000E-03 0.  1.
         11   -1    0    0    0    0 -0.00000000000E+00 -0.00000000000E+00 -0.45593999997E+02  0.45594000000E+02  0.51100000000E-03 0. -1.
    9900012    2    1    2    0    0 -0.30873303325E+02  0.83211735778E+00 -0.32791158455E+02  0.46142319294E+02  0.10000013976E+02 0.  0.
        -12    1    1    2    0    0  0.30873303325E+02 -0.83211735778E+00  0.32791158455E+02  0.45045680706E+02  0.00000000000E+00 0.  1.
         11    1    3    3    0    0 -0.22724857179E+02 -0.20595245716E+01 -0.23142028909E+02  0.32499450419E+02  0.51100000000E-03 0. -1.
        -11    1    3    3    0    0 -0.43161634963E+01 -0.69740114521E+00 -0.39258826873E+01  0.58760693342E+01  0.51100000000E-03 0.  1.
         12    1    3    3    0    0 -0.38322826495E+01  0.35890430746E+01 -0.57232468587E+01  0.77667995405E+01  0.00000000000E+00 0. -1.
</event>
<event>
 7    1  0.2031146E-008  0.4614231E+02  0.7816164E-02  0.1320468E+00
        -11   -1    0    0    0    0  0.00000000000E+00  0.00000000000E+00  0.45593999997E+02  0.45594000000E+02  0.51100000000E-03 0.  1.
         11   -1    0    0    0    0 -0.00000000000E+00 -0.00000000000E+00 -0.45593999997E+02  0.45594000000E+02  0.51100000000E-03 0. -1.
    9900012    2    1    2    0    0  0.44917804011E+02 -0.25666165503E+01  0.22175875788E+01  0.46142308393E+02  0.99999145733E+01 0.  0.
        -12    1    1    2    0    0 -0.44917804011E+02  0.25666165503E+01 -0.22175875788E+01  0.45045691607E+02  0.00000000000E+00 0.  1.
         11    1    3    3    0    0  0.82490724372E+01  0.14874119210E+01  0.14691826433E+01  0.85098817970E+01  0.51100000000E-03 0. -1.
        -11    1    3    3    0    0  0.15097847275E+02  0.39959825181E+00 -0.26869522212E+01  0.15340286295E+02  0.51100000000E-03 0.  1.
         12    1    3    3    0    0  0.21570884298E+02 -0.44536267231E+01  0.34353571568E+01  0.22292140301E+02  0.00000000000E+00 0. -1.
</event>
<event>
 7    1  0.2031146E-008  0.4614232E+02  0.7816164E-02  0.1320468E+00
        -11   -1    0    0    0    0  0.00000000000E+00  0.00000000000E+00  0.45593999997E+02  0.45594000000E+02  0.51100000000E-03 0.  1.
         11   -1    0    0    0    0 -0.00000000000E+00 -0.00000000000E+00 -0.45593999997E+02  0.45594000000E+02  0.51100000000E-03 0. -1.
    9900012    2    1    2    0    0 -0.27432985121E+02  0.52705222734E+01 -0.35337888118E+02  0.46142318583E+02  0.10000007494E+02 0.  0.
        -12    1    1    2    0    0  0.27432985121E+02 -0.52705222734E+01  0.35337888118E+02  0.45045681417E+02  0.00000000000E+00 0.  1.
         11    1    3    3    0    0 -0.88210827913E+01  0.15959098556E+01 -0.10928092630E+02  0.14134413277E+02  0.51100000000E-03 0. -1.
        -11    1    3    3    0    0 -0.14778412479E+02 -0.51431735687E+00 -0.19688562858E+02  0.24623271623E+02  0.51100000000E-03 0.  1.
        -12    1    3    3    0    0 -0.38334898504E+01  0.41889297746E+01 -0.47212326298E+01  0.73846336832E+01  0.00000000000E+00 0.  1.
</event>
<event>
 7    1  0.2031146E-008  0.4614232E+02  0.7816164E-02  0.1320468E+00
        -11   -1    0    0    0    0  0.00000000000E+00  0.00000000000E+00  0.45593999997E+02  0.45594000000E+02  0.51100000000E-03 0.  1.
         11   -1    0    0    0    0 -0.00000000000E+00 -0.00000000000E+00 -0.45593999997E+02  0.45594000000E+02  0.51100000000E-03 0. -1.
    9900012    2    1    2    0    0  0.40062914179E+02 -0.17000556294E+01 -0.20522822663E+02  0.46142317280E+02  0.99999956088E+01 0.  0.
        -12    1    1    2    0    0 -0.40062914179E+02  0.17000556294E+01  0.20522822663E+02  0.45045682720E+02  0.00000000000E+00 0.  1.
         11    1    3    3    0    0  0.55745201414E+01 -0.16946606957E+01 -0.51790613645E+00  0.58493911399E+01  0.51100000000E-03 0.  1.
        -11    1    3    3    0    0  0.12890795166E+02  0.18605956125E+01 -0.99838362794E+01  0.16410710014E+02  0.51100000000E-03 0. -1.
         12    1    3    3    0    0  0.21597598872E+02 -0.18659905462E+01 -0.10021080247E+02  0.23882216126E+02  0.00000000000E+00 0. -1.
</event>
<event>
 7    1  0.2031146E-008  0.4614232E+02  0.7816164E-02  0.1320468E+00
        -11   -1    0    0    0    0  0.00000000000E+00  0.00000000000E+00  0.45593999997E+02  0.45594000000E+02  0.51100000000E-03 0.  1.
         11   -1    0    0    0    0 -0.00000000000E+00 -0.00000000000E+00 -0.45593999997E+02  0.45594000000E+02  0.51100000000E-03 0. -1.
    9900012    2    1    2    0    0  0.28529095386E+02  0.22301029252E+02 -0.26793063927E+02  0.46142318034E+02  0.10000002486E+02 0.  0.
        -12    1    1    2    0    0 -0.28529095386E+02 -0.22301029252E+02  0.26793063927E+02  0.45045681966E+02  0.00000000000E+00 0.  1.
         11    1    3    3    0    0  0.90195908107E+01  0.70712925597E+01 -0.81215901033E+01  0.14046936425E+02  0.51100000000E-03 0. -1.
        -11    1    3    3    0    0  0.79338461325E+01  0.15777003383E+01 -0.44359031804E+01  0.92256322330E+01  0.51100000000E-03 0.  1.
         12    1    3    3    0    0  0.11575658443E+02  0.13652036354E+02 -0.14235570643E+02  0.22869749376E+02  0.00000000000E+00 0. -1.
</event>
<event>
 7    1  0.2031146E-008  0.4614232E+02  0.7816164E-02  0.1320468E+00
        -11   -1    0    0    0    0  0.00000000000E+00  0.00000000000E+00  0.45593999997E+02  0.45594000000E+02  0.51100000000E-03 0.  1.
         11   -1    0    0    0    0 -0.00000000000E+00 -0.00000000000E+00 -0.45593999997E+02  0.45594000000E+02  0.51100000000E-03 0. -1.
    9900012    2    1    2    0    0  0.59424549797E+01 -0.35232045393E+02 -0.27431800964E+02  0.46142317656E+02  0.99999990384E+01 0.  0.
        -12    1    1    2    0    0 -0.59424549797E+01  0.35232045393E+02  0.27431800964E+02  0.45045682344E+02  0.00000000000E+00 0.  1.
         11    1    3    3    0    0 -0.10502921920E+00 -0.88973634519E+01 -0.10897509931E+02  0.14068753694E+02  0.51100000000E-03 0. -1.
        -11    1    3    3    0    0  0.16829496347E+01 -0.48714714396E+01 -0.55394757872E+01  0.75663297389E+01  0.51100000000E-03 0.  1.
         12    1    3    3    0    0  0.43645345642E+01 -0.21463210501E+02 -0.10994815246E+02  0.24507234223E+02  0.00000000000E+00 0. -1.
</event>
<event>
 7    1  0.2031146E-008  0.4614232E+02  0.7816164E-02  0.1320468E+00
        -11   -1    0    0    0    0  0.00000000000E+00  0.00000000000E+00  0.45593999997E+02  0.45594000000E+02  0.51100000000E-03 0.  1.
         11   -1    0    0    0    0 -0.00000000000E+00 -0.00000000000E+00 -0.45593999997E+02  0.45594000000E+02  0.51100000000E-03 0. -1.
    9900012    2    1    2    0    0  0.74155400370E+00  0.79192731644E+01 -0.44337893013E+02  0.46142317114E+02  0.99999940993E+01 0.  0.
        -12    1    1    2    0    0 -0.74155400370E+00 -0.79192731644E+01  0.44337893013E+02  0.45045682886E+02  0.00000000000E+00 0.  1.
         11    1    3    3    0    0  0.46476970843E+01  0.63095303690E+01 -0.32640670084E+02  0.33568208256E+02  0.51100000000E-03 0. -1.
        -11    1    3    3    0    0 -0.13057312923E+01  0.10894203883E+01 -0.67501081256E+01  0.69610150811E+01  0.51100000000E-03 0.  1.
         12    1    3    3    0    0 -0.26004117884E+01  0.52032240711E+00 -0.49471148034E+01  0.56130937774E+01  0.00000000000E+00 0. -1.
</event>
<event>
 7    1  0.2031146E-008  0.4614232E+02  0.7816164E-02  0.1320468E+00
        -11   -1    0    0    0    0  0.00000000000E+00  0.00000000000E+00  0.45593999997E+02  0.45594000000E+02  0.51100000000E-03 0.  1.
         11   -1    0    0    0    0 -0.00000000000E+00 -0.00000000000E+00 -0.45593999997E+02  0.45594000000E+02  0.51100000000E-03 0. -1.
    9900012    2    1    2    0    0  0.18612532073E+02 -0.17346245039E+02 -0.37172502165E+02  0.46142317806E+02  0.10000000409E+02 0.  0.
        -12    1    1    2    0    0 -0.18612532073E+02  0.17346245039E+02  0.37172502165E+02  0.45045682194E+02  0.00000000000E+00 0.  1.
         11    1    3    3    0    0  0.11869952718E+02 -0.95678778722E+01 -0.23196291695E+02  0.27758026104E+02  0.51100000000E-03 0. -1.
        -11    1    3    3    0    0  0.21498741728E+01 -0.19088492573E+01 -0.89362051308E+01  0.93873013612E+01  0.51100000000E-03 0.  1.
         12    1    3    3    0    0  0.45927051826E+01 -0.58695179089E+01 -0.50400053390E+01  0.89969903409E+01  0.00000000000E+00 0. -1.
</event>
<event>
 7    1  0.2031146E-008  0.4614232E+02  0.7816164E-02  0.1320468E+00
        -11   -1    0    0    0    0  0.00000000000E+00  0.00000000000E+00  0.45593999997E+02  0.45594000000E+02  0.51100000000E-03 0.  1.
         11   -1    0    0    0    0 -0.00000000000E+00 -0.00000000000E+00 -0.45593999997E+02  0.45594000000E+02  0.51100000000E-03 0. -1.
    9900012    2    1    2    0    0 -0.40720465457E+02  0.10665006629E+02 -0.16037916589E+02  0.46142318277E+02  0.10000004701E+02 0.  0.
        -12    1    1    2    0    0  0.40720465457E+02 -0.10665006629E+02  0.16037916589E+02  0.45045681723E+02  0.00000000000E+00 0.  1.
         11    1    3    3    0    0 -0.25030484237E+02  0.96725271855E+01 -0.10973691619E+02  0.28991461352E+02  0.51100000000E-03 0. -1.
        -11    1    3    3    0    0 -0.51375326484E+00  0.10933595878E+01 -0.31257514191E+00  0.12478305517E+01  0.51100000000E-03 0.  1.
        -12    1    3    3    0    0 -0.15176227954E+02 -0.10088014427E+00 -0.47516498286E+01  0.15903026373E+02  0.00000000000E+00 0.  1.
</event>
<event>
 7    1  0.2031146E-008  0.4614232E+02  0.7816164E-02  0.1320468E+00
        -11   -1    0    0    0    0  0.00000000000E+00  0.00000000000E+00  0.45593999997E+02  0.45594000000E+02  0.51100000000E-03 0.  1.
         11   -1    0    0    0    0 -0.00000000000E+00 -0.00000000000E+00 -0.45593999997E+02  0.45594000000E+02  0.51100000000E-03 0. -1.
    9900012    2    1    2    0    0  0.54543457076E+01  0.94091906822E+01 -0.43713049505E+02  0.46142318149E+02  0.10000003536E+02 0.  0.
        -12    1    1    2    0    0 -0.54543457076E+01 -0.94091906822E+01  0.43713049505E+02  0.45045681851E+02  0.00000000000E+00 0.  1.
         11    1    3    3    0    0  0.60534180831E+00  0.16448531313E+00 -0.16464238903E+02  0.16476184541E+02  0.51100000000E-03 0. -1.
        -11    1    3    3    0    0  0.21729161255E+01  0.48125275878E+01 -0.20448222122E+02  0.21118990849E+02  0.51100000000E-03 0.  1.
         12    1    3    3    0    0  0.26760877737E+01  0.44321777812E+01 -0.68005884798E+01  0.85471427582E+01  0.00000000000E+00 0. -1.
</event>
<event>
 7    1  0.2031146E-008  0.4614232E+02  0.7816164E-02  0.1320468E+00
        -11   -1    0    0    0    0  0.00000000000E+00  0.00000000000E+00  0.45593999997E+02  0.45594000000E+02  0.51100000000E-03 0. -1.
         11   -1    0    0    0    0 -0.00000000000E+00 -0.00000000000E+00 -0.45593999997E+02  0.45594000000E+02  0.51100000000E-03 0.  1.
    9900012    2    1    2    0    0 -0.23454507988E+02 -0.23165552717E+02  0.30697828565E+02  0.46142318117E+02  0.10000003250E+02 0.  0.
        -12    1    1    2    0    0  0.23454507988E+02  0.23165552717E+02 -0.30697828565E+02  0.45045681883E+02  0.00000000000E+00 0.  1.
         11    1    3    3    0    0  0.88472476133E-01 -0.40232757899E+00 -0.33819886294E+00  0.53298554564E+00  0.51100000000E-03 0. -1.
        -11    1    3    3    0    0 -0.70790226575E+01 -0.33257950481E+01  0.90384302416E+01  0.11952685722E+02  0.51100000000E-03 0.  1.
         12    1    3    3    0    0 -0.16463957807E+02 -0.19437430090E+02  0.21997597186E+02  0.33656646849E+02  0.00000000000E+00 0. -1.
</event>
<event>
 7    1  0.2031146E-008  0.4614232E+02  0.7816164E-02  0.1320468E+00
        -11   -1    0    0    0    0  0.00000000000E+00  0.00000000000E+00  0.45593999997E+02  0.45594000000E+02  0.51100000000E-03 0.  1.
         11   -1    0    0    0    0 -0.00000000000E+00 -0.00000000000E+00 -0.45593999997E+02  0.45594000000E+02  0.51100000000E-03 0. -1.
    9900012    2    1    2    0    0 -0.10480957702E+02  0.32866376511E+02 -0.28966607042E+02  0.46142317601E+02  0.99999985394E+01 0.  0.
        -12    1    1    2    0    0  0.10480957702E+02 -0.32866376511E+02  0.28966607042E+02  0.45045682399E+02  0.00000000000E+00 0.  1.
         11    1    3    3    0    0 -0.12743832268E-01  0.25406204481E+01 -0.27246358310E+01  0.37253933134E+01  0.51100000000E-03 0. -1.
        -11    1    3    3    0    0 -0.89746292806E+01  0.20647847963E+02 -0.13167338274E+02  0.26081725283E+02  0.51100000000E-03 0.  1.
        -12    1    3    3    0    0 -0.14935845887E+01  0.96779080994E+01 -0.13074632936E+02  0.16335199005E+02  0.00000000000E+00 0.  1.
</event>
<event>
 7    1  0.2031146E-008  0.4614232E+02  0.7816164E-02  0.1320468E+00
        -11   -1    0    0    0    0  0.00000000000E+00  0.00000000000E+00  0.45593999997E+02  0.45594000000E+02  0.51100000000E-03 0.  1.
         11   -1    0    0    0    0 -0.00000000000E+00 -0.00000000000E+00 -0.45593999997E+02  0.45594000000E+02  0.51100000000E-03 0. -1.
    9900012    2    1    2    0    0  0.44602735923E+02  0.62959216557E+01 -0.26615932136E+00  0.46142317387E+02  0.99999965891E+01 0.  0.
        -12    1    1    2    0    0 -0.44602735923E+02 -0.62959216557E+01  0.26615932136E+00  0.45045682613E+02  0.00000000000E+00 0.  1.
         11    1    3    3    0    0  0.15506684333E+02 -0.70102229527E+00 -0.14352958611E+01  0.15588738426E+02  0.51100000000E-03 0. -1.
        -11    1    3    3    0    0  0.17005074351E+02  0.70111244467E+01  0.15298227741E+01  0.18457214786E+02  0.51100000000E-03 0.  1.
        -12    1    3    3    0    0  0.12090977239E+02 -0.14180495737E-01 -0.36068623431E+00  0.12096364175E+02  0.00000000000E+00 0.  1.
</event>
<event>
 7    1  0.2031146E-008  0.4614232E+02  0.7816164E-02  0.1320468E+00
        -11   -1    0    0    0    0  0.00000000000E+00  0.00000000000E+00  0.45593999997E+02  0.45594000000E+02  0.51100000000E-03 0.  1.
         11   -1    0    0    0    0 -0.00000000000E+00 -0.00000000000E+00 -0.45593999997E+02  0.45594000000E+02  0.51100000000E-03 0. -1.
    9900012    2    1    2    0    0  0.99032587456E+01  0.43670756622E+02  0.48891655208E+01  0.46142318107E+02  0.10000003158E+02 0.  0.
        -12    1    1    2    0    0 -0.99032587456E+01 -0.43670756622E+02 -0.48891655208E+01  0.45045681893E+02  0.00000000000E+00 0.  1.
         11    1    3    3    0    0  0.56152791724E+01  0.22620981801E+02  0.56820070496E-01  0.23307582599E+02  0.51100000000E-03 0. -1.
        -11    1    3    3    0    0  0.24526500613E+01  0.10961546752E+02  0.56020865999E+01  0.12552066525E+02  0.51100000000E-03 0.  1.
         12    1    3    3    0    0  0.18353295119E+01  0.10088228069E+02 -0.76974114960E+00  0.10282668984E+02  0.00000000000E+00 0. -1.
</event>
<event>
 7    1  0.2308615E-008  0.4614232E+02  0.7816164E-02  0.1320468E+00
        -11   -1    0    0    0    0  0.00000000000E+00  0.00000000000E+00  0.45593999997E+02  0.45594000000E+02  0.51100000000E-03 0.  1.
         11   -1    0    0    0    0 -0.00000000000E+00 -0.00000000000E+00 -0.45593999997E+02  0.45594000000E+02  0.51100000000E-03 0. -1.
    9900012    2    1    2    0    0 -0.36198719010E+02  0.26912864503E+01 -0.26674394575E+02  0.46142316448E+02  0.99999880262E+01 0.  0.
        -12    1    1    2    0    0  0.36198719010E+02 -0.26912864503E+01  0.26674394575E+02  0.45045683552E+02  0.00000000000E+00 0.  1.
         11    1    3    3    0    0 -0.22881209810E+02  0.82354309277E+00 -0.15164189591E+02  0.27462349350E+02  0.51100000000E-03 0. -1.
        -11    1    3    3    0    0 -0.13888991718E+02  0.18197202343E+01 -0.11470828343E+02  0.18105120155E+02  0.51100000000E-03 0.  1.
        -12    1    3    3    0    0  0.57148251810E+00  0.48023123243E-01 -0.39376641022E-01  0.57484694373E+00  0.00000000000E+00 0.  1.
</event>
<event>
 7    1  0.2031146E-008  0.4614232E+02  0.7816164E-02  0.1320468E+00
        -11   -1    0    0    0    0  0.00000000000E+00  0.00000000000E+00  0.45593999997E+02  0.45594000000E+02  0.51100000000E-03 0.  1.
         11   -1    0    0    0    0 -0.00000000000E+00 -0.00000000000E+00 -0.45593999997E+02  0.45594000000E+02  0.51100000000E-03 0. -1.
    9900012    2    1    2    0    0  0.33660013995E+02 -0.21879258166E+02 -0.20430738511E+02  0.46142317009E+02  0.99999931383E+01 0.  0.
        -12    1    1    2    0    0 -0.33660013995E+02  0.21879258166E+02  0.20430738511E+02  0.45045682991E+02  0.00000000000E+00 0.  1.
         11    1    3    3    0    0  0.18121177488E+02 -0.95562897886E+01 -0.12771203192E+02  0.24141320993E+02  0.51100000000E-03 0. -1.
        -11    1    3    3    0    0  0.14507419881E+02 -0.11031670845E+02 -0.85416453455E+01  0.20127660040E+02  0.51100000000E-03 0.  1.
         12    1    3    3    0    0  0.10314166260E+01 -0.12912975332E+01  0.88211002665E+00  0.18733359749E+01  0.00000000000E+00 0. -1.
</event>
<event>
 7    1  0.2031146E-008  0.4614232E+02  0.7816164E-02  0.1320468E+00
        -11   -1    0    0    0    0  0.00000000000E+00  0.00000000000E+00  0.45593999997E+02  0.45594000000E+02  0.51100000000E-03 0.  1.
         11   -1    0    0    0    0 -0.00000000000E+00 -0.00000000000E+00 -0.45593999997E+02  0.45594000000E+02  0.51100000000E-03 0. -1.
    9900012    2    1    2    0    0  0.21449259353E+02  0.37425537192E+02 -0.12975820204E+02  0.46142317955E+02  0.10000001772E+02 0.  0.
        -12    1    1    2    0    0 -0.21449259353E+02 -0.37425537192E+02  0.12975820204E+02  0.45045682045E+02  0.00000000000E+00 0.  1.
         11    1    3    3    0    0  0.39377444811E+00  0.55318263862E+01 -0.12258219219E+01  0.56796831891E+01  0.51100000000E-03 0. -1.
        -11    1    3    3    0    0  0.11996295183E+02  0.22422728224E+02 -0.58742925190E+01  0.26099753868E+02  0.51100000000E-03 0.  1.
         12    1    3    3    0    0  0.90591897216E+01  0.94709825822E+01 -0.58757057629E+01  0.14362880898E+02  0.00000000000E+00 0. -1.
</event>
<event>
 7    1  0.2031146E-008  0.4614232E+02  0.7816164E-02  0.1320468E+00
        -11   -1    0    0    0    0  0.00000000000E+00  0.00000000000E+00  0.45593999997E+02  0.45594000000E+02  0.51100000000E-03 0. -1.
         11   -1    0    0    0    0 -0.00000000000E+00 -0.00000000000E+00 -0.45593999997E+02  0.45594000000E+02  0.51100000000E-03 0.  1.
    9900012    2    1    2    0    0 -0.24573065501E+02 -0.36807655003E+02 -0.83949094254E+01  0.46142317419E+02  0.99999968811E+01 0.  0.
        -12    1    1    2    0    0  0.24573065501E+02  0.36807655003E+02  0.83949094254E+01  0.45045682581E+02  0.00000000000E+00 0.  1.
         11    1    3    3    0    0 -0.79537803236E+01 -0.12812296666E+02 -0.20044085546E+01  0.15212995142E+02  0.51100000000E-03 0. -1.
        -11    1    3    3    0    0 -0.10343569952E+02 -0.20721682714E+02 -0.54120147289E+01  0.23783764999E+02  0.51100000000E-03 0.  1.
        -12    1    3    3    0    0 -0.62757152254E+01 -0.32736756228E+01 -0.97848614192E+00  0.71455572773E+01  0.00000000000E+00 0.  1.
</event>
<event>
 7    1  0.2031146E-008  0.4614232E+02  0.7816164E-02  0.1320468E+00
        -11   -1    0    0    0    0  0.00000000000E+00  0.00000000000E+00  0.45593999997E+02  0.45594000000E+02  0.51100000000E-03 0.  1.
         11   -1    0    0    0    0 -0.00000000000E+00 -0.00000000000E+00 -0.45593999997E+02  0.45594000000E+02  0.51100000000E-03 0. -1.
    9900012    2    1    2    0    0  0.22174243772E+02  0.56748305852E+01 -0.38797070530E+02  0.46142317957E+02  0.10000001783E+02 0.  0.
        -12    1    1    2    0    0 -0.22174243772E+02 -0.56748305852E+01  0.38797070530E+02  0.45045682043E+02  0.00000000000E+00 0.  1.
         11    1    3    3    0    0  0.15222562847E+02  0.45512328030E+01 -0.28754938762E+02  0.32852498278E+02  0.51100000000E-03 0. -1.
        -11    1    3    3    0    0  0.22269451638E+01  0.20180403096E+01 -0.12224063876E+01  0.32443873214E+01  0.51100000000E-03 0.  1.
         12    1    3    3    0    0  0.47247357617E+01 -0.89444252744E+00 -0.88197253804E+01  0.10045432357E+02  0.00000000000E+00 0. -1.
</event>
<event>
 7    1  0.2031146E-008  0.4614232E+02  0.7816164E-02  0.1320468E+00
        -11   -1    0    0    0    0  0.00000000000E+00  0.00000000000E+00  0.45593999997E+02  0.45594000000E+02  0.51100000000E-03 0. -1.
         11   -1    0    0    0    0 -0.00000000000E+00 -0.00000000000E+00 -0.45593999997E+02  0.45594000000E+02  0.51100000000E-03 0.  1.
    9900012    2    1    2    0    0  0.13997165707E+02 -0.17194139224E+02  0.39211660892E+02  0.46142318504E+02  0.10000006774E+02 0.  0.
        -12    1    1    2    0    0 -0.13997165707E+02  0.17194139224E+02 -0.39211660892E+02  0.45045681496E+02  0.00000000000E+00 0.  1.
         11    1    3    3    0    0  0.17630322100E+01 -0.96389509708E+00  0.54624945846E+01  0.58203284856E+01  0.51100000000E-03 0. -1.
        -11    1    3    3    0    0  0.40585691833E+01 -0.48236465998E+01  0.18749142292E+02  0.19780543149E+02  0.51100000000E-03 0.  1.
         12    1    3    3    0    0  0.81755643137E+01 -0.11406597528E+02  0.15000024016E+02  0.20541446869E+02  0.00000000000E+00 0. -1.
</event>
<event>
 7    1  0.2031146E-008  0.4614232E+02  0.7816164E-02  0.1320468E+00
        -11   -1    0    0    0    0  0.00000000000E+00  0.00000000000E+00  0.45593999997E+02  0.45594000000E+02  0.51100000000E-03 0.  1.
         11   -1    0    0    0    0 -0.00000000000E+00 -0.00000000000E+00 -0.45593999997E+02  0.45594000000E+02  0.51100000000E-03 0. -1.
    9900012    2    1    2    0    0 -0.11918263057E+02  0.34134095081E+02 -0.26868793667E+02  0.46142317472E+02  0.99999973615E+01 0.  0.
        -12    1    1    2    0    0  0.11918263057E+02 -0.34134095081E+02  0.26868793667E+02  0.45045682528E+02  0.00000000000E+00 0.  1.
         11    1    3    3    0    0 -0.89911674249E+01  0.19127248342E+02 -0.17541741229E+02  0.27466441459E+02  0.51100000000E-03 0. -1.
        -11    1    3    3    0    0 -0.16998299927E+01  0.73425034043E+00 -0.95135052552E+00  0.20817333283E+01  0.51100000000E-03 0.  1.
         12    1    3    3    0    0 -0.12272656390E+01  0.14272596399E+02 -0.83757019127E+01  0.16594142685E+02  0.00000000000E+00 0. -1.
</event>
<event>
 7    1  0.2031146E-008  0.4614232E+02  0.7816164E-02  0.1320468E+00
        -11   -1    0    0    0    0  0.00000000000E+00  0.00000000000E+00  0.45593999997E+02  0.45594000000E+02  0.51100000000E-03 0.  1.
         11   -1    0    0    0    0 -0.00000000000E+00 -0.00000000000E+00 -0.45593999997E+02  0.45594000000E+02  0.51100000000E-03 0. -1.
    9900012    2    1    2    0    0  0.38211235743E+01  0.20297400641E+02 -0.40031587835E+02  0.46142317823E+02  0.10000000569E+02 0.  0.
        -12    1    1    2    0    0 -0.38211235743E+01 -0.20297400641E+02  0.40031587835E+02  0.45045682177E+02  0.00000000000E+00 0.  1.
         11    1    3    3    0    0 -0.13904037090E+01  0.40610189830E+01 -0.63397438405E+01  0.76562033593E+01  0.51100000000E-03 0. -1.
        -11    1    3    3    0    0 -0.10490911446E+01  0.13436372389E+01 -0.89287489512E+00  0.19243645961E+01  0.51100000000E-03 0.  1.
         12    1    3    3    0    0  0.62606184278E+01  0.14892744419E+02 -0.32798969100E+02  0.36561749868E+02  0.00000000000E+00 0. -1.
</event>
<event>
 7    1  0.2031146E-008  0.4614232E+02  0.7816164E-02  0.1320468E+00
        -11   -1    0    0    0    0  0.00000000000E+00  0.00000000000E+00  0.45593999997E+02  0.45594000000E+02  0.51100000000E-03 0.  1.
         11   -1    0    0    0    0 -0.00000000000E+00 -0.00000000000E+00 -0.45593999997E+02  0.45594000000E+02  0.51100000000E-03 0. -1.
    9900012    2    1    2    0    0 -0.33855189611E+02 -0.23804688739E+02 -0.17784162590E+02  0.46142317537E+02  0.99999979525E+01 0.  0.
        -12    1    1    2    0    0  0.33855189611E+02  0.23804688739E+02  0.17784162590E+02  0.45045682463E+02  0.00000000000E+00 0.  1.
         11    1    3    3    0    0 -0.15842192103E+02 -0.11549975790E+02 -0.10033975088E+02  0.22024024330E+02  0.51100000000E-03 0. -1.
        -11    1    3    3    0    0 -0.10441131516E+02 -0.96011948033E+01 -0.21802712269E+01  0.14351088874E+02  0.51100000000E-03 0.  1.
        -12    1    3    3    0    0 -0.75718659919E+01 -0.26535181456E+01 -0.55699162758E+01  0.97672043322E+01  0.00000000000E+00 0.  1.
</event>
<event>
 7    1  0.2031146E-008  0.4614232E+02  0.7816164E-02  0.1320468E+00
        -11   -1    0    0    0    0  0.00000000000E+00  0.00000000000E+00  0.45593999997E+02  0.45594000000E+02  0.51100000000E-03 0.  1.
         11   -1    0    0    0    0 -0.00000000000E+00 -0.00000000000E+00 -0.45593999997E+02  0.45594000000E+02  0.51100000000E-03 0. -1.
    9900012    2    1    2    0    0  0.96396320213E+01 -0.15126162354E+02 -0.41320578359E+02  0.46142317754E+02  0.99999999394E+01 0.  0.
        -12    1    1    2    0    0 -0.96396320213E+01  0.15126162354E+02  0.41320578359E+02  0.45045682246E+02  0.00000000000E+00 0.  1.
         11    1    3    3    0    0  0.63354185444E+01 -0.13076990448E+02 -0.37063095593E+02  0.39809775967E+02  0.51100000000E-03 0. -1.
        -11    1    3    3    0    0 -0.33335632725E+00  0.21170478777E+00 -0.25191189623E+00  0.46840711210E+00  0.51100000000E-03 0.  1.
        -12    1    3    3    0    0  0.36375698041E+01 -0.22608766944E+01 -0.40055708692E+01  0.58641346757E+01  0.00000000000E+00 0.  1.
</event>
<event>
 7    1  0.2031146E-008  0.4614232E+02  0.7816164E-02  0.1320468E+00
        -11   -1    0    0    0    0  0.00000000000E+00  0.00000000000E+00  0.45593999997E+02  0.45594000000E+02  0.51100000000E-03 0.  1.
         11   -1    0    0    0    0 -0.00000000000E+00 -0.00000000000E+00 -0.45593999997E+02  0.45594000000E+02  0.51100000000E-03 0. -1.
    9900012    2    1    2    0    0 -0.38403272576E+02 -0.21404434790E+02 -0.98057299019E+01  0.46142317497E+02  0.99999975956E+01 0.  0.
        -12    1    1    2    0    0  0.38403272576E+02  0.21404434790E+02  0.98057299019E+01  0.45045682503E+02  0.00000000000E+00 0.  1.
         11    1    3    3    0    0 -0.13569707305E+02 -0.11838058303E+02 -0.38543240931E+01  0.18415547648E+02  0.51100000000E-03 0. -1.
        -11    1    3    3    0    0 -0.18935791277E+00  0.41769013486E+00  0.69363093422E-01  0.46382428541E+00  0.51100000000E-03 0.  1.
        -12    1    3    3    0    0 -0.24644207358E+02 -0.99840666223E+01 -0.60207689022E+01  0.27262945564E+02  0.00000000000E+00 0.  1.
</event>
<event>
 7    1  0.2031146E-008  0.4614232E+02  0.7816164E-02  0.1320468E+00
        -11   -1    0    0    0    0  0.00000000000E+00  0.00000000000E+00  0.45593999997E+02  0.45594000000E+02  0.51100000000E-03 0.  1.
         11   -1    0    0    0    0 -0.00000000000E+00 -0.00000000000E+00 -0.45593999997E+02  0.45594000000E+02  0.51100000000E-03 0. -1.
    9900012    2    1    2    0    0 -0.24215173560E+01  0.13409466380E+01 -0.44960553739E+02  0.46142320111E+02  0.10000021424E+02 0.  0.
        -12    1    1    2    0    0  0.24215173560E+01 -0.13409466380E+01  0.44960553739E+02  0.45045679889E+02  0.00000000000E+00 0.  1.
         11    1    3    3    0    0 -0.20673018712E+01 -0.29479837739E+01 -0.13356142871E+02  0.13832964180E+02  0.51100000000E-03 0. -1.
        -11    1    3    3    0    0  0.65339951765E+00  0.21867100338E+01 -0.27456809748E+02  0.27551497845E+02  0.51100000000E-03 0.  1.
        -12    1    3    3    0    0 -0.10076150025E+01  0.21022203780E+01 -0.41476011193E+01  0.47578580849E+01  0.00000000000E+00 0.  1.
</event>
<event>
 7    1  0.2031146E-008  0.4614232E+02  0.7816164E-02  0.1320468E+00
        -11   -1    0    0    0    0  0.00000000000E+00  0.00000000000E+00  0.45593999997E+02  0.45594000000E+02  0.51100000000E-03 0.  1.
         11   -1    0    0    0    0 -0.00000000000E+00 -0.00000000000E+00 -0.45593999997E+02  0.45594000000E+02  0.51100000000E-03 0. -1.
    9900012    2    1    2    0    0 -0.32551309073E+02  0.19651992688E+02 -0.24152122155E+02  0.46142317148E+02  0.99999944122E+01 0.  0.
        -12    1    1    2    0    0  0.32551309073E+02 -0.19651992688E+02  0.24152122155E+02  0.45045682852E+02  0.00000000000E+00 0.  1.
         11    1    3    3    0    0 -0.35894544401E+01  0.66556883305E+00 -0.11422715167E+01  0.38251731370E+01  0.51100000000E-03 0.  1.
        -11    1    3    3    0    0 -0.19711773101E+02  0.14954339075E+02 -0.12402440690E+02  0.27676827695E+02  0.51100000000E-03 0. -1.
         12    1    3    3    0    0 -0.92500815320E+01  0.40320847803E+01 -0.10607409948E+02  0.14640316316E+02  0.00000000000E+00 0. -1.
</event>
<event>
 7    1  0.2031146E-008  0.4614232E+02  0.7816164E-02  0.1320468E+00
        -11   -1    0    0    0    0  0.00000000000E+00  0.00000000000E+00  0.45593999997E+02  0.45594000000E+02  0.51100000000E-03 0.  1.
         11   -1    0    0    0    0 -0.00000000000E+00 -0.00000000000E+00 -0.45593999997E+02  0.45594000000E+02  0.51100000000E-03 0. -1.
    9900012    2    1    2    0    0 -0.43476587227E+02  0.10985683681E+02 -0.42678353807E+01  0.46142319833E+02  0.10000018895E+02 0.  0.
        -12    1    1    2    0    0  0.43476587227E+02 -0.10985683681E+02  0.42678353807E+01  0.45045680167E+02  0.00000000000E+00 0.  1.
         11    1    3    3    0    0 -0.24106778342E+02  0.87707974211E+01 -0.48764464497E+01  0.26112130891E+02  0.51100000000E-03 0. -1.
        -11    1    3    3    0    0 -0.82104453047E+01  0.32125505559E+01  0.19773648688E+00  0.88187863766E+01  0.51100000000E-03 0.  1.
        -12    1    3    3    0    0 -0.11159363580E+02 -0.99766429608E+00  0.41087458210E+00  0.11211402565E+02  0.00000000000E+00 0.  1.
</event>
<event>
 7    1  0.2031146E-008  0.4614232E+02  0.7816164E-02  0.1320468E+00
        -11   -1    0    0    0    0  0.00000000000E+00  0.00000000000E+00  0.45593999997E+02  0.45594000000E+02  0.51100000000E-03 0. -1.
         11   -1    0    0    0    0 -0.00000000000E+00 -0.00000000000E+00 -0.45593999997E+02  0.45594000000E+02  0.51100000000E-03 0.  1.
    9900012    2    1    2    0    0  0.41677603395E+02 -0.17034213976E+02 -0.13878625017E+01  0.46142320597E+02  0.10000025863E+02 0.  0.
        -12    1    1    2    0    0 -0.41677603395E+02  0.17034213976E+02  0.13878625017E+01  0.45045679403E+02  0.00000000000E+00 0.  1.
         11    1    3    3    0    0  0.11232319474E+02 -0.56006725531E+01 -0.18920998972E+01  0.12693012885E+02  0.51100000000E-03 0. -1.
        -11    1    3    3    0    0  0.38259445083E+01 -0.25270364349E+01  0.26529727938E+01  0.52973606097E+01  0.51100000000E-03 0.  1.
        -12    1    3    3    0    0  0.26619339412E+02 -0.89065049881E+01 -0.21487353984E+01  0.28151947103E+02  0.00000000000E+00 0.  1.
</event>
<event>
 7    1  0.2031146E-008  0.4614232E+02  0.7816164E-02  0.1320468E+00
        -11   -1    0    0    0    0  0.00000000000E+00  0.00000000000E+00  0.45593999997E+02  0.45594000000E+02  0.51100000000E-03 0.  1.
         11   -1    0    0    0    0 -0.00000000000E+00 -0.00000000000E+00 -0.45593999997E+02  0.45594000000E+02  0.51100000000E-03 0. -1.
    9900012    2    1    2    0    0  0.43913882174E+02  0.98443182288E+01  0.19426335878E+01  0.46142317918E+02  0.10000001433E+02 0.  0.
        -12    1    1    2    0    0 -0.43913882174E+02 -0.98443182288E+01 -0.19426335878E+01  0.45045682082E+02  0.00000000000E+00 0.  1.
         11    1    3    3    0    0  0.55398188289E+01  0.30525619078E+01 -0.92407573504E+00  0.63923112473E+01  0.51100000000E-03 0. -1.
        -11    1    3    3    0    0  0.15533676870E+01 -0.77178844833E+00 -0.93195891274E+00  0.19690495820E+01  0.51100000000E-03 0.  1.
        -12    1    3    3    0    0  0.36820695658E+02  0.75635447693E+01  0.37986682356E+01  0.37780957089E+02  0.00000000000E+00 0.  1.
</event>
<event>
 7    1  0.2031146E-008  0.4614232E+02  0.7816164E-02  0.1320468E+00
        -11   -1    0    0    0    0  0.00000000000E+00  0.00000000000E+00  0.45593999997E+02  0.45594000000E+02  0.51100000000E-03 0.  1.
         11   -1    0    0    0    0 -0.00000000000E+00 -0.00000000000E+00 -0.45593999997E+02  0.45594000000E+02  0.51100000000E-03 0. -1.
    9900012    2    1    2    0    0  0.35815199050E+02  0.14049464509E+02 -0.23430697870E+02  0.46142317203E+02  0.99999949113E+01 0.  0.
        -12    1    1    2    0    0 -0.35815199050E+02 -0.14049464509E+02  0.23430697870E+02  0.45045682797E+02  0.00000000000E+00 0.  1.
         11    1    3    3    0    0  0.25452312774E+02  0.74550960773E+01 -0.13910613554E+02  0.29948353090E+02  0.51100000000E-03 0. -1.
        -11    1    3    3    0    0  0.61149473377E+01  0.23686765876E+01 -0.72776896696E+01  0.97963246633E+01  0.51100000000E-03 0.  1.
         12    1    3    3    0    0  0.42479389379E+01  0.42256918445E+01 -0.22423946465E+01  0.63976394503E+01  0.00000000000E+00 0. -1.
</event>
<event>
 7    1  0.2031146E-008  0.4614232E+02  0.7816164E-02  0.1320468E+00
        -11   -1    0    0    0    0  0.00000000000E+00  0.00000000000E+00  0.45593999997E+02  0.45594000000E+02  0.51100000000E-03 0. -1.
         11   -1    0    0    0    0 -0.00000000000E+00 -0.00000000000E+00 -0.45593999997E+02  0.45594000000E+02  0.51100000000E-03 0.  1.
    9900012    2    1    2    0    0 -0.36761177907E+02  0.81475196708E+01  0.24725436603E+02  0.46142317709E+02  0.99999995248E+01 0.  0.
        -12    1    1    2    0    0  0.36761177907E+02 -0.81475196708E+01 -0.24725436603E+02  0.45045682291E+02  0.00000000000E+00 0.  1.
         11    1    3    3    0    0 -0.10804320727E+02  0.25693442909E+01  0.96043350055E+01  0.14682579052E+02  0.51100000000E-03 0. -1.
        -11    1    3    3    0    0 -0.24314513410E+02  0.50757492368E+01  0.11335938588E+02  0.27303155433E+02  0.51100000000E-03 0.  1.
        -12    1    3    3    0    0 -0.16423437692E+01  0.50242614314E+00  0.37851630098E+01  0.41565832238E+01  0.00000000000E+00 0.  1.
</event>
<event>
 7    1  0.2031146E-008  0.4614231E+02  0.7816164E-02  0.1320468E+00
        -11   -1    0    0    0    0  0.00000000000E+00  0.00000000000E+00  0.45593999997E+02  0.45594000000E+02  0.51100000000E-03 0.  1.
         11   -1    0    0    0    0 -0.00000000000E+00 -0.00000000000E+00 -0.45593999997E+02  0.45594000000E+02  0.51100000000E-03 0. -1.
    9900012    2    1    2    0    0  0.34412821450E+02 -0.15543018269E+02 -0.24561885692E+02  0.46142312906E+02  0.99999557231E+01 0.  0.
        -12    1    1    2    0    0 -0.34412821450E+02  0.15543018269E+02  0.24561885692E+02  0.45045687094E+02  0.00000000000E+00 0.  1.
         11    1    3    3    0    0  0.18453506630E+02 -0.10221057682E+02 -0.11416174153E+02  0.23986057609E+02  0.51100000000E-03 0. -1.
        -11    1    3    3    0    0  0.97708194055E+01 -0.58357688113E+01 -0.67033893215E+01  0.13208351075E+02  0.51100000000E-03 0.  1.
        -12    1    3    3    0    0  0.61884954142E+01  0.51380822463E+00 -0.64423222182E+01  0.89479042209E+01  0.00000000000E+00 0.  1.
</event>
<event>
 7    1  0.2031146E-008  0.4614232E+02  0.7816164E-02  0.1320468E+00
        -11   -1    0    0    0    0  0.00000000000E+00  0.00000000000E+00  0.45593999997E+02  0.45594000000E+02  0.51100000000E-03 0. -1.
         11   -1    0    0    0    0 -0.00000000000E+00 -0.00000000000E+00 -0.45593999997E+02  0.45594000000E+02  0.51100000000E-03 0.  1.
    9900012    2    1    2    0    0  0.41431123504E+02  0.60956884827E+01 -0.16595725983E+02  0.46142317257E+02  0.99999954026E+01 0.  0.
        -12    1    1    2    0    0 -0.41431123504E+02 -0.60956884827E+01  0.16595725983E+02  0.45045682743E+02  0.00000000000E+00 0.  1.
         11    1    3    3    0    0  0.72165777118E+01  0.61158735485E+00 -0.14659450674E+01  0.73893185183E+01  0.51100000000E-03 0. -1.
        -11    1    3    3    0    0  0.35022225826E+01 -0.25139756031E+00 -0.45917485671E+01  0.57803908965E+01  0.51100000000E-03 0.  1.
        -12    1    3    3    0    0  0.30712323210E+02  0.57354986881E+01 -0.10538032348E+02  0.32972607842E+02  0.00000000000E+00 0.  1.
</event>
<event>
 7    1  0.2031146E-008  0.4614232E+02  0.7816164E-02  0.1320468E+00
        -11   -1    0    0    0    0  0.00000000000E+00  0.00000000000E+00  0.45593999997E+02  0.45594000000E+02  0.51100000000E-03 0.  1.
         11   -1    0    0    0    0 -0.00000000000E+00 -0.00000000000E+00 -0.45593999997E+02  0.45594000000E+02  0.51100000000E-03 0. -1.
    9900012    2    1    2    0    0 -0.21556015441E+02  0.12285744225E+02 -0.37596699091E+02  0.46142322123E+02  0.10000039774E+02 0.  0.
        -12    1    1    2    0    0  0.21556015441E+02 -0.12285744225E+02  0.37596699091E+02  0.45045677877E+02  0.00000000000E+00 0.  1.
         11    1    3    3    0    0 -0.20054150028E+02  0.81439558423E+01 -0.30026657394E+02  0.37014768736E+02  0.51100000000E-03 0. -1.
        -11    1    3    3    0    0 -0.16911516459E+01  0.37964511998E+01 -0.76678732992E+01  0.87217725719E+01  0.51100000000E-03 0.  1.
         12    1    3    3    0    0  0.18928623237E+00  0.34533718252E+00  0.97831601568E-01  0.40578081480E+00  0.00000000000E+00 0. -1.
</event>
<event>
 7    1  0.2031146E-008  0.4614232E+02  0.7816164E-02  0.1320468E+00
        -11   -1    0    0    0    0  0.00000000000E+00  0.00000000000E+00  0.45593999997E+02  0.45594000000E+02  0.51100000000E-03 0. -1.
         11   -1    0    0    0    0 -0.00000000000E+00 -0.00000000000E+00 -0.45593999997E+02  0.45594000000E+02  0.51100000000E-03 0.  1.
    9900012    2    1    2    0    0  0.26093469516E+02  0.23134100177E+02  0.28514163813E+02  0.46142320071E+02  0.10000021061E+02 0.  0.
        -12    1    1    2    0    0 -0.26093469516E+02 -0.23134100177E+02 -0.28514163813E+02  0.45045679929E+02  0.00000000000E+00 0.  1.
         11    1    3    3    0    0  0.17224154538E+01  0.52985052107E+01  0.51468117491E+01  0.75848891821E+01  0.51100000000E-03 0. -1.
        -11    1    3    3    0    0  0.17611108728E+02  0.10366370612E+02  0.17462924340E+02  0.26880597409E+02  0.51100000000E-03 0.  1.
         12    1    3    3    0    0  0.67599453338E+01  0.74692243542E+01  0.59044277230E+01  0.11676833479E+02  0.00000000000E+00 0. -1.
</event>
<event>
 7    1  0.2031146E-008  0.4614232E+02  0.7816164E-02  0.1320468E+00
        -11   -1    0    0    0    0  0.00000000000E+00  0.00000000000E+00  0.45593999997E+02  0.45594000000E+02  0.51100000000E-03 0.  1.
         11   -1    0    0    0    0 -0.00000000000E+00 -0.00000000000E+00 -0.45593999997E+02  0.45594000000E+02  0.51100000000E-03 0. -1.
    9900012    2    1    2    0    0 -0.21910609620E+02  0.21957126754E+02 -0.32663790355E+02  0.46142318414E+02  0.10000005955E+02 0.  0.
        -12    1    1    2    0    0  0.21910609620E+02 -0.21957126754E+02  0.32663790355E+02  0.45045681586E+02  0.00000000000E+00 0.  1.
         11    1    3    3    0    0 -0.98576953989E+01  0.45380661680E+01 -0.86447523759E+01  0.13874435016E+02  0.51100000000E-03 0.  1.
        -11    1    3    3    0    0 -0.50735416720E+00  0.17267941623E+01 -0.37201188071E+01  0.41326154587E+01  0.51100000000E-03 0. -1.
        -12    1    3    3    0    0 -0.11545560054E+02  0.15692266423E+02 -0.20298919172E+02  0.28135267939E+02  0.00000000000E+00 0.  1.
</event>
<event>
 7    1  0.2031146E-008  0.4614232E+02  0.7816164E-02  0.1320468E+00
        -11   -1    0    0    0    0  0.00000000000E+00  0.00000000000E+00  0.45593999997E+02  0.45594000000E+02  0.51100000000E-03 0. -1.
         11   -1    0    0    0    0 -0.00000000000E+00 -0.00000000000E+00 -0.45593999997E+02  0.45594000000E+02  0.51100000000E-03 0.  1.
    9900012    2    1    2    0    0  0.10676920973E+02  0.16801478807E+02  0.40408256390E+02  0.46142317454E+02  0.99999971960E+01 0.  0.
        -12    1    1    2    0    0 -0.10676920973E+02 -0.16801478807E+02 -0.40408256390E+02  0.45045682546E+02  0.00000000000E+00 0.  1.
         11    1    3    3    0    0  0.79486352567E+01  0.44132745531E+01  0.16403995487E+02  0.18754969020E+02  0.51100000000E-03 0. -1.
        -11    1    3    3    0    0 -0.55297172932E-01  0.34869932512E-01  0.19884994593E+01  0.19895738364E+01  0.51100000000E-03 0.  1.
        -12    1    3    3    0    0  0.27835828892E+01  0.12353334321E+02  0.22015761444E+02  0.25397774597E+02  0.00000000000E+00 0.  1.
</event>
<event>
 7    1  0.2031146E-008  0.4614232E+02  0.7816164E-02  0.1320468E+00
        -11   -1    0    0    0    0  0.00000000000E+00  0.00000000000E+00  0.45593999997E+02  0.45594000000E+02  0.51100000000E-03 0.  1.
         11   -1    0    0    0    0 -0.00000000000E+00 -0.00000000000E+00 -0.45593999997E+02  0.45594000000E+02  0.51100000000E-03 0. -1.
    9900012    2    1    2    0    0 -0.21057969278E+02  0.38475548556E+02 -0.10261950208E+02  0.46142317311E+02  0.99999958985E+01 0.  0.
        -12    1    1    2    0    0  0.21057969278E+02 -0.38475548556E+02  0.10261950208E+02  0.45045682689E+02  0.00000000000E+00 0.  1.
         11    1    3    3    0    0 -0.15387742443E+01  0.68910678845E+01 -0.26754818838E+00  0.70658492100E+01  0.51100000000E-03 0. -1.
        -11    1    3    3    0    0 -0.13957045148E+02  0.16342592385E+02 -0.46000109132E+01  0.21978160428E+02  0.51100000000E-03 0.  1.
         12    1    3    3    0    0 -0.55621498861E+01  0.15241888286E+02 -0.53943911063E+01  0.17098307673E+02  0.00000000000E+00 0. -1.
</event>
<event>
 7    1  0.3405854E-008  0.4614233E+02  0.7816164E-02  0.1320468E+00
        -11   -1    0    0    0    0  0.00000000000E+00  0.00000000000E+00  0.45593999997E+02  0.45594000000E+02  0.51100000000E-03 0. -1.
         11   -1    0    0    0    0 -0.00000000000E+00 -0.00000000000E+00 -0.45593999997E+02  0.45594000000E+02  0.51100000000E-03 0.  1.
    9900012    2    1    2    0    0 -0.12955740303E+02  0.14045588854E+02  0.40791944141E+02  0.46142328955E+02  0.10000102079E+02 0.  0.
        -12    1    1    2    0    0  0.12955740303E+02 -0.14045588854E+02 -0.40791944141E+02  0.45045671045E+02  0.00000000000E+00 0.  1.
         11    1    3    3    0    0 -0.87004674658E+01  0.72188334985E+01  0.27145458924E+02  0.29405537432E+02  0.51100000000E-03 0. -1.
        -11    1    3    3    0    0 -0.29388361043E+01  0.30218708031E+01  0.11336918222E+02  0.12095212930E+02  0.51100000000E-03 0.  1.
        -12    1    3    3    0    0 -0.13164367330E+01  0.38048845527E+01  0.23095669943E+01  0.46415785927E+01  0.00000000000E+00 0.  1.
</event>
<event>
 7    1  0.2031146E-008  0.4614232E+02  0.7816164E-02  0.1320468E+00
        -11   -1    0    0    0    0  0.00000000000E+00  0.00000000000E+00  0.45593999997E+02  0.45594000000E+02  0.51100000000E-03 0.  1.
         11   -1    0    0    0    0 -0.00000000000E+00 -0.00000000000E+00 -0.45593999997E+02  0.45594000000E+02  0.51100000000E-03 0. -1.
    9900012    2    1    2    0    0 -0.11475468038E+02 -0.32488448895E+02 -0.29015991906E+02  0.46142318025E+02  0.10000002409E+02 0.  0.
        -12    1    1    2    0    0  0.11475468038E+02  0.32488448895E+02  0.29015991906E+02  0.45045681975E+02  0.00000000000E+00 0.  1.
         11    1    3    3    0    0 -0.51238157377E+01 -0.13274234884E+02 -0.14025181439E+02  0.19979101935E+02  0.51100000000E-03 0. -1.
        -11    1    3    3    0    0 -0.58009844209E+01 -0.99018986998E+01 -0.11375355627E+02  0.16158518930E+02  0.51100000000E-03 0.  1.
         12    1    3    3    0    0 -0.55066787912E+00 -0.93123153112E+01 -0.36154548400E+01  0.10004697160E+02  0.00000000000E+00 0. -1.
</event>
<event>
 7    1  0.2031146E-008  0.4614232E+02  0.7816164E-02  0.1320468E+00
        -11   -1    0    0    0    0  0.00000000000E+00  0.00000000000E+00  0.45593999997E+02  0.45594000000E+02  0.51100000000E-03 0.  1.
         11   -1    0    0    0    0 -0.00000000000E+00 -0.00000000000E+00 -0.45593999997E+02  0.45594000000E+02  0.51100000000E-03 0. -1.
    9900012    2    1    2    0    0 -0.38790793350E+02  0.81054001374E+01 -0.21417056327E+02  0.46142318056E+02  0.10000002687E+02 0.  0.
        -12    1    1    2    0    0  0.38790793350E+02 -0.81054001374E+01  0.21417056327E+02  0.45045681944E+02  0.00000000000E+00 0.  1.
         11    1    3    3    0    0 -0.12085034982E+02  0.67161302322E+01 -0.73235331128E+01  0.15645721886E+02  0.51100000000E-03 0. -1.
        -11    1    3    3    0    0 -0.61674423207E+01  0.20361221054E+01 -0.32559060198E+01  0.72652640886E+01  0.51100000000E-03 0.  1.
        -12    1    3    3    0    0 -0.20538316047E+02 -0.64685220020E+00 -0.10837617195E+02  0.23231332081E+02  0.00000000000E+00 0.  1.
</event>
<event>
 7    1  0.2031146E-008  0.4614232E+02  0.7816164E-02  0.1320468E+00
        -11   -1    0    0    0    0  0.00000000000E+00  0.00000000000E+00  0.45593999997E+02  0.45594000000E+02  0.51100000000E-03 0.  1.
         11   -1    0    0    0    0 -0.00000000000E+00 -0.00000000000E+00 -0.45593999997E+02  0.45594000000E+02  0.51100000000E-03 0. -1.
    9900012    2    1    2    0    0  0.43803053405E+02  0.66785343690E+01 -0.81119144339E+01  0.46142318024E+02  0.10000002398E+02 0.  0.
        -12    1    1    2    0    0 -0.43803053405E+02 -0.66785343690E+01  0.81119144339E+01  0.45045681976E+02  0.00000000000E+00 0.  1.
         11    1    3    3    0    0  0.32049013572E+02  0.42388239118E+01 -0.61887142830E+01  0.32915149762E+02  0.51100000000E-03 0. -1.
        -11    1    3    3    0    0  0.38025104990E+01 -0.15519336864E+01 -0.13013986395E+01  0.43082737776E+01  0.51100000000E-03 0.  1.
         12    1    3    3    0    0  0.79515293336E+01  0.39916441437E+01 -0.62180151146E+00  0.89188944849E+01  0.00000000000E+00 0. -1.
</event>
<event>
 7    1  0.2031146E-008  0.4614232E+02  0.7816164E-02  0.1320468E+00
        -11   -1    0    0    0    0  0.00000000000E+00  0.00000000000E+00  0.45593999997E+02  0.45594000000E+02  0.51100000000E-03 0.  1.
         11   -1    0    0    0    0 -0.00000000000E+00 -0.00000000000E+00 -0.45593999997E+02  0.45594000000E+02  0.51100000000E-03 0. -1.
    9900012    2    1    2    0    0  0.31915882246E+02 -0.30976106671E+02 -0.71393773684E+01  0.46142318373E+02  0.10000005584E+02 0.  0.
        -12    1    1    2    0    0 -0.31915882246E+02  0.30976106671E+02  0.71393773684E+01  0.45045681627E+02  0.00000000000E+00 0.  1.
         11    1    3    3    0    0  0.31218956262E+01 -0.45140560867E+01  0.12661270158E+01  0.56325848894E+01  0.51100000000E-03 0. -1.
        -11    1    3    3    0    0  0.27261340828E+02 -0.23449029658E+02 -0.62428933921E+01  0.36496731549E+02  0.51100000000E-03 0.  1.
         12    1    3    3    0    0  0.15326457915E+01 -0.30130209263E+01 -0.21626109921E+01  0.40130019347E+01  0.00000000000E+00 0. -1.
</event>
<event>
 7    1  0.2031146E-008  0.4614232E+02  0.7816164E-02  0.1320468E+00
        -11   -1    0    0    0    0  0.00000000000E+00  0.00000000000E+00  0.45593999997E+02  0.45594000000E+02  0.51100000000E-03 0.  1.
         11   -1    0    0    0    0 -0.00000000000E+00 -0.00000000000E+00 -0.45593999997E+02  0.45594000000E+02  0.51100000000E-03 0. -1.
    9900012    2    1    2    0    0  0.23816175655E+02 -0.33684619035E+02 -0.18090035110E+02  0.46142321488E+02  0.10000033980E+02 0.  0.
        -12    1    1    2    0    0 -0.23816175655E+02  0.33684619035E+02  0.18090035110E+02  0.45045678512E+02  0.00000000000E+00 0.  1.
         11    1    3    3    0    0  0.16016577346E+02 -0.26163222432E+02 -0.12201013698E+02  0.33013780356E+02  0.51100000000E-03 0. -1.
        -11    1    3    3    0    0  0.57120187119E+01 -0.31287546474E+01 -0.17539942571E+01  0.67448320605E+01  0.51100000000E-03 0.  1.
        -12    1    3    3    0    0  0.20875795979E+01 -0.43926419553E+01 -0.41350271556E+01  0.63837090710E+01  0.00000000000E+00 0.  1.
</event>
<event>
 7    1  0.2031146E-008  0.4614232E+02  0.7816164E-02  0.1320468E+00
        -11   -1    0    0    0    0  0.00000000000E+00  0.00000000000E+00  0.45593999997E+02  0.45594000000E+02  0.51100000000E-03 0.  1.
         11   -1    0    0    0    0 -0.00000000000E+00 -0.00000000000E+00 -0.45593999997E+02  0.45594000000E+02  0.51100000000E-03 0. -1.
    9900012    2    1    2    0    0  0.70871869250E+01  0.41992046541E+02  0.14681733291E+02  0.46142317813E+02  0.10000000475E+02 0.  0.
        -12    1    1    2    0    0 -0.70871869250E+01 -0.41992046541E+02 -0.14681733291E+02  0.45045682187E+02  0.00000000000E+00 0.  1.
         11    1    3    3    0    0  0.68975476136E+01  0.23763391360E+02  0.99008300727E+01  0.26651479666E+02  0.51100000000E-03 0. -1.
        -11    1    3    3    0    0  0.51837439896E+00 -0.76447430761E-01  0.41755832881E+00  0.67000854193E+00  0.51100000000E-03 0.  1.
        -12    1    3    3    0    0 -0.32873508761E+00  0.18305102612E+02  0.43633448894E+01  0.18820829605E+02  0.00000000000E+00 0.  1.
</event>
<event>
 7    1  0.2031146E-008  0.4614232E+02  0.7816164E-02  0.1320468E+00
        -11   -1    0    0    0    0  0.00000000000E+00  0.00000000000E+00  0.45593999997E+02  0.45594000000E+02  0.51100000000E-03 0.  1.
         11   -1    0    0    0    0 -0.00000000000E+00 -0.00000000000E+00 -0.45593999997E+02  0.45594000000E+02  0.51100000000E-03 0. -1.
    9900012    2    1    2    0    0 -0.17339090219E+02  0.24776221943E+02 -0.33385749088E+02  0.46142318014E+02  0.10000002310E+02 0.  0.
        -12    1    1    2    0    0  0.17339090219E+02 -0.24776221943E+02  0.33385749088E+02  0.45045681986E+02  0.00000000000E+00 0.  1.
         11    1    3    3    0    0 -0.10564488802E+02  0.78866448247E+01 -0.10686353168E+02  0.16970731703E+02  0.51100000000E-03 0.  1.
        -11    1    3    3    0    0 -0.98883026048E+00  0.30245554329E+01 -0.53158031310E+01  0.61954405847E+01  0.51100000000E-03 0. -1.
        -12    1    3    3    0    0 -0.57857711566E+01  0.13865021686E+02 -0.17383592789E+02  0.22976145727E+02  0.00000000000E+00 0.  1.
</event>
<event>
 7    1  0.2031146E-008  0.4614232E+02  0.7816164E-02  0.1320468E+00
        -11   -1    0    0    0    0  0.00000000000E+00  0.00000000000E+00  0.45593999997E+02  0.45594000000E+02  0.51100000000E-03 0. -1.
         11   -1    0    0    0    0 -0.00000000000E+00 -0.00000000000E+00 -0.45593999997E+02  0.45594000000E+02  0.51100000000E-03 0.  1.
    9900012    2    1    2    0    0  0.12598861745E+02  0.32882813022E+02  0.28090972185E+02  0.46142318433E+02  0.10000006131E+02 0.  0.
        -12    1    1    2    0    0 -0.12598861745E+02 -0.32882813022E+02 -0.28090972185E+02  0.45045681567E+02  0.00000000000E+00 0.  1.
         11    1    3    3    0    0  0.10304777440E+02  0.22191333530E+02  0.16605355858E+02  0.29569943614E+02  0.51100000000E-03 0. -1.
        -11    1    3    3    0    0  0.27644352961E+01  0.81873790692E+01  0.59890429669E+01  0.10513986611E+02  0.51100000000E-03 0.  1.
        -12    1    3    3    0    0 -0.47035099159E+00  0.25041004232E+01  0.54965733599E+01  0.60583882086E+01  0.00000000000E+00 0.  1.
</event>
<event>
 7    1  0.2031146E-008  0.4614232E+02  0.7816164E-02  0.1320468E+00
        -11   -1    0    0    0    0  0.00000000000E+00  0.00000000000E+00  0.45593999997E+02  0.45594000000E+02  0.51100000000E-03 0.  1.
         11   -1    0    0    0    0 -0.00000000000E+00 -0.00000000000E+00 -0.45593999997E+02  0.45594000000E+02  0.51100000000E-03 0. -1.
    9900012    2    1    2    0    0 -0.35711021166E+02  0.18027864898E+02 -0.20708273825E+02  0.46142317073E+02  0.99999937298E+01 0.  0.
        -12    1    1    2    0    0  0.35711021166E+02 -0.18027864898E+02  0.20708273825E+02  0.45045682927E+02  0.00000000000E+00 0.  1.
         11    1    3    3    0    0 -0.18995693956E-01  0.10409239027E+00  0.38276255093E+00  0.39711899176E+00  0.51100000000E-03 0. -1.
        -11    1    3    3    0    0 -0.10925906911E+02  0.35346181573E+01 -0.92735452958E+01  0.14760339087E+02  0.51100000000E-03 0.  1.
         12    1    3    3    0    0 -0.24766118561E+02  0.14389154350E+02 -0.11817491080E+02  0.30984858994E+02  0.00000000000E+00 0. -1.
</event>
<event>
 7    1  0.2031146E-008  0.4614232E+02  0.7816164E-02  0.1320468E+00
        -11   -1    0    0    0    0  0.00000000000E+00  0.00000000000E+00  0.45593999997E+02  0.45594000000E+02  0.51100000000E-03 0.  1.
         11   -1    0    0    0    0 -0.00000000000E+00 -0.00000000000E+00 -0.45593999997E+02  0.45594000000E+02  0.51100000000E-03 0. -1.
    9900012    2    1    2    0    0  0.17251381245E+02  0.18216900981E+02 -0.37411868145E+02  0.46142317473E+02  0.99999973757E+01 0.  0.
        -12    1    1    2    0    0 -0.17251381245E+02 -0.18216900981E+02  0.37411868145E+02  0.45045682527E+02  0.00000000000E+00 0.  1.
         11    1    3    3    0    0  0.54494047683E+01  0.32488277109E+01 -0.72844603007E+01  0.96599304324E+01  0.51100000000E-03 0. -1.
        -11    1    3    3    0    0  0.40911979393E+01  0.88465457909E+01 -0.94259635348E+01  0.13559058294E+02  0.51100000000E-03 0.  1.
        -12    1    3    3    0    0  0.77107785369E+01  0.61215274789E+01 -0.20701444310E+02  0.22923328747E+02  0.00000000000E+00 0.  1.
</event>
<event>
 7    1  0.2031146E-008  0.4614232E+02  0.7816164E-02  0.1320468E+00
        -11   -1    0    0    0    0  0.00000000000E+00  0.00000000000E+00  0.45593999997E+02  0.45594000000E+02  0.51100000000E-03 0.  1.
         11   -1    0    0    0    0 -0.00000000000E+00 -0.00000000000E+00 -0.45593999997E+02  0.45594000000E+02  0.51100000000E-03 0. -1.
    9900012    2    1    2    0    0 -0.41749005396E+02 -0.13531021946E+02 -0.10151132601E+02  0.46142317637E+02  0.99999988649E+01 0.  0.
        -12    1    1    2    0    0  0.41749005396E+02  0.13531021946E+02  0.10151132601E+02  0.45045682363E+02  0.00000000000E+00 0.  1.
         11    1    3    3    0    0 -0.45069383922E+01 -0.30383218620E+00 -0.35083244532E+01  0.57195409255E+01  0.51100000000E-03 0. -1.
        -11    1    3    3    0    0 -0.28815998239E+02 -0.10880447982E+02 -0.72882187465E+01  0.31652235869E+02  0.51100000000E-03 0.  1.
        -12    1    3    3    0    0 -0.84260687655E+01 -0.23467417785E+01  0.64541059871E+00  0.87705408418E+01  0.00000000000E+00 0.  1.
</event>
<event>
 7    1  0.2031146E-008  0.4614232E+02  0.7816164E-02  0.1320468E+00
        -11   -1    0    0    0    0  0.00000000000E+00  0.00000000000E+00  0.45593999997E+02  0.45594000000E+02  0.51100000000E-03 0.  1.
         11   -1    0    0    0    0 -0.00000000000E+00 -0.00000000000E+00 -0.45593999997E+02  0.45594000000E+02  0.51100000000E-03 0. -1.
    9900012    2    1    2    0    0 -0.54464518944E+01  0.59200397619E+01 -0.44321585966E+02  0.46142315506E+02  0.99999794372E+01 0.  0.
        -12    1    1    2    0    0  0.54464518944E+01 -0.59200397619E+01  0.44321585966E+02  0.45045684494E+02  0.00000000000E+00 0.  1.
         11    1    3    3    0    0 -0.33082306426E+00  0.24599644320E+01 -0.21480530632E+02  0.21623460995E+02  0.51100000000E-03 0. -1.
        -11    1    3    3    0    0 -0.17610215333E+01  0.45459409161E+01 -0.17101095072E+02  0.17782413464E+02  0.51100000000E-03 0.  1.
        -12    1    3    3    0    0 -0.33546072968E+01 -0.10858655862E+01 -0.57399602606E+01  0.67364410471E+01  0.00000000000E+00 0.  1.
</event>
<event>
 7    1  0.2031146E-008  0.4614232E+02  0.7816164E-02  0.1320468E+00
        -11   -1    0    0    0    0  0.00000000000E+00  0.00000000000E+00  0.45593999997E+02  0.45594000000E+02  0.51100000000E-03 0. -1.
         11   -1    0    0    0    0 -0.00000000000E+00 -0.00000000000E+00 -0.45593999997E+02  0.45594000000E+02  0.51100000000E-03 0.  1.
    9900012    2    1    2    0    0 -0.22422294594E+02 -0.35378532417E+00  0.39066981070E+02  0.46142317977E+02  0.10000001973E+02 0.  0.
        -12    1    1    2    0    0  0.22422294594E+02  0.35378532417E+00 -0.39066981070E+02  0.45045682023E+02  0.00000000000E+00 0.  1.
         11    1    3    3    0    0 -0.14523277295E+02  0.20208496097E+01  0.30163232300E+02  0.33538485350E+02  0.51100000000E-03 0.  1.
        -11    1    3    3    0    0 -0.58431933734E+01 -0.22279905646E+01  0.84174417584E+01  0.10486189812E+02  0.51100000000E-03 0. -1.
        -12    1    3    3    0    0 -0.20558239253E+01 -0.14664436931E+00  0.48630701196E+00  0.21176428152E+01  0.00000000000E+00 0.  1.
</event>
<event>
 7    1  0.2031146E-008  0.4614232E+02  0.7816164E-02  0.1320468E+00
        -11   -1    0    0    0    0  0.00000000000E+00  0.00000000000E+00  0.45593999997E+02  0.45594000000E+02  0.51100000000E-03 0.  1.
         11   -1    0    0    0    0 -0.00000000000E+00 -0.00000000000E+00 -0.45593999997E+02  0.45594000000E+02  0.51100000000E-03 0. -1.
    9900012    2    1    2    0    0  0.10098690431E+02 -0.26214499938E+01 -0.43820747911E+02  0.46142317677E+02  0.99999992286E+01 0.  0.
        -12    1    1    2    0    0 -0.10098690431E+02  0.26214499938E+01  0.43820747911E+02  0.45045682323E+02  0.00000000000E+00 0.  1.
         11    1    3    3    0    0  0.35717272122E+01 -0.46653491322E+01 -0.14884707477E+02  0.16002413404E+02  0.51100000000E-03 0. -1.
        -11    1    3    3    0    0  0.41161738133E+00 -0.78623914880E+00 -0.75729393446E+00  0.11666598613E+01  0.51100000000E-03 0.  1.
        -12    1    3    3    0    0  0.61153458375E+01  0.28301382872E+01 -0.28178746499E+02  0.28973244411E+02  0.00000000000E+00 0.  1.
</event>
<event>
 7    1  0.2143592E-008  0.4614232E+02  0.7816164E-02  0.1320468E+00
        -11   -1    0    0    0    0  0.00000000000E+00  0.00000000000E+00  0.45593999997E+02  0.45594000000E+02  0.51100000000E-03 0. -1.
         11   -1    0    0    0    0 -0.00000000000E+00 -0.00000000000E+00 -0.45593999997E+02  0.45594000000E+02  0.51100000000E-03 0.  1.
    9900012    2    1    2    0    0  0.41536180071E+02 -0.35920897580E+01 -0.17057437841E+02  0.46142317084E+02  0.99999938213E+01 0.  0.
        -12    1    1    2    0    0 -0.41536180071E+02  0.35920897580E+01  0.17057437841E+02  0.45045682916E+02  0.00000000000E+00 0.  1.
         11    1    3    3    0    0  0.12295711861E+02 -0.10492445048E+01 -0.76665489152E+01  0.14527952943E+02  0.51100000000E-03 0. -1.
        -11    1    3    3    0    0  0.24088058456E+02 -0.40978199835E+01 -0.95396817684E+01  0.26230368226E+02  0.51100000000E-03 0.  1.
        -12    1    3    3    0    0  0.51524097549E+01  0.15549747303E+01  0.14879284286E+00  0.53839959142E+01  0.00000000000E+00 0.  1.
</event>
<event>
 7    1  0.2031146E-008  0.4614232E+02  0.7816164E-02  0.1320468E+00
        -11   -1    0    0    0    0  0.00000000000E+00  0.00000000000E+00  0.45593999997E+02  0.45594000000E+02  0.51100000000E-03 0.  1.
         11   -1    0    0    0    0 -0.00000000000E+00 -0.00000000000E+00 -0.45593999997E+02  0.45594000000E+02  0.51100000000E-03 0. -1.
    9900012    2    1    2    0    0 -0.46489733809E+01  0.22982309900E+02 -0.38461850197E+02  0.46142318271E+02  0.10000004652E+02 0.  0.
        -12    1    1    2    0    0  0.46489733809E+01 -0.22982309900E+02  0.38461850197E+02  0.45045681729E+02  0.00000000000E+00 0.  1.
         11    1    3    3    0    0 -0.18062355832E+01  0.11830314248E+02 -0.21557595458E+02  0.24656616645E+02  0.51100000000E-03 0. -1.
        -11    1    3    3    0    0 -0.16009667089E+01  0.11004427161E+02 -0.16905693989E+02  0.20235192143E+02  0.51100000000E-03 0.  1.
        -12    1    3    3    0    0 -0.12417710888E+01  0.14756849146E+00  0.14392503401E-02  0.12505094834E+01  0.00000000000E+00 0.  1.
</event>
<event>
 7    1  0.2031146E-008  0.4614232E+02  0.7816164E-02  0.1320468E+00
        -11   -1    0    0    0    0  0.00000000000E+00  0.00000000000E+00  0.45593999997E+02  0.45594000000E+02  0.51100000000E-03 0. -1.
         11   -1    0    0    0    0 -0.00000000000E+00 -0.00000000000E+00 -0.45593999997E+02  0.45594000000E+02  0.51100000000E-03 0.  1.
    9900012    2    1    2    0    0 -0.31465384617E+02  0.17500220604E+02  0.27070009443E+02  0.46142316949E+02  0.99999925940E+01 0.  0.
        -12    1    1    2    0    0  0.31465384617E+02 -0.17500220604E+02 -0.27070009443E+02  0.45045683051E+02  0.00000000000E+00 0.  1.
         11    1    3    3    0    0 -0.16769381654E+02  0.51816285146E+01  0.13257696661E+02  0.21996089565E+02  0.51100000000E-03 0. -1.
        -11    1    3    3    0    0 -0.12394932053E+02  0.88029327693E+01  0.86546290478E+01  0.17493672289E+02  0.51100000000E-03 0.  1.
         12    1    3    3    0    0 -0.23010709093E+01  0.35156593201E+01  0.51576837345E+01  0.66525550948E+01  0.00000000000E+00 0. -1.
</event>
<event>
 7    1  0.2031146E-008  0.4614232E+02  0.7816164E-02  0.1320468E+00
        -11   -1    0    0    0    0  0.00000000000E+00  0.00000000000E+00  0.45593999997E+02  0.45594000000E+02  0.51100000000E-03 0. -1.
         11   -1    0    0    0    0 -0.00000000000E+00 -0.00000000000E+00 -0.45593999997E+02  0.45594000000E+02  0.51100000000E-03 0.  1.
    9900012    2    1    2    0    0 -0.77725139784E+01 -0.11432076173E+02  0.42872008805E+02  0.46142317874E+02  0.10000001032E+02 0.  0.
        -12    1    1    2    0    0  0.77725139784E+01  0.11432076173E+02 -0.42872008805E+02  0.45045682126E+02  0.00000000000E+00 0.  1.
         11    1    3    3    0    0 -0.26331797751E+01 -0.31113860497E+01  0.22386451646E+02  0.22754506728E+02  0.51100000000E-03 0. -1.
        -11    1    3    3    0    0  0.78255458211E+00 -0.32389906554E+01  0.79743122859E+01  0.86425175056E+01  0.51100000000E-03 0.  1.
        -12    1    3    3    0    0 -0.59218887854E+01 -0.50816994675E+01  0.12511244874E+02  0.14745293641E+02  0.00000000000E+00 0.  1.
</event>
<event>
 7    1  0.2031146E-008  0.4614232E+02  0.7816164E-02  0.1320468E+00
        -11   -1    0    0    0    0  0.00000000000E+00  0.00000000000E+00  0.45593999997E+02  0.45594000000E+02  0.51100000000E-03 0.  1.
         11   -1    0    0    0    0 -0.00000000000E+00 -0.00000000000E+00 -0.45593999997E+02  0.45594000000E+02  0.51100000000E-03 0. -1.
    9900012    2    1    2    0    0 -0.17500746215E+02 -0.26196580331E+02 -0.32195908545E+02  0.46142318008E+02  0.10000002249E+02 0.  0.
        -12    1    1    2    0    0  0.17500746215E+02  0.26196580331E+02  0.32195908545E+02  0.45045681992E+02  0.00000000000E+00 0.  1.
         11    1    3    3    0    0 -0.15321581156E+02 -0.23829157848E+02 -0.26859668900E+02  0.39038717020E+02  0.51100000000E-03 0. -1.
        -11    1    3    3    0    0 -0.77654064278E+00  0.23126026153E+00 -0.35740295478E+01  0.36647215649E+01  0.51100000000E-03 0.  1.
        -12    1    3    3    0    0 -0.14026244170E+01 -0.25986827445E+01 -0.17622100964E+01  0.34388794229E+01  0.00000000000E+00 0.  1.
</event>
<event>
 7    1  0.2031146E-008  0.4614232E+02  0.7816164E-02  0.1320468E+00
        -11   -1    0    0    0    0  0.00000000000E+00  0.00000000000E+00  0.45593999997E+02  0.45594000000E+02  0.51100000000E-03 0.  1.
         11   -1    0    0    0    0 -0.00000000000E+00 -0.00000000000E+00 -0.45593999997E+02  0.45594000000E+02  0.51100000000E-03 0. -1.
    9900012    2    1    2    0    0 -0.30378560046E+02  0.48795978753E+01 -0.32900548847E+02  0.46142317629E+02  0.99999987913E+01 0.  0.
        -12    1    1    2    0    0  0.30378560046E+02 -0.48795978753E+01  0.32900548847E+02  0.45045682371E+02  0.00000000000E+00 0.  1.
         11    1    3    3    0    0 -0.67893552440E+01  0.10680112404E+01 -0.12427696088E+02  0.14201535936E+02  0.51100000000E-03 0. -1.
        -11    1    3    3    0    0 -0.54089912430E+01 -0.90376679980E+00 -0.66565041823E+01  0.86245596343E+01  0.51100000000E-03 0.  1.
        -12    1    3    3    0    0 -0.18180213559E+02  0.47153534346E+01 -0.13816348577E+02  0.23316222058E+02  0.00000000000E+00 0.  1.
</event>
<event>
 7    1  0.2031146E-008  0.4614232E+02  0.7816164E-02  0.1320468E+00
        -11   -1    0    0    0    0  0.00000000000E+00  0.00000000000E+00  0.45593999997E+02  0.45594000000E+02  0.51100000000E-03 0.  1.
         11   -1    0    0    0    0 -0.00000000000E+00 -0.00000000000E+00 -0.45593999997E+02  0.45594000000E+02  0.51100000000E-03 0. -1.
    9900012    2    1    2    0    0  0.28831077462E+02 -0.33119420589E+02 -0.10049201334E+02  0.46142317685E+02  0.99999993051E+01 0.  0.
        -12    1    1    2    0    0 -0.28831077462E+02  0.33119420589E+02  0.10049201334E+02  0.45045682315E+02  0.00000000000E+00 0.  1.
         11    1    3    3    0    0  0.39143154848E+01 -0.19898030821E+01 -0.22346422835E+01  0.49269471700E+01  0.51100000000E-03 0. -1.
        -11    1    3    3    0    0  0.15927735346E+02 -0.19834189877E+02 -0.83397679556E+01  0.26770124601E+02  0.51100000000E-03 0.  1.
        -12    1    3    3    0    0  0.89890266316E+01 -0.11295427630E+02  0.52520890523E+00  0.14445245914E+02  0.00000000000E+00 0.  1.
</event>
<event>
 7    1  0.2031146E-008  0.4614232E+02  0.7816164E-02  0.1320468E+00
        -11   -1    0    0    0    0  0.00000000000E+00  0.00000000000E+00  0.45593999997E+02  0.45594000000E+02  0.51100000000E-03 0.  1.
         11   -1    0    0    0    0 -0.00000000000E+00 -0.00000000000E+00 -0.45593999997E+02  0.45594000000E+02  0.51100000000E-03 0. -1.
    9900012    2    1    2    0    0 -0.11850112371E+02  0.39462294929E+02 -0.18204827741E+02  0.46142316107E+02  0.99999849186E+01 0.  0.
        -12    1    1    2    0    0  0.11850112371E+02 -0.39462294929E+02  0.18204827741E+02  0.45045683893E+02  0.00000000000E+00 0.  1.
         11    1    3    3    0    0 -0.40178957524E+01  0.29123951506E+01 -0.24161524618E+01  0.55193590905E+01  0.51100000000E-03 0. -1.
        -11    1    3    3    0    0 -0.52780792428E+01  0.21379823412E+02 -0.85795511820E+01  0.23633951603E+02  0.51100000000E-03 0.  1.
         12    1    3    3    0    0 -0.25541373762E+01  0.15170076367E+02 -0.72091240976E+01  0.16989005414E+02  0.00000000000E+00 0. -1.
</event>
<event>
 7    1  0.2031146E-008  0.4614232E+02  0.7816164E-02  0.1320468E+00
        -11   -1    0    0    0    0  0.00000000000E+00  0.00000000000E+00  0.45593999997E+02  0.45594000000E+02  0.51100000000E-03 0.  1.
         11   -1    0    0    0    0 -0.00000000000E+00 -0.00000000000E+00 -0.45593999997E+02  0.45594000000E+02  0.51100000000E-03 0. -1.
    9900012    2    1    2    0    0 -0.16458752887E+02 -0.25080592208E+02 -0.33603366205E+02  0.46142324598E+02  0.10000062343E+02 0.  0.
        -12    1    1    2    0    0  0.16458752887E+02  0.25080592208E+02  0.33603366205E+02  0.45045675402E+02  0.00000000000E+00 0.  1.
         11    1    3    3    0    0 -0.14025878235E+02 -0.14463103805E+02 -0.19495757635E+02  0.28035534558E+02  0.51100000000E-03 0. -1.
        -11    1    3    3    0    0 -0.28455310677E+01 -0.75263261319E+01 -0.11534645493E+02  0.14063807415E+02  0.51100000000E-03 0.  1.
        -12    1    3    3    0    0  0.41265641575E+00 -0.30911622715E+01 -0.25729630771E+01  0.40429826246E+01  0.00000000000E+00 0.  1.
</event>
<event>
 7    1  0.2031146E-008  0.4614232E+02  0.7816164E-02  0.1320468E+00
        -11   -1    0    0    0    0  0.00000000000E+00  0.00000000000E+00  0.45593999997E+02  0.45594000000E+02  0.51100000000E-03 0.  1.
         11   -1    0    0    0    0 -0.00000000000E+00 -0.00000000000E+00 -0.45593999997E+02  0.45594000000E+02  0.51100000000E-03 0. -1.
    9900012    2    1    2    0    0  0.22006061367E+02 -0.13645412839E+02 -0.36859862876E+02  0.46142317414E+02  0.99999968313E+01 0.  0.
        -12    1    1    2    0    0 -0.22006061367E+02  0.13645412839E+02  0.36859862876E+02  0.45045682586E+02  0.00000000000E+00 0.  1.
         11    1    3    3    0    0  0.63544421545E+01 -0.26834259532E+01 -0.11240273227E+02  0.13188004110E+02  0.51100000000E-03 0. -1.
        -11    1    3    3    0    0  0.12936636164E+02 -0.78347294358E+01 -0.24273479411E+02  0.28599673837E+02  0.51100000000E-03 0.  1.
        -12    1    3    3    0    0  0.27149830476E+01 -0.31272574505E+01 -0.13461102383E+01  0.43546394666E+01  0.00000000000E+00 0.  1.
</event>
<event>
 7    1  0.2031146E-008  0.4614232E+02  0.7816164E-02  0.1320468E+00
        -11   -1    0    0    0    0  0.00000000000E+00  0.00000000000E+00  0.45593999997E+02  0.45594000000E+02  0.51100000000E-03 0.  1.
         11   -1    0    0    0    0 -0.00000000000E+00 -0.00000000000E+00 -0.45593999997E+02  0.45594000000E+02  0.51100000000E-03 0. -1.
    9900012    2    1    2    0    0 -0.24870310174E+02 -0.16563707963E+02 -0.33707933775E+02  0.46142317088E+02  0.99999938612E+01 0.  0.
        -12    1    1    2    0    0  0.24870310174E+02  0.16563707963E+02  0.33707933775E+02  0.45045682912E+02  0.00000000000E+00 0.  1.
         11    1    3    3    0    0 -0.20256341959E+02 -0.11761666128E+02 -0.23146060167E+02  0.32930172808E+02  0.51100000000E-03 0. -1.
        -11    1    3    3    0    0 -0.22009972560E+01  0.13145636546E+00 -0.16904820215E+01  0.27783807196E+01  0.51100000000E-03 0.  1.
        -12    1    3    3    0    0 -0.24129709590E+01 -0.49334982013E+01 -0.88713915868E+01  0.10433763561E+02  0.00000000000E+00 0.  1.
</event>
<event>
 7    1  0.2031146E-008  0.4614232E+02  0.7816164E-02  0.1320468E+00
        -11   -1    0    0    0    0  0.00000000000E+00  0.00000000000E+00  0.45593999997E+02  0.45594000000E+02  0.51100000000E-03 0.  1.
         11   -1    0    0    0    0 -0.00000000000E+00 -0.00000000000E+00 -0.45593999997E+02  0.45594000000E+02  0.51100000000E-03 0. -1.
    9900012    2    1    2    0    0 -0.29640036524E+02 -0.33920220026E+02  0.17993994617E-01  0.46142318569E+02  0.10000007368E+02 0.  0.
        -12    1    1    2    0    0  0.29640036524E+02  0.33920220026E+02 -0.17993994617E-01  0.45045681431E+02  0.00000000000E+00 0.  1.
         11    1    3    3    0    0 -0.18893332944E+02 -0.22911435794E+02  0.44466725485E-01  0.29696698426E+02  0.51100000000E-03 0. -1.
        -11    1    3    3    0    0 -0.10305361621E+02 -0.11692543934E+02 -0.29524836478E+00  0.15588560987E+02  0.51100000000E-03 0.  1.
        -12    1    3    3    0    0 -0.44134195889E+00  0.68375970185E+00  0.26877563392E+00  0.85705915545E+00  0.00000000000E+00 0.  1.
</event>
<event>
 7    1  0.2031146E-008  0.4614232E+02  0.7816164E-02  0.1320468E+00
        -11   -1    0    0    0    0  0.00000000000E+00  0.00000000000E+00  0.45593999997E+02  0.45594000000E+02  0.51100000000E-03 0.  1.
         11   -1    0    0    0    0 -0.00000000000E+00 -0.00000000000E+00 -0.45593999997E+02  0.45594000000E+02  0.51100000000E-03 0. -1.
    9900012    2    1    2    0    0 -0.43690343386E+02  0.10851498826E+02 -0.15850959773E+01  0.46142315842E+02  0.99999825010E+01 0.  0.
        -12    1    1    2    0    0  0.43690343386E+02 -0.10851498826E+02  0.15850959773E+01  0.45045684158E+02  0.00000000000E+00 0.  1.
         11    1    3    3    0    0 -0.23978959732E+01 -0.19238963280E+00 -0.20988027789E+01  0.31924743123E+01  0.51100000000E-03 0. -1.
        -11    1    3    3    0    0 -0.31754798762E+01  0.20243990239E+01 -0.23401787549E+00  0.37731457008E+01  0.51100000000E-03 0.  1.
         12    1    3    3    0    0 -0.38116967537E+02  0.90194894354E+01  0.74772467713E+00  0.39176695829E+02  0.00000000000E+00 0. -1.
</event>
<event>
 7    1  0.2031146E-008  0.4614232E+02  0.7816164E-02  0.1320468E+00
        -11   -1    0    0    0    0  0.00000000000E+00  0.00000000000E+00  0.45593999997E+02  0.45594000000E+02  0.51100000000E-03 0. -1.
         11   -1    0    0    0    0 -0.00000000000E+00 -0.00000000000E+00 -0.45593999997E+02  0.45594000000E+02  0.51100000000E-03 0.  1.
    9900012    2    1    2    0    0 -0.26239707487E+02 -0.34692578034E+02  0.11705395814E+02  0.46142317512E+02  0.99999977250E+01 0.  0.
        -12    1    1    2    0    0  0.26239707487E+02  0.34692578034E+02 -0.11705395814E+02  0.45045682488E+02  0.00000000000E+00 0.  1.
         11    1    3    3    0    0 -0.49616420640E+01 -0.94947737869E+01  0.23416270340E+01  0.10965939935E+02  0.51100000000E-03 0. -1.
        -11    1    3    3    0    0 -0.66110968187E+01 -0.11966584516E+02  0.67634023794E+01  0.15252847541E+02  0.51100000000E-03 0.  1.
        -12    1    3    3    0    0 -0.14666968604E+02 -0.13231219732E+02  0.26003664005E+01  0.19923530035E+02  0.00000000000E+00 0.  1.
</event>
<event>
 7    1  0.2031146E-008  0.4614231E+02  0.7816164E-02  0.1320468E+00
        -11   -1    0    0    0    0  0.00000000000E+00  0.00000000000E+00  0.45593999997E+02  0.45594000000E+02  0.51100000000E-03 0.  1.
         11   -1    0    0    0    0 -0.00000000000E+00 -0.00000000000E+00 -0.45593999997E+02  0.45594000000E+02  0.51100000000E-03 0. -1.
    9900012    2    1    2    0    0 -0.26344268757E+01 -0.94015191401E+01 -0.43974829458E+02  0.46142307721E+02  0.99999084429E+01 0.  0.
        -12    1    1    2    0    0  0.26344268757E+01  0.94015191401E+01  0.43974829458E+02  0.45045692279E+02  0.00000000000E+00 0.  1.
         11    1    3    3    0    0 -0.15619647861E+01 -0.38317478136E+01 -0.21931183859E+02  0.22318128304E+02  0.51100000000E-03 0. -1.
        -11    1    3    3    0    0 -0.28123177240E+01 -0.55147850855E+00 -0.13205212210E+02  0.13512619631E+02  0.51100000000E-03 0.  1.
        -12    1    3    3    0    0  0.17398556344E+01 -0.50182928180E+01 -0.88384333889E+01  0.10311559785E+02  0.00000000000E+00 0.  1.
</event>
<event>
 7    1  0.2031146E-008  0.4614232E+02  0.7816164E-02  0.1320468E+00
        -11   -1    0    0    0    0  0.00000000000E+00  0.00000000000E+00  0.45593999997E+02  0.45594000000E+02  0.51100000000E-03 0. -1.
         11   -1    0    0    0    0 -0.00000000000E+00 -0.00000000000E+00 -0.45593999997E+02  0.45594000000E+02  0.51100000000E-03 0.  1.
    9900012    2    1    2    0    0 -0.28303619428E+01  0.30533700730E+02  0.32996904131E+02  0.46142317507E+02  0.99999976862E+01 0.  0.
        -12    1    1    2    0    0  0.28303619428E+01 -0.30533700730E+02 -0.32996904131E+02  0.45045682493E+02  0.00000000000E+00 0.  1.
         11    1    3    3    0    0 -0.31674862973E+01  0.24105182865E+02  0.28218757775E+02  0.37247699272E+02  0.51100000000E-03 0. -1.
        -11    1    3    3    0    0  0.11499214162E+00  0.40781965817E+01  0.50790475472E+01  0.65147244608E+01  0.51100000000E-03 0.  1.
        -12    1    3    3    0    0  0.22213221282E+00  0.23503212829E+01 -0.30090119110E+00  0.23798937749E+01  0.00000000000E+00 0.  1.
</event>
<event>
 7    1  0.2031146E-008  0.4614232E+02  0.7816164E-02  0.1320468E+00
        -11   -1    0    0    0    0  0.00000000000E+00  0.00000000000E+00  0.45593999997E+02  0.45594000000E+02  0.51100000000E-03 0.  1.
         11   -1    0    0    0    0 -0.00000000000E+00 -0.00000000000E+00 -0.45593999997E+02  0.45594000000E+02  0.51100000000E-03 0. -1.
    9900012    2    1    2    0    0  0.31679582355E+01 -0.12018355628E+02 -0.43297074354E+02  0.46142317865E+02  0.10000000949E+02 0.  0.
        -12    1    1    2    0    0 -0.31679582355E+01  0.12018355628E+02  0.43297074354E+02  0.45045682135E+02  0.00000000000E+00 0.  1.
         11    1    3    3    0    0  0.57144052776E+00 -0.16696143178E+00 -0.34021821144E+00  0.68568876976E+00  0.51100000000E-03 0.  1.
        -11    1    3    3    0    0 -0.11003288733E+01 -0.79174902564E+00 -0.16355559749E+02  0.16411639928E+02  0.51100000000E-03 0. -1.
         12    1    3    3    0    0  0.36968465810E+01 -0.11059645171E+02 -0.26601296394E+02  0.29044989168E+02  0.00000000000E+00 0. -1.
</event>
<event>
 7    1  0.2031146E-008  0.4614232E+02  0.7816164E-02  0.1320468E+00
        -11   -1    0    0    0    0  0.00000000000E+00  0.00000000000E+00  0.45593999997E+02  0.45594000000E+02  0.51100000000E-03 0.  1.
         11   -1    0    0    0    0 -0.00000000000E+00 -0.00000000000E+00 -0.45593999997E+02  0.45594000000E+02  0.51100000000E-03 0. -1.
    9900012    2    1    2    0    0 -0.28621620871E+02  0.14619140555E+02 -0.31562589924E+02  0.46142317248E+02  0.99999953235E+01 0.  0.
        -12    1    1    2    0    0  0.28621620871E+02 -0.14619140555E+02  0.31562589924E+02  0.45045682752E+02  0.00000000000E+00 0.  1.
         11    1    3    3    0    0 -0.95070482730E+01  0.23405005321E+01 -0.78724759552E+01  0.12563350967E+02  0.51100000000E-03 0. -1.
        -11    1    3    3    0    0 -0.11078410372E+01  0.65834982530E+00  0.38718238611E+00  0.13456027338E+01  0.51100000000E-03 0.  1.
         12    1    3    3    0    0 -0.18006731561E+02  0.11620290198E+02 -0.24077296355E+02  0.32233363547E+02  0.00000000000E+00 0. -1.
</event>
<event>
 7    1  0.2031146E-008  0.4614231E+02  0.7816164E-02  0.1320468E+00
        -11   -1    0    0    0    0  0.00000000000E+00  0.00000000000E+00  0.45593999997E+02  0.45594000000E+02  0.51100000000E-03 0. -1.
         11   -1    0    0    0    0 -0.00000000000E+00 -0.00000000000E+00 -0.45593999997E+02  0.45594000000E+02  0.51100000000E-03 0.  1.
    9900012    2    1    2    0    0 -0.24103716113E+02 -0.37708373169E+02  0.51189079227E+01  0.46142314793E+02  0.99999729324E+01 0.  0.
        -12    1    1    2    0    0  0.24103716113E+02  0.37708373169E+02 -0.51189079227E+01  0.45045685207E+02  0.00000000000E+00 0.  1.
         11    1    3    3    0    0 -0.44898410192E+01 -0.77719301319E+01  0.17513131947E+01  0.91448711593E+01  0.51100000000E-03 0. -1.
        -11    1    3    3    0    0 -0.16005743504E+02 -0.20675096653E+02  0.57615225066E+01  0.26773841499E+02  0.51100000000E-03 0.  1.
        -12    1    3    3    0    0 -0.36081315892E+01 -0.92613463835E+01 -0.23939277786E+01  0.10223602135E+02  0.00000000000E+00 0.  1.
</event>
<event>
 7    1  0.2031146E-008  0.4614231E+02  0.7816164E-02  0.1320468E+00
        -11   -1    0    0    0    0  0.00000000000E+00  0.00000000000E+00  0.45593999997E+02  0.45594000000E+02  0.51100000000E-03 0.  1.
         11   -1    0    0    0    0 -0.00000000000E+00 -0.00000000000E+00 -0.45593999997E+02  0.45594000000E+02  0.51100000000E-03 0. -1.
    9900012    2    1    2    0    0  0.21615183393E+02 -0.22037762999E+02 -0.32806015354E+02  0.46142314362E+02  0.99999690083E+01 0.  0.
        -12    1    1    2    0    0 -0.21615183393E+02  0.22037762999E+02  0.32806015354E+02  0.45045685638E+02  0.00000000000E+00 0.  1.
         11    1    3    3    0    0  0.78205719563E+01 -0.10818692636E+02 -0.10602688341E+02  0.17047652519E+02  0.51100000000E-03 0. -1.
        -11    1    3    3    0    0  0.65021513005E+01 -0.76179859020E+01 -0.83924801891E+01  0.13066958511E+02  0.51100000000E-03 0.  1.
         12    1    3    3    0    0  0.72924601362E+01 -0.36010844615E+01 -0.13810846824E+02  0.16027703333E+02  0.00000000000E+00 0. -1.
</event>
<event>
 7    1  0.2381874E-008  0.4614232E+02  0.7816164E-02  0.1320468E+00
        -11   -1    0    0    0    0  0.00000000000E+00  0.00000000000E+00  0.45593999997E+02  0.45594000000E+02  0.51100000000E-03 0.  1.
         11   -1    0    0    0    0 -0.00000000000E+00 -0.00000000000E+00 -0.45593999997E+02  0.45594000000E+02  0.51100000000E-03 0. -1.
    9900012    2    1    2    0    0 -0.43206233423E+02 -0.95930982629E+01 -0.83849545226E+01  0.46142316486E+02  0.99999883768E+01 0.  0.
        -12    1    1    2    0    0  0.43206233423E+02  0.95930982629E+01  0.83849545226E+01  0.45045683514E+02  0.00000000000E+00 0.  1.
         11    1    3    3    0    0 -0.23503294208E+02 -0.47729412589E+01 -0.66929100740E+01  0.24899414700E+02  0.51100000000E-03 0. -1.
        -11    1    3    3    0    0 -0.16647246380E+02 -0.16371206116E+01 -0.83719294346E+00  0.16748488535E+02  0.51100000000E-03 0.  1.
        -12    1    3    3    0    0 -0.30556928347E+01 -0.31830363924E+01 -0.85485150508E+00  0.44944132510E+01  0.00000000000E+00 0.  1.
</event>
<event>
 7    1  0.2031146E-008  0.4614232E+02  0.7816164E-02  0.1320468E+00
        -11   -1    0    0    0    0  0.00000000000E+00  0.00000000000E+00  0.45593999997E+02  0.45594000000E+02  0.51100000000E-03 0.  1.
         11   -1    0    0    0    0 -0.00000000000E+00 -0.00000000000E+00 -0.45593999997E+02  0.45594000000E+02  0.51100000000E-03 0. -1.
    9900012    2    1    2    0    0 -0.21622852768E+02 -0.24077348264E+01 -0.39443231585E+02  0.46142318002E+02  0.10000002194E+02 0.  0.
        -12    1    1    2    0    0  0.21622852768E+02  0.24077348264E+01  0.39443231585E+02  0.45045681998E+02  0.00000000000E+00 0.  1.
         11    1    3    3    0    0 -0.53754833958E+01  0.19653823067E+01 -0.12881450608E+02  0.14095755367E+02  0.51100000000E-03 0.  1.
        -11    1    3    3    0    0 -0.98273950631E+01 -0.50302483761E+01 -0.19989649276E+02  0.22835655692E+02  0.51100000000E-03 0. -1.
         12    1    3    3    0    0 -0.64199743095E+01  0.65713124297E+00 -0.65721317011E+01  0.92109069424E+01  0.00000000000E+00 0. -1.
</event>
<event>
 7    1  0.2031146E-008  0.4614232E+02  0.7816164E-02  0.1320468E+00
        -11   -1    0    0    0    0  0.00000000000E+00  0.00000000000E+00  0.45593999997E+02  0.45594000000E+02  0.51100000000E-03 0.  1.
         11   -1    0    0    0    0 -0.00000000000E+00 -0.00000000000E+00 -0.45593999997E+02  0.45594000000E+02  0.51100000000E-03 0. -1.
    9900012    2    1    2    0    0  0.79998765092E+00 -0.35441644470E+02 -0.27791426076E+02  0.46142317562E+02  0.99999981833E+01 0.  0.
        -12    1    1    2    0    0 -0.79998765092E+00  0.35441644470E+02  0.27791426076E+02  0.45045682438E+02  0.00000000000E+00 0.  1.
         11    1    3    3    0    0  0.24788179438E+01 -0.14301152414E+02 -0.83984961966E+01  0.16769085765E+02  0.51100000000E-03 0. -1.
        -11    1    3    3    0    0  0.47584818556E+00 -0.18231188040E+02 -0.17552727747E+02  0.25312070252E+02  0.51100000000E-03 0.  1.
         12    1    3    3    0    0 -0.21546784784E+01 -0.29093040161E+01 -0.18402021327E+01  0.40611615447E+01  0.00000000000E+00 0. -1.
</event>
<event>
 7    1  0.2031146E-008  0.4614232E+02  0.7816164E-02  0.1320468E+00
        -11   -1    0    0    0    0  0.00000000000E+00  0.00000000000E+00  0.45593999997E+02  0.45594000000E+02  0.51100000000E-03 0. -1.
         11   -1    0    0    0    0 -0.00000000000E+00 -0.00000000000E+00 -0.45593999997E+02  0.45594000000E+02  0.51100000000E-03 0.  1.
    9900012    2    1    2    0    0 -0.12172822396E+02 -0.41551916939E+02  0.12424736097E+02  0.46142317926E+02  0.10000001507E+02 0.  0.
        -12    1    1    2    0    0  0.12172822396E+02  0.41551916939E+02 -0.12424736097E+02  0.45045682074E+02  0.00000000000E+00 0.  1.
         11    1    3    3    0    0 -0.28610226935E+00 -0.47171013676E+01 -0.91963977455E+00  0.48144197363E+01  0.51100000000E-03 0. -1.
        -11    1    3    3    0    0 -0.22863686124E+01 -0.84446076978E+01  0.55529866654E+01  0.10362168777E+02  0.51100000000E-03 0.  1.
         12    1    3    3    0    0 -0.96003515138E+01 -0.28390207874E+02  0.77913892062E+01  0.30965729413E+02  0.00000000000E+00 0. -1.
</event>
<event>
 7    1  0.2031146E-008  0.4614232E+02  0.7816164E-02  0.1320468E+00
        -11   -1    0    0    0    0  0.00000000000E+00  0.00000000000E+00  0.45593999997E+02  0.45594000000E+02  0.51100000000E-03 0. -1.
         11   -1    0    0    0    0 -0.00000000000E+00 -0.00000000000E+00 -0.45593999997E+02  0.45594000000E+02  0.51100000000E-03 0.  1.
    9900012    2    1    2    0    0 -0.39455101375E+02 -0.20543015390E+02 -0.70987963598E+01  0.46142318569E+02  0.10000007368E+02 0.  0.
        -12    1    1    2    0    0  0.39455101375E+02  0.20543015390E+02  0.70987963598E+01  0.45045681431E+02  0.00000000000E+00 0.  1.
         11    1    3    3    0    0 -0.13287064039E+02 -0.10608435125E+02 -0.83914050673E+00  0.17023193696E+02  0.51100000000E-03 0. -1.
        -11    1    3    3    0    0 -0.88064868421E+01 -0.28883021176E+01  0.28400777719E+00  0.92723869797E+01  0.51100000000E-03 0.  1.
        -12    1    3    3    0    0 -0.17361550494E+02 -0.70462781476E+01 -0.65436636303E+01  0.19846737893E+02  0.00000000000E+00 0.  1.
</event>
<event>
 7    1  0.2031146E-008  0.4614232E+02  0.7816164E-02  0.1320468E+00
        -11   -1    0    0    0    0  0.00000000000E+00  0.00000000000E+00  0.45593999997E+02  0.45594000000E+02  0.51100000000E-03 0. -1.
         11   -1    0    0    0    0 -0.00000000000E+00 -0.00000000000E+00 -0.45593999997E+02  0.45594000000E+02  0.51100000000E-03 0.  1.
    9900012    2    1    2    0    0 -0.25255384207E+02  0.34420940855E+02  0.14369332014E+02  0.46142319816E+02  0.10000018734E+02 0.  0.
        -12    1    1    2    0    0  0.25255384207E+02 -0.34420940855E+02 -0.14369332014E+02  0.45045680184E+02  0.00000000000E+00 0.  1.
         11    1    3    3    0    0 -0.37123076226E+01  0.39074246924E+01 -0.56173985840E+00  0.54189249433E+01  0.51100000000E-03 0. -1.
        -11    1    3    3    0    0 -0.21675125592E+02  0.30702963933E+02  0.15023654135E+02  0.40474600030E+02  0.51100000000E-03 0.  1.
        -12    1    3    3    0    0  0.13204900793E+00 -0.18944777081E+00 -0.92582262958E-01  0.24879484274E+00  0.00000000000E+00 0.  1.
</event>
<event>
 7    1  0.2031146E-008  0.4614232E+02  0.7816164E-02  0.1320468E+00
        -11   -1    0    0    0    0  0.00000000000E+00  0.00000000000E+00  0.45593999997E+02  0.45594000000E+02  0.51100000000E-03 0. -1.
         11   -1    0    0    0    0 -0.00000000000E+00 -0.00000000000E+00 -0.45593999997E+02  0.45594000000E+02  0.51100000000E-03 0.  1.
    9900012    2    1    2    0    0  0.44206933383E+02 -0.65919283220E+01  0.56041952234E+01  0.46142317829E+02  0.10000000621E+02 0.  0.
        -12    1    1    2    0    0 -0.44206933383E+02  0.65919283220E+01 -0.56041952234E+01  0.45045682171E+02  0.00000000000E+00 0.  1.
         11    1    3    3    0    0  0.97876235203E+01  0.93620442725E+00 -0.83847825834E+00  0.98679835303E+01  0.51100000000E-03 0. -1.
        -11    1    3    3    0    0  0.16920086802E+02 -0.66319971206E+01  0.34743641845E+01  0.18502538473E+02  0.51100000000E-03 0.  1.
        -12    1    3    3    0    0  0.17499223060E+02 -0.89613562864E+00  0.29683092972E+01  0.17771795826E+02  0.00000000000E+00 0.  1.
</event>
<event>
 7    1  0.2031146E-008  0.4614232E+02  0.7816164E-02  0.1320468E+00
        -11   -1    0    0    0    0  0.00000000000E+00  0.00000000000E+00  0.45593999997E+02  0.45594000000E+02  0.51100000000E-03 0. -1.
         11   -1    0    0    0    0 -0.00000000000E+00 -0.00000000000E+00 -0.45593999997E+02  0.45594000000E+02  0.51100000000E-03 0.  1.
    9900012    2    1    2    0    0 -0.15795712879E+02 -0.68800462647E+00  0.42179803380E+02  0.46142315314E+02  0.99999776823E+01 0.  0.
        -12    1    1    2    0    0  0.15795712879E+02  0.68800462647E+00 -0.42179803380E+02  0.45045684686E+02  0.00000000000E+00 0.  1.
         11    1    3    3    0    0 -0.73714226908E+01  0.10558128916E-01  0.29188975901E+02  0.30105386534E+02  0.51100000000E-03 0. -1.
        -11    1    3    3    0    0 -0.33814248736E+01  0.90957123585E-01  0.88162849820E+01  0.94429438482E+01  0.51100000000E-03 0.  1.
        -12    1    3    3    0    0 -0.50428653144E+01 -0.78951987897E+00  0.41745424966E+01  0.65939849313E+01  0.00000000000E+00 0.  1.
</event>
<event>
 7    1  0.2031146E-008  0.4614232E+02  0.7816164E-02  0.1320468E+00
        -11   -1    0    0    0    0  0.00000000000E+00  0.00000000000E+00  0.45593999997E+02  0.45594000000E+02  0.51100000000E-03 0. -1.
         11   -1    0    0    0    0 -0.00000000000E+00 -0.00000000000E+00 -0.45593999997E+02  0.45594000000E+02  0.51100000000E-03 0.  1.
    9900012    2    1    2    0    0  0.73679164909E+01  0.42709475721E+02  0.12277130742E+02  0.46142318198E+02  0.10000003984E+02 0.  0.
        -12    1    1    2    0    0 -0.73679164909E+01 -0.42709475721E+02 -0.12277130742E+02  0.45045681802E+02  0.00000000000E+00 0.  1.
         11    1    3    3    0    0  0.67154390983E+00  0.14915376559E+02  0.43311574987E+01  0.15546007676E+02  0.51100000000E-03 0. -1.
        -11    1    3    3    0    0 -0.15877765971E+01  0.65654843192E+01  0.16056795161E+01  0.69429695258E+01  0.51100000000E-03 0.  1.
        -12    1    3    3    0    0  0.82841491781E+01  0.21228614843E+02  0.63402937274E+01  0.23653340996E+02  0.00000000000E+00 0.  1.
</event>
<event>
 7    1  0.2031146E-008  0.4614232E+02  0.7816164E-02  0.1320468E+00
        -11   -1    0    0    0    0  0.00000000000E+00  0.00000000000E+00  0.45593999997E+02  0.45594000000E+02  0.51100000000E-03 0.  1.
         11   -1    0    0    0    0 -0.00000000000E+00 -0.00000000000E+00 -0.45593999997E+02  0.45594000000E+02  0.51100000000E-03 0. -1.
    9900012    2    1    2    0    0 -0.26457249344E+02 -0.33704954942E+02  0.13896159684E+02  0.46142320025E+02  0.10000020640E+02 0.  0.
        -12    1    1    2    0    0  0.26457249344E+02  0.33704954942E+02 -0.13896159684E+02  0.45045679975E+02  0.00000000000E+00 0.  1.
         11    1    3    3    0    0 -0.63912903477E+01 -0.66583257478E+01  0.35846775190E+01  0.99011013150E+01  0.51100000000E-03 0. -1.
        -11    1    3    3    0    0 -0.80460915110E+01 -0.47223557372E+01  0.18427703400E+01  0.95097862805E+01  0.51100000000E-03 0.  1.
        -12    1    3    3    0    0 -0.12019867485E+02 -0.22324273457E+02  0.84687118252E+01  0.26731432429E+02  0.00000000000E+00 0.  1.
</event>
<event>
 7    1  0.2031146E-008  0.4614232E+02  0.7816164E-02  0.1320468E+00
        -11   -1    0    0    0    0  0.00000000000E+00  0.00000000000E+00  0.45593999997E+02  0.45594000000E+02  0.51100000000E-03 0.  1.
         11   -1    0    0    0    0 -0.00000000000E+00 -0.00000000000E+00 -0.45593999997E+02  0.45594000000E+02  0.51100000000E-03 0. -1.
    9900012    2    1    2    0    0 -0.20609161685E+02 -0.20700595765E+01 -0.40001133460E+02  0.46142319074E+02  0.10000011973E+02 0.  0.
        -12    1    1    2    0    0  0.20609161685E+02  0.20700595765E+01  0.40001133460E+02  0.45045680926E+02  0.00000000000E+00 0.  1.
         11    1    3    3    0    0 -0.15579220503E+02 -0.65825427087E+00 -0.25341273858E+02  0.29754421035E+02  0.51100000000E-03 0. -1.
        -11    1    3    3    0    0 -0.41822088523E+01 -0.22281990510E+01 -0.14430743108E+02  0.15188880433E+02  0.51100000000E-03 0.  1.
        -12    1    3    3    0    0 -0.84773233043E+00  0.81639374530E+00 -0.22911649403E+00  0.11990176059E+01  0.00000000000E+00 0.  1.
</event>
<event>
 7    1  0.2031146E-008  0.4614232E+02  0.7816164E-02  0.1320468E+00
        -11   -1    0    0    0    0  0.00000000000E+00  0.00000000000E+00  0.45593999997E+02  0.45594000000E+02  0.51100000000E-03 0.  1.
         11   -1    0    0    0    0 -0.00000000000E+00 -0.00000000000E+00 -0.45593999997E+02  0.45594000000E+02  0.51100000000E-03 0. -1.
    9900012    2    1    2    0    0 -0.94647736527E+01 -0.35424729606E+02 -0.26165245885E+02  0.46142317630E+02  0.99999988024E+01 0.  0.
        -12    1    1    2    0    0  0.94647736527E+01  0.35424729606E+02  0.26165245885E+02  0.45045682370E+02  0.00000000000E+00 0.  1.
         11    1    3    3    0    0 -0.97318115703E+00 -0.71943215261E+01 -0.91419288699E+01  0.11673911406E+02  0.51100000000E-03 0. -1.
        -11    1    3    3    0    0 -0.12023362856E+01 -0.86680898936E+01 -0.74886313595E+01  0.11517855480E+02  0.51100000000E-03 0.  1.
        -12    1    3    3    0    0 -0.72892562100E+01 -0.19562318186E+02 -0.95346856559E+01  0.22950550744E+02  0.00000000000E+00 0.  1.
</event>
<event>
 7    1  0.2031146E-008  0.4614232E+02  0.7816164E-02  0.1320468E+00
        -11   -1    0    0    0    0  0.00000000000E+00  0.00000000000E+00  0.45593999997E+02  0.45594000000E+02  0.51100000000E-03 0. -1.
         11   -1    0    0    0    0 -0.00000000000E+00 -0.00000000000E+00 -0.45593999997E+02  0.45594000000E+02  0.51100000000E-03 0.  1.
    9900012    2    1    2    0    0  0.44833566223E+02 -0.43567471811E+01 -0.28883152315E+00  0.46142319520E+02  0.10000016042E+02 0.  0.
        -12    1    1    2    0    0 -0.44833566223E+02  0.43567471811E+01  0.28883152315E+00  0.45045680480E+02  0.00000000000E+00 0.  1.
         11    1    3    3    0    0  0.15769596241E+02  0.10312518496E+01 -0.18882032254E+01  0.15915682758E+02  0.51100000000E-03 0. -1.
        -11    1    3    3    0    0  0.14151985798E+02 -0.45688581725E+00  0.29469621701E+01  0.14462780956E+02  0.51100000000E-03 0.  1.
        -12    1    3    3    0    0  0.14911984183E+02 -0.49311132135E+01 -0.13475904679E+01  0.15763855806E+02  0.00000000000E+00 0.  1.
</event>
<event>
 7    1  0.2031146E-008  0.4614232E+02  0.7816164E-02  0.1320468E+00
        -11   -1    0    0    0    0  0.00000000000E+00  0.00000000000E+00  0.45593999997E+02  0.45594000000E+02  0.51100000000E-03 0.  1.
         11   -1    0    0    0    0 -0.00000000000E+00 -0.00000000000E+00 -0.45593999997E+02  0.45594000000E+02  0.51100000000E-03 0. -1.
    9900012    2    1    2    0    0 -0.23114359306E+01  0.44969483720E+02  0.12313216179E+01  0.46142319241E+02  0.10000013497E+02 0.  0.
        -12    1    1    2    0    0  0.23114359306E+01 -0.44969483720E+02 -0.12313216179E+01  0.45045680759E+02  0.00000000000E+00 0.  1.
         11    1    3    3    0    0  0.15590664929E+01  0.10067638213E+02  0.35314571579E+01  0.10782356766E+02  0.51100000000E-03 0. -1.
        -11    1    3    3    0    0 -0.22210804776E+01  0.72849379948E+01 -0.68468580113E+00  0.76467192301E+01  0.51100000000E-03 0.  1.
         12    1    3    3    0    0 -0.16494219459E+01  0.27616907512E+02 -0.16154497388E+01  0.27713243245E+02  0.00000000000E+00 0. -1.
</event>
<event>
 7    1  0.2031146E-008  0.4614232E+02  0.7816164E-02  0.1320468E+00
        -11   -1    0    0    0    0  0.00000000000E+00  0.00000000000E+00  0.45593999997E+02  0.45594000000E+02  0.51100000000E-03 0.  1.
         11   -1    0    0    0    0 -0.00000000000E+00 -0.00000000000E+00 -0.45593999997E+02  0.45594000000E+02  0.51100000000E-03 0. -1.
    9900012    2    1    2    0    0 -0.57221428118E+00 -0.43802505274E+02 -0.10494121748E+02  0.46142317757E+02  0.99999999635E+01 0.  0.
        -12    1    1    2    0    0  0.57221428118E+00  0.43802505274E+02  0.10494121748E+02  0.45045682243E+02  0.00000000000E+00 0.  1.
         11    1    3    3    0    0  0.27409942774E+01 -0.16006425219E+02 -0.53308921256E+01  0.17092018869E+02  0.51100000000E-03 0. -1.
        -11    1    3    3    0    0 -0.34993924265E+00 -0.80453594677E+01 -0.41338371600E+01  0.90520095208E+01  0.51100000000E-03 0.  1.
         12    1    3    3    0    0 -0.29632693159E+01 -0.19750720588E+02 -0.10293924628E+01  0.19998289367E+02  0.00000000000E+00 0. -1.
</event>
<event>
 7    1  0.2031146E-008  0.4614230E+02  0.7816164E-02  0.1320468E+00
        -11   -1    0    0    0    0  0.00000000000E+00  0.00000000000E+00  0.45593999997E+02  0.45594000000E+02  0.51100000000E-03 0. -1.
         11   -1    0    0    0    0 -0.00000000000E+00 -0.00000000000E+00 -0.45593999997E+02  0.45594000000E+02  0.51100000000E-03 0.  1.
    9900012    2    1    2    0    0  0.32867645757E+02 -0.84810527824E+01  0.29612569338E+02  0.46142304793E+02  0.99998817418E+01 0.  0.
        -12    1    1    2    0    0 -0.32867645757E+02  0.84810527824E+01 -0.29612569338E+02  0.45045695207E+02  0.00000000000E+00 0.  1.
         11    1    3    3    0    0  0.15897549696E+02 -0.11942861732E+01  0.15285933206E+02  0.22086605897E+02  0.51100000000E-03 0. -1.
        -11    1    3    3    0    0  0.16865805994E+02 -0.63019526622E+01  0.14410978014E+02  0.23061793225E+02  0.51100000000E-03 0.  1.
        -12    1    3    3    0    0  0.10429006718E+00 -0.98481394700E+00 -0.84341882256E-01  0.99390567028E+00  0.00000000000E+00 0.  1.
</event>
<event>
 7    1  0.2031146E-008  0.4614232E+02  0.7816164E-02  0.1320468E+00
        -11   -1    0    0    0    0  0.00000000000E+00  0.00000000000E+00  0.45593999997E+02  0.45594000000E+02  0.51100000000E-03 0.  1.
         11   -1    0    0    0    0 -0.00000000000E+00 -0.00000000000E+00 -0.45593999997E+02  0.45594000000E+02  0.51100000000E-03 0. -1.
    9900012    2    1    2    0    0  0.18684094842E+02  0.89514786126E+01 -0.39998613327E+02  0.46142318326E+02  0.10000005149E+02 0.  0.
        -12    1    1    2    0    0 -0.18684094842E+02 -0.89514786126E+01  0.39998613327E+02  0.45045681674E+02  0.00000000000E+00 0.  1.
         11    1    3    3    0    0  0.25244720599E+01  0.51513553714E+01 -0.79214761779E+01  0.97805524610E+01  0.51100000000E-03 0. -1.
        -11    1    3    3    0    0  0.25783429289E+00  0.82779105766E+00 -0.25516445653E+01  0.26949224120E+01  0.51100000000E-03 0.  1.
        -12    1    3    3    0    0  0.15901788489E+02  0.29723321835E+01 -0.29525492584E+02  0.33666843453E+02  0.00000000000E+00 0.  1.
</event>
<event>
 7    1  0.2031146E-008  0.4614232E+02  0.7816164E-02  0.1320468E+00
        -11   -1    0    0    0    0  0.00000000000E+00  0.00000000000E+00  0.45593999997E+02  0.45594000000E+02  0.51100000000E-03 0.  1.
         11   -1    0    0    0    0 -0.00000000000E+00 -0.00000000000E+00 -0.45593999997E+02  0.45594000000E+02  0.51100000000E-03 0. -1.
    9900012    2    1    2    0    0 -0.11399879770E+02 -0.11019326729E+02 -0.42163143960E+02  0.46142317311E+02  0.99999958996E+01 0.  0.
        -12    1    1    2    0    0  0.11399879770E+02  0.11019326729E+02  0.42163143960E+02  0.45045682689E+02  0.00000000000E+00 0.  1.
         11    1    3    3    0    0  0.57954217570E-01  0.43482629984E-01  0.37854451956E+00  0.38541619693E+00  0.51100000000E-03 0.  1.
        -11    1    3    3    0    0 -0.75448515565E+01 -0.68475875351E+01 -0.33721459278E+02  0.35227135225E+02  0.51100000000E-03 0. -1.
        -12    1    3    3    0    0 -0.39129824310E+01 -0.42152218236E+01 -0.88202292009E+01  0.10529765889E+02  0.00000000000E+00 0.  1.
</event>
<event>
 7    1  0.2031146E-008  0.4614232E+02  0.7816164E-02  0.1320468E+00
        -11   -1    0    0    0    0  0.00000000000E+00  0.00000000000E+00  0.45593999997E+02  0.45594000000E+02  0.51100000000E-03 0.  1.
         11   -1    0    0    0    0 -0.00000000000E+00 -0.00000000000E+00 -0.45593999997E+02  0.45594000000E+02  0.51100000000E-03 0. -1.
    9900012    2    1    2    0    0  0.26729396410E+02 -0.21339066876E+02 -0.29313768095E+02  0.46142318658E+02  0.10000008182E+02 0.  0.
        -12    1    1    2    0    0 -0.26729396410E+02  0.21339066876E+02  0.29313768095E+02  0.45045681342E+02  0.00000000000E+00 0.  1.
         11    1    3    3    0    0  0.27816175637E+01 -0.69864260478E+00 -0.25676720751E+01  0.38494724192E+01  0.51100000000E-03 0. -1.
        -11    1    3    3    0    0 -0.43783948432E+00 -0.17813913098E+01 -0.23434943412E+01  0.29760753352E+01  0.51100000000E-03 0.  1.
        -12    1    3    3    0    0  0.24385618331E+02 -0.18859032961E+02 -0.24402601679E+02  0.39316770904E+02  0.00000000000E+00 0.  1.
</event>
<event>
 7    1  0.2031146E-008  0.4614232E+02  0.7816164E-02  0.1320468E+00
        -11   -1    0    0    0    0  0.00000000000E+00  0.00000000000E+00  0.45593999997E+02  0.45594000000E+02  0.51100000000E-03 0.  1.
         11   -1    0    0    0    0 -0.00000000000E+00 -0.00000000000E+00 -0.45593999997E+02  0.45594000000E+02  0.51100000000E-03 0. -1.
    9900012    2    1    2    0    0 -0.25314702665E+00  0.21063596928E+02 -0.39816759301E+02  0.46142317407E+02  0.99999967742E+01 0.  0.
        -12    1    1    2    0    0  0.25314702665E+00 -0.21063596928E+02  0.39816759301E+02  0.45045682593E+02  0.00000000000E+00 0.  1.
         11    1    3    3    0    0 -0.13586835899E+01  0.87966642757E+01 -0.21104083508E+02  0.22904359071E+02  0.51100000000E-03 0. -1.
        -11    1    3    3    0    0 -0.14165798862E+01  0.43956621838E+01 -0.30692293687E+01  0.55451522781E+01  0.51100000000E-03 0.  1.
         12    1    3    3    0    0  0.25221164494E+01  0.78712704689E+01 -0.15643446425E+02  0.17692806058E+02  0.00000000000E+00 0. -1.
</event>
<event>
 7    1  0.2031146E-008  0.4614232E+02  0.7816164E-02  0.1320468E+00
        -11   -1    0    0    0    0  0.00000000000E+00  0.00000000000E+00  0.45593999997E+02  0.45594000000E+02  0.51100000000E-03 0. -1.
         11   -1    0    0    0    0 -0.00000000000E+00 -0.00000000000E+00 -0.45593999997E+02  0.45594000000E+02  0.51100000000E-03 0.  1.
    9900012    2    1    2    0    0  0.31334303827E+02  0.11388493114E+02  0.30291534440E+02  0.46142318404E+02  0.10000005863E+02 0.  0.
        -12    1    1    2    0    0 -0.31334303827E+02 -0.11388493114E+02 -0.30291534440E+02  0.45045681596E+02  0.00000000000E+00 0.  1.
         11    1    3    3    0    0  0.17426844309E+02  0.50086621657E+01  0.12941206917E+02  0.22276813866E+02  0.51100000000E-03 0. -1.
        -11    1    3    3    0    0  0.10060049817E+02  0.64492333631E+01  0.10054092888E+02  0.15616721723E+02  0.51100000000E-03 0.  1.
         12    1    3    3    0    0  0.38474097004E+01 -0.69402415283E-01  0.72962346343E+01  0.82487828155E+01  0.00000000000E+00 0. -1.
</event>
<event>
 7    1  0.2031146E-008  0.4614232E+02  0.7816164E-02  0.1320468E+00
        -11   -1    0    0    0    0  0.00000000000E+00  0.00000000000E+00  0.45593999997E+02  0.45594000000E+02  0.51100000000E-03 0.  1.
         11   -1    0    0    0    0 -0.00000000000E+00 -0.00000000000E+00 -0.45593999997E+02  0.45594000000E+02  0.51100000000E-03 0. -1.
    9900012    2    1    2    0    0  0.39008425580E+02  0.10669351822E+02 -0.19839887184E+02  0.46142318098E+02  0.10000003072E+02 0.  0.
        -12    1    1    2    0    0 -0.39008425580E+02 -0.10669351822E+02  0.19839887184E+02  0.45045681902E+02  0.00000000000E+00 0.  1.
         11    1    3    3    0    0  0.12520007561E+02  0.98620946425E+00 -0.61121287283E+01  0.13967151330E+02  0.51100000000E-03 0. -1.
        -11    1    3    3    0    0  0.29100952211E+01  0.84127603075E+00 -0.43567495387E+01  0.53063797791E+01  0.51100000000E-03 0.  1.
         12    1    3    3    0    0  0.23578322798E+02  0.88418663268E+01 -0.93710089169E+01  0.26868786989E+02  0.00000000000E+00 0. -1.
</event>
<event>
 7    1  0.2031146E-008  0.4614232E+02  0.7816164E-02  0.1320468E+00
        -11   -1    0    0    0    0  0.00000000000E+00  0.00000000000E+00  0.45593999997E+02  0.45594000000E+02  0.51100000000E-03 0.  1.
         11   -1    0    0    0    0 -0.00000000000E+00 -0.00000000000E+00 -0.45593999997E+02  0.45594000000E+02  0.51100000000E-03 0. -1.
    9900012    2    1    2    0    0  0.27022448247E+02  0.25845731806E+02 -0.25117701008E+02  0.46142318012E+02  0.10000002284E+02 0.  0.
        -12    1    1    2    0    0 -0.27022448247E+02 -0.25845731806E+02  0.25117701008E+02  0.45045681988E+02  0.00000000000E+00 0.  1.
         11    1    3    3    0    0  0.71311996748E+00  0.83551655815E+00 -0.19327454685E+01  0.22230909370E+01  0.51100000000E-03 0. -1.
        -11    1    3    3    0    0  0.10051913315E+02  0.42397582617E+01 -0.73542426090E+01  0.13156800372E+02  0.51100000000E-03 0.  1.
        -12    1    3    3    0    0  0.16257414965E+02  0.20770456986E+02 -0.15830712931E+02  0.30762426703E+02  0.00000000000E+00 0.  1.
</event>
<event>
 7    1  0.2031146E-008  0.4614232E+02  0.7816164E-02  0.1320468E+00
        -11   -1    0    0    0    0  0.00000000000E+00  0.00000000000E+00  0.45593999997E+02  0.45594000000E+02  0.51100000000E-03 0.  1.
         11   -1    0    0    0    0 -0.00000000000E+00 -0.00000000000E+00 -0.45593999997E+02  0.45594000000E+02  0.51100000000E-03 0. -1.
    9900012    2    1    2    0    0  0.23290604442E+02 -0.38408141845E+02 -0.33876086501E+01  0.46142317547E+02  0.99999980519E+01 0.  0.
        -12    1    1    2    0    0 -0.23290604442E+02  0.38408141845E+02  0.33876086501E+01  0.45045682453E+02  0.00000000000E+00 0.  1.
         11    1    3    3    0    0  0.14288620513E+02 -0.22675302852E+02 -0.23072640916E+00  0.26802747443E+02  0.51100000000E-03 0. -1.
        -11    1    3    3    0    0  0.48428414696E+01 -0.12473577162E+02 -0.40508239509E+01  0.13980429738E+02  0.51100000000E-03 0.  1.
         12    1    3    3    0    0  0.41591424595E+01 -0.32592618310E+01  0.89394170994E+00  0.53591403660E+01  0.00000000000E+00 0. -1.
</event>
<event>
 7    1  0.2031146E-008  0.4614232E+02  0.7816164E-02  0.1320468E+00
        -11   -1    0    0    0    0  0.00000000000E+00  0.00000000000E+00  0.45593999997E+02  0.45594000000E+02  0.51100000000E-03 0. -1.
         11   -1    0    0    0    0 -0.00000000000E+00 -0.00000000000E+00 -0.45593999997E+02  0.45594000000E+02  0.51100000000E-03 0.  1.
    9900012    2    1    2    0    0 -0.15735481235E+02  0.31243316923E+02 -0.28378923294E+02  0.46142317528E+02  0.99999978712E+01 0.  0.
        -12    1    1    2    0    0  0.15735481235E+02 -0.31243316923E+02  0.28378923294E+02  0.45045682472E+02  0.00000000000E+00 0.  1.
         11    1    3    3    0    0 -0.82552337775E+01  0.12866795659E+02 -0.11644532900E+02  0.19217139797E+02  0.51100000000E-03 0. -1.
        -11    1    3    3    0    0 -0.44837561430E+00  0.23610620623E-01  0.57921315128E+00  0.73286171181E+00  0.51100000000E-03 0.  1.
         12    1    3    3    0    0 -0.70318718436E+01  0.18352910644E+02 -0.17313603545E+02  0.26192316019E+02  0.00000000000E+00 0. -1.
</event>
<event>
 7    1  0.2031146E-008  0.4614232E+02  0.7816164E-02  0.1320468E+00
        -11   -1    0    0    0    0  0.00000000000E+00  0.00000000000E+00  0.45593999997E+02  0.45594000000E+02  0.51100000000E-03 0. -1.
         11   -1    0    0    0    0 -0.00000000000E+00 -0.00000000000E+00 -0.45593999997E+02  0.45594000000E+02  0.51100000000E-03 0.  1.
    9900012    2    1    2    0    0  0.15279771318E+02  0.19422234568E+02  0.37661902809E+02  0.46142317296E+02  0.99999957580E+01 0.  0.
        -12    1    1    2    0    0 -0.15279771318E+02 -0.19422234568E+02 -0.37661902809E+02  0.45045682704E+02  0.00000000000E+00 0.  1.
         11    1    3    3    0    0  0.78051660210E+01  0.13293721916E+02  0.24208318259E+02  0.28699936101E+02  0.51100000000E-03 0. -1.
        -11    1    3    3    0    0  0.80520289987E+01  0.57606182220E+01  0.10586230545E+02  0.14494418606E+02  0.51100000000E-03 0.  1.
        -12    1    3    3    0    0 -0.57742370223E+00  0.36789442942E+00  0.28673540042E+01  0.29479625894E+01  0.00000000000E+00 0.  1.
</event>
<event>
 7    1  0.2031146E-008  0.4614232E+02  0.7816164E-02  0.1320468E+00
        -11   -1    0    0    0    0  0.00000000000E+00  0.00000000000E+00  0.45593999997E+02  0.45594000000E+02  0.51100000000E-03 0.  1.
         11   -1    0    0    0    0 -0.00000000000E+00 -0.00000000000E+00 -0.45593999997E+02  0.45594000000E+02  0.51100000000E-03 0. -1.
    9900012    2    1    2    0    0 -0.13576644255E+02  0.48584643668E+01 -0.42675326682E+02  0.46142318158E+02  0.10000003617E+02 0.  0.
        -12    1    1    2    0    0  0.13576644255E+02 -0.48584643668E+01  0.42675326682E+02  0.45045681842E+02  0.00000000000E+00 0.  1.
         11    1    3    3    0    0 -0.21682771473E+01  0.24769503075E+01 -0.11993618095E+02  0.12437185529E+02  0.51100000000E-03 0. -1.
        -11    1    3    3    0    0 -0.88416622712E+01  0.50840633595E+01 -0.23355663943E+02  0.25485480777E+02  0.51100000000E-03 0.  1.
        -12    1    3    3    0    0 -0.25667048361E+01 -0.27025493002E+01 -0.73260446433E+01  0.82196518510E+01  0.00000000000E+00 0.  1.
</event>
<event>
 7    1  0.2031146E-008  0.4614233E+02  0.7816164E-02  0.1320468E+00
        -11   -1    0    0    0    0  0.00000000000E+00  0.00000000000E+00  0.45593999997E+02  0.45594000000E+02  0.51100000000E-03 0.  1.
         11   -1    0    0    0    0 -0.00000000000E+00 -0.00000000000E+00 -0.45593999997E+02  0.45594000000E+02  0.51100000000E-03 0. -1.
    9900012    2    1    2    0    0  0.64322125487E+01 -0.72686887300E+01 -0.43987558146E+02  0.46142329112E+02  0.10000103503E+02 0.  0.
        -12    1    1    2    0    0 -0.64322125487E+01  0.72686887300E+01  0.43987558146E+02  0.45045670888E+02  0.00000000000E+00 0.  1.
         11    1    3    3    0    0  0.44816988705E+01 -0.85942937925E+01 -0.22908393747E+02  0.24874525421E+02  0.51100000000E-03 0. -1.
        -11    1    3    3    0    0  0.33144006231E+00  0.11511041135E+01 -0.89883822967E+01  0.90678503389E+01  0.51100000000E-03 0.  1.
         12    1    3    3    0    0  0.16190736159E+01  0.17450094910E+00 -0.12090782102E+02  0.12199953352E+02  0.00000000000E+00 0. -1.
</event>
<event>
 7    1  0.2031146E-008  0.4614232E+02  0.7816164E-02  0.1320468E+00
        -11   -1    0    0    0    0  0.00000000000E+00  0.00000000000E+00  0.45593999997E+02  0.45594000000E+02  0.51100000000E-03 0. -1.
         11   -1    0    0    0    0 -0.00000000000E+00 -0.00000000000E+00 -0.45593999997E+02  0.45594000000E+02  0.51100000000E-03 0.  1.
    9900012    2    1    2    0    0  0.30162514041E+02 -0.95466642524E+00  0.33442858398E+02  0.46142318530E+02  0.10000007015E+02 0.  0.
        -12    1    1    2    0    0 -0.30162514041E+02  0.95466642524E+00 -0.33442858398E+02  0.45045681470E+02  0.00000000000E+00 0.  1.
         11    1    3    3    0    0  0.54042357244E+01  0.12563371972E+01  0.58907386780E+01  0.80922771425E+01  0.51100000000E-03 0. -1.
        -11    1    3    3    0    0  0.10244341699E+02 -0.19157864363E+01  0.17583151435E+02  0.20439764900E+02  0.51100000000E-03 0.  1.
        -12    1    3    3    0    0  0.14513936617E+02 -0.29521718610E+00  0.99689682845E+01  0.17610276488E+02  0.00000000000E+00 0.  1.
</event>
<event>
 7    1  0.2031146E-008  0.4614232E+02  0.7816164E-02  0.1320468E+00
        -11   -1    0    0    0    0  0.00000000000E+00  0.00000000000E+00  0.45593999997E+02  0.45594000000E+02  0.51100000000E-03 0.  1.
         11   -1    0    0    0    0 -0.00000000000E+00 -0.00000000000E+00 -0.45593999997E+02  0.45594000000E+02  0.51100000000E-03 0. -1.
    9900012    2    1    2    0    0  0.43548741195E+02  0.51772075361E+00 -0.11504456011E+02  0.46142318713E+02  0.10000008683E+02 0.  0.
        -12    1    1    2    0    0 -0.43548741195E+02 -0.51772075361E+00  0.11504456011E+02  0.45045681287E+02  0.00000000000E+00 0.  1.
         11    1    3    3    0    0  0.11899284960E+02  0.13634262940E+01 -0.30456665306E+01  0.12358316985E+02  0.51100000000E-03 0.  1.
        -11    1    3    3    0    0  0.62698142028E+01 -0.29236694772E+01  0.10264590967E+00  0.69187390320E+01  0.51100000000E-03 0. -1.
         12    1    3    3    0    0  0.25379642033E+02  0.20779639368E+01 -0.85614353897E+01  0.26865262697E+02  0.00000000000E+00 0. -1.
</event>
<event>
 7    1  0.2031146E-008  0.4614232E+02  0.7816164E-02  0.1320468E+00
        -11   -1    0    0    0    0  0.00000000000E+00  0.00000000000E+00  0.45593999997E+02  0.45594000000E+02  0.51100000000E-03 0.  1.
         11   -1    0    0    0    0 -0.00000000000E+00 -0.00000000000E+00 -0.45593999997E+02  0.45594000000E+02  0.51100000000E-03 0. -1.
    9900012    2    1    2    0    0 -0.43990469816E+02  0.91436297865E+01 -0.32165346647E+01  0.46142317681E+02  0.99999992726E+01 0.  0.
        -12    1    1    2    0    0  0.43990469816E+02 -0.91436297865E+01  0.32165346647E+01  0.45045682319E+02  0.00000000000E+00 0.  1.
         11    1    3    3    0    0 -0.10694021721E+02  0.40454831505E+01 -0.13347609158E+01  0.11511282355E+02  0.51100000000E-03 0. -1.
        -11    1    3    3    0    0 -0.14154156543E+02  0.41188218195E+01  0.25445401753E+01  0.14959262201E+02  0.51100000000E-03 0.  1.
         12    1    3    3    0    0 -0.19142291552E+02  0.97932481649E+00 -0.44263139241E+01  0.19671773125E+02  0.00000000000E+00 0. -1.
</event>
<event>
 7    1  0.2031146E-008  0.4614232E+02  0.7816164E-02  0.1320468E+00
        -11   -1    0    0    0    0  0.00000000000E+00  0.00000000000E+00  0.45593999997E+02  0.45594000000E+02  0.51100000000E-03 0.  1.
         11   -1    0    0    0    0 -0.00000000000E+00 -0.00000000000E+00 -0.45593999997E+02  0.45594000000E+02  0.51100000000E-03 0. -1.
    9900012    2    1    2    0    0 -0.80592048765E-01 -0.30795144612E+02 -0.32875004345E+02  0.46142319437E+02  0.10000015282E+02 0.  0.
        -12    1    1    2    0    0  0.80592048765E-01  0.30795144612E+02  0.32875004345E+02  0.45045680563E+02  0.00000000000E+00 0.  1.
         11    1    3    3    0    0  0.34980188730E+01 -0.17585905605E+02 -0.18351265334E+02  0.25656756451E+02  0.51100000000E-03 0. -1.
        -11    1    3    3    0    0 -0.30076288035E+01 -0.31873346180E+01 -0.49961131719E+01  0.66457565464E+01  0.51100000000E-03 0.  1.
        -12    1    3    3    0    0 -0.57098211828E+00 -0.10021904389E+02 -0.95276258387E+01  0.13839806439E+02  0.00000000000E+00 0.  1.
</event>
<event>
 7    1  0.2031146E-008  0.4614232E+02  0.7816164E-02  0.1320468E+00
        -11   -1    0    0    0    0  0.00000000000E+00  0.00000000000E+00  0.45593999997E+02  0.45594000000E+02  0.51100000000E-03 0.  1.
         11   -1    0    0    0    0 -0.00000000000E+00 -0.00000000000E+00 -0.45593999997E+02  0.45594000000E+02  0.51100000000E-03 0. -1.
    9900012    2    1    2    0    0 -0.40254307386E+02  0.15173359848E+02 -0.13359384504E+02  0.46142320224E+02  0.10000022458E+02 0.  0.
        -12    1    1    2    0    0  0.40254307386E+02 -0.15173359848E+02  0.13359384504E+02  0.45045679776E+02  0.00000000000E+00 0.  1.
         11    1    3    3    0    0  0.26749412251E+00  0.74082871083E+00 -0.24552662609E+00  0.82502355700E+00  0.51100000000E-03 0. -1.
        -11    1    3    3    0    0 -0.52228350007E+01  0.13255190229E+01  0.16414146212E+00  0.53909135409E+01  0.51100000000E-03 0.  1.
         12    1    3    3    0    0 -0.35298966507E+02  0.13107012114E+02 -0.13277999340E+02  0.39926383126E+02  0.00000000000E+00 0. -1.
</event>
<event>
 7    1  0.2031146E-008  0.4614232E+02  0.7816164E-02  0.1320468E+00
        -11   -1    0    0    0    0  0.00000000000E+00  0.00000000000E+00  0.45593999997E+02  0.45594000000E+02  0.51100000000E-03 0. -1.
         11   -1    0    0    0    0 -0.00000000000E+00 -0.00000000000E+00 -0.45593999997E+02  0.45594000000E+02  0.51100000000E-03 0.  1.
    9900012    2    1    2    0    0  0.22755976960E+02 -0.34535176079E+02  0.17849385664E+02  0.46142318267E+02  0.10000004615E+02 0.  0.
        -12    1    1    2    0    0 -0.22755976960E+02  0.34535176079E+02 -0.17849385664E+02  0.45045681733E+02  0.00000000000E+00 0.  1.
         11    1    3    3    0    0  0.51690487910E+01 -0.52879452851E+01  0.93286867568E+00  0.74532996028E+01  0.51100000000E-03 0. -1.
        -11    1    3    3    0    0  0.67149961741E+01 -0.79281149377E+01  0.22807161492E+01  0.10637097654E+02  0.51100000000E-03 0.  1.
         12    1    3    3    0    0  0.10871931995E+02 -0.21319115856E+02  0.14635800839E+02  0.28051921010E+02  0.00000000000E+00 0. -1.
</event>
<event>
 7    1  0.2031146E-008  0.4614232E+02  0.7816164E-02  0.1320468E+00
        -11   -1    0    0    0    0  0.00000000000E+00  0.00000000000E+00  0.45593999997E+02  0.45594000000E+02  0.51100000000E-03 0.  1.
         11   -1    0    0    0    0 -0.00000000000E+00 -0.00000000000E+00 -0.45593999997E+02  0.45594000000E+02  0.51100000000E-03 0. -1.
    9900012    2    1    2    0    0 -0.25956385639E+02 -0.36809017848E+02 -0.68979296084E+00  0.46142316914E+02  0.99999922767E+01 0.  0.
        -12    1    1    2    0    0  0.25956385639E+02  0.36809017848E+02  0.68979296084E+00  0.45045683086E+02  0.00000000000E+00 0.  1.
         11    1    3    3    0    0 -0.18632413931E+02 -0.27523820617E+02  0.47981750679E+00  0.33240905152E+02  0.51100000000E-03 0. -1.
        -11    1    3    3    0    0 -0.70206266312E+01 -0.70781839878E+01 -0.25373680282E+01  0.10287279700E+02  0.51100000000E-03 0.  1.
        -12    1    3    3    0    0 -0.30334507650E+00 -0.22070132430E+01  0.13677575606E+01  0.26141320615E+01  0.00000000000E+00 0.  1.
</event>
<event>
 7    1  0.2031146E-008  0.4614232E+02  0.7816164E-02  0.1320468E+00
        -11   -1    0    0    0    0  0.00000000000E+00  0.00000000000E+00  0.45593999997E+02  0.45594000000E+02  0.51100000000E-03 0. -1.
         11   -1    0    0    0    0 -0.00000000000E+00 -0.00000000000E+00 -0.45593999997E+02  0.45594000000E+02  0.51100000000E-03 0.  1.
    9900012    2    1    2    0    0  0.43271764446E+02  0.12055282425E+02 -0.33672013539E+01  0.46142317881E+02  0.10000001095E+02 0.  0.
        -12    1    1    2    0    0 -0.43271764446E+02 -0.12055282425E+02  0.33672013539E+01  0.45045682119E+02  0.00000000000E+00 0.  1.
         11    1    3    3    0    0  0.70531885310E+01  0.45697948879E+01  0.12280174391E+01  0.84934398722E+01  0.51100000000E-03 0. -1.
        -11    1    3    3    0    0  0.27999150577E+01  0.21395795155E+01 -0.44558054087E+00  0.35518821931E+01  0.51100000000E-03 0.  1.
         12    1    3    3    0    0  0.33418660857E+02  0.53459080219E+01 -0.41496382522E+01  0.34096995816E+02  0.00000000000E+00 0. -1.
</event>
<event>
 7    1  0.2031146E-008  0.4614232E+02  0.7816164E-02  0.1320468E+00
        -11   -1    0    0    0    0  0.00000000000E+00  0.00000000000E+00  0.45593999997E+02  0.45594000000E+02  0.51100000000E-03 0.  1.
         11   -1    0    0    0    0 -0.00000000000E+00 -0.00000000000E+00 -0.45593999997E+02  0.45594000000E+02  0.51100000000E-03 0. -1.
    9900012    2    1    2    0    0 -0.10783676911E+02 -0.37951891468E+02  0.21736598087E+02  0.46142318185E+02  0.10000003869E+02 0.  0.
        -12    1    1    2    0    0  0.10783676911E+02  0.37951891468E+02 -0.21736598087E+02  0.45045681815E+02  0.00000000000E+00 0.  1.
         11    1    3    3    0    0 -0.44066668625E+01 -0.96021542113E+01  0.86700347080E+01  0.13667098464E+02  0.51100000000E-03 0. -1.
        -11    1    3    3    0    0 -0.32721106252E+01 -0.45262604487E+01  0.36429051273E+01  0.66681706352E+01  0.51100000000E-03 0.  1.
         12    1    3    3    0    0 -0.31048994229E+01 -0.23823476809E+02  0.94236582519E+01  0.25807049086E+02  0.00000000000E+00 0. -1.
</event>
<event>
 7    1  0.2031146E-008  0.4614232E+02  0.7816164E-02  0.1320468E+00
        -11   -1    0    0    0    0  0.00000000000E+00  0.00000000000E+00  0.45593999997E+02  0.45594000000E+02  0.51100000000E-03 0.  1.
         11   -1    0    0    0    0 -0.00000000000E+00 -0.00000000000E+00 -0.45593999997E+02  0.45594000000E+02  0.51100000000E-03 0. -1.
    9900012    2    1    2    0    0  0.37597588454E+02  0.11829305960E+02 -0.21808308703E+02  0.46142318015E+02  0.10000002316E+02 0.  0.
        -12    1    1    2    0    0 -0.37597588454E+02 -0.11829305960E+02  0.21808308703E+02  0.45045681985E+02  0.00000000000E+00 0.  1.
         11    1    3    3    0    0  0.87500445457E+01  0.44808860728E+01 -0.55576670915E+01  0.11292886403E+02  0.51100000000E-03 0. -1.
        -11    1    3    3    0    0  0.14923644455E+02  0.52079338260E+01 -0.43127577441E+01  0.16384065984E+02  0.51100000000E-03 0.  1.
         12    1    3    3    0    0  0.13923899453E+02  0.21404860610E+01 -0.11937883867E+02  0.18465365628E+02  0.00000000000E+00 0. -1.
</event>
<event>
 7    1  0.2031146E-008  0.4614232E+02  0.7816164E-02  0.1320468E+00
        -11   -1    0    0    0    0  0.00000000000E+00  0.00000000000E+00  0.45593999997E+02  0.45594000000E+02  0.51100000000E-03 0.  1.
         11   -1    0    0    0    0 -0.00000000000E+00 -0.00000000000E+00 -0.45593999997E+02  0.45594000000E+02  0.51100000000E-03 0. -1.
    9900012    2    1    2    0    0  0.14420165635E+00 -0.27142146099E+02 -0.35949917455E+02  0.46142318143E+02  0.10000003479E+02 0.  0.
        -12    1    1    2    0    0 -0.14420165635E+00  0.27142146099E+02  0.35949917455E+02  0.45045681857E+02  0.00000000000E+00 0.  1.
         11    1    3    3    0    0  0.15333810580E+01 -0.96613372588E+01 -0.71042254335E+01  0.12089777267E+02  0.51100000000E-03 0. -1.
        -11    1    3    3    0    0  0.15134894623E+01 -0.44247395141E+01 -0.85687543480E+01  0.97617888452E+01  0.51100000000E-03 0.  1.
         12    1    3    3    0    0 -0.29026688640E+01 -0.13056069326E+02 -0.20276937673E+02  0.24290752030E+02  0.00000000000E+00 0. -1.
</event>
<event>
 7    1  0.2031146E-008  0.4614232E+02  0.7816164E-02  0.1320468E+00
        -11   -1    0    0    0    0  0.00000000000E+00  0.00000000000E+00  0.45593999997E+02  0.45594000000E+02  0.51100000000E-03 0. -1.
         11   -1    0    0    0    0 -0.00000000000E+00 -0.00000000000E+00 -0.45593999997E+02  0.45594000000E+02  0.51100000000E-03 0.  1.
    9900012    2    1    2    0    0  0.29641120499E+02 -0.32953813376E+02  0.80351481944E+01  0.46142318220E+02  0.10000004189E+02 0.  0.
        -12    1    1    2    0    0 -0.29641120499E+02  0.32953813376E+02 -0.80351481944E+01  0.45045681780E+02  0.00000000000E+00 0.  1.
         11    1    3    3    0    0  0.39591309813E+01 -0.17428303593E+01  0.16975366236E+01  0.46469136681E+01  0.51100000000E-03 0. -1.
        -11    1    3    3    0    0  0.13777962235E+02 -0.20374151130E+02  0.13087615216E+01  0.24630288967E+02  0.51100000000E-03 0.  1.
        -12    1    3    3    0    0  0.11904027282E+02 -0.10836831887E+02  0.50288500492E+01  0.16865115585E+02  0.00000000000E+00 0.  1.
</event>
<event>
 7    1  0.2031146E-008  0.4614232E+02  0.7816164E-02  0.1320468E+00
        -11   -1    0    0    0    0  0.00000000000E+00  0.00000000000E+00  0.45593999997E+02  0.45594000000E+02  0.51100000000E-03 0.  1.
         11   -1    0    0    0    0 -0.00000000000E+00 -0.00000000000E+00 -0.45593999997E+02  0.45594000000E+02  0.51100000000E-03 0. -1.
    9900012    2    1    2    0    0 -0.39058422595E+02  0.74904401054E+01 -0.21152924897E+02  0.46142319849E+02  0.10000019037E+02 0.  0.
        -12    1    1    2    0    0  0.39058422595E+02 -0.74904401054E+01  0.21152924897E+02  0.45045680151E+02  0.00000000000E+00 0.  1.
         11    1    3    3    0    0 -0.15828665957E+02  0.35147071101E+01 -0.38145075640E+01  0.16656839444E+02  0.51100000000E-03 0. -1.
        -11    1    3    3    0    0 -0.17836889029E+02  0.14954972744E+01 -0.12584699153E+02  0.21880716975E+02  0.51100000000E-03 0.  1.
        -12    1    3    3    0    0 -0.53928676095E+01  0.24802357209E+01 -0.47537181801E+01  0.76047634296E+01  0.00000000000E+00 0.  1.
</event>
<event>
 7    1  0.2031146E-008  0.4614232E+02  0.7816164E-02  0.1320468E+00
        -11   -1    0    0    0    0  0.00000000000E+00  0.00000000000E+00  0.45593999997E+02  0.45594000000E+02  0.51100000000E-03 0.  1.
         11   -1    0    0    0    0 -0.00000000000E+00 -0.00000000000E+00 -0.45593999997E+02  0.45594000000E+02  0.51100000000E-03 0. -1.
    9900012    2    1    2    0    0  0.12478316673E+02 -0.31657214104E+02 -0.29516535457E+02  0.46142318107E+02  0.10000003152E+02 0.  0.
        -12    1    1    2    0    0 -0.12478316673E+02  0.31657214104E+02  0.29516535457E+02  0.45045681893E+02  0.00000000000E+00 0.  1.
         11    1    3    3    0    0  0.62652571297E+01 -0.16980540286E+02 -0.12341915685E+02  0.21906964151E+02  0.51100000000E-03 0. -1.
        -11    1    3    3    0    0  0.30292296820E+01 -0.17684799176E+01 -0.55997975003E+01  0.66076838597E+01  0.51100000000E-03 0.  1.
        -12    1    3    3    0    0  0.31838298609E+01 -0.12908193901E+02 -0.11574822272E+02  0.17627670096E+02  0.00000000000E+00 0.  1.
</event>
<event>
 7    1  0.2031146E-008  0.4614232E+02  0.7816164E-02  0.1320468E+00
        -11   -1    0    0    0    0  0.00000000000E+00  0.00000000000E+00  0.45593999997E+02  0.45594000000E+02  0.51100000000E-03 0. -1.
         11   -1    0    0    0    0 -0.00000000000E+00 -0.00000000000E+00 -0.45593999997E+02  0.45594000000E+02  0.51100000000E-03 0.  1.
    9900012    2    1    2    0    0 -0.20343380865E+02  0.19479265097E+01  0.40143068957E+02  0.46142317099E+02  0.99999939606E+01 0.  0.
        -12    1    1    2    0    0  0.20343380865E+02 -0.19479265097E+01 -0.40143068957E+02  0.45045682901E+02  0.00000000000E+00 0.  1.
         11    1    3    3    0    0 -0.11492569952E+02  0.51145096259E+01  0.23318338387E+02  0.26494948163E+02  0.51100000000E-03 0. -1.
        -11    1    3    3    0    0 -0.59111763242E+01 -0.13084150727E+01  0.71631278803E+01  0.93789315399E+01  0.51100000000E-03 0.  1.
        -12    1    3    3    0    0 -0.29396345891E+01 -0.18581680435E+01  0.96616026905E+01  0.10268437395E+02  0.00000000000E+00 0.  1.
</event>
<event>
 7    1  0.2031146E-008  0.4614232E+02  0.7816164E-02  0.1320468E+00
        -11   -1    0    0    0    0  0.00000000000E+00  0.00000000000E+00  0.45593999997E+02  0.45594000000E+02  0.51100000000E-03 0.  1.
         11   -1    0    0    0    0 -0.00000000000E+00 -0.00000000000E+00 -0.45593999997E+02  0.45594000000E+02  0.51100000000E-03 0. -1.
    9900012    2    1    2    0    0 -0.39888779738E+02 -0.14670258773E+02 -0.14925889242E+02  0.46142318618E+02  0.10000007815E+02 0.  0.
        -12    1    1    2    0    0  0.39888779738E+02  0.14670258773E+02  0.14925889242E+02  0.45045681382E+02  0.00000000000E+00 0.  1.
         11    1    3    3    0    0 -0.29571320804E+02 -0.13237962739E+02 -0.95107486897E+01  0.33766270337E+02  0.51100000000E-03 0. -1.
        -11    1    3    3    0    0 -0.53657587296E+01 -0.26942693923E+01 -0.32372731614E+01  0.68213189403E+01  0.51100000000E-03 0.  1.
         12    1    3    3    0    0 -0.49517002044E+01  0.12619733587E+01 -0.21778673914E+01  0.55547293405E+01  0.00000000000E+00 0. -1.
</event>
<event>
 7    1  0.2031146E-008  0.4614231E+02  0.7816164E-02  0.1320468E+00
        -11   -1    0    0    0    0  0.00000000000E+00  0.00000000000E+00  0.45593999997E+02  0.45594000000E+02  0.51100000000E-03 0.  1.
         11   -1    0    0    0    0 -0.00000000000E+00 -0.00000000000E+00 -0.45593999997E+02  0.45594000000E+02  0.51100000000E-03 0. -1.
    9900012    2    1    2    0    0  0.11692442446E+02  0.36985623862E+02 -0.22901189311E+02  0.46142311475E+02  0.99999426758E+01 0.  0.
        -12    1    1    2    0    0 -0.11692442446E+02 -0.36985623862E+02  0.22901189311E+02  0.45045688525E+02  0.00000000000E+00 0.  1.
         11    1    3    3    0    0  0.39824683960E+01  0.51243371960E+01 -0.30929221621E+01  0.71892318078E+01  0.51100000000E-03 0. -1.
        -11    1    3    3    0    0  0.59482242535E+01  0.12262551562E+02 -0.58723858221E+01  0.14840365834E+02  0.51100000000E-03 0.  1.
        -12    1    3    3    0    0  0.17617497969E+01  0.19598735104E+02 -0.13935881327E+02  0.24112713833E+02  0.00000000000E+00 0.  1.
</event>
<event>
 7    1  0.2031146E-008  0.4614232E+02  0.7816164E-02  0.1320468E+00
        -11   -1    0    0    0    0  0.00000000000E+00  0.00000000000E+00  0.45593999997E+02  0.45594000000E+02  0.51100000000E-03 0. -1.
         11   -1    0    0    0    0 -0.00000000000E+00 -0.00000000000E+00 -0.45593999997E+02  0.45594000000E+02  0.51100000000E-03 0.  1.
    9900012    2    1    2    0    0  0.41734616389E+02  0.16915258897E+02  0.10995236040E+01  0.46142321618E+02  0.10000035173E+02 0.  0.
        -12    1    1    2    0    0 -0.41734616389E+02 -0.16915258897E+02 -0.10995236040E+01  0.45045678382E+02  0.00000000000E+00 0.  1.
         11    1    3    3    0    0  0.31915039255E+02  0.11628968593E+02  0.24679652264E+01  0.34057209131E+02  0.51100000000E-03 0. -1.
        -11    1    3    3    0    0  0.86519634922E+01  0.27580652098E+01 -0.25083979580E+00  0.90843996409E+01  0.51100000000E-03 0.  1.
        -12    1    3    3    0    0  0.11676136419E+01  0.25282250938E+01 -0.11176018266E+01  0.30007128460E+01  0.00000000000E+00 0.  1.
</event>
<event>
 7    1  0.2031146E-008  0.4614232E+02  0.7816164E-02  0.1320468E+00
        -11   -1    0    0    0    0  0.00000000000E+00  0.00000000000E+00  0.45593999997E+02  0.45594000000E+02  0.51100000000E-03 0.  1.
         11   -1    0    0    0    0 -0.00000000000E+00 -0.00000000000E+00 -0.45593999997E+02  0.45594000000E+02  0.51100000000E-03 0. -1.
    9900012    2    1    2    0    0  0.35707602672E+01  0.60169110100E+01 -0.44498989224E+02  0.46142316644E+02  0.99999898155E+01 0.  0.
        -12    1    1    2    0    0 -0.35707602672E+01 -0.60169110100E+01  0.44498989224E+02  0.45045683356E+02  0.00000000000E+00 0.  1.
         11    1    3    3    0    0  0.52861697591E+01  0.22844383067E+01 -0.22595064537E+02  0.23317358144E+02  0.51100000000E-03 0. -1.
        -11    1    3    3    0    0 -0.19219557199E+01 -0.84948030649E-01 -0.12905382993E+02  0.13047989900E+02  0.51100000000E-03 0.  1.
         12    1    3    3    0    0  0.20654622803E+00  0.38174207339E+01 -0.89985416938E+01  0.97769686008E+01  0.00000000000E+00 0. -1.
</event>
<event>
 7    1  0.2031146E-008  0.4614232E+02  0.7816164E-02  0.1320468E+00
        -11   -1    0    0    0    0  0.00000000000E+00  0.00000000000E+00  0.45593999997E+02  0.45594000000E+02  0.51100000000E-03 0. -1.
         11   -1    0    0    0    0 -0.00000000000E+00 -0.00000000000E+00 -0.45593999997E+02  0.45594000000E+02  0.51100000000E-03 0.  1.
    9900012    2    1    2    0    0  0.35446233922E+01 -0.41527586523E+02 -0.17088261172E+02  0.46142317995E+02  0.10000002133E+02 0.  0.
        -12    1    1    2    0    0 -0.35446233922E+01  0.41527586523E+02  0.17088261172E+02  0.45045682005E+02  0.00000000000E+00 0.  1.
         11    1    3    3    0    0  0.27220679096E+01 -0.37512665162E+01 -0.42053470952E+00  0.46538697750E+01  0.51100000000E-03 0. -1.
        -11    1    3    3    0    0  0.56265041323E+00 -0.30923662258E+01 -0.25219943912E+01  0.40298585996E+01  0.51100000000E-03 0.  1.
         12    1    3    3    0    0  0.25990506944E+00 -0.34683953781E+02 -0.14145732072E+02  0.37458589620E+02  0.00000000000E+00 0. -1.
</event>
<event>
 7    1  0.2031146E-008  0.4614232E+02  0.7816164E-02  0.1320468E+00
        -11   -1    0    0    0    0  0.00000000000E+00  0.00000000000E+00  0.45593999997E+02  0.45594000000E+02  0.51100000000E-03 0.  1.
         11   -1    0    0    0    0 -0.00000000000E+00 -0.00000000000E+00 -0.45593999997E+02  0.45594000000E+02  0.51100000000E-03 0. -1.
    9900012    2    1    2    0    0 -0.29872547594E+02  0.21419435432E+02 -0.26037516206E+02  0.46142316919E+02  0.99999923219E+01 0.  0.
        -12    1    1    2    0    0  0.29872547594E+02 -0.21419435432E+02  0.26037516206E+02  0.45045683081E+02  0.00000000000E+00 0.  1.
         11    1    3    3    0    0 -0.10997561905E+02  0.38723371269E+01 -0.96698805651E+01  0.15147539506E+02  0.51100000000E-03 0.  1.
        -11    1    3    3    0    0 -0.10840072646E+02  0.11793894644E+02 -0.12741482742E+02  0.20468231692E+02  0.51100000000E-03 0. -1.
        -12    1    3    3    0    0 -0.80349130433E+01  0.57532036613E+01 -0.36261528993E+01  0.10526545722E+02  0.00000000000E+00 0.  1.
</event>
<event>
 7    1  0.2031146E-008  0.4614232E+02  0.7816164E-02  0.1320468E+00
        -11   -1    0    0    0    0  0.00000000000E+00  0.00000000000E+00  0.45593999997E+02  0.45594000000E+02  0.51100000000E-03 0.  1.
         11   -1    0    0    0    0 -0.00000000000E+00 -0.00000000000E+00 -0.45593999997E+02  0.45594000000E+02  0.51100000000E-03 0. -1.
    9900012    2    1    2    0    0 -0.10375797701E+02 -0.35700283823E+02 -0.25435133851E+02  0.46142317887E+02  0.10000001150E+02 0.  0.
        -12    1    1    2    0    0  0.10375797701E+02  0.35700283823E+02  0.25435133851E+02  0.45045682113E+02  0.00000000000E+00 0.  1.
         11    1    3    3    0    0 -0.87698391181E+01 -0.17567358360E+02 -0.15710590268E+02  0.25146467043E+02  0.51100000000E-03 0. -1.
        -11    1    3    3    0    0 -0.18720785336E+01 -0.35268655868E+01 -0.18593496594E+01  0.44046157971E+01  0.51100000000E-03 0.  1.
         12    1    3    3    0    0  0.26611995029E+00 -0.14606059876E+02 -0.78651939233E+01  0.16591235047E+02  0.00000000000E+00 0. -1.
</event>
<event>
 7    1  0.2031146E-008  0.4614232E+02  0.7816164E-02  0.1320468E+00
        -11   -1    0    0    0    0  0.00000000000E+00  0.00000000000E+00  0.45593999997E+02  0.45594000000E+02  0.51100000000E-03 0.  1.
         11   -1    0    0    0    0 -0.00000000000E+00 -0.00000000000E+00 -0.45593999997E+02  0.45594000000E+02  0.51100000000E-03 0. -1.
    9900012    2    1    2    0    0 -0.48326486851E+01 -0.44649350374E+02 -0.34920726685E+01  0.46142317036E+02  0.99999933924E+01 0.  0.
        -12    1    1    2    0    0  0.48326486851E+01  0.44649350374E+02  0.34920726685E+01  0.45045682964E+02  0.00000000000E+00 0.  1.
         11    1    3    3    0    0 -0.15818800428E+01 -0.11207576203E+01 -0.12949069758E+01  0.23313572121E+01  0.51100000000E-03 0. -1.
        -11    1    3    3    0    0 -0.15490012972E+01 -0.18008197100E+02  0.57685022819E+00  0.18083896822E+02  0.51100000000E-03 0.  1.
         12    1    3    3    0    0 -0.17017673451E+01 -0.25520395654E+02 -0.27740159209E+01  0.25727063003E+02  0.00000000000E+00 0. -1.
</event>
<event>
 7    1  0.2031146E-008  0.4614233E+02  0.7816164E-02  0.1320468E+00
        -11   -1    0    0    0    0  0.00000000000E+00  0.00000000000E+00  0.45593999997E+02  0.45594000000E+02  0.51100000000E-03 0.  1.
         11   -1    0    0    0    0 -0.00000000000E+00 -0.00000000000E+00 -0.45593999997E+02  0.45594000000E+02  0.51100000000E-03 0. -1.
    9900012    2    1    2    0    0 -0.17151349002E+02 -0.33800691144E+02 -0.24340443539E+02  0.46142326666E+02  0.10000081200E+02 0.  0.
        -12    1    1    2    0    0  0.17151349002E+02  0.33800691144E+02  0.24340443539E+02  0.45045673334E+02  0.00000000000E+00 0.  1.
         11    1    3    3    0    0 -0.36156256304E+01 -0.56129918470E+01 -0.28606613097E+01  0.72637324815E+01  0.51100000000E-03 0. -1.
        -11    1    3    3    0    0 -0.30000167683E+01 -0.14033936133E+02 -0.65932036444E+01  0.15793093381E+02  0.51100000000E-03 0.  1.
        -12    1    3    3    0    0 -0.10535706604E+02 -0.14153763165E+02 -0.14886578585E+02  0.23085500803E+02  0.00000000000E+00 0.  1.
</event>
<event>
 7    1  0.2031146E-008  0.4614232E+02  0.7816164E-02  0.1320468E+00
        -11   -1    0    0    0    0  0.00000000000E+00  0.00000000000E+00  0.45593999997E+02  0.45594000000E+02  0.51100000000E-03 0.  1.
         11   -1    0    0    0    0 -0.00000000000E+00 -0.00000000000E+00 -0.45593999997E+02  0.45594000000E+02  0.51100000000E-03 0. -1.
    9900012    2    1    2    0    0 -0.35357732304E+02 -0.27008849114E+02 -0.70332314909E+01  0.46142317528E+02  0.99999978769E+01 0.  0.
        -12    1    1    2    0    0  0.35357732304E+02  0.27008849114E+02  0.70332314909E+01  0.45045682472E+02  0.00000000000E+00 0.  1.
         11    1    3    3    0    0 -0.10753981153E+02 -0.13137998373E+02 -0.40836623498E+01  0.17462285370E+02  0.51100000000E-03 0. -1.
        -11    1    3    3    0    0 -0.86252549215E+01 -0.49278102177E+01  0.88110634471E+00  0.99726969599E+01  0.51100000000E-03 0.  1.
         12    1    3    3    0    0 -0.15978496229E+02 -0.89430405234E+01 -0.38306754858E+01  0.18707335199E+02  0.00000000000E+00 0. -1.
</event>
<event>
 7    1  0.2031146E-008  0.4614232E+02  0.7816164E-02  0.1320468E+00
        -11   -1    0    0    0    0  0.00000000000E+00  0.00000000000E+00  0.45593999997E+02  0.45594000000E+02  0.51100000000E-03 0.  1.
         11   -1    0    0    0    0 -0.00000000000E+00 -0.00000000000E+00 -0.45593999997E+02  0.45594000000E+02  0.51100000000E-03 0. -1.
    9900012    2    1    2    0    0  0.35178574570E+02 -0.55219730518E+01 -0.27587844110E+02  0.46142318322E+02  0.10000005118E+02 0.  0.
        -12    1    1    2    0    0 -0.35178574570E+02  0.55219730518E+01  0.27587844110E+02  0.45045681678E+02  0.00000000000E+00 0.  1.
         11    1    3    3    0    0  0.13597609162E+02 -0.52804211194E+01 -0.10384950937E+02  0.17906005371E+02  0.51100000000E-03 0. -1.
        -11    1    3    3    0    0  0.19991744981E+02 -0.50972946286E+00 -0.13308994498E+02  0.24022052917E+02  0.51100000000E-03 0.  1.
        -12    1    3    3    0    0  0.15892204274E+01  0.26817753040E+00 -0.38938986748E+01  0.42142600352E+01  0.00000000000E+00 0.  1.
</event>
<event>
 7    1  0.2031146E-008  0.4614232E+02  0.7816164E-02  0.1320468E+00
        -11   -1    0    0    0    0  0.00000000000E+00  0.00000000000E+00  0.45593999997E+02  0.45594000000E+02  0.51100000000E-03 0.  1.
         11   -1    0    0    0    0 -0.00000000000E+00 -0.00000000000E+00 -0.45593999997E+02  0.45594000000E+02  0.51100000000E-03 0. -1.
    9900012    2    1    2    0    0 -0.39763917271E+02 -0.11652024510E+00 -0.21164375732E+02  0.46142317701E+02  0.99999994478E+01 0.  0.
        -12    1    1    2    0    0  0.39763917271E+02  0.11652024510E+00  0.21164375732E+02  0.45045682299E+02  0.00000000000E+00 0.  1.
         11    1    3    3    0    0 -0.13808431812E+01 -0.15865707004E+01 -0.99628051701E+00  0.23273395988E+01  0.51100000000E-03 0. -1.
        -11    1    3    3    0    0 -0.68027981103E+01 -0.89355243745E+00 -0.13996120586E+01  0.70025289905E+01  0.51100000000E-03 0.  1.
         12    1    3    3    0    0 -0.31580275980E+02  0.23636028928E+01 -0.18768483156E+02  0.36812449111E+02  0.00000000000E+00 0. -1.
</event>
<event>
 7    1  0.2031146E-008  0.4614232E+02  0.7816164E-02  0.1320468E+00
        -11   -1    0    0    0    0  0.00000000000E+00  0.00000000000E+00  0.45593999997E+02  0.45594000000E+02  0.51100000000E-03 0.  1.
         11   -1    0    0    0    0 -0.00000000000E+00 -0.00000000000E+00 -0.45593999997E+02  0.45594000000E+02  0.51100000000E-03 0. -1.
    9900012    2    1    2    0    0  0.41415214422E+02 -0.17711735482E+02  0.43344969777E+00  0.46142318319E+02  0.10000005090E+02 0.  0.
        -12    1    1    2    0    0 -0.41415214422E+02  0.17711735482E+02 -0.43344969777E+00  0.45045681681E+02  0.00000000000E+00 0.  1.
         11    1    3    3    0    0  0.79437818448E+01 -0.36438592799E+01 -0.31755885827E+01  0.92986957987E+01  0.51100000000E-03 0. -1.
        -11    1    3    3    0    0  0.96635767558E+00 -0.14308230907E+01 -0.29157595057E+00  0.17510336005E+01  0.51100000000E-03 0.  1.
        -12    1    3    3    0    0  0.32505074902E+02 -0.12637053112E+02  0.39006142310E+01  0.35092588920E+02  0.00000000000E+00 0.  1.
</event>
<event>
 7    1  0.2031146E-008  0.4614232E+02  0.7816164E-02  0.1320468E+00
        -11   -1    0    0    0    0  0.00000000000E+00  0.00000000000E+00  0.45593999997E+02  0.45594000000E+02  0.51100000000E-03 0.  1.
         11   -1    0    0    0    0 -0.00000000000E+00 -0.00000000000E+00 -0.45593999997E+02  0.45594000000E+02  0.51100000000E-03 0. -1.
    9900012    2    1    2    0    0  0.30291071359E+02 -0.86385099424E+01 -0.32201559731E+02  0.46142319772E+02  0.10000018336E+02 0.  0.
        -12    1    1    2    0    0 -0.30291071359E+02  0.86385099424E+01  0.32201559731E+02  0.45045680228E+02  0.00000000000E+00 0.  1.
         11    1    3    3    0    0  0.21332844989E+02 -0.82450525749E+01 -0.19451744471E+02  0.30024015896E+02  0.51100000000E-03 0. -1.
        -11    1    3    3    0    0  0.36029072701E+01 -0.13112961189E+01 -0.26857610348E+01  0.46812125465E+01  0.51100000000E-03 0.  1.
        -12    1    3    3    0    0  0.53553191004E+01  0.91783875138E+00 -0.10064054225E+02  0.11437091330E+02  0.00000000000E+00 0.  1.
</event>
<event>
 7    1  0.2031146E-008  0.4614232E+02  0.7816164E-02  0.1320468E+00
        -11   -1    0    0    0    0  0.00000000000E+00  0.00000000000E+00  0.45593999997E+02  0.45594000000E+02  0.51100000000E-03 0.  1.
         11   -1    0    0    0    0 -0.00000000000E+00 -0.00000000000E+00 -0.45593999997E+02  0.45594000000E+02  0.51100000000E-03 0. -1.
    9900012    2    1    2    0    0  0.34825137877E+02 -0.10364667838E+02 -0.26625118591E+02  0.46142317549E+02  0.99999980623E+01 0.  0.
        -12    1    1    2    0    0 -0.34825137877E+02  0.10364667838E+02  0.26625118591E+02  0.45045682451E+02  0.00000000000E+00 0.  1.
         11    1    3    3    0    0  0.10055925530E+02 -0.56627228547E+01 -0.51203801751E+01  0.12625623224E+02  0.51100000000E-03 0. -1.
        -11    1    3    3    0    0  0.34049890857E+01  0.25565869105E+00 -0.11731466515E+01  0.36104827055E+01  0.51100000000E-03 0.  1.
         12    1    3    3    0    0  0.21364223262E+02 -0.49576036747E+01 -0.20331591764E+02  0.29906211620E+02  0.00000000000E+00 0. -1.
</event>
<event>
 7    1  0.2031146E-008  0.4614231E+02  0.7816164E-02  0.1320468E+00
        -11   -1    0    0    0    0  0.00000000000E+00  0.00000000000E+00  0.45593999997E+02  0.45594000000E+02  0.51100000000E-03 0.  1.
         11   -1    0    0    0    0 -0.00000000000E+00 -0.00000000000E+00 -0.45593999997E+02  0.45594000000E+02  0.51100000000E-03 0. -1.
    9900012    2    1    2    0    0 -0.81542859339E+01 -0.43914729131E+02 -0.58410631696E+01  0.46142313939E+02  0.99999651470E+01 0.  0.
        -12    1    1    2    0    0  0.81542859339E+01  0.43914729131E+02  0.58410631696E+01  0.45045686061E+02  0.00000000000E+00 0.  1.
         11    1    3    3    0    0 -0.31641099477E+01 -0.35025361172E+02 -0.36212770015E+01  0.35353941285E+02  0.51100000000E-03 0. -1.
        -11    1    3    3    0    0 -0.80711760528E+00 -0.38050386058E+01 -0.14850754781E+01  0.41635570198E+01  0.51100000000E-03 0.  1.
        -12    1    3    3    0    0 -0.41830583810E+01 -0.50843293536E+01 -0.73471069002E+00  0.66248156346E+01  0.00000000000E+00 0.  1.
</event>
<event>
 7    1  0.2031146E-008  0.4614232E+02  0.7816164E-02  0.1320468E+00
        -11   -1    0    0    0    0  0.00000000000E+00  0.00000000000E+00  0.45593999997E+02  0.45594000000E+02  0.51100000000E-03 0.  1.
         11   -1    0    0    0    0 -0.00000000000E+00 -0.00000000000E+00 -0.45593999997E+02  0.45594000000E+02  0.51100000000E-03 0. -1.
    9900012    2    1    2    0    0 -0.72749814671E+01  0.37263194159E+02 -0.24241336865E+02  0.46142318661E+02  0.10000008204E+02 0.  0.
        -12    1    1    2    0    0  0.72749814671E+01 -0.37263194159E+02  0.24241336865E+02  0.45045681339E+02  0.00000000000E+00 0.  1.
         11    1    3    3    0    0 -0.30544115762E+01  0.17505459968E+02 -0.15391100138E+02  0.23508647823E+02  0.51100000000E-03 0. -1.
        -11    1    3    3    0    0 -0.24340732573E+01  0.16361263864E+02 -0.52055294173E+01  0.17341084297E+02  0.51100000000E-03 0.  1.
        -12    1    3    3    0    0 -0.17864966337E+01  0.33964703282E+01 -0.36447073100E+01  0.52925865404E+01  0.00000000000E+00 0.  1.
</event>
<event>
 7    1  0.2031146E-008  0.4614232E+02  0.7816164E-02  0.1320468E+00
        -11   -1    0    0    0    0  0.00000000000E+00  0.00000000000E+00  0.45593999997E+02  0.45594000000E+02  0.51100000000E-03 0.  1.
         11   -1    0    0    0    0 -0.00000000000E+00 -0.00000000000E+00 -0.45593999997E+02  0.45594000000E+02  0.51100000000E-03 0. -1.
    9900012    2    1    2    0    0  0.31573455686E+02 -0.32013633486E+02 -0.27124980315E+01  0.46142317871E+02  0.10000000999E+02 0.  0.
        -12    1    1    2    0    0 -0.31573455686E+02  0.32013633486E+02  0.27124980315E+01  0.45045682129E+02  0.00000000000E+00 0.  1.
         11    1    3    3    0    0  0.53810665587E+01 -0.41230072368E+01 -0.22271040221E+01  0.71354788606E+01  0.51100000000E-03 0. -1.
        -11    1    3    3    0    0  0.17550883287E+02 -0.14287376000E+02  0.19202274139E+01  0.22712329047E+02  0.51100000000E-03 0.  1.
        -12    1    3    3    0    0  0.86415058397E+01 -0.13603250249E+02 -0.24056214233E+01  0.16294509963E+02  0.00000000000E+00 0.  1.
</event>
<event>
 7    1  0.2031146E-008  0.4614232E+02  0.7816164E-02  0.1320468E+00
        -11   -1    0    0    0    0  0.00000000000E+00  0.00000000000E+00  0.45593999997E+02  0.45594000000E+02  0.51100000000E-03 0. -1.
         11   -1    0    0    0    0 -0.00000000000E+00 -0.00000000000E+00 -0.45593999997E+02  0.45594000000E+02  0.51100000000E-03 0.  1.
    9900012    2    1    2    0    0  0.13721034920E+02  0.18403314218E+02  0.38757769033E+02  0.46142318366E+02  0.10000005516E+02 0.  0.
        -12    1    1    2    0    0 -0.13721034920E+02 -0.18403314218E+02 -0.38757769033E+02  0.45045681634E+02  0.00000000000E+00 0.  1.
         11    1    3    3    0    0  0.68553911561E+01  0.32951881150E+01  0.11347460302E+02  0.13660875088E+02  0.51100000000E-03 0. -1.
        -11    1    3    3    0    0 -0.81015867960E+00  0.81130692885E+00  0.12424710050E+01  0.16906538611E+01  0.51100000000E-03 0.  1.
         12    1    3    3    0    0  0.76758024432E+01  0.14296819174E+02  0.26167837726E+02  0.30790789416E+02  0.00000000000E+00 0. -1.
</event>
<event>
 7    1  0.2031146E-008  0.4614232E+02  0.7816164E-02  0.1320468E+00
        -11   -1    0    0    0    0  0.00000000000E+00  0.00000000000E+00  0.45593999997E+02  0.45594000000E+02  0.51100000000E-03 0. -1.
         11   -1    0    0    0    0 -0.00000000000E+00 -0.00000000000E+00 -0.45593999997E+02  0.45594000000E+02  0.51100000000E-03 0.  1.
    9900012    2    1    2    0    0 -0.26264706622E+02 -0.35982591522E+02  0.66732139996E+01  0.46142317724E+02  0.99999996657E+01 0.  0.
        -12    1    1    2    0    0  0.26264706622E+02  0.35982591522E+02 -0.66732139996E+01  0.45045682276E+02  0.00000000000E+00 0.  1.
         11    1    3    3    0    0 -0.60409855456E+01 -0.13494219769E+02  0.39373646674E+01  0.15300010272E+02  0.51100000000E-03 0. -1.
        -11    1    3    3    0    0 -0.80779633314E+01 -0.12086916405E+02 -0.41596584276E+00  0.14543729494E+02  0.51100000000E-03 0.  1.
         12    1    3    3    0    0 -0.12145757745E+02 -0.10401455348E+02  0.31518151750E+01  0.16298577958E+02  0.00000000000E+00 0. -1.
</event>
<event>
 7    1  0.2031146E-008  0.4614232E+02  0.7816164E-02  0.1320468E+00
        -11   -1    0    0    0    0  0.00000000000E+00  0.00000000000E+00  0.45593999997E+02  0.45594000000E+02  0.51100000000E-03 0. -1.
         11   -1    0    0    0    0 -0.00000000000E+00 -0.00000000000E+00 -0.45593999997E+02  0.45594000000E+02  0.51100000000E-03 0.  1.
    9900012    2    1    2    0    0 -0.18927144227E+02  0.32990873683E+02  0.24134598611E+02  0.46142318907E+02  0.10000010452E+02 0.  0.
        -12    1    1    2    0    0  0.18927144227E+02 -0.32990873683E+02 -0.24134598611E+02  0.45045681093E+02  0.00000000000E+00 0.  1.
         11    1    3    3    0    0 -0.83175601326E+01  0.14104981779E+02  0.78491214491E+01  0.18158772682E+02  0.51100000000E-03 0. -1.
        -11    1    3    3    0    0 -0.44029553398E+00 -0.12383051824E+00 -0.48745517074E+00  0.66843620420E+00  0.51100000000E-03 0.  1.
        -12    1    3    3    0    0 -0.10169288561E+02  0.19009722422E+02  0.16772932333E+02  0.27315110021E+02  0.00000000000E+00 0.  1.
</event>
<event>
 7    1  0.2031146E-008  0.4614232E+02  0.7816164E-02  0.1320468E+00
        -11   -1    0    0    0    0  0.00000000000E+00  0.00000000000E+00  0.45593999997E+02  0.45594000000E+02  0.51100000000E-03 0.  1.
         11   -1    0    0    0    0 -0.00000000000E+00 -0.00000000000E+00 -0.45593999997E+02  0.45594000000E+02  0.51100000000E-03 0. -1.
    9900012    2    1    2    0    0 -0.63869685827E+01 -0.33807399601E+02 -0.29075414719E+02  0.46142319003E+02  0.10000011324E+02 0.  0.
        -12    1    1    2    0    0  0.63869685827E+01  0.33807399601E+02  0.29075414719E+02  0.45045680997E+02  0.00000000000E+00 0.  1.
         11    1    3    3    0    0 -0.69315062116E+01 -0.26094814181E+02 -0.18437826024E+02  0.32694625465E+02  0.51100000000E-03 0. -1.
        -11    1    3    3    0    0  0.41330734288E-01 -0.73697414355E+01 -0.86241361390E+01  0.11344184478E+02  0.51100000000E-03 0.  1.
         12    1    3    3    0    0  0.50320689464E+00 -0.34284398394E+00 -0.20134525551E+01  0.21035090605E+01  0.00000000000E+00 0. -1.
</event>
<event>
 7    1  0.2031146E-008  0.4614232E+02  0.7816164E-02  0.1320468E+00
        -11   -1    0    0    0    0  0.00000000000E+00  0.00000000000E+00  0.45593999997E+02  0.45594000000E+02  0.51100000000E-03 0.  1.
         11   -1    0    0    0    0 -0.00000000000E+00 -0.00000000000E+00 -0.45593999997E+02  0.45594000000E+02  0.51100000000E-03 0. -1.
    9900012    2    1    2    0    0  0.25518445710E+02 -0.10702676865E+02 -0.35543989469E+02  0.46142317067E+02  0.99999936694E+01 0.  0.
        -12    1    1    2    0    0 -0.25518445710E+02  0.10702676865E+02  0.35543989469E+02  0.45045682933E+02  0.00000000000E+00 0.  1.
         11    1    3    3    0    0  0.42703173831E+00 -0.22166092157E+01 -0.27785904605E+01  0.35799829230E+01  0.51100000000E-03 0. -1.
        -11    1    3    3    0    0  0.91433923496E+01 -0.52575619436E+01 -0.16289439805E+02  0.19405912260E+02  0.51100000000E-03 0.  1.
         12    1    3    3    0    0  0.15948021622E+02 -0.32285057059E+01 -0.16475959204E+02  0.23156421883E+02  0.00000000000E+00 0. -1.
</event>
<event>
 7    1  0.2031146E-008  0.4614232E+02  0.7816164E-02  0.1320468E+00
        -11   -1    0    0    0    0  0.00000000000E+00  0.00000000000E+00  0.45593999997E+02  0.45594000000E+02  0.51100000000E-03 0.  1.
         11   -1    0    0    0    0 -0.00000000000E+00 -0.00000000000E+00 -0.45593999997E+02  0.45594000000E+02  0.51100000000E-03 0. -1.
    9900012    2    1    2    0    0 -0.19783117522E+02  0.11243666661E+02 -0.38875719953E+02  0.46142318956E+02  0.10000010894E+02 0.  0.
        -12    1    1    2    0    0  0.19783117522E+02 -0.11243666661E+02  0.38875719953E+02  0.45045681044E+02  0.00000000000E+00 0.  1.
         11    1    3    3    0    0 -0.82084607367E+01  0.67934378438E+01 -0.18884258341E+02  0.21682823588E+02  0.51100000000E-03 0. -1.
        -11    1    3    3    0    0 -0.79868310071E+01  0.47631239722E+01 -0.18197684526E+02  0.20436059843E+02  0.51100000000E-03 0.  1.
        -12    1    3    3    0    0 -0.35878257779E+01 -0.31289515492E+00 -0.17937770860E+01  0.40234355251E+01  0.00000000000E+00 0.  1.
</event>
<event>
 7    1  0.2031146E-008  0.4614232E+02  0.7816164E-02  0.1320468E+00
        -11   -1    0    0    0    0  0.00000000000E+00  0.00000000000E+00  0.45593999997E+02  0.45594000000E+02  0.51100000000E-03 0. -1.
         11   -1    0    0    0    0 -0.00000000000E+00 -0.00000000000E+00 -0.45593999997E+02  0.45594000000E+02  0.51100000000E-03 0.  1.
    9900012    2    1    2    0    0 -0.17698431918E+02  0.40803926819E+02  0.71357316848E+01  0.46142316490E+02  0.99999884054E+01 0.  0.
        -12    1    1    2    0    0  0.17698431918E+02 -0.40803926819E+02 -0.71357316848E+01  0.45045683510E+02  0.00000000000E+00 0.  1.
         11    1    3    3    0    0 -0.11442994771E+02  0.29827689788E+02  0.62947394185E+01  0.32561587063E+02  0.51100000000E-03 0. -1.
        -11    1    3    3    0    0 -0.22919675490E-01  0.20818836729E+01 -0.13766424142E+01  0.24959786732E+01  0.51100000000E-03 0.  1.
        -12    1    3    3    0    0 -0.62325174721E+01  0.88943533581E+01  0.22176346805E+01  0.11084750754E+02  0.00000000000E+00 0.  1.
</event>
<event>
 7    1  0.2031146E-008  0.4614232E+02  0.7816164E-02  0.1320468E+00
        -11   -1    0    0    0    0  0.00000000000E+00  0.00000000000E+00  0.45593999997E+02  0.45594000000E+02  0.51100000000E-03 0.  1.
         11   -1    0    0    0    0 -0.00000000000E+00 -0.00000000000E+00 -0.45593999997E+02  0.45594000000E+02  0.51100000000E-03 0. -1.
    9900012    2    1    2    0    0  0.40202483585E+02  0.79686190750E+01 -0.18691572411E+02  0.46142318125E+02  0.10000003322E+02 0.  0.
        -12    1    1    2    0    0 -0.40202483585E+02 -0.79686190750E+01  0.18691572411E+02  0.45045681875E+02  0.00000000000E+00 0.  1.
         11    1    3    3    0    0  0.57661388288E+01  0.13956019766E+01  0.46291282348E+00  0.59506596621E+01  0.51100000000E-03 0. -1.
        -11    1    3    3    0    0  0.59880699343E+01  0.88912007837E-01 -0.47947264815E+01  0.76716549177E+01  0.51100000000E-03 0.  1.
         12    1    3    3    0    0  0.28448274822E+02  0.64841050905E+01 -0.14359758753E+02  0.32520003546E+02  0.00000000000E+00 0. -1.
</event>
<event>
 7    1  0.2031146E-008  0.4614232E+02  0.7816164E-02  0.1320468E+00
        -11   -1    0    0    0    0  0.00000000000E+00  0.00000000000E+00  0.45593999997E+02  0.45594000000E+02  0.51100000000E-03 0.  1.
         11   -1    0    0    0    0 -0.00000000000E+00 -0.00000000000E+00 -0.45593999997E+02  0.45594000000E+02  0.51100000000E-03 0. -1.
    9900012    2    1    2    0    0 -0.66187123315E+01 -0.42965522025E+02 -0.11801273169E+02  0.46142317807E+02  0.10000000420E+02 0.  0.
        -12    1    1    2    0    0  0.66187123315E+01  0.42965522025E+02  0.11801273169E+02  0.45045682193E+02  0.00000000000E+00 0.  1.
         11    1    3    3    0    0 -0.43318445872E+01 -0.40792300065E+02 -0.99205876881E+01  0.42204202190E+02  0.51100000000E-03 0. -1.
        -11    1    3    3    0    0  0.47461900363E-01 -0.33908032838E+00 -0.62937443897E+00  0.71647787588E+00  0.51100000000E-03 0.  1.
         12    1    3    3    0    0 -0.23343296447E+01 -0.18341416316E+01 -0.12513110417E+01  0.32216377416E+01  0.00000000000E+00 0. -1.
</event>
<event>
 7    1  0.2031146E-008  0.4614232E+02  0.7816164E-02  0.1320468E+00
        -11   -1    0    0    0    0  0.00000000000E+00  0.00000000000E+00  0.45593999997E+02  0.45594000000E+02  0.51100000000E-03 0.  1.
         11   -1    0    0    0    0 -0.00000000000E+00 -0.00000000000E+00 -0.45593999997E+02  0.45594000000E+02  0.51100000000E-03 0. -1.
    9900012    2    1    2    0    0 -0.36849792341E+02 -0.68735269508E+00 -0.25898530206E+02  0.46142317453E+02  0.99999971882E+01 0.  0.
        -12    1    1    2    0    0  0.36849792341E+02  0.68735269508E+00  0.25898530206E+02  0.45045682547E+02  0.00000000000E+00 0.  1.
         11    1    3    3    0    0 -0.23355092171E+02 -0.67765534244E+00 -0.13337238176E+02  0.26903558677E+02  0.51100000000E-03 0. -1.
        -11    1    3    3    0    0 -0.63313235611E+01  0.19824113111E+01 -0.34471432330E+01  0.74765238829E+01  0.51100000000E-03 0.  1.
        -12    1    3    3    0    0 -0.71633766091E+01 -0.19921086637E+01 -0.91141487975E+01  0.11762234893E+02  0.00000000000E+00 0.  1.
</event>
<event>
 7    1  0.2031146E-008  0.4614232E+02  0.7816164E-02  0.1320468E+00
        -11   -1    0    0    0    0  0.00000000000E+00  0.00000000000E+00  0.45593999997E+02  0.45594000000E+02  0.51100000000E-03 0.  1.
         11   -1    0    0    0    0 -0.00000000000E+00 -0.00000000000E+00 -0.45593999997E+02  0.45594000000E+02  0.51100000000E-03 0. -1.
    9900012    2    1    2    0    0 -0.34172116564E+01  0.26738113955E+02 -0.36090295378E+02  0.46142317700E+02  0.99999994459E+01 0.  0.
        -12    1    1    2    0    0  0.34172116564E+01 -0.26738113955E+02  0.36090295378E+02  0.45045682300E+02  0.00000000000E+00 0.  1.
         11    1    3    3    0    0  0.63172290014E+00  0.40819930269E+01 -0.84487413423E+01  0.94044123381E+01  0.51100000000E-03 0. -1.
        -11    1    3    3    0    0 -0.50097309379E+01  0.10069890941E+02 -0.16061753079E+02  0.19608162072E+02  0.51100000000E-03 0.  1.
         12    1    3    3    0    0  0.96079638143E+00  0.12586229987E+02 -0.11579800957E+02  0.17129743290E+02  0.00000000000E+00 0. -1.
</event>
<event>
 7    1  0.2031146E-008  0.4614232E+02  0.7816164E-02  0.1320468E+00
        -11   -1    0    0    0    0  0.00000000000E+00  0.00000000000E+00  0.45593999997E+02  0.45594000000E+02  0.51100000000E-03 0.  1.
         11   -1    0    0    0    0 -0.00000000000E+00 -0.00000000000E+00 -0.45593999997E+02  0.45594000000E+02  0.51100000000E-03 0. -1.
    9900012    2    1    2    0    0 -0.58325378084E+01  0.32449629500E+01 -0.44548461218E+02  0.46142315648E+02  0.99999807341E+01 0.  0.
        -12    1    1    2    0    0  0.58325378084E+01 -0.32449629500E+01  0.44548461218E+02  0.45045684352E+02  0.00000000000E+00 0.  1.
         11    1    3    3    0    0  0.12812582283E-01  0.27499441614E+01 -0.10927786285E+02  0.11268490156E+02  0.51100000000E-03 0. -1.
        -11    1    3    3    0    0 -0.24814288274E+01  0.32404373242E+01 -0.91233128899E+01  0.99946366330E+01  0.51100000000E-03 0.  1.
        -12    1    3    3    0    0 -0.33639215633E+01 -0.27454185355E+01 -0.24497362043E+02  0.24879188859E+02  0.00000000000E+00 0.  1.
</event>
<event>
 7    1  0.2031146E-008  0.4614232E+02  0.7816164E-02  0.1320468E+00
        -11   -1    0    0    0    0  0.00000000000E+00  0.00000000000E+00  0.45593999997E+02  0.45594000000E+02  0.51100000000E-03 0. -1.
         11   -1    0    0    0    0 -0.00000000000E+00 -0.00000000000E+00 -0.45593999997E+02  0.45594000000E+02  0.51100000000E-03 0.  1.
    9900012    2    1    2    0    0  0.31640098981E+02 -0.82560882341E+01 -0.30981523615E+02  0.46142315834E+02  0.99999824293E+01 0.  0.
        -12    1    1    2    0    0 -0.31640098981E+02  0.82560882341E+01  0.30981523615E+02  0.45045684166E+02  0.00000000000E+00 0.  1.
         11    1    3    3    0    0  0.15314451821E+02 -0.18039812554E+01 -0.15559408502E+02  0.21906208621E+02  0.51100000000E-03 0. -1.
        -11    1    3    3    0    0  0.10856284776E+02 -0.16516964026E+01 -0.11758226040E+02  0.16088595340E+02  0.51100000000E-03 0.  1.
         12    1    3    3    0    0  0.54693623845E+01 -0.48004105761E+01 -0.36638890723E+01  0.81475118734E+01  0.00000000000E+00 0. -1.
</event>
<event>
 7    1  0.3196733E-008  0.4614232E+02  0.7816164E-02  0.1320468E+00
        -11   -1    0    0    0    0  0.00000000000E+00  0.00000000000E+00  0.45593999997E+02  0.45594000000E+02  0.51100000000E-03 0.  1.
         11   -1    0    0    0    0 -0.00000000000E+00 -0.00000000000E+00 -0.45593999997E+02  0.45594000000E+02  0.51100000000E-03 0. -1.
    9900012    2    1    2    0    0 -0.42047430898E+02  0.93561992288E+01 -0.13175298614E+02  0.46142318712E+02  0.10000008671E+02 0.  0.
        -12    1    1    2    0    0  0.42047430898E+02 -0.93561992288E+01  0.13175298614E+02  0.45045681288E+02  0.00000000000E+00 0.  1.
         11    1    3    3    0    0 -0.21104090930E+02  0.48885714453E+01 -0.59220415408E+01  0.22457768389E+02  0.51100000000E-03 0. -1.
        -11    1    3    3    0    0 -0.12921958133E+02 -0.80572443691E+00 -0.41587482016E+01  0.13598580100E+02  0.51100000000E-03 0.  1.
        -12    1    3    3    0    0 -0.80213818349E+01  0.52733522204E+01 -0.30945088718E+01  0.10085970223E+02  0.00000000000E+00 0.  1.
</event>
<event>
 7    1  0.2031146E-008  0.4614232E+02  0.7816164E-02  0.1320468E+00
        -11   -1    0    0    0    0  0.00000000000E+00  0.00000000000E+00  0.45593999997E+02  0.45594000000E+02  0.51100000000E-03 0.  1.
         11   -1    0    0    0    0 -0.00000000000E+00 -0.00000000000E+00 -0.45593999997E+02  0.45594000000E+02  0.51100000000E-03 0. -1.
    9900012    2    1    2    0    0 -0.51022028125E+01  0.39762338142E+02 -0.20543545186E+02  0.46142320331E+02  0.10000023436E+02 0.  0.
        -12    1    1    2    0    0  0.51022028125E+01 -0.39762338142E+02  0.20543545186E+02  0.45045679669E+02  0.00000000000E+00 0.  1.
         11    1    3    3    0    0 -0.40446136480E+01  0.35557567231E+02 -0.15963548428E+02  0.39185894983E+02  0.51100000000E-03 0. -1.
        -11    1    3    3    0    0 -0.13540823574E-01  0.12069690815E+00  0.40802859557E+00  0.42572138008E+00  0.51100000000E-03 0.  1.
         12    1    3    3    0    0 -0.10440483409E+01  0.40840740025E+01 -0.49880253530E+01  0.65307039681E+01  0.00000000000E+00 0. -1.
</event>
<event>
 7    1  0.2031146E-008  0.4614232E+02  0.7816164E-02  0.1320468E+00
        -11   -1    0    0    0    0  0.00000000000E+00  0.00000000000E+00  0.45593999997E+02  0.45594000000E+02  0.51100000000E-03 0.  1.
         11   -1    0    0    0    0 -0.00000000000E+00 -0.00000000000E+00 -0.45593999997E+02  0.45594000000E+02  0.51100000000E-03 0. -1.
    9900012    2    1    2    0    0 -0.20166557044E+02  0.41634407802E+01 -0.40063564769E+02  0.46142317809E+02  0.10000000433E+02 0.  0.
        -12    1    1    2    0    0  0.20166557044E+02 -0.41634407802E+01  0.40063564769E+02  0.45045682191E+02  0.00000000000E+00 0.  1.
         11    1    3    3    0    0 -0.24880096723E+01  0.14377999717E+01 -0.31531697218E+01  0.42661388214E+01  0.51100000000E-03 0. -1.
        -11    1    3    3    0    0 -0.10657863015E+02  0.25599121549E+01 -0.13252718300E+02  0.17198189930E+02  0.51100000000E-03 0.  1.
         12    1    3    3    0    0 -0.70206843563E+01  0.16572865372E+00 -0.23657676747E+02  0.24677989057E+02  0.00000000000E+00 0. -1.
</event>
<event>
 7    1  0.2031146E-008  0.4614232E+02  0.7816164E-02  0.1320468E+00
        -11   -1    0    0    0    0  0.00000000000E+00  0.00000000000E+00  0.45593999997E+02  0.45594000000E+02  0.51100000000E-03 0. -1.
         11   -1    0    0    0    0 -0.00000000000E+00 -0.00000000000E+00 -0.45593999997E+02  0.45594000000E+02  0.51100000000E-03 0.  1.
    9900012    2    1    2    0    0 -0.16150220769E+02 -0.72117902256E+01  0.41427936769E+02  0.46142317697E+02  0.99999994166E+01 0.  0.
        -12    1    1    2    0    0  0.16150220769E+02  0.72117902256E+01 -0.41427936769E+02  0.45045682303E+02  0.00000000000E+00 0.  1.
         11    1    3    3    0    0 -0.76385988006E+01 -0.38798589201E-01  0.17345598644E+02  0.18953086544E+02  0.51100000000E-03 0. -1.
        -11    1    3    3    0    0 -0.61054184425E+01 -0.35442971713E+01  0.20043533299E+02  0.21250444799E+02  0.51100000000E-03 0.  1.
        -12    1    3    3    0    0 -0.24062035262E+01 -0.36286944651E+01  0.40388048267E+01  0.59387863540E+01  0.00000000000E+00 0.  1.
</event>
<event>
 7    1  0.2031146E-008  0.4614232E+02  0.7816164E-02  0.1320468E+00
        -11   -1    0    0    0    0  0.00000000000E+00  0.00000000000E+00  0.45593999997E+02  0.45594000000E+02  0.51100000000E-03 0.  1.
         11   -1    0    0    0    0 -0.00000000000E+00 -0.00000000000E+00 -0.45593999997E+02  0.45594000000E+02  0.51100000000E-03 0. -1.
    9900012    2    1    2    0    0  0.23695028965E+02  0.15023394057E+02 -0.35241408578E+02  0.46142316020E+02  0.99999841200E+01 0.  0.
        -12    1    1    2    0    0 -0.23695028965E+02 -0.15023394057E+02  0.35241408578E+02  0.45045683980E+02  0.00000000000E+00 0.  1.
         11    1    3    3    0    0  0.32222059533E+00  0.10799036129E+01 -0.48315228073E+01  0.49612126364E+01  0.51100000000E-03 0. -1.
        -11    1    3    3    0    0  0.10563323380E+01  0.15725426263E+00 -0.32547339470E+01  0.34254722650E+01  0.51100000000E-03 0.  1.
        -12    1    3    3    0    0  0.22316476032E+02  0.13786236182E+02 -0.27155151824E+02  0.37755631118E+02  0.00000000000E+00 0.  1.
</event>
<event>
 7    1  0.2031146E-008  0.4614232E+02  0.7816164E-02  0.1320468E+00
        -11   -1    0    0    0    0  0.00000000000E+00  0.00000000000E+00  0.45593999997E+02  0.45594000000E+02  0.51100000000E-03 0.  1.
         11   -1    0    0    0    0 -0.00000000000E+00 -0.00000000000E+00 -0.45593999997E+02  0.45594000000E+02  0.51100000000E-03 0. -1.
    9900012    2    1    2    0    0 -0.40741116768E+02 -0.19204763726E+02  0.67221109165E+00  0.46142318598E+02  0.10000007628E+02 0.  0.
        -12    1    1    2    0    0  0.40741116768E+02  0.19204763726E+02 -0.67221109165E+00  0.45045681402E+02  0.00000000000E+00 0.  1.
         11    1    3    3    0    0 -0.15800622542E+01 -0.12468896821E+01 -0.38622136317E+00  0.20495116026E+01  0.51100000000E-03 0. -1.
        -11    1    3    3    0    0 -0.28250665489E+01 -0.35280265816E-01  0.21690264935E+01  0.35618705610E+01  0.51100000000E-03 0.  1.
        -12    1    3    3    0    0 -0.36335987965E+02 -0.17922593778E+02 -0.11105940386E+01  0.40530936434E+02  0.00000000000E+00 0.  1.
</event>
<event>
 7    1  0.2031146E-008  0.4614232E+02  0.7816164E-02  0.1320468E+00
        -11   -1    0    0    0    0  0.00000000000E+00  0.00000000000E+00  0.45593999997E+02  0.45594000000E+02  0.51100000000E-03 0. -1.
         11   -1    0    0    0    0 -0.00000000000E+00 -0.00000000000E+00 -0.45593999997E+02  0.45594000000E+02  0.51100000000E-03 0.  1.
    9900012    2    1    2    0    0  0.31584565965E+02  0.11068810332E+02  0.30149794861E+02  0.46142317637E+02  0.99999988709E+01 0.  0.
        -12    1    1    2    0    0 -0.31584565965E+02 -0.11068810332E+02 -0.30149794861E+02  0.45045682363E+02  0.00000000000E+00 0.  1.
         11    1    3    3    0    0  0.14262755435E+02  0.35934800754E+01  0.12070214450E+02  0.19027069369E+02  0.51100000000E-03 0. -1.
        -11    1    3    3    0    0  0.46836264402E+01  0.57880887482E+01  0.62165552619E+01  0.96996849214E+01  0.51100000000E-03 0.  1.
        -12    1    3    3    0    0  0.12638184090E+02  0.16872415085E+01  0.11863025149E+02  0.17415563347E+02  0.00000000000E+00 0.  1.
</event>
<event>
 7    1  0.2031146E-008  0.4614232E+02  0.7816164E-02  0.1320468E+00
        -11   -1    0    0    0    0  0.00000000000E+00  0.00000000000E+00  0.45593999997E+02  0.45594000000E+02  0.51100000000E-03 0.  1.
         11   -1    0    0    0    0 -0.00000000000E+00 -0.00000000000E+00 -0.45593999997E+02  0.45594000000E+02  0.51100000000E-03 0. -1.
    9900012    2    1    2    0    0 -0.29966740106E+02 -0.19536423126E+02 -0.27375830771E+02  0.46142318170E+02  0.10000003729E+02 0.  0.
        -12    1    1    2    0    0  0.29966740106E+02  0.19536423126E+02  0.27375830771E+02  0.45045681830E+02  0.00000000000E+00 0.  1.
         11    1    3    3    0    0 -0.18876831708E+02 -0.94817178239E+01 -0.19880186176E+02  0.29007922209E+02  0.51100000000E-03 0. -1.
        -11    1    3    3    0    0 -0.70646238778E+01 -0.55165579811E+01 -0.62886844320E+01  0.10949377820E+02  0.51100000000E-03 0.  1.
        -12    1    3    3    0    0 -0.40252845201E+01 -0.45381473211E+01 -0.12069601628E+01  0.61850181414E+01  0.00000000000E+00 0.  1.
</event>
<event>
 7    1  0.2031146E-008  0.4614232E+02  0.7816164E-02  0.1320468E+00
        -11   -1    0    0    0    0  0.00000000000E+00  0.00000000000E+00  0.45593999997E+02  0.45594000000E+02  0.51100000000E-03 0.  1.
         11   -1    0    0    0    0 -0.00000000000E+00 -0.00000000000E+00 -0.45593999997E+02  0.45594000000E+02  0.51100000000E-03 0. -1.
    9900012    2    1    2    0    0 -0.33328313298E+02 -0.25467916399E+02  0.16423229196E+02  0.46142315521E+02  0.99999795694E+01 0.  0.
        -12    1    1    2    0    0  0.33328313298E+02  0.25467916399E+02 -0.16423229196E+02  0.45045684479E+02  0.00000000000E+00 0.  1.
         11    1    3    3    0    0 -0.17567498467E+02 -0.18577615235E+02  0.90951316199E+01  0.27137910930E+02  0.51100000000E-03 0. -1.
        -11    1    3    3    0    0 -0.35587999890E+01 -0.25230979741E+01  0.31739249625E+01  0.53948939450E+01  0.51100000000E-03 0.  1.
         12    1    3    3    0    0 -0.12202014842E+02 -0.43672031897E+01  0.41541726132E+01  0.13609510645E+02  0.00000000000E+00 0. -1.
</event>
<event>
 7    1  0.2031146E-008  0.4614232E+02  0.7816164E-02  0.1320468E+00
        -11   -1    0    0    0    0  0.00000000000E+00  0.00000000000E+00  0.45593999997E+02  0.45594000000E+02  0.51100000000E-03 0.  1.
         11   -1    0    0    0    0 -0.00000000000E+00 -0.00000000000E+00 -0.45593999997E+02  0.45594000000E+02  0.51100000000E-03 0. -1.
    9900012    2    1    2    0    0  0.28793822989E+02  0.34636656224E+02  0.57551093082E+00  0.46142318636E+02  0.10000007979E+02 0.  0.
        -12    1    1    2    0    0 -0.28793822989E+02 -0.34636656224E+02 -0.57551093082E+00  0.45045681364E+02  0.00000000000E+00 0.  1.
         11    1    3    3    0    0  0.19480518000E+02  0.24037271068E+02  0.17699720692E+01  0.30990543450E+02  0.51100000000E-03 0.  1.
        -11    1    3    3    0    0  0.90049609410E+01  0.11209703265E+02 -0.13757705091E+01  0.14444359231E+02  0.51100000000E-03 0. -1.
        -12    1    3    3    0    0  0.30834404795E+00 -0.61031810878E+00  0.18130937067E+00  0.70741595522E+00  0.00000000000E+00 0.  1.
</event>
<event>
 7    1  0.2031146E-008  0.4614232E+02  0.7816164E-02  0.1320468E+00
        -11   -1    0    0    0    0  0.00000000000E+00  0.00000000000E+00  0.45593999997E+02  0.45594000000E+02  0.51100000000E-03 0. -1.
         11   -1    0    0    0    0 -0.00000000000E+00 -0.00000000000E+00 -0.45593999997E+02  0.45594000000E+02  0.51100000000E-03 0.  1.
    9900012    2    1    2    0    0  0.35244755053E+02  0.14984166185E+02  0.23714879920E+02  0.46142317359E+02  0.99999963298E+01 0.  0.
        -12    1    1    2    0    0 -0.35244755053E+02 -0.14984166185E+02 -0.23714879920E+02  0.45045682641E+02  0.00000000000E+00 0.  1.
         11    1    3    3    0    0  0.11131539171E+02  0.42442536875E+01  0.65501192969E+01  0.13595179908E+02  0.51100000000E-03 0. -1.
        -11    1    3    3    0    0  0.18092841119E+02  0.42973100033E+01  0.95936111024E+01  0.20924988585E+02  0.51100000000E-03 0.  1.
         12    1    3    3    0    0  0.60203747628E+01  0.64426024938E+01  0.75711495210E+01  0.11622148865E+02  0.00000000000E+00 0. -1.
</event>
<event>
 7    1  0.2031146E-008  0.4614232E+02  0.7816164E-02  0.1320468E+00
        -11   -1    0    0    0    0  0.00000000000E+00  0.00000000000E+00  0.45593999997E+02  0.45594000000E+02  0.51100000000E-03 0. -1.
         11   -1    0    0    0    0 -0.00000000000E+00 -0.00000000000E+00 -0.45593999997E+02  0.45594000000E+02  0.51100000000E-03 0.  1.
    9900012    2    1    2    0    0 -0.87688122427E+01  0.44099527295E+02 -0.27300596250E+01  0.46142316507E+02  0.99999885652E+01 0.  0.
        -12    1    1    2    0    0  0.87688122427E+01 -0.44099527295E+02  0.27300596250E+01  0.45045683493E+02  0.00000000000E+00 0.  1.
         11    1    3    3    0    0 -0.30346820840E+01  0.24997284245E+02  0.10680370103E+01  0.25203456475E+02  0.51100000000E-03 0. -1.
        -11    1    3    3    0    0 -0.47663345293E+01  0.15004363135E+02 -0.78793197963E+00  0.15762921524E+02  0.51100000000E-03 0.  1.
        -12    1    3    3    0    0 -0.96779562939E+00  0.40978799157E+01 -0.30101646557E+01  0.51759385079E+01  0.00000000000E+00 0.  1.
</event>
<event>
 7    1  0.2031146E-008  0.4614232E+02  0.7816164E-02  0.1320468E+00
        -11   -1    0    0    0    0  0.00000000000E+00  0.00000000000E+00  0.45593999997E+02  0.45594000000E+02  0.51100000000E-03 0. -1.
         11   -1    0    0    0    0 -0.00000000000E+00 -0.00000000000E+00 -0.45593999997E+02  0.45594000000E+02  0.51100000000E-03 0.  1.
    9900012    2    1    2    0    0  0.26457737557E+02 -0.31846639579E+02  0.17745231957E+02  0.46142316673E+02  0.99999900818E+01 0.  0.
        -12    1    1    2    0    0 -0.26457737557E+02  0.31846639579E+02 -0.17745231957E+02  0.45045683327E+02  0.00000000000E+00 0.  1.
         11    1    3    3    0    0  0.47378767134E+01 -0.76528154632E+01  0.59862181536E+01  0.10809619249E+02  0.51100000000E-03 0. -1.
        -11    1    3    3    0    0  0.99809640948E+00 -0.43627182475E+01  0.28204148799E+01  0.52900139230E+01  0.51100000000E-03 0.  1.
        -12    1    3    3    0    0  0.20721764435E+02 -0.19831105869E+02  0.89385989231E+01  0.30042683501E+02  0.00000000000E+00 0.  1.
</event>
<event>
 7    1  0.2031146E-008  0.4614232E+02  0.7816164E-02  0.1320468E+00
        -11   -1    0    0    0    0  0.00000000000E+00  0.00000000000E+00  0.45593999997E+02  0.45594000000E+02  0.51100000000E-03 0.  1.
         11   -1    0    0    0    0 -0.00000000000E+00 -0.00000000000E+00 -0.45593999997E+02  0.45594000000E+02  0.51100000000E-03 0. -1.
    9900012    2    1    2    0    0 -0.32408349363E+01 -0.54494859876E+01 -0.44597237656E+02  0.46142317464E+02  0.99999972892E+01 0.  0.
        -12    1    1    2    0    0  0.32408349363E+01  0.54494859876E+01  0.44597237656E+02  0.45045682536E+02  0.00000000000E+00 0.  1.
         11    1    3    3    0    0 -0.85420720261E+00  0.20374835616E+00 -0.29522076728E+02  0.29535134974E+02  0.51100000000E-03 0. -1.
        -11    1    3    3    0    0 -0.24356664870E+00  0.25568777940E+00 -0.10097482231E+00  0.36728344471E+00  0.51100000000E-03 0.  1.
         12    1    3    3    0    0 -0.21430610850E+01 -0.59089221232E+01 -0.14974186106E+02  0.16239899045E+02  0.00000000000E+00 0. -1.
</event>
<event>
 7    1  0.2031146E-008  0.4614232E+02  0.7816164E-02  0.1320468E+00
        -11   -1    0    0    0    0  0.00000000000E+00  0.00000000000E+00  0.45593999997E+02  0.45594000000E+02  0.51100000000E-03 0. -1.
         11   -1    0    0    0    0 -0.00000000000E+00 -0.00000000000E+00 -0.45593999997E+02  0.45594000000E+02  0.51100000000E-03 0.  1.
    9900012    2    1    2    0    0 -0.16635429411E+02 -0.41116587245E+02  0.78614417454E+01  0.46142317358E+02  0.99999963243E+01 0.  0.
        -12    1    1    2    0    0  0.16635429411E+02  0.41116587245E+02 -0.78614417454E+01  0.45045682642E+02  0.00000000000E+00 0.  1.
         11    1    3    3    0    0 -0.10242383003E+02 -0.17492333384E+02  0.43741023123E+01  0.20736945486E+02  0.51100000000E-03 0. -1.
        -11    1    3    3    0    0 -0.42000020426E+01 -0.66764927625E+01  0.25538936273E+01  0.82908350416E+01  0.51100000000E-03 0.  1.
        -12    1    3    3    0    0 -0.21930443653E+01 -0.16947761098E+02  0.93344580582E+00  0.17114536830E+02  0.00000000000E+00 0.  1.
</event>
<event>
 7    1  0.2031146E-008  0.4614232E+02  0.7816164E-02  0.1320468E+00
        -11   -1    0    0    0    0  0.00000000000E+00  0.00000000000E+00  0.45593999997E+02  0.45594000000E+02  0.51100000000E-03 0.  1.
         11   -1    0    0    0    0 -0.00000000000E+00 -0.00000000000E+00 -0.45593999997E+02  0.45594000000E+02  0.51100000000E-03 0. -1.
    9900012    2    1    2    0    0  0.25331072336E+02  0.25349765258E+02 -0.27291749727E+02  0.46142318437E+02  0.10000006161E+02 0.  0.
        -12    1    1    2    0    0 -0.25331072336E+02 -0.25349765258E+02  0.27291749727E+02  0.45045681563E+02  0.00000000000E+00 0.  1.
         11    1    3    3    0    0  0.13101090531E+02  0.72396422684E+01 -0.96004232285E+01  0.17782550989E+02  0.51100000000E-03 0. -1.
        -11    1    3    3    0    0 -0.24316013075E+00  0.47096652273E+00 -0.21358311097E+00  0.57144931632E+00  0.51100000000E-03 0.  1.
        -12    1    3    3    0    0  0.12473141936E+02  0.17639156467E+02 -0.17477743388E+02  0.27788318131E+02  0.00000000000E+00 0.  1.
</event>
<event>
 7    1  0.2031146E-008  0.4614231E+02  0.7816164E-02  0.1320468E+00
        -11   -1    0    0    0    0  0.00000000000E+00  0.00000000000E+00  0.45593999997E+02  0.45594000000E+02  0.51100000000E-03 0.  1.
         11   -1    0    0    0    0 -0.00000000000E+00 -0.00000000000E+00 -0.45593999997E+02  0.45594000000E+02  0.51100000000E-03 0. -1.
    9900012    2    1    2    0    0  0.24800962147E+02  0.36919928699E+02 -0.71375838287E+01  0.46142312509E+02  0.99999521095E+01 0.  0.
        -12    1    1    2    0    0 -0.24800962147E+02 -0.36919928699E+02  0.71375838287E+01  0.45045687491E+02  0.00000000000E+00 0.  1.
         11    1    3    3    0    0  0.37058647366E+01  0.29600289498E+01 -0.21188018469E+01  0.51946632573E+01  0.51100000000E-03 0. -1.
        -11    1    3    3    0    0  0.18864953223E+02  0.24618884825E+02 -0.43718084194E+01  0.31322334831E+02  0.51100000000E-03 0.  1.
        -12    1    3    3    0    0  0.22301441881E+01  0.93410149244E+01 -0.64697356247E+00  0.96253144213E+01  0.00000000000E+00 0.  1.
</event>
<event>
 7    1  0.2031146E-008  0.4614232E+02  0.7816164E-02  0.1320468E+00
        -11   -1    0    0    0    0  0.00000000000E+00  0.00000000000E+00  0.45593999997E+02  0.45594000000E+02  0.51100000000E-03 0.  1.
         11   -1    0    0    0    0 -0.00000000000E+00 -0.00000000000E+00 -0.45593999997E+02  0.45594000000E+02  0.51100000000E-03 0. -1.
    9900012    2    1    2    0    0  0.33436347158E+02  0.19529380388E+02 -0.23015809596E+02  0.46142317622E+02  0.99999987280E+01 0.  0.
        -12    1    1    2    0    0 -0.33436347158E+02 -0.19529380388E+02  0.23015809596E+02  0.45045682378E+02  0.00000000000E+00 0.  1.
         11    1    3    3    0    0  0.23737850477E+02  0.10645824967E+02 -0.17814589467E+02  0.31530599941E+02  0.51100000000E-03 0. -1.
        -11    1    3    3    0    0  0.94809594118E+00 -0.27553770564E+00 -0.36091396370E+00  0.10512212380E+01  0.51100000000E-03 0.  1.
         12    1    3    3    0    0  0.87504007394E+01  0.91590931265E+01 -0.48403061654E+01  0.13560496443E+02  0.00000000000E+00 0. -1.
</event>
<event>
 7    1  0.2031146E-008  0.4614232E+02  0.7816164E-02  0.1320468E+00
        -11   -1    0    0    0    0  0.00000000000E+00  0.00000000000E+00  0.45593999997E+02  0.45594000000E+02  0.51100000000E-03 0.  1.
         11   -1    0    0    0    0 -0.00000000000E+00 -0.00000000000E+00 -0.45593999997E+02  0.45594000000E+02  0.51100000000E-03 0. -1.
    9900012    2    1    2    0    0  0.26897533906E+02  0.59972923157E+01 -0.35632409672E+02  0.46142318028E+02  0.10000002431E+02 0.  0.
        -12    1    1    2    0    0 -0.26897533906E+02 -0.59972923157E+01  0.35632409672E+02  0.45045681972E+02  0.00000000000E+00 0.  1.
         11    1    3    3    0    0 -0.23197944332E+00 -0.39817206804E-02 -0.79232386352E+00  0.82559535007E+00  0.51100000000E-03 0. -1.
        -11    1    3    3    0    0  0.37920084084E+01  0.29327232924E+01 -0.27733440256E+01  0.55381974527E+01  0.51100000000E-03 0.  1.
         12    1    3    3    0    0  0.23337504941E+02  0.30685507440E+01 -0.32066741783E+02  0.39778525225E+02  0.00000000000E+00 0. -1.
</event>
<event>
 7    1  0.2031146E-008  0.4614232E+02  0.7816164E-02  0.1320468E+00
        -11   -1    0    0    0    0  0.00000000000E+00  0.00000000000E+00  0.45593999997E+02  0.45594000000E+02  0.51100000000E-03 0.  1.
         11   -1    0    0    0    0 -0.00000000000E+00 -0.00000000000E+00 -0.45593999997E+02  0.45594000000E+02  0.51100000000E-03 0. -1.
    9900012    2    1    2    0    0 -0.10979626587E+02 -0.90918781936E+01 -0.42730540144E+02  0.46142317520E+02  0.99999977989E+01 0.  0.
        -12    1    1    2    0    0  0.10979626587E+02  0.90918781936E+01  0.42730540144E+02  0.45045682480E+02  0.00000000000E+00 0.  1.
         11    1    3    3    0    0 -0.70910543935E+01 -0.79813129325E+01 -0.21267860567E+02  0.23797191050E+02  0.51100000000E-03 0. -1.
        -11    1    3    3    0    0 -0.46750193262E+01 -0.19257062777E+01 -0.18304754163E+02  0.18990212626E+02  0.51100000000E-03 0.  1.
        -12    1    3    3    0    0  0.78644713252E+00  0.81514101661E+00 -0.31579254147E+01  0.33549138430E+01  0.00000000000E+00 0.  1.
</event>
<event>
 7    1  0.2031146E-008  0.4614232E+02  0.7816164E-02  0.1320468E+00
        -11   -1    0    0    0    0  0.00000000000E+00  0.00000000000E+00  0.45593999997E+02  0.45594000000E+02  0.51100000000E-03 0. -1.
         11   -1    0    0    0    0 -0.00000000000E+00 -0.00000000000E+00 -0.45593999997E+02  0.45594000000E+02  0.51100000000E-03 0.  1.
    9900012    2    1    2    0    0 -0.87009203894E+01 -0.39295016741E+01  0.44022339841E+02  0.46142318696E+02  0.10000008525E+02 0.  0.
        -12    1    1    2    0    0  0.87009203894E+01  0.39295016741E+01 -0.44022339841E+02  0.45045681304E+02  0.00000000000E+00 0.  1.
         11    1    3    3    0    0 -0.95551097453E+00 -0.13920637476E+00  0.18602061185E+01  0.20958880461E+01  0.51100000000E-03 0. -1.
        -11    1    3    3    0    0 -0.34812600632E+01  0.28536082750E+01  0.20558609635E+02  0.21045633328E+02  0.51100000000E-03 0.  1.
        -12    1    3    3    0    0 -0.42641493517E+01 -0.66439035744E+01  0.21603524088E+02  0.23000797322E+02  0.00000000000E+00 0.  1.
</event>
<event>
 7    1  0.2031146E-008  0.4614232E+02  0.7816164E-02  0.1320468E+00
        -11   -1    0    0    0    0  0.00000000000E+00  0.00000000000E+00  0.45593999997E+02  0.45594000000E+02  0.51100000000E-03 0.  1.
         11   -1    0    0    0    0 -0.00000000000E+00 -0.00000000000E+00 -0.45593999997E+02  0.45594000000E+02  0.51100000000E-03 0. -1.
    9900012    2    1    2    0    0  0.29200489390E+02  0.12268547723E+02 -0.32030103911E+02  0.46142318738E+02  0.10000008905E+02 0.  0.
        -12    1    1    2    0    0 -0.29200489390E+02 -0.12268547723E+02  0.32030103911E+02  0.45045681262E+02  0.00000000000E+00 0.  1.
         11    1    3    3    0    0  0.16810079204E+02  0.34882704203E+01 -0.18313945831E+02  0.25102737012E+02  0.51100000000E-03 0. -1.
        -11    1    3    3    0    0  0.11524491458E+02  0.61459628426E+01 -0.10262225497E+02  0.16610238861E+02  0.51100000000E-03 0.  1.
        -12    1    3    3    0    0  0.86591872899E+00  0.26343144599E+01 -0.34539325833E+01  0.44293428642E+01  0.00000000000E+00 0.  1.
</event>
<event>
 7    1  0.2031146E-008  0.4614232E+02  0.7816164E-02  0.1320468E+00
        -11   -1    0    0    0    0  0.00000000000E+00  0.00000000000E+00  0.45593999997E+02  0.45594000000E+02  0.51100000000E-03 0. -1.
         11   -1    0    0    0    0 -0.00000000000E+00 -0.00000000000E+00 -0.45593999997E+02  0.45594000000E+02  0.51100000000E-03 0.  1.
    9900012    2    1    2    0    0  0.32628985277E+02 -0.21398275093E+02 -0.22507255619E+02  0.46142318601E+02  0.10000007659E+02 0.  0.
        -12    1    1    2    0    0 -0.32628985277E+02  0.21398275093E+02  0.22507255619E+02  0.45045681399E+02  0.00000000000E+00 0.  1.
         11    1    3    3    0    0  0.12267839691E+02 -0.86425934077E+01 -0.94543353520E+01  0.17736368532E+02  0.51100000000E-03 0. -1.
        -11    1    3    3    0    0  0.68384058892E+01 -0.68971730693E+01 -0.18338275805E+01  0.98842154625E+01  0.51100000000E-03 0.  1.
        -12    1    3    3    0    0  0.13522739697E+02 -0.58585086161E+01 -0.11219092687E+02  0.18521734607E+02  0.00000000000E+00 0.  1.
</event>
<event>
 7    1  0.2031146E-008  0.4614232E+02  0.7816164E-02  0.1320468E+00
        -11   -1    0    0    0    0  0.00000000000E+00  0.00000000000E+00  0.45593999997E+02  0.45594000000E+02  0.51100000000E-03 0.  1.
         11   -1    0    0    0    0 -0.00000000000E+00 -0.00000000000E+00 -0.45593999997E+02  0.45594000000E+02  0.51100000000E-03 0. -1.
    9900012    2    1    2    0    0  0.17619698027E+02 -0.87274477820E+01 -0.40527661763E+02  0.46142317950E+02  0.10000001722E+02 0.  0.
        -12    1    1    2    0    0 -0.17619698027E+02  0.87274477820E+01  0.40527661763E+02  0.45045682050E+02  0.00000000000E+00 0.  1.
         11    1    3    3    0    0  0.14755197017E+01 -0.47169193558E+01 -0.11798616317E+02  0.12791944100E+02  0.51100000000E-03 0. -1.
        -11    1    3    3    0    0  0.10236037586E+02 -0.40854657210E+01 -0.19185807359E+02  0.22126063814E+02  0.51100000000E-03 0.  1.
        -12    1    3    3    0    0  0.59081407397E+01  0.74937294729E-01 -0.95432380875E+01  0.11224310036E+02  0.00000000000E+00 0.  1.
</event>
<event>
 7    1  0.2031146E-008  0.4614233E+02  0.7816164E-02  0.1320468E+00
        -11   -1    0    0    0    0  0.00000000000E+00  0.00000000000E+00  0.45593999997E+02  0.45594000000E+02  0.51100000000E-03 0.  1.
         11   -1    0    0    0    0 -0.00000000000E+00 -0.00000000000E+00 -0.45593999997E+02  0.45594000000E+02  0.51100000000E-03 0. -1.
    9900012    2    1    2    0    0 -0.82133093178E+01  0.42771418067E+02 -0.11500423294E+02  0.46142329960E+02  0.10000111243E+02 0.  0.
        -12    1    1    2    0    0  0.82133093178E+01 -0.42771418067E+02  0.11500423294E+02  0.45045670040E+02  0.00000000000E+00 0.  1.
         11    1    3    3    0    0 -0.47959474535E+01  0.10697745703E+02 -0.65481031720E+01  0.13428348019E+02  0.51100000000E-03 0.  1.
        -11    1    3    3    0    0 -0.12645936414E+01  0.10302366895E+02 -0.52458004525E+00  0.10392937275E+02  0.51100000000E-03 0. -1.
         12    1    3    3    0    0 -0.21527682230E+01  0.21771305468E+02 -0.44277400763E+01  0.22321044666E+02  0.00000000000E+00 0. -1.
</event>
<event>
 7    1  0.2031146E-008  0.4614232E+02  0.7816164E-02  0.1320468E+00
        -11   -1    0    0    0    0  0.00000000000E+00  0.00000000000E+00  0.45593999997E+02  0.45594000000E+02  0.51100000000E-03 0. -1.
         11   -1    0    0    0    0 -0.00000000000E+00 -0.00000000000E+00 -0.45593999997E+02  0.45594000000E+02  0.51100000000E-03 0.  1.
    9900012    2    1    2    0    0 -0.44345077376E+02  0.77624370159E+01 -0.15402512537E+01  0.46142315525E+02  0.99999796123E+01 0.  0.
        -12    1    1    2    0    0  0.44345077376E+02 -0.77624370159E+01  0.15402512537E+01  0.45045684475E+02  0.00000000000E+00 0.  1.
         11    1    3    3    0    0 -0.19085346935E+02  0.35462501411E+01  0.34246938922E+01  0.19711795611E+02  0.51100000000E-03 0. -1.
        -11    1    3    3    0    0 -0.90860375473E+00 -0.61065723197E+00 -0.51542925886E+00  0.12100126529E+01  0.51100000000E-03 0.  1.
         12    1    3    3    0    0 -0.24351126685E+02  0.48268441067E+01 -0.44495158870E+01  0.25220507261E+02  0.00000000000E+00 0. -1.
</event>
<event>
 7    1  0.2031146E-008  0.4614232E+02  0.7816164E-02  0.1320468E+00
        -11   -1    0    0    0    0  0.00000000000E+00  0.00000000000E+00  0.45593999997E+02  0.45594000000E+02  0.51100000000E-03 0.  1.
         11   -1    0    0    0    0 -0.00000000000E+00 -0.00000000000E+00 -0.45593999997E+02  0.45594000000E+02  0.51100000000E-03 0. -1.
    9900012    2    1    2    0    0  0.25342650607E+02  0.36249560894E+02 -0.85342196189E+01  0.46142317529E+02  0.99999978805E+01 0.  0.
        -12    1    1    2    0    0 -0.25342650607E+02 -0.36249560894E+02  0.85342196189E+01  0.45045682471E+02  0.00000000000E+00 0.  1.
         11    1    3    3    0    0  0.92778957275E+01  0.20573877272E+02 -0.58710913528E+01  0.23320237757E+02  0.51100000000E-03 0. -1.
        -11    1    3    3    0    0  0.77020144389E+01  0.96812543562E+01 -0.17080558501E+01  0.12488601498E+02  0.51100000000E-03 0.  1.
        -12    1    3    3    0    0  0.83627404410E+01  0.59944292658E+01 -0.95507241602E+00  0.10333478273E+02  0.00000000000E+00 0.  1.
</event>
<event>
 7    1  0.2031146E-008  0.4614232E+02  0.7816164E-02  0.1320468E+00
        -11   -1    0    0    0    0  0.00000000000E+00  0.00000000000E+00  0.45593999997E+02  0.45594000000E+02  0.51100000000E-03 0.  1.
         11   -1    0    0    0    0 -0.00000000000E+00 -0.00000000000E+00 -0.45593999997E+02  0.45594000000E+02  0.51100000000E-03 0. -1.
    9900012    2    1    2    0    0 -0.22864911464E+02  0.32617623530E+02 -0.21033305068E+02  0.46142318042E+02  0.10000002559E+02 0.  0.
        -12    1    1    2    0    0  0.22864911464E+02 -0.32617623530E+02  0.21033305068E+02  0.45045681958E+02  0.00000000000E+00 0.  1.
         11    1    3    3    0    0 -0.18915252016E+02  0.24339027404E+02 -0.14097539673E+02  0.33895658113E+02  0.51100000000E-03 0. -1.
        -11    1    3    3    0    0 -0.43663091972E+01  0.44245156670E+01 -0.43383342289E+01  0.75803785549E+01  0.51100000000E-03 0.  1.
        -12    1    3    3    0    0  0.41664974948E+00  0.38540804582E+01 -0.25974311671E+01  0.46662813738E+01  0.00000000000E+00 0.  1.
</event>
<event>
 7    1  0.2031146E-008  0.4614232E+02  0.7816164E-02  0.1320468E+00
        -11   -1    0    0    0    0  0.00000000000E+00  0.00000000000E+00  0.45593999997E+02  0.45594000000E+02  0.51100000000E-03 0.  1.
         11   -1    0    0    0    0 -0.00000000000E+00 -0.00000000000E+00 -0.45593999997E+02  0.45594000000E+02  0.51100000000E-03 0. -1.
    9900012    2    1    2    0    0 -0.14486661090E+02 -0.34498536075E+02 -0.25081889877E+02  0.46142317181E+02  0.99999947079E+01 0.  0.
        -12    1    1    2    0    0  0.14486661090E+02  0.34498536075E+02  0.25081889877E+02  0.45045682819E+02  0.00000000000E+00 0.  1.
         11    1    3    3    0    0 -0.69252858273E+00 -0.10344595526E+02 -0.71487604512E+01  0.12593451818E+02  0.51100000000E-03 0. -1.
        -11    1    3    3    0    0 -0.86967384081E+01 -0.10548565244E+02 -0.10438473200E+02  0.17200790989E+02  0.51100000000E-03 0.  1.
        -12    1    3    3    0    0 -0.50973940987E+01 -0.13605375305E+02 -0.74946562264E+01  0.16348074374E+02  0.00000000000E+00 0.  1.
</event>
<event>
 7    1  0.2031146E-008  0.4614232E+02  0.7816164E-02  0.1320468E+00
        -11   -1    0    0    0    0  0.00000000000E+00  0.00000000000E+00  0.45593999997E+02  0.45594000000E+02  0.51100000000E-03 0.  1.
         11   -1    0    0    0    0 -0.00000000000E+00 -0.00000000000E+00 -0.45593999997E+02  0.45594000000E+02  0.51100000000E-03 0. -1.
    9900012    2    1    2    0    0 -0.33867514833E+02  0.12835974024E+02 -0.26783249580E+02  0.46142320428E+02  0.10000024316E+02 0.  0.
        -12    1    1    2    0    0  0.33867514833E+02 -0.12835974024E+02  0.26783249580E+02  0.45045679572E+02  0.00000000000E+00 0.  1.
         11    1    3    3    0    0 -0.35711162555E+01  0.40130037133E+01 -0.69355047765E+01  0.87725878097E+01  0.51100000000E-03 0. -1.
        -11    1    3    3    0    0 -0.45132645327E+01  0.41705193164E+00 -0.24871708322E+01  0.51700588068E+01  0.51100000000E-03 0.  1.
        -12    1    3    3    0    0 -0.25783134045E+02  0.84059183786E+01 -0.17360573971E+02  0.32199673811E+02  0.00000000000E+00 0.  1.
</event>
<event>
 7    1  0.2031146E-008  0.4614232E+02  0.7816164E-02  0.1320468E+00
        -11   -1    0    0    0    0  0.00000000000E+00  0.00000000000E+00  0.45593999997E+02  0.45594000000E+02  0.51100000000E-03 0.  1.
         11   -1    0    0    0    0 -0.00000000000E+00 -0.00000000000E+00 -0.45593999997E+02  0.45594000000E+02  0.51100000000E-03 0. -1.
    9900012    2    1    2    0    0 -0.36697023527E+02 -0.11856410631E+02 -0.23278047750E+02  0.46142317456E+02  0.99999972214E+01 0.  0.
        -12    1    1    2    0    0  0.36697023527E+02  0.11856410631E+02  0.23278047750E+02  0.45045682544E+02  0.00000000000E+00 0.  1.
         11    1    3    3    0    0 -0.84463803972E+01 -0.30155980929E+01 -0.37214028527E+01  0.97099955265E+01  0.51100000000E-03 0. -1.
        -11    1    3    3    0    0 -0.24848085905E+02 -0.99836091975E+01 -0.18916897435E+02  0.32786412347E+02  0.51100000000E-03 0.  1.
        -12    1    3    3    0    0 -0.34025572248E+01  0.11427966596E+01 -0.63974746215E+00  0.36459095831E+01  0.00000000000E+00 0.  1.
</event>
<event>
 7    1  0.2031146E-008  0.4614232E+02  0.7816164E-02  0.1320468E+00
        -11   -1    0    0    0    0  0.00000000000E+00  0.00000000000E+00  0.45593999997E+02  0.45594000000E+02  0.51100000000E-03 0.  1.
         11   -1    0    0    0    0 -0.00000000000E+00 -0.00000000000E+00 -0.45593999997E+02  0.45594000000E+02  0.51100000000E-03 0. -1.
    9900012    2    1    2    0    0  0.19013276416E+02  0.14760952036E+02 -0.38075227106E+02  0.46142319805E+02  0.10000018633E+02 0.  0.
        -12    1    1    2    0    0 -0.19013276416E+02 -0.14760952036E+02  0.38075227106E+02  0.45045680195E+02  0.00000000000E+00 0.  1.
         11    1    3    3    0    0  0.56508130750E+01  0.72711675526E+01 -0.12053405204E+02  0.15168590681E+02  0.51100000000E-03 0. -1.
        -11    1    3    3    0    0  0.42145722742E+01  0.40084262095E+01 -0.45787524511E+01  0.74023695126E+01  0.51100000000E-03 0.  1.
         12    1    3    3    0    0  0.91478910664E+01  0.34813582740E+01 -0.21443069451E+02  0.23571359611E+02  0.00000000000E+00 0. -1.
</event>
<event>
 7    1  0.2031146E-008  0.4614232E+02  0.7816164E-02  0.1320468E+00
        -11   -1    0    0    0    0  0.00000000000E+00  0.00000000000E+00  0.45593999997E+02  0.45594000000E+02  0.51100000000E-03 0.  1.
         11   -1    0    0    0    0 -0.00000000000E+00 -0.00000000000E+00 -0.45593999997E+02  0.45594000000E+02  0.51100000000E-03 0. -1.
    9900012    2    1    2    0    0 -0.22530549608E+02 -0.38912737799E+02 -0.26993468423E+01  0.46142319829E+02  0.10000018861E+02 0.  0.
        -12    1    1    2    0    0  0.22530549608E+02  0.38912737799E+02  0.26993468423E+01  0.45045680171E+02  0.00000000000E+00 0.  1.
         11    1    3    3    0    0 -0.63178928661E+01 -0.14664679893E+02 -0.62001232421E+00  0.15979769153E+02  0.51100000000E-03 0. -1.
        -11    1    3    3    0    0 -0.73583810799E+01 -0.53797377634E+01 -0.19407626644E+01  0.93195445436E+01  0.51100000000E-03 0.  1.
        -12    1    3    3    0    0 -0.88542756617E+01 -0.18868320143E+02 -0.13857185367E+00  0.20843006133E+02  0.00000000000E+00 0.  1.
</event>
<event>
 7    1  0.2031146E-008  0.4614232E+02  0.7816164E-02  0.1320468E+00
        -11   -1    0    0    0    0  0.00000000000E+00  0.00000000000E+00  0.45593999997E+02  0.45594000000E+02  0.51100000000E-03 0.  1.
         11   -1    0    0    0    0 -0.00000000000E+00 -0.00000000000E+00 -0.45593999997E+02  0.45594000000E+02  0.51100000000E-03 0. -1.
    9900012    2    1    2    0    0 -0.15574802634E+02 -0.41481463539E+02 -0.81133955199E+01  0.46142317839E+02  0.10000000712E+02 0.  0.
        -12    1    1    2    0    0  0.15574802634E+02  0.41481463539E+02  0.81133955199E+01  0.45045682161E+02  0.00000000000E+00 0.  1.
         11    1    3    3    0    0 -0.45880052429E+01 -0.21992115697E+02 -0.69405250988E+01  0.23513269315E+02  0.51100000000E-03 0. -1.
        -11    1    3    3    0    0  0.19087028793E+00 -0.27792517057E+00  0.13704352934E+00  0.36394375569E+00  0.51100000000E-03 0.  1.
         12    1    3    3    0    0 -0.11177667679E+02 -0.19211422671E+02 -0.13099139505E+01  0.22265104769E+02  0.00000000000E+00 0. -1.
</event>
<event>
 7    1  0.2031146E-008  0.4614232E+02  0.7816164E-02  0.1320468E+00
        -11   -1    0    0    0    0  0.00000000000E+00  0.00000000000E+00  0.45593999997E+02  0.45594000000E+02  0.51100000000E-03 0.  1.
         11   -1    0    0    0    0 -0.00000000000E+00 -0.00000000000E+00 -0.45593999997E+02  0.45594000000E+02  0.51100000000E-03 0. -1.
    9900012    2    1    2    0    0  0.12522555152E+02  0.38428958067E+01 -0.43099086578E+02  0.46142317636E+02  0.99999988636E+01 0.  0.
        -12    1    1    2    0    0 -0.12522555152E+02 -0.38428958067E+01  0.43099086578E+02  0.45045682364E+02  0.00000000000E+00 0.  1.
         11    1    3    3    0    0  0.50319211173E+01  0.46964769562E+00 -0.12279245306E+02  0.13278579165E+02  0.51100000000E-03 0. -1.
        -11    1    3    3    0    0 -0.27903447175E+00 -0.14262770258E+01 -0.12539403172E+01  0.19195033136E+01  0.51100000000E-03 0.  1.
         12    1    3    3    0    0  0.77696685065E+01  0.47995251369E+01 -0.29565900955E+02  0.30944235158E+02  0.00000000000E+00 0. -1.
</event>
<event>
 7    1  0.2031146E-008  0.4614232E+02  0.7816164E-02  0.1320468E+00
        -11   -1    0    0    0    0  0.00000000000E+00  0.00000000000E+00  0.45593999997E+02  0.45594000000E+02  0.51100000000E-03 0.  1.
         11   -1    0    0    0    0 -0.00000000000E+00 -0.00000000000E+00 -0.45593999997E+02  0.45594000000E+02  0.51100000000E-03 0. -1.
    9900012    2    1    2    0    0  0.93854379267E+01 -0.43840128266E+02  0.43669469780E+01  0.46142317439E+02  0.99999970639E+01 0.  0.
        -12    1    1    2    0    0 -0.93854379267E+01  0.43840128266E+02 -0.43669469780E+01  0.45045682561E+02  0.00000000000E+00 0.  1.
         11    1    3    3    0    0 -0.27606068272E+00 -0.10278221170E+02  0.25489221104E+01  0.10593160251E+02  0.51100000000E-03 0. -1.
        -11    1    3    3    0    0  0.74028234003E+01 -0.18582011125E+02 -0.14381093204E+01  0.20053954484E+02  0.51100000000E-03 0.  1.
        -12    1    3    3    0    0  0.22586752092E+01 -0.14979895971E+02  0.32561341879E+01  0.15495202705E+02  0.00000000000E+00 0.  1.
</event>
<event>
 7    1  0.2031146E-008  0.4614231E+02  0.7816164E-02  0.1320468E+00
        -11   -1    0    0    0    0  0.00000000000E+00  0.00000000000E+00  0.45593999997E+02  0.45594000000E+02  0.51100000000E-03 0. -1.
         11   -1    0    0    0    0 -0.00000000000E+00 -0.00000000000E+00 -0.45593999997E+02  0.45594000000E+02  0.51100000000E-03 0.  1.
    9900012    2    1    2    0    0 -0.29189567764E+02  0.34172697065E+02  0.30512852813E+01  0.46142307278E+02  0.99999044066E+01 0.  0.
        -12    1    1    2    0    0  0.29189567764E+02 -0.34172697065E+02 -0.30512852813E+01  0.45045692722E+02  0.00000000000E+00 0.  1.
         11    1    3    3    0    0 -0.10397591189E+02  0.13050764449E+02  0.40115759377E+01  0.17161733508E+02  0.51100000000E-03 0. -1.
        -11    1    3    3    0    0 -0.42146789357E+01  0.91264976983E+01 -0.99988279927E+00  0.10102289079E+02  0.51100000000E-03 0.  1.
         12    1    3    3    0    0 -0.14577297639E+02  0.11995434917E+02  0.39592142899E-01  0.18878284690E+02  0.00000000000E+00 0. -1.
</event>
<event>
 7    1  0.2031146E-008  0.4614232E+02  0.7816164E-02  0.1320468E+00
        -11   -1    0    0    0    0  0.00000000000E+00  0.00000000000E+00  0.45593999997E+02  0.45594000000E+02  0.51100000000E-03 0.  1.
         11   -1    0    0    0    0 -0.00000000000E+00 -0.00000000000E+00 -0.45593999997E+02  0.45594000000E+02  0.51100000000E-03 0. -1.
    9900012    2    1    2    0    0  0.36091424831E+02  0.22445052132E+02  0.14924537337E+02  0.46142321780E+02  0.10000036648E+02 0.  0.
        -12    1    1    2    0    0 -0.36091424831E+02 -0.22445052132E+02 -0.14924537337E+02  0.45045678220E+02  0.00000000000E+00 0.  1.
         11    1    3    3    0    0  0.60248306837E+01  0.93427201089E+00  0.17758368175E+01  0.63502004395E+01  0.51100000000E-03 0. -1.
        -11    1    3    3    0    0  0.37563514136E+01  0.57995990891E+01  0.26111460567E+01  0.73867184546E+01  0.51100000000E-03 0.  1.
         12    1    3    3    0    0  0.26310242734E+02  0.15711181032E+02  0.10537554463E+02  0.32405402886E+02  0.00000000000E+00 0. -1.
</event>
<event>
 7    1  0.2031146E-008  0.4614232E+02  0.7816164E-02  0.1320468E+00
        -11   -1    0    0    0    0  0.00000000000E+00  0.00000000000E+00  0.45593999997E+02  0.45594000000E+02  0.51100000000E-03 0. -1.
         11   -1    0    0    0    0 -0.00000000000E+00 -0.00000000000E+00 -0.45593999997E+02  0.45594000000E+02  0.51100000000E-03 0.  1.
    9900012    2    1    2    0    0  0.27438263178E+02 -0.35611236175E+02  0.28451637749E+01  0.46142318907E+02  0.10000010454E+02 0.  0.
        -12    1    1    2    0    0 -0.27438263178E+02  0.35611236175E+02 -0.28451637749E+01  0.45045681093E+02  0.00000000000E+00 0.  1.
         11    1    3    3    0    0  0.18234699820E+02 -0.28138499352E+02  0.54899259015E+01  0.33976737778E+02  0.51100000000E-03 0. -1.
        -11    1    3    3    0    0  0.13856790724E+01 -0.11408053264E+01 -0.65232188675E+00  0.19097296640E+01  0.51100000000E-03 0.  1.
         12    1    3    3    0    0  0.78178842857E+01 -0.63319314966E+01 -0.19924402399E+01  0.10255851466E+02  0.00000000000E+00 0. -1.
</event>
<event>
 7    1  0.2031146E-008  0.4614232E+02  0.7816164E-02  0.1320468E+00
        -11   -1    0    0    0    0  0.00000000000E+00  0.00000000000E+00  0.45593999997E+02  0.45594000000E+02  0.51100000000E-03 0.  1.
         11   -1    0    0    0    0 -0.00000000000E+00 -0.00000000000E+00 -0.45593999997E+02  0.45594000000E+02  0.51100000000E-03 0. -1.
    9900012    2    1    2    0    0  0.15340295472E+02  0.26212895640E+02 -0.33266695676E+02  0.46142316475E+02  0.99999882751E+01 0.  0.
        -12    1    1    2    0    0 -0.15340295472E+02 -0.26212895640E+02  0.33266695676E+02  0.45045683525E+02  0.00000000000E+00 0.  1.
         11    1    3    3    0    0  0.12756152276E+02  0.21791442425E+02 -0.22404979673E+02  0.33757510250E+02  0.51100000000E-03 0. -1.
        -11    1    3    3    0    0  0.23803665329E+01  0.11183648695E+01 -0.51854132899E+01  0.58142407983E+01  0.51100000000E-03 0.  1.
        -12    1    3    3    0    0  0.20377666375E+00  0.33030883452E+01 -0.56763027125E+01  0.65705654269E+01  0.00000000000E+00 0.  1.
</event>
<event>
 7    1  0.2031146E-008  0.4614232E+02  0.7816164E-02  0.1320468E+00
        -11   -1    0    0    0    0  0.00000000000E+00  0.00000000000E+00  0.45593999997E+02  0.45594000000E+02  0.51100000000E-03 0.  1.
         11   -1    0    0    0    0 -0.00000000000E+00 -0.00000000000E+00 -0.45593999997E+02  0.45594000000E+02  0.51100000000E-03 0. -1.
    9900012    2    1    2    0    0  0.20866862513E+01 -0.43163883555E+02 -0.12713706643E+02  0.46142318301E+02  0.10000004926E+02 0.  0.
        -12    1    1    2    0    0 -0.20866862513E+01  0.43163883555E+02  0.12713706643E+02  0.45045681699E+02  0.00000000000E+00 0.  1.
         11    1    3    3    0    0  0.21867983439E+01 -0.11867226405E+02 -0.33962896153E+01  0.12535865864E+02  0.51100000000E-03 0. -1.
        -11    1    3    3    0    0 -0.69338935315E+00 -0.17952098822E+02 -0.93408184146E+01  0.20248692053E+02  0.51100000000E-03 0.  1.
         12    1    3    3    0    0  0.59327726057E+00 -0.13344558328E+02  0.23401386753E-01  0.13357760385E+02  0.00000000000E+00 0. -1.
</event>
<event>
 7    1  0.2031146E-008  0.4614232E+02  0.7816164E-02  0.1320468E+00
        -11   -1    0    0    0    0  0.00000000000E+00  0.00000000000E+00  0.45593999997E+02  0.45594000000E+02  0.51100000000E-03 0.  1.
         11   -1    0    0    0    0 -0.00000000000E+00 -0.00000000000E+00 -0.45593999997E+02  0.45594000000E+02  0.51100000000E-03 0. -1.
    9900012    2    1    2    0    0 -0.24668165409E+02 -0.35593278131E+02 -0.12398132259E+02  0.46142317451E+02  0.99999971767E+01 0.  0.
        -12    1    1    2    0    0  0.24668165409E+02  0.35593278131E+02  0.12398132259E+02  0.45045682549E+02  0.00000000000E+00 0.  1.
         11    1    3    3    0    0 -0.12324231872E+02 -0.13981870793E+02 -0.59543640376E+01  0.19566140485E+02  0.51100000000E-03 0. -1.
        -11    1    3    3    0    0 -0.33885033109E+01 -0.22197544453E+01  0.57815593534E+00  0.40918857550E+01  0.51100000000E-03 0.  1.
         12    1    3    3    0    0 -0.89554302258E+01 -0.19391652893E+02 -0.70219241563E+01  0.22484291212E+02  0.00000000000E+00 0. -1.
</event>
<event>
 7    1  0.2031146E-008  0.4614232E+02  0.7816164E-02  0.1320468E+00
        -11   -1    0    0    0    0  0.00000000000E+00  0.00000000000E+00  0.45593999997E+02  0.45594000000E+02  0.51100000000E-03 0.  1.
         11   -1    0    0    0    0 -0.00000000000E+00 -0.00000000000E+00 -0.45593999997E+02  0.45594000000E+02  0.51100000000E-03 0. -1.
    9900012    2    1    2    0    0 -0.26105118799E+02 -0.39832449880E+01 -0.36493424202E+02  0.46142317875E+02  0.10000001038E+02 0.  0.
        -12    1    1    2    0    0  0.26105118799E+02  0.39832449880E+01  0.36493424202E+02  0.45045682125E+02  0.00000000000E+00 0.  1.
         11    1    3    3    0    0 -0.86326440113E+01 -0.91516413093E+00 -0.13413973786E+02  0.15977946083E+02  0.51100000000E-03 0. -1.
        -11    1    3    3    0    0 -0.17813541130E+02 -0.41441678399E+01 -0.21881542832E+02  0.28518385152E+02  0.51100000000E-03 0.  1.
        -12    1    3    3    0    0  0.34106634222E+00  0.10760869828E+01 -0.11979075829E+01  0.16459866408E+01  0.00000000000E+00 0.  1.
</event>
<event>
 7    1  0.2031146E-008  0.4614232E+02  0.7816164E-02  0.1320468E+00
        -11   -1    0    0    0    0  0.00000000000E+00  0.00000000000E+00  0.45593999997E+02  0.45594000000E+02  0.51100000000E-03 0. -1.
         11   -1    0    0    0    0 -0.00000000000E+00 -0.00000000000E+00 -0.45593999997E+02  0.45594000000E+02  0.51100000000E-03 0.  1.
    9900012    2    1    2    0    0  0.39411784471E+02  0.13413191472E+02  0.17202068916E+02  0.46142316126E+02  0.99999850930E+01 0.  0.
        -12    1    1    2    0    0 -0.39411784471E+02 -0.13413191472E+02 -0.17202068916E+02  0.45045683874E+02  0.00000000000E+00 0.  1.
         11    1    3    3    0    0  0.16764518418E+02  0.96355666406E+01  0.10755207664E+02  0.22126177131E+02  0.51100000000E-03 0. -1.
        -11    1    3    3    0    0  0.68201712829E+01  0.10450521501E+01  0.60808626734E+00  0.69265171258E+01  0.51100000000E-03 0.  1.
         12    1    3    3    0    0  0.15827094770E+02  0.27325726813E+01  0.58387749838E+01  0.17089621870E+02  0.00000000000E+00 0. -1.
</event>
<event>
 7    1  0.2031146E-008  0.4614232E+02  0.7816164E-02  0.1320468E+00
        -11   -1    0    0    0    0  0.00000000000E+00  0.00000000000E+00  0.45593999997E+02  0.45594000000E+02  0.51100000000E-03 0.  1.
         11   -1    0    0    0    0 -0.00000000000E+00 -0.00000000000E+00 -0.45593999997E+02  0.45594000000E+02  0.51100000000E-03 0. -1.
    9900012    2    1    2    0    0 -0.39655681514E+02  0.12485044849E+02 -0.17339673321E+02  0.46142315500E+02  0.99999793786E+01 0.  0.
        -12    1    1    2    0    0  0.39655681514E+02 -0.12485044849E+02  0.17339673321E+02  0.45045684500E+02  0.00000000000E+00 0.  1.
         11    1    3    3    0    0 -0.17666693147E+02  0.61520961669E+01 -0.10972002139E+02  0.21687442569E+02  0.51100000000E-03 0. -1.
        -11    1    3    3    0    0 -0.12409183702E+02  0.17772209456E+01 -0.58519950274E+01  0.13834457000E+02  0.51100000000E-03 0.  1.
        -12    1    3    3    0    0 -0.95798046648E+01  0.45557277369E+01 -0.51567615509E+00  0.10620415930E+02  0.00000000000E+00 0.  1.
</event>
<event>
 7    1  0.2031146E-008  0.4614232E+02  0.7816164E-02  0.1320468E+00
        -11   -1    0    0    0    0  0.00000000000E+00  0.00000000000E+00  0.45593999997E+02  0.45594000000E+02  0.51100000000E-03 0.  1.
         11   -1    0    0    0    0 -0.00000000000E+00 -0.00000000000E+00 -0.45593999997E+02  0.45594000000E+02  0.51100000000E-03 0. -1.
    9900012    2    1    2    0    0  0.40058099751E+02 -0.12742656314E+01 -0.20563034667E+02  0.46142317596E+02  0.99999984932E+01 0.  0.
        -12    1    1    2    0    0 -0.40058099751E+02  0.12742656314E+01  0.20563034667E+02  0.45045682404E+02  0.00000000000E+00 0.  1.
         11    1    3    3    0    0  0.21638611524E+02  0.19274131081E+01 -0.96944039393E+01  0.23789197086E+02  0.51100000000E-03 0.  1.
        -11    1    3    3    0    0  0.14932359461E+02 -0.44653967128E+01 -0.73169657892E+01  0.17217813900E+02  0.51100000000E-03 0. -1.
        -12    1    3    3    0    0  0.34871287654E+01  0.12637179734E+01 -0.35516649387E+01  0.51353066101E+01  0.00000000000E+00 0.  1.
</event>
<event>
 7    1  0.2031146E-008  0.4614232E+02  0.7816164E-02  0.1320468E+00
        -11   -1    0    0    0    0  0.00000000000E+00  0.00000000000E+00  0.45593999997E+02  0.45594000000E+02  0.51100000000E-03 0. -1.
         11   -1    0    0    0    0 -0.00000000000E+00 -0.00000000000E+00 -0.45593999997E+02  0.45594000000E+02  0.51100000000E-03 0.  1.
    9900012    2    1    2    0    0  0.37367996167E+02 -0.24502269634E+02  0.56907922987E+01  0.46142317945E+02  0.10000001679E+02 0.  0.
        -12    1    1    2    0    0 -0.37367996167E+02  0.24502269634E+02 -0.56907922987E+01  0.45045682055E+02  0.00000000000E+00 0.  1.
         11    1    3    3    0    0  0.54793181912E+01 -0.59596332728E+01  0.36121665555E+00  0.81037419949E+01  0.51100000000E-03 0. -1.
        -11    1    3    3    0    0  0.30497465861E+02 -0.18573284650E+02  0.64075282076E+01  0.36278350909E+02  0.51100000000E-03 0.  1.
        -12    1    3    3    0    0  0.13912121148E+01  0.30648289038E-01 -0.10779525644E+01  0.17602250416E+01  0.00000000000E+00 0.  1.
</event>
<event>
 7    1  0.2031146E-008  0.4614232E+02  0.7816164E-02  0.1320468E+00
        -11   -1    0    0    0    0  0.00000000000E+00  0.00000000000E+00  0.45593999997E+02  0.45594000000E+02  0.51100000000E-03 0.  1.
         11   -1    0    0    0    0 -0.00000000000E+00 -0.00000000000E+00 -0.45593999997E+02  0.45594000000E+02  0.51100000000E-03 0. -1.
    9900012    2    1    2    0    0  0.11994275067E+02 -0.15273067995E+02 -0.40644605729E+02  0.46142320793E+02  0.10000027646E+02 0.  0.
        -12    1    1    2    0    0 -0.11994275067E+02  0.15273067995E+02  0.40644605729E+02  0.45045679207E+02  0.00000000000E+00 0.  1.
         11    1    3    3    0    0  0.43860494249E+01 -0.72986430119E+01 -0.98583499504E+01  0.13026691191E+02  0.51100000000E-03 0. -1.
        -11    1    3    3    0    0  0.54369361774E+01 -0.22088989514E+01 -0.12266833571E+02  0.13598335034E+02  0.51100000000E-03 0.  1.
        -12    1    3    3    0    0  0.21712894646E+01 -0.57655260313E+01 -0.18519422208E+02  0.19517294568E+02  0.00000000000E+00 0.  1.
</event>
<event>
 7    1  0.2031146E-008  0.4614232E+02  0.7816164E-02  0.1320468E+00
        -11   -1    0    0    0    0  0.00000000000E+00  0.00000000000E+00  0.45593999997E+02  0.45594000000E+02  0.51100000000E-03 0.  1.
         11   -1    0    0    0    0 -0.00000000000E+00 -0.00000000000E+00 -0.45593999997E+02  0.45594000000E+02  0.51100000000E-03 0. -1.
    9900012    2    1    2    0    0 -0.42346458372E+02  0.13997208508E+02  0.63221152015E+01  0.46142317374E+02  0.99999964672E+01 0.  0.
        -12    1    1    2    0    0  0.42346458372E+02 -0.13997208508E+02 -0.63221152015E+01  0.45045682626E+02  0.00000000000E+00 0.  1.
         11    1    3    3    0    0 -0.20600692639E+02  0.79657982932E+01  0.16440001556E+01  0.22148255381E+02  0.51100000000E-03 0. -1.
        -11    1    3    3    0    0 -0.22052877372E+01 -0.77788145178E+00 -0.98924281422E+00  0.25390933743E+01  0.51100000000E-03 0.  1.
         12    1    3    3    0    0 -0.19540477996E+02  0.68092916670E+01  0.56673578601E+01  0.21454968618E+02  0.00000000000E+00 0. -1.
</event>
<event>
 7    1  0.2031146E-008  0.4614232E+02  0.7816164E-02  0.1320468E+00
        -11   -1    0    0    0    0  0.00000000000E+00  0.00000000000E+00  0.45593999997E+02  0.45594000000E+02  0.51100000000E-03 0. -1.
         11   -1    0    0    0    0 -0.00000000000E+00 -0.00000000000E+00 -0.45593999997E+02  0.45594000000E+02  0.51100000000E-03 0.  1.
    9900012    2    1    2    0    0  0.12532602812E+02  0.19384241590E+02  0.38682019098E+02  0.46142317002E+02  0.99999930767E+01 0.  0.
        -12    1    1    2    0    0 -0.12532602812E+02 -0.19384241590E+02 -0.38682019098E+02  0.45045682998E+02  0.00000000000E+00 0.  1.
         11    1    3    3    0    0  0.37890824057E+01  0.58034395067E+01  0.75957272976E+01  0.10282612947E+02  0.51100000000E-03 0. -1.
        -11    1    3    3    0    0  0.67942153741E+01  0.38867289556E+01  0.11384305233E+02  0.13815586503E+02  0.51100000000E-03 0.  1.
        -12    1    3    3    0    0  0.19493050319E+01  0.96940731280E+01  0.19701986568E+02  0.22044117552E+02  0.00000000000E+00 0.  1.
</event>
<event>
 7    1  0.2031146E-008  0.4614232E+02  0.7816164E-02  0.1320468E+00
        -11   -1    0    0    0    0  0.00000000000E+00  0.00000000000E+00  0.45593999997E+02  0.45594000000E+02  0.51100000000E-03 0.  1.
         11   -1    0    0    0    0 -0.00000000000E+00 -0.00000000000E+00 -0.45593999997E+02  0.45594000000E+02  0.51100000000E-03 0. -1.
    9900012    2    1    2    0    0  0.86477889514E+01  0.16024946613E+01 -0.44178742382E+02  0.46142317395E+02  0.99999966624E+01 0.  0.
        -12    1    1    2    0    0 -0.86477889514E+01 -0.16024946613E+01  0.44178742382E+02  0.45045682605E+02  0.00000000000E+00 0.  1.
         11    1    3    3    0    0  0.27176598270E+01  0.45942619902E+01 -0.11500435320E+02  0.12678837919E+02  0.51100000000E-03 0.  1.
        -11    1    3    3    0    0  0.15588238074E+01 -0.30081682470E+00 -0.14099018334E+02  0.14188119701E+02  0.51100000000E-03 0. -1.
        -12    1    3    3    0    0  0.43713053170E+01 -0.26909505042E+01 -0.18579288728E+02  0.19275359775E+02  0.00000000000E+00 0.  1.
</event>
<event>
 7    1  0.2031146E-008  0.4614232E+02  0.7816164E-02  0.1320468E+00
        -11   -1    0    0    0    0  0.00000000000E+00  0.00000000000E+00  0.45593999997E+02  0.45594000000E+02  0.51100000000E-03 0. -1.
         11   -1    0    0    0    0 -0.00000000000E+00 -0.00000000000E+00 -0.45593999997E+02  0.45594000000E+02  0.51100000000E-03 0.  1.
    9900012    2    1    2    0    0 -0.30871459066E+02  0.84144499210E+01  0.31705892058E+02  0.46142317149E+02  0.99999944170E+01 0.  0.
        -12    1    1    2    0    0  0.30871459066E+02 -0.84144499210E+01 -0.31705892058E+02  0.45045682851E+02  0.00000000000E+00 0.  1.
         11    1    3    3    0    0 -0.63099574100E+01  0.59209527212E+01  0.77594199841E+01  0.11622471441E+02  0.51100000000E-03 0. -1.
        -11    1    3    3    0    0 -0.23687109854E+01 -0.11275144135E+00  0.35260426786E+01  0.42492919236E+01  0.51100000000E-03 0.  1.
         12    1    3    3    0    0 -0.22192790670E+02  0.26062486412E+01  0.20420429396E+02  0.30270553784E+02  0.00000000000E+00 0. -1.
</event>
<event>
 7    1  0.2031146E-008  0.4614232E+02  0.7816164E-02  0.1320468E+00
        -11   -1    0    0    0    0  0.00000000000E+00  0.00000000000E+00  0.45593999997E+02  0.45594000000E+02  0.51100000000E-03 0. -1.
         11   -1    0    0    0    0 -0.00000000000E+00 -0.00000000000E+00 -0.45593999997E+02  0.45594000000E+02  0.51100000000E-03 0.  1.
    9900012    2    1    2    0    0 -0.13935980365E+02  0.29982186909E+02  0.30593633403E+02  0.46142317795E+02  0.10000000305E+02 0.  0.
        -12    1    1    2    0    0  0.13935980365E+02 -0.29982186909E+02 -0.30593633403E+02  0.45045682205E+02  0.00000000000E+00 0.  1.
         11    1    3    3    0    0 -0.38087327416E+01  0.50290167732E+01  0.50432846910E+01  0.80766438288E+01  0.51100000000E-03 0. -1.
        -11    1    3    3    0    0 -0.85905299695E+01  0.23822844797E+02  0.25787839742E+02  0.36143295619E+02  0.51100000000E-03 0.  1.
        -12    1    3    3    0    0 -0.15367176540E+01  0.11303253388E+01 -0.23749103004E+00  0.19223783470E+01  0.00000000000E+00 0.  1.
</event>
<event>
 7    1  0.2031146E-008  0.4614232E+02  0.7816164E-02  0.1320468E+00
        -11   -1    0    0    0    0  0.00000000000E+00  0.00000000000E+00  0.45593999997E+02  0.45594000000E+02  0.51100000000E-03 0. -1.
         11   -1    0    0    0    0 -0.00000000000E+00 -0.00000000000E+00 -0.45593999997E+02  0.45594000000E+02  0.51100000000E-03 0.  1.
    9900012    2    1    2    0    0 -0.43297165413E+02 -0.12244822410E+02  0.21291723286E+01  0.46142316705E+02  0.99999903732E+01 0.  0.
        -12    1    1    2    0    0  0.43297165413E+02  0.12244822410E+02 -0.21291723286E+01  0.45045683295E+02  0.00000000000E+00 0.  1.
         11    1    3    3    0    0 -0.33055570742E+02 -0.73705879874E+01  0.13719862426E+00  0.33867612081E+02  0.51100000000E-03 0. -1.
        -11    1    3    3    0    0 -0.20535431326E+01 -0.16257630877E+01 -0.12318614256E+01  0.28944132130E+01  0.51100000000E-03 0.  1.
         12    1    3    3    0    0 -0.81880515384E+01 -0.32484713354E+01  0.32238351299E+01  0.93802914111E+01  0.00000000000E+00 0. -1.
</event>
<event>
 7    1  0.2031146E-008  0.4614232E+02  0.7816164E-02  0.1320468E+00
        -11   -1    0    0    0    0  0.00000000000E+00  0.00000000000E+00  0.45593999997E+02  0.45594000000E+02  0.51100000000E-03 0. -1.
         11   -1    0    0    0    0 -0.00000000000E+00 -0.00000000000E+00 -0.45593999997E+02  0.45594000000E+02  0.51100000000E-03 0.  1.
    9900012    2    1    2    0    0 -0.36913951592E+02 -0.12093754070E+02  0.22808219420E+02  0.46142316713E+02  0.99999904450E+01 0.  0.
        -12    1    1    2    0    0  0.36913951592E+02  0.12093754070E+02 -0.22808219420E+02  0.45045683287E+02  0.00000000000E+00 0.  1.
         11    1    3    3    0    0 -0.22314658230E+02 -0.63551442187E+01  0.13484666703E+02  0.26835947278E+02  0.51100000000E-03 0. -1.
        -11    1    3    3    0    0 -0.71789895641E+01 -0.24501294664E+01  0.95000342948E+00  0.76448369728E+01  0.51100000000E-03 0.  1.
        -12    1    3    3    0    0 -0.74203037982E+01 -0.32884803846E+01  0.83735492880E+01  0.11661532463E+02  0.00000000000E+00 0.  1.
</event>
<event>
 7    1  0.2031146E-008  0.4614232E+02  0.7816164E-02  0.1320468E+00
        -11   -1    0    0    0    0  0.00000000000E+00  0.00000000000E+00  0.45593999997E+02  0.45594000000E+02  0.51100000000E-03 0.  1.
         11   -1    0    0    0    0 -0.00000000000E+00 -0.00000000000E+00 -0.45593999997E+02  0.45594000000E+02  0.51100000000E-03 0. -1.
    9900012    2    1    2    0    0 -0.11810390039E+02 -0.36503942067E+02 -0.23602763250E+02  0.46142317273E+02  0.99999955522E+01 0.  0.
        -12    1    1    2    0    0  0.11810390039E+02  0.36503942067E+02  0.23602763250E+02  0.45045682727E+02  0.00000000000E+00 0.  1.
         11    1    3    3    0    0 -0.44679635920E+01 -0.15123044181E+02 -0.62859004323E+01  0.16975915541E+02  0.51100000000E-03 0. -1.
        -11    1    3    3    0    0 -0.17851110070E+01 -0.79890397955E+01 -0.28070338529E+01  0.86539480859E+01  0.51100000000E-03 0.  1.
        -12    1    3    3    0    0 -0.55573154402E+01 -0.13391858091E+02 -0.14509828964E+02  0.20512453646E+02  0.00000000000E+00 0.  1.
</event>
<event>
 7    1  0.2031146E-008  0.4614232E+02  0.7816164E-02  0.1320468E+00
        -11   -1    0    0    0    0  0.00000000000E+00  0.00000000000E+00  0.45593999997E+02  0.45594000000E+02  0.51100000000E-03 0.  1.
         11   -1    0    0    0    0 -0.00000000000E+00 -0.00000000000E+00 -0.45593999997E+02  0.45594000000E+02  0.51100000000E-03 0. -1.
    9900012    2    1    2    0    0  0.20122452206E+02 -0.22290597494E+02 -0.33575730066E+02  0.46142317978E+02  0.10000001975E+02 0.  0.
        -12    1    1    2    0    0 -0.20122452206E+02  0.22290597494E+02  0.33575730066E+02  0.45045682022E+02  0.00000000000E+00 0.  1.
         11    1    3    3    0    0  0.73043303749E+01 -0.12844625418E+02 -0.15708146941E+02  0.21565795254E+02  0.51100000000E-03 0. -1.
        -11    1    3    3    0    0  0.93038560810E+01 -0.68896268066E+01 -0.88699226463E+01  0.14584382864E+02  0.51100000000E-03 0.  1.
        -12    1    3    3    0    0  0.35142657496E+01 -0.25563452702E+01 -0.89976604782E+01  0.99921398600E+01  0.00000000000E+00 0.  1.
</event>
<event>
 7    1  0.2031146E-008  0.4614232E+02  0.7816164E-02  0.1320468E+00
        -11   -1    0    0    0    0  0.00000000000E+00  0.00000000000E+00  0.45593999997E+02  0.45594000000E+02  0.51100000000E-03 0.  1.
         11   -1    0    0    0    0 -0.00000000000E+00 -0.00000000000E+00 -0.45593999997E+02  0.45594000000E+02  0.51100000000E-03 0. -1.
    9900012    2    1    2    0    0  0.19489686112E+02  0.39512172652E+02  0.93836997997E+01  0.46142317916E+02  0.10000001414E+02 0.  0.
        -12    1    1    2    0    0 -0.19489686112E+02 -0.39512172652E+02 -0.93836997997E+01  0.45045682084E+02  0.00000000000E+00 0.  1.
         11    1    3    3    0    0  0.20211561640E+02  0.34495179447E+02  0.93744094115E+01  0.41064634190E+02  0.51100000000E-03 0. -1.
        -11    1    3    3    0    0 -0.14256792077E+00  0.43271745327E+00  0.34226045330E-01  0.45688257758E+00  0.51100000000E-03 0.  1.
         12    1    3    3    0    0 -0.57930760713E+00  0.45842757517E+01 -0.24935657213E-01  0.46208011490E+01  0.00000000000E+00 0. -1.
</event>
<event>
 7    1  0.2031146E-008  0.4614232E+02  0.7816164E-02  0.1320468E+00
        -11   -1    0    0    0    0  0.00000000000E+00  0.00000000000E+00  0.45593999997E+02  0.45594000000E+02  0.51100000000E-03 0.  1.
         11   -1    0    0    0    0 -0.00000000000E+00 -0.00000000000E+00 -0.45593999997E+02  0.45594000000E+02  0.51100000000E-03 0. -1.
    9900012    2    1    2    0    0 -0.77918097848E+00  0.41218507737E+02 -0.18153270006E+02  0.46142315246E+02  0.99999770659E+01 0.  0.
        -12    1    1    2    0    0  0.77918097848E+00 -0.41218507737E+02  0.18153270006E+02  0.45045684754E+02  0.00000000000E+00 0.  1.
         11    1    3    3    0    0  0.52232078275E+00  0.25008132480E+02 -0.94261154841E+01  0.26730715712E+02  0.51100000000E-03 0. -1.
        -11    1    3    3    0    0 -0.11601154350E+00  0.10094073220E+02 -0.20906109027E+01  0.10308948883E+02  0.51100000000E-03 0.  1.
        -12    1    3    3    0    0 -0.11854902177E+01  0.61163020364E+01 -0.66365436197E+01  0.91026506509E+01  0.00000000000E+00 0.  1.
</event>
<event>
 7    1  0.2106164E-008  0.4614232E+02  0.7816164E-02  0.1320468E+00
        -11   -1    0    0    0    0  0.00000000000E+00  0.00000000000E+00  0.45593999997E+02  0.45594000000E+02  0.51100000000E-03 0. -1.
         11   -1    0    0    0    0 -0.00000000000E+00 -0.00000000000E+00 -0.45593999997E+02  0.45594000000E+02  0.51100000000E-03 0.  1.
    9900012    2    1    2    0    0  0.77709954613E+01 -0.44197450411E+02  0.39128482998E+01  0.46142319018E+02  0.10000011459E+02 0.  0.
        -12    1    1    2    0    0 -0.77709954613E+01  0.44197450411E+02 -0.39128482998E+01  0.45045680982E+02  0.00000000000E+00 0.  1.
         11    1    3    3    0    0  0.49581964112E+01 -0.31706634097E+02  0.18268895362E+01  0.32143924512E+02  0.51100000000E-03 0.  1.
        -11    1    3    3    0    0  0.27159653448E+01 -0.12402373779E+02  0.81684468600E+00  0.12722522494E+02  0.51100000000E-03 0. -1.
        -12    1    3    3    0    0  0.96833705278E-01 -0.88442535813E-01  0.12691140776E+01  0.12758720118E+01  0.00000000000E+00 0.  1.
</event>
<event>
 7    1  0.2031146E-008  0.4614232E+02  0.7816164E-02  0.1320468E+00
        -11   -1    0    0    0    0  0.00000000000E+00  0.00000000000E+00  0.45593999997E+02  0.45594000000E+02  0.51100000000E-03 0.  1.
         11   -1    0    0    0    0 -0.00000000000E+00 -0.00000000000E+00 -0.45593999997E+02  0.45594000000E+02  0.51100000000E-03 0. -1.
    9900012    2    1    2    0    0 -0.26974940584E+02  0.30137113923E+02 -0.19829787516E+02  0.46142317321E+02  0.99999959833E+01 0.  0.
        -12    1    1    2    0    0  0.26974940584E+02 -0.30137113923E+02  0.19829787516E+02  0.45045682679E+02  0.00000000000E+00 0.  1.
         11    1    3    3    0    0 -0.88443903628E+01  0.12314918888E+02 -0.93172066981E+01  0.17795808749E+02  0.51100000000E-03 0. -1.
        -11    1    3    3    0    0 -0.14914831024E+02  0.17415921283E+02 -0.81475320045E+01  0.24334107270E+02  0.51100000000E-03 0.  1.
        -12    1    3    3    0    0 -0.32157191971E+01  0.40627375228E+00 -0.23650488137E+01  0.40124013019E+01  0.00000000000E+00 0.  1.
</event>
<event>
 7    1  0.2031146E-008  0.4614232E+02  0.7816164E-02  0.1320468E+00
        -11   -1    0    0    0    0  0.00000000000E+00  0.00000000000E+00  0.45593999997E+02  0.45594000000E+02  0.51100000000E-03 0.  1.
         11   -1    0    0    0    0 -0.00000000000E+00 -0.00000000000E+00 -0.45593999997E+02  0.45594000000E+02  0.51100000000E-03 0. -1.
    9900012    2    1    2    0    0 -0.50805015491E+01  0.68105629315E+00 -0.44753081496E+02  0.46142316111E+02  0.99999849486E+01 0.  0.
        -12    1    1    2    0    0  0.50805015491E+01 -0.68105629315E+00  0.44753081496E+02  0.45045683889E+02  0.00000000000E+00 0.  1.
         11    1    3    3    0    0 -0.31608323221E+01  0.28550513003E+01 -0.29060224061E+02  0.29370713332E+02  0.51100000000E-03 0. -1.
        -11    1    3    3    0    0 -0.15047832764E+00  0.73576513730E+00 -0.39423840056E-01  0.75202963016E+00  0.51100000000E-03 0.  1.
         12    1    3    3    0    0 -0.17691908994E+01 -0.29097601445E+01 -0.15653433595E+02  0.16019573149E+02  0.00000000000E+00 0. -1.
</event>
<event>
 7    1  0.2031146E-008  0.4614232E+02  0.7816164E-02  0.1320468E+00
        -11   -1    0    0    0    0  0.00000000000E+00  0.00000000000E+00  0.45593999997E+02  0.45594000000E+02  0.51100000000E-03 0.  1.
         11   -1    0    0    0    0 -0.00000000000E+00 -0.00000000000E+00 -0.45593999997E+02  0.45594000000E+02  0.51100000000E-03 0. -1.
    9900012    2    1    2    0    0 -0.35152499559E+02 -0.60377520430E+00 -0.28161155303E+02  0.46142318322E+02  0.10000005119E+02 0.  0.
        -12    1    1    2    0    0  0.35152499559E+02  0.60377520430E+00  0.28161155303E+02  0.45045681678E+02  0.00000000000E+00 0.  1.
         11    1    3    3    0    0 -0.16353061897E+02 -0.36075599233E+01 -0.13564229248E+02  0.21550532183E+02  0.51100000000E-03 0. -1.
        -11    1    3    3    0    0 -0.29521189504E+01  0.15589396687E+01 -0.58571518288E+00  0.33894485870E+01  0.51100000000E-03 0.  1.
        -12    1    3    3    0    0 -0.15847318712E+02  0.14448450503E+01 -0.14011210873E+02  0.21202337553E+02  0.00000000000E+00 0.  1.
</event>
<event>
 7    1  0.2031146E-008  0.4614232E+02  0.7816164E-02  0.1320468E+00
        -11   -1    0    0    0    0  0.00000000000E+00  0.00000000000E+00  0.45593999997E+02  0.45594000000E+02  0.51100000000E-03 0.  1.
         11   -1    0    0    0    0 -0.00000000000E+00 -0.00000000000E+00 -0.45593999997E+02  0.45594000000E+02  0.51100000000E-03 0. -1.
    9900012    2    1    2    0    0  0.18663466506E+02 -0.57169781417E+01 -0.40596855129E+02  0.46142317993E+02  0.10000002119E+02 0.  0.
        -12    1    1    2    0    0 -0.18663466506E+02  0.57169781417E+01  0.40596855129E+02  0.45045682007E+02  0.00000000000E+00 0.  1.
         11    1    3    3    0    0  0.11933439484E+02 -0.39107610098E+01 -0.28059066500E+02  0.30741051425E+02  0.51100000000E-03 0. -1.
        -11    1    3    3    0    0  0.55876898505E+01  0.12002309112E+01 -0.76172251724E+01  0.95228646790E+01  0.51100000000E-03 0.  1.
         12    1    3    3    0    0  0.11423371717E+01 -0.30064480431E+01 -0.49205634565E+01  0.58784018899E+01  0.00000000000E+00 0. -1.
</event>
<event>
 7    1  0.2031146E-008  0.4614232E+02  0.7816164E-02  0.1320468E+00
        -11   -1    0    0    0    0  0.00000000000E+00  0.00000000000E+00  0.45593999997E+02  0.45594000000E+02  0.51100000000E-03 0. -1.
         11   -1    0    0    0    0 -0.00000000000E+00 -0.00000000000E+00 -0.45593999997E+02  0.45594000000E+02  0.51100000000E-03 0.  1.
    9900012    2    1    2    0    0 -0.13818870198E+02 -0.57936477724E+01  0.42480412630E+02  0.46142323346E+02  0.10000050926E+02 0.  0.
        -12    1    1    2    0    0  0.13818870198E+02  0.57936477724E+01 -0.42480412630E+02  0.45045676654E+02  0.00000000000E+00 0.  1.
         11    1    3    3    0    0 -0.35358371038E+01 -0.10500694107E+00  0.13957407737E+02  0.14398694437E+02  0.51100000000E-03 0. -1.
        -11    1    3    3    0    0  0.72604505188E+00 -0.18152925006E+00  0.62559749938E+01  0.63005807407E+01  0.51100000000E-03 0.  1.
         12    1    3    3    0    0 -0.11009078146E+02 -0.55071115813E+01  0.22267029899E+02  0.25443048168E+02  0.00000000000E+00 0. -1.
</event>
<event>
 7    1  0.2031146E-008  0.4614232E+02  0.7816164E-02  0.1320468E+00
        -11   -1    0    0    0    0  0.00000000000E+00  0.00000000000E+00  0.45593999997E+02  0.45594000000E+02  0.51100000000E-03 0. -1.
         11   -1    0    0    0    0 -0.00000000000E+00 -0.00000000000E+00 -0.45593999997E+02  0.45594000000E+02  0.51100000000E-03 0.  1.
    9900012    2    1    2    0    0  0.37685308087E+02 -0.19509741305E+02  0.15109630799E+02  0.46142318805E+02  0.10000009523E+02 0.  0.
        -12    1    1    2    0    0 -0.37685308087E+02  0.19509741305E+02 -0.15109630799E+02  0.45045681195E+02  0.00000000000E+00 0.  1.
         11    1    3    3    0    0  0.15553630010E+02 -0.92366184221E+01  0.41330809726E+01  0.18555669887E+02  0.51100000000E-03 0. -1.
        -11    1    3    3    0    0  0.26703970943E+01 -0.54736012676E+00 -0.80888538252E+00  0.28433992988E+01  0.51100000000E-03 0.  1.
         12    1    3    3    0    0  0.19461280983E+02 -0.97257627559E+01  0.11785435209E+02  0.24743249620E+02  0.00000000000E+00 0. -1.
</event>
<event>
 7    1  0.2031146E-008  0.4614231E+02  0.7816164E-02  0.1320468E+00
        -11   -1    0    0    0    0  0.00000000000E+00  0.00000000000E+00  0.45593999997E+02  0.45594000000E+02  0.51100000000E-03 0.  1.
         11   -1    0    0    0    0 -0.00000000000E+00 -0.00000000000E+00 -0.45593999997E+02  0.45594000000E+02  0.51100000000E-03 0. -1.
    9900012    2    1    2    0    0  0.30241222570E+02  0.35015111478E+01 -0.33201240889E+02  0.46142306317E+02  0.99998956394E+01 0.  0.
        -12    1    1    2    0    0 -0.30241222570E+02 -0.35015111478E+01  0.33201240889E+02  0.45045693683E+02  0.00000000000E+00 0.  1.
         11    1    3    3    0    0  0.13388830723E+02  0.42429316636E+01 -0.15195509357E+02  0.20692190849E+02  0.51100000000E-03 0. -1.
        -11    1    3    3    0    0  0.85372508701E+01  0.10262626891E+01 -0.51037405473E+01  0.99993017437E+01  0.51100000000E-03 0.  1.
        -12    1    3    3    0    0  0.83151409770E+01 -0.17676832049E+01 -0.12901990984E+02  0.15450813724E+02  0.00000000000E+00 0.  1.
</event>
<event>
 7    1  0.2031146E-008  0.4614232E+02  0.7816164E-02  0.1320468E+00
        -11   -1    0    0    0    0  0.00000000000E+00  0.00000000000E+00  0.45593999997E+02  0.45594000000E+02  0.51100000000E-03 0. -1.
         11   -1    0    0    0    0 -0.00000000000E+00 -0.00000000000E+00 -0.45593999997E+02  0.45594000000E+02  0.51100000000E-03 0.  1.
    9900012    2    1    2    0    0 -0.14750900144E+02 -0.19500221876E+02  0.37832073589E+02  0.46142317629E+02  0.99999987936E+01 0.  0.
        -12    1    1    2    0    0  0.14750900144E+02  0.19500221876E+02 -0.37832073589E+02  0.45045682371E+02  0.00000000000E+00 0.  1.
         11    1    3    3    0    0 -0.34108523098E+01 -0.87713433422E+01  0.87460978570E+01  0.12847747098E+02  0.51100000000E-03 0. -1.
        -11    1    3    3    0    0 -0.32326468567E+01 -0.16039218874E+01  0.10079865701E+02  0.10706365580E+02  0.51100000000E-03 0.  1.
        -12    1    3    3    0    0 -0.81074009776E+01 -0.91249566461E+01  0.19006110031E+02  0.22588204951E+02  0.00000000000E+00 0.  1.
</event>
<event>
 7    1  0.2031146E-008  0.4614232E+02  0.7816164E-02  0.1320468E+00
        -11   -1    0    0    0    0  0.00000000000E+00  0.00000000000E+00  0.45593999997E+02  0.45594000000E+02  0.51100000000E-03 0.  1.
         11   -1    0    0    0    0 -0.00000000000E+00 -0.00000000000E+00 -0.45593999997E+02  0.45594000000E+02  0.51100000000E-03 0. -1.
    9900012    2    1    2    0    0 -0.32683037376E+02 -0.26082583261E+01 -0.30888988529E+02  0.46142317011E+02  0.99999931595E+01 0.  0.
        -12    1    1    2    0    0  0.32683037376E+02  0.26082583261E+01  0.30888988529E+02  0.45045682989E+02  0.00000000000E+00 0.  1.
         11    1    3    3    0    0 -0.23556883748E+02 -0.52737078046E+01 -0.22197050561E+02  0.32794021099E+02  0.51100000000E-03 0. -1.
        -11    1    3    3    0    0 -0.23745395009E+01  0.12122361636E+01 -0.46114428851E+01  0.53266650074E+01  0.51100000000E-03 0.  1.
        -12    1    3    3    0    0 -0.67516141269E+01  0.14532133149E+01 -0.40804950824E+01  0.80216309049E+01  0.00000000000E+00 0.  1.
</event>
<event>
 7    1  0.2031146E-008  0.4614232E+02  0.7816164E-02  0.1320468E+00
        -11   -1    0    0    0    0  0.00000000000E+00  0.00000000000E+00  0.45593999997E+02  0.45594000000E+02  0.51100000000E-03 0.  1.
         11   -1    0    0    0    0 -0.00000000000E+00 -0.00000000000E+00 -0.45593999997E+02  0.45594000000E+02  0.51100000000E-03 0. -1.
    9900012    2    1    2    0    0 -0.22311157829E+02 -0.35412022201E+02 -0.16652758890E+02  0.46142318090E+02  0.10000003004E+02 0.  0.
        -12    1    1    2    0    0  0.22311157829E+02  0.35412022201E+02  0.16652758890E+02  0.45045681910E+02  0.00000000000E+00 0.  1.
         11    1    3    3    0    0 -0.83932611962E+01 -0.10412410114E+02 -0.58290655326E+01  0.14589144016E+02  0.51100000000E-03 0. -1.
        -11    1    3    3    0    0 -0.32249038662E+01 -0.21746847606E+01  0.49859347317E+00  0.39214607568E+01  0.51100000000E-03 0.  1.
         12    1    3    3    0    0 -0.10692992767E+02 -0.22824927327E+02 -0.11322286830E+02  0.27631713318E+02  0.00000000000E+00 0. -1.
</event>
<event>
 7    1  0.2031146E-008  0.4614232E+02  0.7816164E-02  0.1320468E+00
        -11   -1    0    0    0    0  0.00000000000E+00  0.00000000000E+00  0.45593999997E+02  0.45594000000E+02  0.51100000000E-03 0.  1.
         11   -1    0    0    0    0 -0.00000000000E+00 -0.00000000000E+00 -0.45593999997E+02  0.45594000000E+02  0.51100000000E-03 0. -1.
    9900012    2    1    2    0    0 -0.10926440094E+02 -0.26866928042E+01 -0.43617749306E+02  0.46142318011E+02  0.10000002280E+02 0.  0.
        -12    1    1    2    0    0  0.10926440094E+02  0.26866928042E+01  0.43617749306E+02  0.45045681989E+02  0.00000000000E+00 0.  1.
         11    1    3    3    0    0 -0.18114858412E+01  0.10222115570E+01 -0.76237034215E+01  0.79023573407E+01  0.51100000000E-03 0. -1.
        -11    1    3    3    0    0 -0.98235900110E+01 -0.50436807744E+01 -0.27896528736E+02  0.30002632422E+02  0.51100000000E-03 0.  1.
         12    1    3    3    0    0  0.70863575826E+00  0.13347764132E+01 -0.80975171479E+01  0.82373282484E+01  0.00000000000E+00 0. -1.
</event>
<event>
 7    1  0.2257328E-008  0.4614232E+02  0.7816164E-02  0.1320468E+00
        -11   -1    0    0    0    0  0.00000000000E+00  0.00000000000E+00  0.45593999997E+02  0.45594000000E+02  0.51100000000E-03 0.  1.
         11   -1    0    0    0    0 -0.00000000000E+00 -0.00000000000E+00 -0.45593999997E+02  0.45594000000E+02  0.51100000000E-03 0. -1.
    9900012    2    1    2    0    0  0.38341751804E+02 -0.83737243230E+01 -0.22111179559E+02  0.46142318165E+02  0.10000003687E+02 0.  0.
        -12    1    1    2    0    0 -0.38341751804E+02  0.83737243230E+01  0.22111179559E+02  0.45045681835E+02  0.00000000000E+00 0.  1.
         11    1    3    3    0    0  0.24429767633E+02 -0.36879647311E+01 -0.12545304873E+02  0.27709191707E+02  0.51100000000E-03 0. -1.
        -11    1    3    3    0    0  0.10418401767E+02 -0.38894071351E+01 -0.40092474039E+01  0.11821364060E+02  0.51100000000E-03 0.  1.
        -12    1    3    3    0    0  0.34935824044E+01 -0.79635245674E+00 -0.55566272823E+01  0.66117623979E+01  0.00000000000E+00 0.  1.
</event>
<event>
 7    1  0.2031146E-008  0.4614232E+02  0.7816164E-02  0.1320468E+00
        -11   -1    0    0    0    0  0.00000000000E+00  0.00000000000E+00  0.45593999997E+02  0.45594000000E+02  0.51100000000E-03 0. -1.
         11   -1    0    0    0    0 -0.00000000000E+00 -0.00000000000E+00 -0.45593999997E+02  0.45594000000E+02  0.51100000000E-03 0.  1.
    9900012    2    1    2    0    0  0.20641409693E+02  0.40027919779E+02 -0.90068051274E+00  0.46142318949E+02  0.10000010831E+02 0.  0.
        -12    1    1    2    0    0 -0.20641409693E+02 -0.40027919779E+02  0.90068051274E+00  0.45045681051E+02  0.00000000000E+00 0.  1.
         11    1    3    3    0    0  0.78987605314E+01  0.22777488886E+02 -0.31728993267E+01  0.24316079212E+02  0.51100000000E-03 0.  1.
        -11    1    3    3    0    0  0.36372268098E+01  0.76686425010E+01  0.10333481769E+01  0.85501640563E+01  0.51100000000E-03 0. -1.
        -12    1    3    3    0    0  0.91054223519E+01  0.95817883926E+01  0.12388706370E+01  0.13276075680E+02  0.00000000000E+00 0.  1.
</event>
<event>
 7    1  0.2031146E-008  0.4614232E+02  0.7816164E-02  0.1320468E+00
        -11   -1    0    0    0    0  0.00000000000E+00  0.00000000000E+00  0.45593999997E+02  0.45594000000E+02  0.51100000000E-03 0. -1.
         11   -1    0    0    0    0 -0.00000000000E+00 -0.00000000000E+00 -0.45593999997E+02  0.45594000000E+02  0.51100000000E-03 0.  1.
    9900012    2    1    2    0    0  0.28317291041E+01 -0.42743194998E+02 -0.13932482640E+02  0.46142317844E+02  0.10000000759E+02 0.  0.
        -12    1    1    2    0    0 -0.28317291041E+01  0.42743194998E+02  0.13932482640E+02  0.45045682156E+02  0.00000000000E+00 0.  1.
         11    1    3    3    0    0  0.31502187749E+00 -0.11197757483E+02 -0.42453617958E+00  0.11210229376E+02  0.51100000000E-03 0. -1.
        -11    1    3    3    0    0  0.49776962005E+00 -0.23590346358E+00  0.32920110767E+00  0.64171541137E+00  0.51100000000E-03 0.  1.
         12    1    3    3    0    0  0.20189376066E+01 -0.31309534052E+02 -0.13837147568E+02  0.34290373057E+02  0.00000000000E+00 0. -1.
</event>
<event>
 7    1  0.2031146E-008  0.4614232E+02  0.7816164E-02  0.1320468E+00
        -11   -1    0    0    0    0  0.00000000000E+00  0.00000000000E+00  0.45593999997E+02  0.45594000000E+02  0.51100000000E-03 0. -1.
         11   -1    0    0    0    0 -0.00000000000E+00 -0.00000000000E+00 -0.45593999997E+02  0.45594000000E+02  0.51100000000E-03 0.  1.
    9900012    2    1    2    0    0 -0.33508473322E+02  0.30082819983E+02 -0.11487696207E+01  0.46142317475E+02  0.99999973919E+01 0.  0.
        -12    1    1    2    0    0  0.33508473322E+02 -0.30082819983E+02  0.11487696207E+01  0.45045682525E+02  0.00000000000E+00 0.  1.
         11    1    3    3    0    0 -0.15663666266E+02  0.11906171048E+02 -0.28017303024E+01  0.19873526180E+02  0.51100000000E-03 0. -1.
        -11    1    3    3    0    0 -0.11566084279E+02  0.80553718378E+01 -0.76374933648E+00  0.14115474994E+02  0.51100000000E-03 0.  1.
         12    1    3    3    0    0 -0.62787227780E+01  0.10121277097E+02  0.24167100182E+01  0.12153316301E+02  0.00000000000E+00 0. -1.
</event>
<event>
 7    1  0.2031146E-008  0.4614232E+02  0.7816164E-02  0.1320468E+00
        -11   -1    0    0    0    0  0.00000000000E+00  0.00000000000E+00  0.45593999997E+02  0.45594000000E+02  0.51100000000E-03 0. -1.
         11   -1    0    0    0    0 -0.00000000000E+00 -0.00000000000E+00 -0.45593999997E+02  0.45594000000E+02  0.51100000000E-03 0.  1.
    9900012    2    1    2    0    0 -0.31104646031E+02 -0.30866293523E+02  0.10434865080E+02  0.46142317745E+02  0.99999998529E+01 0.  0.
        -12    1    1    2    0    0  0.31104646031E+02  0.30866293523E+02 -0.10434865080E+02  0.45045682255E+02  0.00000000000E+00 0.  1.
         11    1    3    3    0    0 -0.20929745685E+02 -0.17976894988E+02  0.96438942134E+01  0.29227174063E+02  0.51100000000E-03 0. -1.
        -11    1    3    3    0    0 -0.78936451474E+00 -0.34642497214E+01  0.65699828283E+00  0.36132768333E+01  0.51100000000E-03 0.  1.
        -12    1    3    3    0    0 -0.93855358320E+01 -0.94251488139E+01  0.13397258341E+00  0.13301866849E+02  0.00000000000E+00 0.  1.
</event>
<event>
 7    1  0.2031146E-008  0.4614232E+02  0.7816164E-02  0.1320468E+00
        -11   -1    0    0    0    0  0.00000000000E+00  0.00000000000E+00  0.45593999997E+02  0.45594000000E+02  0.51100000000E-03 0.  1.
         11   -1    0    0    0    0 -0.00000000000E+00 -0.00000000000E+00 -0.45593999997E+02  0.45594000000E+02  0.51100000000E-03 0. -1.
    9900012    2    1    2    0    0  0.10897436168E+01 -0.43221330201E+02  0.12642886014E+02  0.46142317718E+02  0.99999996026E+01 0.  0.
        -12    1    1    2    0    0 -0.10897436168E+01  0.43221330201E+02 -0.12642886014E+02  0.45045682282E+02  0.00000000000E+00 0.  1.
         11    1    3    3    0    0 -0.21517833968E+01 -0.29278248559E+02  0.11894697990E+02  0.31675382413E+02  0.51100000000E-03 0. -1.
        -11    1    3    3    0    0  0.37188055323E+00 -0.33337788773E+01 -0.55262839552E+00  0.33996728009E+01  0.51100000000E-03 0.  1.
         12    1    3    3    0    0  0.28696464603E+01 -0.10609302765E+02  0.13008164195E+01  0.11067262503E+02  0.00000000000E+00 0. -1.
</event>
<event>
 7    1  0.2031146E-008  0.4614231E+02  0.7816164E-02  0.1320468E+00
        -11   -1    0    0    0    0  0.00000000000E+00  0.00000000000E+00  0.45593999997E+02  0.45594000000E+02  0.51100000000E-03 0.  1.
         11   -1    0    0    0    0 -0.00000000000E+00 -0.00000000000E+00 -0.45593999997E+02  0.45594000000E+02  0.51100000000E-03 0. -1.
    9900012    2    1    2    0    0  0.24290172095E+02  0.12541136382E+02 -0.35802536208E+02  0.46142310294E+02  0.99999319066E+01 0.  0.
        -12    1    1    2    0    0 -0.24290172095E+02 -0.12541136382E+02  0.35802536208E+02  0.45045689706E+02  0.00000000000E+00 0.  1.
         11    1    3    3    0    0  0.63886869124E+01  0.37022986346E+01 -0.49895436805E+01  0.89116711141E+01  0.51100000000E-03 0. -1.
        -11    1    3    3    0    0  0.33056007503E-01  0.15238644528E+01 -0.15661916233E+01  0.21854546512E+01  0.51100000000E-03 0.  1.
        -12    1    3    3    0    0  0.17868429175E+02  0.73149732942E+01 -0.29246800904E+02  0.35045184529E+02  0.00000000000E+00 0.  1.
</event>
<event>
 7    1  0.2031146E-008  0.4614232E+02  0.7816164E-02  0.1320468E+00
        -11   -1    0    0    0    0  0.00000000000E+00  0.00000000000E+00  0.45593999997E+02  0.45594000000E+02  0.51100000000E-03 0.  1.
         11   -1    0    0    0    0 -0.00000000000E+00 -0.00000000000E+00 -0.45593999997E+02  0.45594000000E+02  0.51100000000E-03 0. -1.
    9900012    2    1    2    0    0 -0.37935379538E+02 -0.50710617592E+01 -0.23755099871E+02  0.46142318099E+02  0.10000003080E+02 0.  0.
        -12    1    1    2    0    0  0.37935379538E+02  0.50710617592E+01  0.23755099871E+02  0.45045681901E+02  0.00000000000E+00 0.  1.
         11    1    3    3    0    0 -0.12197185739E+02 -0.51512872269E+01 -0.63478687085E+01  0.14683410280E+02  0.51100000000E-03 0. -1.
        -11    1    3    3    0    0 -0.71321446185E+01 -0.19225567421E+01 -0.36952474599E+01  0.82594530895E+01  0.51100000000E-03 0.  1.
        -12    1    3    3    0    0 -0.18606049181E+02  0.20027822098E+01 -0.13711983702E+02  0.23199454729E+02  0.00000000000E+00 0.  1.
</event>
<event>
 7    1  0.2031146E-008  0.4614232E+02  0.7816164E-02  0.1320468E+00
        -11   -1    0    0    0    0  0.00000000000E+00  0.00000000000E+00  0.45593999997E+02  0.45594000000E+02  0.51100000000E-03 0. -1.
         11   -1    0    0    0    0 -0.00000000000E+00 -0.00000000000E+00 -0.45593999997E+02  0.45594000000E+02  0.51100000000E-03 0.  1.
    9900012    2    1    2    0    0  0.10591764064E+02  0.42420814252E+02  0.10835240191E+02  0.46142318989E+02  0.10000011194E+02 0.  0.
        -12    1    1    2    0    0 -0.10591764064E+02 -0.42420814252E+02 -0.10835240191E+02  0.45045681011E+02  0.00000000000E+00 0.  1.
         11    1    3    3    0    0  0.72021790408E+01  0.20505823331E+02  0.86856977902E+01  0.23405160110E+02  0.51100000000E-03 0. -1.
        -11    1    3    3    0    0  0.24216475060E+01  0.15320494053E+02  0.35840025114E+01  0.15919390344E+02  0.51100000000E-03 0.  1.
        -12    1    3    3    0    0  0.96793751768E+00  0.65944968682E+01 -0.14344601108E+01  0.68177685347E+01  0.00000000000E+00 0.  1.
</event>
<event>
 7    1  0.2031146E-008  0.4614231E+02  0.7816164E-02  0.1320468E+00
        -11   -1    0    0    0    0  0.00000000000E+00  0.00000000000E+00  0.45593999997E+02  0.45594000000E+02  0.51100000000E-03 0. -1.
         11   -1    0    0    0    0 -0.00000000000E+00 -0.00000000000E+00 -0.45593999997E+02  0.45594000000E+02  0.51100000000E-03 0.  1.
    9900012    2    1    2    0    0  0.16822992653E+02  0.17701958265E+00  0.41786000435E+02  0.46142309306E+02  0.99999229001E+01 0.  0.
        -12    1    1    2    0    0 -0.16822992653E+02 -0.17701958265E+00 -0.41786000435E+02  0.45045690694E+02  0.00000000000E+00 0.  1.
         11    1    3    3    0    0  0.46549503750E+01 -0.16427512914E+00  0.24723936813E+02  0.25158867246E+02  0.51100000000E-03 0.  1.
        -11    1    3    3    0    0  0.25174810269E+01 -0.10573565976E-01  0.42482633772E+01  0.49381742076E+01  0.51100000000E-03 0. -1.
        -12    1    3    3    0    0  0.96505612507E+01  0.35186827777E+00  0.12813800245E+02  0.16045267853E+02  0.00000000000E+00 0.  1.
</event>
<event>
 7    1  0.2031146E-008  0.4614232E+02  0.7816164E-02  0.1320468E+00
        -11   -1    0    0    0    0  0.00000000000E+00  0.00000000000E+00  0.45593999997E+02  0.45594000000E+02  0.51100000000E-03 0.  1.
         11   -1    0    0    0    0 -0.00000000000E+00 -0.00000000000E+00 -0.45593999997E+02  0.45594000000E+02  0.51100000000E-03 0. -1.
    9900012    2    1    2    0    0 -0.18843465938E+02 -0.37660505262E+02 -0.15991360778E+02  0.46142317802E+02  0.10000000374E+02 0.  0.
        -12    1    1    2    0    0  0.18843465938E+02  0.37660505262E+02  0.15991360778E+02  0.45045682198E+02  0.00000000000E+00 0.  1.
         11    1    3    3    0    0 -0.27932428136E+01 -0.32552198692E+01 -0.52339860116E+00  0.43211813396E+01  0.51100000000E-03 0. -1.
        -11    1    3    3    0    0 -0.34437379572E+01 -0.20183256046E+01 -0.25883558012E+01  0.47573685351E+01  0.51100000000E-03 0.  1.
         12    1    3    3    0    0 -0.12606485167E+02 -0.32386959788E+02 -0.12879606376E+02  0.37063767927E+02  0.00000000000E+00 0. -1.
</event>
<event>
 7    1  0.2031146E-008  0.4614232E+02  0.7816164E-02  0.1320468E+00
        -11   -1    0    0    0    0  0.00000000000E+00  0.00000000000E+00  0.45593999997E+02  0.45594000000E+02  0.51100000000E-03 0.  1.
         11   -1    0    0    0    0 -0.00000000000E+00 -0.00000000000E+00 -0.45593999997E+02  0.45594000000E+02  0.51100000000E-03 0. -1.
    9900012    2    1    2    0    0  0.35379936547E+01 -0.12472057791E+02 -0.43139817356E+02  0.46142318008E+02  0.10000002247E+02 0.  0.
        -12    1    1    2    0    0 -0.35379936547E+01  0.12472057791E+02  0.43139817356E+02  0.45045681992E+02  0.00000000000E+00 0.  1.
         11    1    3    3    0    0  0.18438463668E+00 -0.57061308857E+01 -0.15657507270E+02  0.16665877162E+02  0.51100000000E-03 0. -1.
        -11    1    3    3    0    0  0.33636834390E-01 -0.69942877417E+01 -0.14875627454E+02  0.16437928241E+02  0.51100000000E-03 0.  1.
         12    1    3    3    0    0  0.33199721836E+01  0.22836083599E+00 -0.12606682632E+02  0.13038512605E+02  0.00000000000E+00 0. -1.
</event>
<event>
 7    1  0.2031146E-008  0.4614232E+02  0.7816164E-02  0.1320468E+00
        -11   -1    0    0    0    0  0.00000000000E+00  0.00000000000E+00  0.45593999997E+02  0.45594000000E+02  0.51100000000E-03 0.  1.
         11   -1    0    0    0    0 -0.00000000000E+00 -0.00000000000E+00 -0.45593999997E+02  0.45594000000E+02  0.51100000000E-03 0. -1.
    9900012    2    1    2    0    0 -0.11672854260E+02 -0.47499155188E+01 -0.43246920402E+02  0.46142319317E+02  0.10000014184E+02 0.  0.
        -12    1    1    2    0    0  0.11672854260E+02  0.47499155188E+01  0.43246920402E+02  0.45045680683E+02  0.00000000000E+00 0.  1.
         11    1    3    3    0    0 -0.67836351042E+01 -0.75989205349E+00 -0.22788191277E+02  0.23788585564E+02  0.51100000000E-03 0. -1.
        -11    1    3    3    0    0 -0.51514651814E+01 -0.47017563312E+00 -0.91982012191E+01  0.10552988419E+02  0.51100000000E-03 0.  1.
        -12    1    3    3    0    0  0.26224602572E+00 -0.35198478322E+01 -0.11260527905E+02  0.11800745334E+02  0.00000000000E+00 0.  1.
</event>
<event>
 7    1  0.2031146E-008  0.4614232E+02  0.7816164E-02  0.1320468E+00
        -11   -1    0    0    0    0  0.00000000000E+00  0.00000000000E+00  0.45593999997E+02  0.45594000000E+02  0.51100000000E-03 0. -1.
         11   -1    0    0    0    0 -0.00000000000E+00 -0.00000000000E+00 -0.45593999997E+02  0.45594000000E+02  0.51100000000E-03 0.  1.
    9900012    2    1    2    0    0 -0.35091326983E+02 -0.27818708235E+02  0.48817741118E+01  0.46142317900E+02  0.10000001271E+02 0.  0.
        -12    1    1    2    0    0  0.35091326983E+02  0.27818708235E+02 -0.48817741118E+01  0.45045682100E+02  0.00000000000E+00 0.  1.
         11    1    3    3    0    0 -0.12417140968E+02 -0.74954026901E+01  0.48790825859E+01  0.15302676186E+02  0.51100000000E-03 0. -1.
        -11    1    3    3    0    0 -0.54440107402E+01 -0.52781539257E+01 -0.21022656801E+01  0.78686519210E+01  0.51100000000E-03 0.  1.
         12    1    3    3    0    0 -0.17230175275E+02 -0.15045151619E+02  0.21049572061E+01  0.22970989794E+02  0.00000000000E+00 0. -1.
</event>
<event>
 7    1  0.2031146E-008  0.4614232E+02  0.7816164E-02  0.1320468E+00
        -11   -1    0    0    0    0  0.00000000000E+00  0.00000000000E+00  0.45593999997E+02  0.45594000000E+02  0.51100000000E-03 0.  1.
         11   -1    0    0    0    0 -0.00000000000E+00 -0.00000000000E+00 -0.45593999997E+02  0.45594000000E+02  0.51100000000E-03 0. -1.
    9900012    2    1    2    0    0 -0.47646773849E+01 -0.20207786973E+01 -0.44747377095E+02  0.46142318143E+02  0.10000003481E+02 0.  0.
        -12    1    1    2    0    0  0.47646773849E+01  0.20207786973E+01  0.44747377095E+02  0.45045681857E+02  0.00000000000E+00 0.  1.
         11    1    3    3    0    0 -0.61379506966E+01  0.70782793406E+00 -0.17766977136E+02  0.18810660167E+02  0.51100000000E-03 0. -1.
        -11    1    3    3    0    0  0.32090280461E+00 -0.31530757401E+01 -0.17625385166E+02  0.17908072698E+02  0.51100000000E-03 0.  1.
         12    1    3    3    0    0  0.10523705070E+01  0.42446910879E+00 -0.93550147927E+01  0.94235852773E+01  0.00000000000E+00 0. -1.
</event>
<event>
 7    1  0.2031146E-008  0.4614232E+02  0.7816164E-02  0.1320468E+00
        -11   -1    0    0    0    0  0.00000000000E+00  0.00000000000E+00  0.45593999997E+02  0.45594000000E+02  0.51100000000E-03 0. -1.
         11   -1    0    0    0    0 -0.00000000000E+00 -0.00000000000E+00 -0.45593999997E+02  0.45594000000E+02  0.51100000000E-03 0.  1.
    9900012    2    1    2    0    0 -0.26606380120E+02  0.12919857941E+02  0.33974862567E+02  0.46142317868E+02  0.10000000971E+02 0.  0.
        -12    1    1    2    0    0  0.26606380120E+02 -0.12919857941E+02 -0.33974862567E+02  0.45045682132E+02  0.00000000000E+00 0.  1.
         11    1    3    3    0    0 -0.15186502117E+02  0.29482626018E+01  0.17962366131E+02  0.23705878937E+02  0.51100000000E-03 0. -1.
        -11    1    3    3    0    0 -0.64335711528E+00  0.11532757900E+01  0.34055624179E+01  0.36526441202E+01  0.51100000000E-03 0.  1.
         12    1    3    3    0    0 -0.10776520888E+02  0.88183195488E+01  0.12606934019E+02  0.18783794810E+02  0.00000000000E+00 0. -1.
</event>
<event>
 7    1  0.2031146E-008  0.4614232E+02  0.7816164E-02  0.1320468E+00
        -11   -1    0    0    0    0  0.00000000000E+00  0.00000000000E+00  0.45593999997E+02  0.45594000000E+02  0.51100000000E-03 0.  1.
         11   -1    0    0    0    0 -0.00000000000E+00 -0.00000000000E+00 -0.45593999997E+02  0.45594000000E+02  0.51100000000E-03 0. -1.
    9900012    2    1    2    0    0  0.11297153646E+02 -0.43143751634E+02 -0.63328081613E+01  0.46142318245E+02  0.10000004416E+02 0.  0.
        -12    1    1    2    0    0 -0.11297153646E+02  0.43143751634E+02  0.63328081613E+01  0.45045681755E+02  0.00000000000E+00 0.  1.
         11    1    3    3    0    0  0.39070601632E+01 -0.22509697014E+02 -0.54093710733E+01  0.23477923129E+02  0.51100000000E-03 0. -1.
        -11    1    3    3    0    0  0.13777237557E+01 -0.46476010415E+01 -0.26032850799E+01  0.55023096656E+01  0.51100000000E-03 0.  1.
         12    1    3    3    0    0  0.60123697273E+01 -0.15986453578E+02  0.16798479919E+01  0.17162085451E+02  0.00000000000E+00 0. -1.
</event>
<event>
 7    1  0.2031146E-008  0.4614232E+02  0.7816164E-02  0.1320468E+00
        -11   -1    0    0    0    0  0.00000000000E+00  0.00000000000E+00  0.45593999997E+02  0.45594000000E+02  0.51100000000E-03 0.  1.
         11   -1    0    0    0    0 -0.00000000000E+00 -0.00000000000E+00 -0.45593999997E+02  0.45594000000E+02  0.51100000000E-03 0. -1.
    9900012    2    1    2    0    0 -0.11517990275E+02  0.10458920637E+01 -0.43535680939E+02  0.46142317576E+02  0.99999983150E+01 0.  0.
        -12    1    1    2    0    0  0.11517990275E+02 -0.10458920637E+01  0.43535680939E+02  0.45045682424E+02  0.00000000000E+00 0.  1.
         11    1    3    3    0    0 -0.40510520111E+01 -0.83859884232E+00 -0.26941140320E+02  0.27256913113E+02  0.51100000000E-03 0. -1.
        -11    1    3    3    0    0  0.38359394956E-01  0.10695821927E+01 -0.45204123793E+01  0.46453854361E+01  0.51100000000E-03 0.  1.
         12    1    3    3    0    0 -0.75052976589E+01  0.81490871331E+00 -0.12074128239E+02  0.14240019027E+02  0.00000000000E+00 0. -1.
</event>
<event>
 7    1  0.2031146E-008  0.4614232E+02  0.7816164E-02  0.1320468E+00
        -11   -1    0    0    0    0  0.00000000000E+00  0.00000000000E+00  0.45593999997E+02  0.45594000000E+02  0.51100000000E-03 0.  1.
         11   -1    0    0    0    0 -0.00000000000E+00 -0.00000000000E+00 -0.45593999997E+02  0.45594000000E+02  0.51100000000E-03 0. -1.
    9900012    2    1    2    0    0  0.24207612510E+02  0.27769883047E+01 -0.37886582670E+02  0.46142319698E+02  0.10000017658E+02 0.  0.
        -12    1    1    2    0    0 -0.24207612510E+02 -0.27769883047E+01  0.37886582670E+02  0.45045680302E+02  0.00000000000E+00 0.  1.
         11    1    3    3    0    0  0.10669938715E+01  0.12187857624E+01 -0.46453440229E+00  0.16851430588E+01  0.51100000000E-03 0. -1.
        -11    1    3    3    0    0  0.81391670167E+01  0.27184901149E+01 -0.99886215859E+01  0.13168477121E+02  0.51100000000E-03 0.  1.
         12    1    3    3    0    0  0.15001451622E+02 -0.11602875725E+01 -0.27433426682E+02  0.31288699518E+02  0.00000000000E+00 0. -1.
</event>
<event>
 7    1  0.2031146E-008  0.4614232E+02  0.7816164E-02  0.1320468E+00
        -11   -1    0    0    0    0  0.00000000000E+00  0.00000000000E+00  0.45593999997E+02  0.45594000000E+02  0.51100000000E-03 0.  1.
         11   -1    0    0    0    0 -0.00000000000E+00 -0.00000000000E+00 -0.45593999997E+02  0.45594000000E+02  0.51100000000E-03 0. -1.
    9900012    2    1    2    0    0 -0.28232906969E+02  0.31595533825E+02 -0.15288507303E+02  0.46142320417E+02  0.10000024215E+02 0.  0.
        -12    1    1    2    0    0  0.28232906969E+02 -0.31595533825E+02  0.15288507303E+02  0.45045679583E+02  0.00000000000E+00 0.  1.
         11    1    3    3    0    0 -0.13113448424E+02  0.16031466686E+02 -0.11427589319E+02  0.23655025927E+02  0.51100000000E-03 0. -1.
        -11    1    3    3    0    0 -0.28668113457E+00  0.18214047159E+01 -0.89767671544E+00  0.20507376621E+01  0.51100000000E-03 0.  1.
        -12    1    3    3    0    0 -0.14832777410E+02  0.13742662423E+02 -0.29632412679E+01  0.20436556827E+02  0.00000000000E+00 0.  1.
</event>
<event>
 7    1  0.2031146E-008  0.4614232E+02  0.7816164E-02  0.1320468E+00
        -11   -1    0    0    0    0  0.00000000000E+00  0.00000000000E+00  0.45593999997E+02  0.45594000000E+02  0.51100000000E-03 0.  1.
         11   -1    0    0    0    0 -0.00000000000E+00 -0.00000000000E+00 -0.45593999997E+02  0.45594000000E+02  0.51100000000E-03 0. -1.
    9900012    2    1    2    0    0 -0.12307232504E+02  0.34761814511E+02 -0.25870094354E+02  0.46142317611E+02  0.99999986294E+01 0.  0.
        -12    1    1    2    0    0  0.12307232504E+02 -0.34761814511E+02  0.25870094354E+02  0.45045682389E+02  0.00000000000E+00 0.  1.
         11    1    3    3    0    0 -0.86331953676E+01  0.26196572691E+02 -0.17503916099E+02  0.32667714369E+02  0.51100000000E-03 0. -1.
        -11    1    3    3    0    0 -0.35834213880E+01  0.57177775996E+01 -0.29700331711E+01  0.73725834564E+01  0.51100000000E-03 0.  1.
        -12    1    3    3    0    0 -0.90615748549E-01  0.28474642204E+01 -0.53961450832E+01  0.61020197852E+01  0.00000000000E+00 0.  1.
</event>
<event>
 7    1  0.2031146E-008  0.4614232E+02  0.7816164E-02  0.1320468E+00
        -11   -1    0    0    0    0  0.00000000000E+00  0.00000000000E+00  0.45593999997E+02  0.45594000000E+02  0.51100000000E-03 0.  1.
         11   -1    0    0    0    0 -0.00000000000E+00 -0.00000000000E+00 -0.45593999997E+02  0.45594000000E+02  0.51100000000E-03 0. -1.
    9900012    2    1    2    0    0 -0.11442386044E+02 -0.15793694083E+02 -0.40604735389E+02  0.46142317552E+02  0.99999980949E+01 0.  0.
        -12    1    1    2    0    0  0.11442386044E+02  0.15793694083E+02  0.40604735389E+02  0.45045682448E+02  0.00000000000E+00 0.  1.
         11    1    3    3    0    0 -0.75164953553E+01 -0.98510683479E+01 -0.26540362838E+02  0.29290478143E+02  0.51100000000E-03 0. -1.
        -11    1    3    3    0    0 -0.40592445995E+01 -0.69544920817E+01 -0.11074646969E+02  0.13692707277E+02  0.51100000000E-03 0.  1.
         12    1    3    3    0    0  0.13335391038E+00  0.10118663468E+01 -0.29897255824E+01  0.31591321320E+01  0.00000000000E+00 0. -1.
</event>
<event>
 7    1  0.2031146E-008  0.4614232E+02  0.7816164E-02  0.1320468E+00
        -11   -1    0    0    0    0  0.00000000000E+00  0.00000000000E+00  0.45593999997E+02  0.45594000000E+02  0.51100000000E-03 0.  1.
         11   -1    0    0    0    0 -0.00000000000E+00 -0.00000000000E+00 -0.45593999997E+02  0.45594000000E+02  0.51100000000E-03 0. -1.
    9900012    2    1    2    0    0  0.53288792780E+01 -0.37364596223E+02 -0.24588686232E+02  0.46142317678E+02  0.99999992406E+01 0.  0.
        -12    1    1    2    0    0 -0.53288792780E+01  0.37364596223E+02  0.24588686232E+02  0.45045682322E+02  0.00000000000E+00 0.  1.
         11    1    3    3    0    0 -0.41516356489E+00 -0.19283922805E+02 -0.12632242108E+02  0.23056790333E+02  0.51100000000E-03 0.  1.
        -11    1    3    3    0    0  0.54217774050E+01 -0.87795502198E+01 -0.50001474380E+01  0.11466370261E+02  0.51100000000E-03 0. -1.
         12    1    3    3    0    0  0.32226543793E+00 -0.93011231979E+01 -0.69562966864E+01  0.11619157084E+02  0.00000000000E+00 0. -1.
</event>
<event>
 7    1  0.2031146E-008  0.4614232E+02  0.7816164E-02  0.1320468E+00
        -11   -1    0    0    0    0  0.00000000000E+00  0.00000000000E+00  0.45593999997E+02  0.45594000000E+02  0.51100000000E-03 0.  1.
         11   -1    0    0    0    0 -0.00000000000E+00 -0.00000000000E+00 -0.45593999997E+02  0.45594000000E+02  0.51100000000E-03 0. -1.
    9900012    2    1    2    0    0  0.44126013796E+02  0.90546920397E+01  0.14530579147E+00  0.46142315909E+02  0.99999831126E+01 0.  0.
        -12    1    1    2    0    0 -0.44126013796E+02 -0.90546920397E+01 -0.14530579147E+00  0.45045684091E+02  0.00000000000E+00 0.  1.
         11    1    3    3    0    0  0.40812641029E+01 -0.13163399355E+01  0.59776520595E+00  0.43297564604E+01  0.51100000000E-03 0.  1.
        -11    1    3    3    0    0  0.13023076317E+02  0.19543267172E+01  0.23319289681E+01  0.13373772940E+02  0.51100000000E-03 0. -1.
         12    1    3    3    0    0  0.27021673376E+02  0.84167052580E+01 -0.27843883826E+01  0.28438786509E+02  0.00000000000E+00 0. -1.
</event>
<event>
 7    1  0.2031146E-008  0.4614232E+02  0.7816164E-02  0.1320468E+00
        -11   -1    0    0    0    0  0.00000000000E+00  0.00000000000E+00  0.45593999997E+02  0.45594000000E+02  0.51100000000E-03 0.  1.
         11   -1    0    0    0    0 -0.00000000000E+00 -0.00000000000E+00 -0.45593999997E+02  0.45594000000E+02  0.51100000000E-03 0. -1.
    9900012    2    1    2    0    0  0.44510494945E+01 -0.37276363596E+02 -0.24895266855E+02  0.46142318339E+02  0.10000005271E+02 0.  0.
        -12    1    1    2    0    0 -0.44510494945E+01  0.37276363596E+02  0.24895266855E+02  0.45045681661E+02  0.00000000000E+00 0.  1.
         11    1    3    3    0    0  0.13784174044E+01 -0.18295056577E+02 -0.16331396204E+02  0.24562647087E+02  0.51100000000E-03 0. -1.
        -11    1    3    3    0    0  0.70988422134E+00 -0.35785390738E+00 -0.11455032271E+01  0.13943360180E+01  0.51100000000E-03 0.  1.
         12    1    3    3    0    0  0.23627478688E+01 -0.18623453111E+02 -0.74183674241E+01  0.20185335234E+02  0.00000000000E+00 0. -1.
</event>
<event>
 7    1  0.2031146E-008  0.4614232E+02  0.7816164E-02  0.1320468E+00
        -11   -1    0    0    0    0  0.00000000000E+00  0.00000000000E+00  0.45593999997E+02  0.45594000000E+02  0.51100000000E-03 0.  1.
         11   -1    0    0    0    0 -0.00000000000E+00 -0.00000000000E+00 -0.45593999997E+02  0.45594000000E+02  0.51100000000E-03 0. -1.
    9900012    2    1    2    0    0 -0.39231795356E+02  0.13026752199E+02 -0.17896463053E+02  0.46142318415E+02  0.10000005959E+02 0.  0.
        -12    1    1    2    0    0  0.39231795356E+02 -0.13026752199E+02  0.17896463053E+02  0.45045681585E+02  0.00000000000E+00 0.  1.
         11    1    3    3    0    0 -0.41878683614E+01  0.44481253912E+01 -0.31134427457E+01  0.68569371370E+01  0.51100000000E-03 0. -1.
        -11    1    3    3    0    0 -0.24579769347E+02  0.66224637170E+01 -0.12658966710E+02  0.28430116518E+02  0.51100000000E-03 0.  1.
        -12    1    3    3    0    0 -0.10464157648E+02  0.19561630903E+01 -0.21240535976E+01  0.10855264759E+02  0.00000000000E+00 0.  1.
</event>
<event>
 7    1  0.2692008E-008  0.4614232E+02  0.7816164E-02  0.1320468E+00
        -11   -1    0    0    0    0  0.00000000000E+00  0.00000000000E+00  0.45593999997E+02  0.45594000000E+02  0.51100000000E-03 0.  1.
         11   -1    0    0    0    0 -0.00000000000E+00 -0.00000000000E+00 -0.45593999997E+02  0.45594000000E+02  0.51100000000E-03 0. -1.
    9900012    2    1    2    0    0 -0.30702012912E+02 -0.21513819126E+02 -0.24973094624E+02  0.46142318017E+02  0.10000002331E+02 0.  0.
        -12    1    1    2    0    0  0.30702012912E+02  0.21513819126E+02  0.24973094624E+02  0.45045681983E+02  0.00000000000E+00 0.  1.
         11    1    3    3    0    0 -0.18456914934E+02 -0.13394346306E+02 -0.17259819480E+02  0.28600132703E+02  0.51100000000E-03 0. -1.
        -11    1    3    3    0    0 -0.10488743280E+02 -0.58248966695E+01 -0.83062485858E+01  0.14592358364E+02  0.51100000000E-03 0.  1.
        -12    1    3    3    0    0 -0.17563546982E+01 -0.22945761499E+01  0.59297344147E+00  0.29498269501E+01  0.00000000000E+00 0.  1.
</event>
<event>
 7    1  0.2031146E-008  0.4614232E+02  0.7816164E-02  0.1320468E+00
        -11   -1    0    0    0    0  0.00000000000E+00  0.00000000000E+00  0.45593999997E+02  0.45594000000E+02  0.51100000000E-03 0.  1.
         11   -1    0    0    0    0 -0.00000000000E+00 -0.00000000000E+00 -0.45593999997E+02  0.45594000000E+02  0.51100000000E-03 0. -1.
    9900012    2    1    2    0    0  0.36264923965E+02 -0.23593597297E+02 -0.12542366030E+02  0.46142317751E+02  0.99999999091E+01 0.  0.
        -12    1    1    2    0    0 -0.36264923965E+02  0.23593597297E+02  0.12542366030E+02  0.45045682249E+02  0.00000000000E+00 0.  1.
         11    1    3    3    0    0  0.95296559198E+01 -0.62177104317E+01 -0.76121014561E+01  0.13690082315E+02  0.51100000000E-03 0. -1.
        -11    1    3    3    0    0  0.28007250179E+01 -0.16180464978E+01  0.53830192010E+00  0.32790096543E+01  0.51100000000E-03 0.  1.
         12    1    3    3    0    0  0.23934543027E+02 -0.15757840368E+02 -0.54685664943E+01  0.29173225781E+02  0.00000000000E+00 0. -1.
</event>
<event>
 7    1  0.2031146E-008  0.4614231E+02  0.7816164E-02  0.1320468E+00
        -11   -1    0    0    0    0  0.00000000000E+00  0.00000000000E+00  0.45593999997E+02  0.45594000000E+02  0.51100000000E-03 0.  1.
         11   -1    0    0    0    0 -0.00000000000E+00 -0.00000000000E+00 -0.45593999997E+02  0.45594000000E+02  0.51100000000E-03 0. -1.
    9900012    2    1    2    0    0 -0.11447616165E+02  0.29749207231E+02 -0.31828456327E+02  0.46142313427E+02  0.99999604738E+01 0.  0.
        -12    1    1    2    0    0  0.11447616165E+02 -0.29749207231E+02  0.31828456327E+02  0.45045686573E+02  0.00000000000E+00 0.  1.
         11    1    3    3    0    0  0.11975302513E+00  0.20803353593E+01 -0.33592067830E+01  0.39530249767E+01  0.51100000000E-03 0. -1.
        -11    1    3    3    0    0 -0.99090199038E+01  0.19871854407E+02 -0.15921221811E+02  0.27323333934E+02  0.51100000000E-03 0.  1.
        -12    1    3    3    0    0 -0.16583492860E+01  0.77970174646E+01 -0.12548027732E+02  0.14865954516E+02  0.00000000000E+00 0.  1.
</event>
<event>
 7    1  0.2031146E-008  0.4614230E+02  0.7816164E-02  0.1320468E+00
        -11   -1    0    0    0    0  0.00000000000E+00  0.00000000000E+00  0.45593999997E+02  0.45594000000E+02  0.51100000000E-03 0. -1.
         11   -1    0    0    0    0 -0.00000000000E+00 -0.00000000000E+00 -0.45593999997E+02  0.45594000000E+02  0.51100000000E-03 0.  1.
    9900012    2    1    2    0    0  0.11332246932E+02 -0.37184061544E+02  0.22760501264E+02  0.46142304632E+02  0.99998802731E+01 0.  0.
        -12    1    1    2    0    0 -0.11332246932E+02  0.37184061544E+02 -0.22760501264E+02  0.45045695368E+02  0.00000000000E+00 0.  1.
         11    1    3    3    0    0  0.16714538956E+01 -0.53466419710E+01  0.49873991322E+01  0.75002992511E+01  0.51100000000E-03 0. -1.
        -11    1    3    3    0    0  0.37719389310E+01 -0.13422430122E+02  0.12186032429E+02  0.18517249804E+02  0.51100000000E-03 0.  1.
        -12    1    3    3    0    0  0.58888541051E+01 -0.18414989451E+02  0.55870697034E+01  0.20124755576E+02  0.00000000000E+00 0.  1.
</event>
<event>
 7    1  0.2031146E-008  0.4614232E+02  0.7816164E-02  0.1320468E+00
        -11   -1    0    0    0    0  0.00000000000E+00  0.00000000000E+00  0.45593999997E+02  0.45594000000E+02  0.51100000000E-03 0.  1.
         11   -1    0    0    0    0 -0.00000000000E+00 -0.00000000000E+00 -0.45593999997E+02  0.45594000000E+02  0.51100000000E-03 0. -1.
    9900012    2    1    2    0    0 -0.13085611797E+02  0.11770148547E+02 -0.41464971542E+02  0.46142317655E+02  0.99999990342E+01 0.  0.
        -12    1    1    2    0    0  0.13085611797E+02 -0.11770148547E+02  0.41464971542E+02  0.45045682345E+02  0.00000000000E+00 0.  1.
         11    1    3    3    0    0 -0.38558060398E+01  0.42228934811E+00 -0.99846119018E+01  0.10711584551E+02  0.51100000000E-03 0. -1.
        -11    1    3    3    0    0 -0.34734788690E+01  0.25449584799E+01 -0.16979594729E+02  0.17517091840E+02  0.51100000000E-03 0.  1.
        -12    1    3    3    0    0 -0.57563268879E+01  0.88029007187E+01 -0.14500764912E+02  0.17913641264E+02  0.00000000000E+00 0.  1.
</event>
<event>
 7    1  0.2031146E-008  0.4614232E+02  0.7816164E-02  0.1320468E+00
        -11   -1    0    0    0    0  0.00000000000E+00  0.00000000000E+00  0.45593999997E+02  0.45594000000E+02  0.51100000000E-03 0.  1.
         11   -1    0    0    0    0 -0.00000000000E+00 -0.00000000000E+00 -0.45593999997E+02  0.45594000000E+02  0.51100000000E-03 0. -1.
    9900012    2    1    2    0    0  0.32939810648E+02  0.16480594998E+02 -0.25932071273E+02  0.46142318104E+02  0.10000003123E+02 0.  0.
        -12    1    1    2    0    0 -0.32939810648E+02 -0.16480594998E+02  0.25932071273E+02  0.45045681896E+02  0.00000000000E+00 0.  1.
         11    1    3    3    0    0  0.67584860479E+01  0.15741530464E+00 -0.38552266877E+01  0.77823316758E+01  0.51100000000E-03 0. -1.
        -11    1    3    3    0    0  0.89833987565E+01  0.38741653866E+01 -0.97402689434E+01  0.13805196486E+02  0.51100000000E-03 0.  1.
        -12    1    3    3    0    0  0.17197925843E+02  0.12449014307E+02 -0.12336575642E+02  0.24554789942E+02  0.00000000000E+00 0.  1.
</event>
<event>
 7    1  0.2031146E-008  0.4614232E+02  0.7816164E-02  0.1320468E+00
        -11   -1    0    0    0    0  0.00000000000E+00  0.00000000000E+00  0.45593999997E+02  0.45594000000E+02  0.51100000000E-03 0. -1.
         11   -1    0    0    0    0 -0.00000000000E+00 -0.00000000000E+00 -0.45593999997E+02  0.45594000000E+02  0.51100000000E-03 0.  1.
    9900012    2    1    2    0    0  0.12269817785E+02 -0.41324811882E+02  0.13069995461E+02  0.46142319997E+02  0.10000020389E+02 0.  0.
        -12    1    1    2    0    0 -0.12269817785E+02  0.41324811882E+02 -0.13069995461E+02  0.45045680003E+02  0.00000000000E+00 0.  1.
         11    1    3    3    0    0  0.26843815367E+01 -0.12729715235E+02  0.26704141377E+01  0.13280913603E+02  0.51100000000E-03 0. -1.
        -11    1    3    3    0    0  0.54242597601E+01 -0.74861111991E+01  0.73095978770E+00  0.92735514935E+01  0.51100000000E-03 0.  1.
         12    1    3    3    0    0  0.41611764884E+01 -0.21108985448E+02  0.96686215353E+01  0.23587854901E+02  0.00000000000E+00 0. -1.
</event>
<event>
 7    1  0.2031146E-008  0.4614232E+02  0.7816164E-02  0.1320468E+00
        -11   -1    0    0    0    0  0.00000000000E+00  0.00000000000E+00  0.45593999997E+02  0.45594000000E+02  0.51100000000E-03 0. -1.
         11   -1    0    0    0    0 -0.00000000000E+00 -0.00000000000E+00 -0.45593999997E+02  0.45594000000E+02  0.51100000000E-03 0.  1.
    9900012    2    1    2    0    0  0.41028468880E+01 -0.44628294371E+02 -0.45382325002E+01  0.46142316907E+02  0.99999922109E+01 0.  0.
        -12    1    1    2    0    0 -0.41028468880E+01  0.44628294371E+02  0.45382325002E+01  0.45045683093E+02  0.00000000000E+00 0.  1.
         11    1    3    3    0    0  0.28396802640E+01 -0.19318986026E+02 -0.20033101117E+01  0.19629066630E+02  0.51100000000E-03 0. -1.
        -11    1    3    3    0    0  0.30189481041E+01 -0.15262682390E+02  0.13105142278E+01  0.15613486773E+02  0.51100000000E-03 0.  1.
         12    1    3    3    0    0 -0.17557814800E+01 -0.10046625955E+02 -0.38454366164E+01  0.10899763505E+02  0.00000000000E+00 0. -1.
</event>
<event>
 7    1  0.2031146E-008  0.4614232E+02  0.7816164E-02  0.1320468E+00
        -11   -1    0    0    0    0  0.00000000000E+00  0.00000000000E+00  0.45593999997E+02  0.45594000000E+02  0.51100000000E-03 0.  1.
         11   -1    0    0    0    0 -0.00000000000E+00 -0.00000000000E+00 -0.45593999997E+02  0.45594000000E+02  0.51100000000E-03 0. -1.
    9900012    2    1    2    0    0 -0.29198393218E+02 -0.16988412117E+02 -0.29798677884E+02  0.46142317450E+02  0.99999971674E+01 0.  0.
        -12    1    1    2    0    0  0.29198393218E+02  0.16988412117E+02  0.29798677884E+02  0.45045682550E+02  0.00000000000E+00 0.  1.
         11    1    3    3    0    0 -0.10734279600E+02 -0.34521475317E+01 -0.91250558582E+01  0.14505472271E+02  0.51100000000E-03 0. -1.
        -11    1    3    3    0    0 -0.91186332092E+01 -0.82512620211E+01 -0.15303497964E+02  0.19632367324E+02  0.51100000000E-03 0.  1.
        -12    1    3    3    0    0 -0.93454804082E+01 -0.52850025642E+01 -0.53701240616E+01  0.12004477856E+02  0.00000000000E+00 0.  1.
</event>
<event>
 7    1  0.2031146E-008  0.4614232E+02  0.7816164E-02  0.1320468E+00
        -11   -1    0    0    0    0  0.00000000000E+00  0.00000000000E+00  0.45593999997E+02  0.45594000000E+02  0.51100000000E-03 0.  1.
         11   -1    0    0    0    0 -0.00000000000E+00 -0.00000000000E+00 -0.45593999997E+02  0.45594000000E+02  0.51100000000E-03 0. -1.
    9900012    2    1    2    0    0 -0.33951829870E+01 -0.41391678440E+02 -0.17444618419E+02  0.46142322922E+02  0.10000047063E+02 0.  0.
        -12    1    1    2    0    0  0.33951829870E+01  0.41391678440E+02  0.17444618419E+02  0.45045677078E+02  0.00000000000E+00 0.  1.
         11    1    3    3    0    0 -0.28131729900E+01 -0.32384435231E+02 -0.13374036819E+02  0.35150113067E+02  0.51100000000E-03 0. -1.
        -11    1    3    3    0    0  0.17819937556E+01 -0.47322935133E+01 -0.33216613825E+01  0.60500858045E+01  0.51100000000E-03 0.  1.
        -12    1    3    3    0    0 -0.23640037526E+01 -0.42749496955E+01 -0.74892021783E+00  0.49421240509E+01  0.00000000000E+00 0.  1.
</event>
<event>
 7    1  0.2031146E-008  0.4614232E+02  0.7816164E-02  0.1320468E+00
        -11   -1    0    0    0    0  0.00000000000E+00  0.00000000000E+00  0.45593999997E+02  0.45594000000E+02  0.51100000000E-03 0. -1.
         11   -1    0    0    0    0 -0.00000000000E+00 -0.00000000000E+00 -0.45593999997E+02  0.45594000000E+02  0.51100000000E-03 0.  1.
    9900012    2    1    2    0    0  0.38723561209E+02  0.75141423245E+01  0.21751711049E+02  0.46142318063E+02  0.10000002756E+02 0.  0.
        -12    1    1    2    0    0 -0.38723561209E+02 -0.75141423245E+01 -0.21751711049E+02  0.45045681937E+02  0.00000000000E+00 0.  1.
         11    1    3    3    0    0  0.67555418935E+01  0.22029403587E+01  0.54976786746E+00  0.71268883440E+01  0.51100000000E-03 0. -1.
        -11    1    3    3    0    0  0.17459028266E+01  0.10331201963E+01  0.37361425336E+00  0.20627898321E+01  0.51100000000E-03 0.  1.
         12    1    3    3    0    0  0.30222116489E+02  0.42780817695E+01  0.20828328928E+02  0.36952639887E+02  0.00000000000E+00 0. -1.
</event>
<event>
 7    1  0.2031146E-008  0.4614232E+02  0.7816164E-02  0.1320468E+00
        -11   -1    0    0    0    0  0.00000000000E+00  0.00000000000E+00  0.45593999997E+02  0.45594000000E+02  0.51100000000E-03 0.  1.
         11   -1    0    0    0    0 -0.00000000000E+00 -0.00000000000E+00 -0.45593999997E+02  0.45594000000E+02  0.51100000000E-03 0. -1.
    9900012    2    1    2    0    0  0.24518207709E+02  0.14499449659E+02 -0.34896088151E+02  0.46142317433E+02  0.99999970056E+01 0.  0.
        -12    1    1    2    0    0 -0.24518207709E+02 -0.14499449659E+02  0.34896088151E+02  0.45045682567E+02  0.00000000000E+00 0.  1.
         11    1    3    3    0    0  0.26634492521E+01  0.14773081872E+01 -0.82635764098E+01  0.88069913558E+01  0.51100000000E-03 0.  1.
        -11    1    3    3    0    0  0.12690142750E+02  0.10714645278E+02 -0.15326870703E+02  0.22599918413E+02  0.51100000000E-03 0. -1.
        -12    1    3    3    0    0  0.91646157073E+01  0.23074961940E+01 -0.11305641038E+02  0.14735407664E+02  0.00000000000E+00 0.  1.
</event>
<event>
 7    1  0.2031146E-008  0.4614232E+02  0.7816164E-02  0.1320468E+00
        -11   -1    0    0    0    0  0.00000000000E+00  0.00000000000E+00  0.45593999997E+02  0.45594000000E+02  0.51100000000E-03 0.  1.
         11   -1    0    0    0    0 -0.00000000000E+00 -0.00000000000E+00 -0.45593999997E+02  0.45594000000E+02  0.51100000000E-03 0. -1.
    9900012    2    1    2    0    0  0.46536325996E+01  0.35291195461E+02 -0.27604143044E+02  0.46142317781E+02  0.10000000179E+02 0.  0.
        -12    1    1    2    0    0 -0.46536325996E+01 -0.35291195461E+02  0.27604143044E+02  0.45045682219E+02  0.00000000000E+00 0.  1.
         11    1    3    3    0    0  0.28194602292E+01  0.20507362306E+01 -0.18731074248E+01  0.39577022068E+01  0.51100000000E-03 0. -1.
        -11    1    3    3    0    0 -0.77008249461E+00  0.41642949111E+01 -0.33637017359E+01  0.54082223312E+01  0.51100000000E-03 0.  1.
        -12    1    3    3    0    0  0.26042548650E+01  0.29076164319E+02 -0.22367333883E+02  0.36776393243E+02  0.00000000000E+00 0.  1.
</event>
<event>
 7    1  0.2031146E-008  0.4614232E+02  0.7816164E-02  0.1320468E+00
        -11   -1    0    0    0    0  0.00000000000E+00  0.00000000000E+00  0.45593999997E+02  0.45594000000E+02  0.51100000000E-03 0.  1.
         11   -1    0    0    0    0 -0.00000000000E+00 -0.00000000000E+00 -0.45593999997E+02  0.45594000000E+02  0.51100000000E-03 0. -1.
    9900012    2    1    2    0    0  0.27383115904E+02  0.37907326629E+01 -0.35565555002E+02  0.46142318816E+02  0.10000009618E+02 0.  0.
        -12    1    1    2    0    0 -0.27383115904E+02 -0.37907326629E+01  0.35565555002E+02  0.45045681184E+02  0.00000000000E+00 0.  1.
         11    1    3    3    0    0  0.15774898767E+02  0.22131785178E+01 -0.22841136887E+02  0.27847138539E+02  0.51100000000E-03 0. -1.
        -11    1    3    3    0    0  0.10819645622E+02  0.20070001229E+01 -0.83075691523E+01  0.13787983405E+02  0.51100000000E-03 0.  1.
        -12    1    3    3    0    0  0.78857151414E+00 -0.42944597783E+00 -0.44168489628E+01  0.45071968717E+01  0.00000000000E+00 0.  1.
</event>
<event>
 7    1  0.2031146E-008  0.4614232E+02  0.7816164E-02  0.1320468E+00
        -11   -1    0    0    0    0  0.00000000000E+00  0.00000000000E+00  0.45593999997E+02  0.45594000000E+02  0.51100000000E-03 0.  1.
         11   -1    0    0    0    0 -0.00000000000E+00 -0.00000000000E+00 -0.45593999997E+02  0.45594000000E+02  0.51100000000E-03 0. -1.
    9900012    2    1    2    0    0  0.42633267741E+02 -0.61359970320E+01 -0.13185885278E+02  0.46142317095E+02  0.99999939217E+01 0.  0.
        -12    1    1    2    0    0 -0.42633267741E+02  0.61359970320E+01  0.13185885278E+02  0.45045682905E+02  0.00000000000E+00 0.  1.
         11    1    3    3    0    0  0.10448125942E+02 -0.10171344760E+01 -0.64941816523E+01  0.12343917281E+02  0.51100000000E-03 0. -1.
        -11    1    3    3    0    0  0.21999388512E+02 -0.91265017833E+00 -0.56340127432E+01  0.22727695112E+02  0.51100000000E-03 0.  1.
        -12    1    3    3    0    0  0.10185753287E+02 -0.42062123777E+01 -0.10576908825E+01  0.11070704702E+02  0.00000000000E+00 0.  1.
</event>
<event>
 7    1  0.2031146E-008  0.4614232E+02  0.7816164E-02  0.1320468E+00
        -11   -1    0    0    0    0  0.00000000000E+00  0.00000000000E+00  0.45593999997E+02  0.45594000000E+02  0.51100000000E-03 0.  1.
         11   -1    0    0    0    0 -0.00000000000E+00 -0.00000000000E+00 -0.45593999997E+02  0.45594000000E+02  0.51100000000E-03 0. -1.
    9900012    2    1    2    0    0  0.16842660564E+02 -0.17165272964E+02 -0.38089260586E+02  0.46142316714E+02  0.99999904482E+01 0.  0.
        -12    1    1    2    0    0 -0.16842660564E+02  0.17165272964E+02  0.38089260586E+02  0.45045683286E+02  0.00000000000E+00 0.  1.
         11    1    3    3    0    0  0.11774211886E+02 -0.10715320295E+02 -0.26313466943E+02  0.30754653263E+02  0.51100000000E-03 0. -1.
        -11    1    3    3    0    0  0.13569541309E+01 -0.39683043327E+01 -0.94822081128E+01  0.10368270576E+02  0.51100000000E-03 0.  1.
         12    1    3    3    0    0  0.37114945472E+01 -0.24816483359E+01 -0.22935855302E+01  0.50193928738E+01  0.00000000000E+00 0. -1.
</event>
<event>
 7    1  0.2031146E-008  0.4614232E+02  0.7816164E-02  0.1320468E+00
        -11   -1    0    0    0    0  0.00000000000E+00  0.00000000000E+00  0.45593999997E+02  0.45594000000E+02  0.51100000000E-03 0. -1.
         11   -1    0    0    0    0 -0.00000000000E+00 -0.00000000000E+00 -0.45593999997E+02  0.45594000000E+02  0.51100000000E-03 0.  1.
    9900012    2    1    2    0    0  0.32325842625E+02  0.31355569659E+02  0.99066694281E+00  0.46142320173E+02  0.10000021998E+02 0.  0.
        -12    1    1    2    0    0 -0.32325842625E+02 -0.31355569659E+02 -0.99066694281E+00  0.45045679827E+02  0.00000000000E+00 0.  1.
         11    1    3    3    0    0  0.56826679604E+01  0.77747708761E+01  0.81058042949E+00  0.96642029272E+01  0.51100000000E-03 0. -1.
        -11    1    3    3    0    0  0.23364145530E+02  0.20691213238E+02 -0.25692901613E+01  0.31314706669E+02  0.51100000000E-03 0.  1.
        -12    1    3    3    0    0  0.32790291351E+01  0.28895855444E+01  0.27493766746E+01  0.51634105770E+01  0.00000000000E+00 0.  1.
</event>
<event>
 7    1  0.2031146E-008  0.4614232E+02  0.7816164E-02  0.1320468E+00
        -11   -1    0    0    0    0  0.00000000000E+00  0.00000000000E+00  0.45593999997E+02  0.45594000000E+02  0.51100000000E-03 0.  1.
         11   -1    0    0    0    0 -0.00000000000E+00 -0.00000000000E+00 -0.45593999997E+02  0.45594000000E+02  0.51100000000E-03 0. -1.
    9900012    2    1    2    0    0  0.12396137549E+02 -0.42252803382E+02  0.94947305692E+01  0.46142317317E+02  0.99999959476E+01 0.  0.
        -12    1    1    2    0    0 -0.12396137549E+02  0.42252803382E+02 -0.94947305692E+01  0.45045682683E+02  0.00000000000E+00 0.  1.
         11    1    3    3    0    0  0.43029793119E+00 -0.59611273093E+01  0.91362918838E-01  0.59773357402E+01  0.51100000000E-03 0. -1.
        -11    1    3    3    0    0 -0.98557260571E+00 -0.48836404932E+01  0.21474515523E+01  0.54252047204E+01  0.51100000000E-03 0.  1.
         12    1    3    3    0    0  0.12951412224E+02 -0.31408035580E+02  0.72559160981E+01  0.34739776856E+02  0.00000000000E+00 0. -1.
</event>
<event>
 7    1  0.2031146E-008  0.4614233E+02  0.7816164E-02  0.1320468E+00
        -11   -1    0    0    0    0  0.00000000000E+00  0.00000000000E+00  0.45593999997E+02  0.45594000000E+02  0.51100000000E-03 0. -1.
         11   -1    0    0    0    0 -0.00000000000E+00 -0.00000000000E+00 -0.45593999997E+02  0.45594000000E+02  0.51100000000E-03 0.  1.
    9900012    2    1    2    0    0  0.83427588355E+01 -0.33446616927E+02  0.28997151260E+02  0.46142327732E+02  0.10000090924E+02 0.  0.
        -12    1    1    2    0    0 -0.83427588355E+01  0.33446616927E+02 -0.28997151260E+02  0.45045672268E+02  0.00000000000E+00 0.  1.
         11    1    3    3    0    0  0.13175889911E+01 -0.46587344024E+01  0.25054146870E+01  0.54513255265E+01  0.51100000000E-03 0. -1.
        -11    1    3    3    0    0  0.20501080541E+01 -0.16504341714E+01  0.30001855465E+00  0.26489408038E+01  0.51100000000E-03 0.  1.
         12    1    3    3    0    0  0.49750617903E+01 -0.27137448353E+02  0.26191718018E+02  0.38042061402E+02  0.00000000000E+00 0. -1.
</event>
<event>
 7    1  0.2031146E-008  0.4614232E+02  0.7816164E-02  0.1320468E+00
        -11   -1    0    0    0    0  0.00000000000E+00  0.00000000000E+00  0.45593999997E+02  0.45594000000E+02  0.51100000000E-03 0.  1.
         11   -1    0    0    0    0 -0.00000000000E+00 -0.00000000000E+00 -0.45593999997E+02  0.45594000000E+02  0.51100000000E-03 0. -1.
    9900012    2    1    2    0    0  0.37983245810E+02  0.24128032507E+02 -0.20554185344E+01  0.46142315853E+02  0.99999826016E+01 0.  0.
        -12    1    1    2    0    0 -0.37983245810E+02 -0.24128032507E+02  0.20554185344E+01  0.45045684147E+02  0.00000000000E+00 0.  1.
         11    1    3    3    0    0  0.18187524142E+02  0.12143777991E+02  0.43180598470E+00  0.21873359023E+02  0.51100000000E-03 0. -1.
        -11    1    3    3    0    0  0.52745769150E+01  0.31244147420E+01  0.23791278140E+01  0.65759697786E+01  0.51100000000E-03 0.  1.
        -12    1    3    3    0    0  0.14521144753E+02  0.88598397746E+01 -0.48663523331E+01  0.17692987051E+02  0.00000000000E+00 0.  1.
</event>
<event>
 7    1  0.2031146E-008  0.4614232E+02  0.7816164E-02  0.1320468E+00
        -11   -1    0    0    0    0  0.00000000000E+00  0.00000000000E+00  0.45593999997E+02  0.45594000000E+02  0.51100000000E-03 0.  1.
         11   -1    0    0    0    0 -0.00000000000E+00 -0.00000000000E+00 -0.45593999997E+02  0.45594000000E+02  0.51100000000E-03 0. -1.
    9900012    2    1    2    0    0  0.31059973769E+02 -0.25716033751E+02 -0.20076780554E+02  0.46142317856E+02  0.10000000864E+02 0.  0.
        -12    1    1    2    0    0 -0.31059973769E+02  0.25716033751E+02  0.20076780554E+02  0.45045682144E+02  0.00000000000E+00 0.  1.
         11    1    3    3    0    0  0.77619627212E+01 -0.46306354350E+01 -0.19262636210E+01  0.92412846302E+01  0.51100000000E-03 0. -1.
        -11    1    3    3    0    0  0.12463092053E+02 -0.72073438721E+01 -0.65553607426E+01  0.15819204276E+02  0.51100000000E-03 0.  1.
        -12    1    3    3    0    0  0.10834918995E+02 -0.13878054444E+02 -0.11595156190E+02  0.21081828949E+02  0.00000000000E+00 0.  1.
</event>
<event>
 7    1  0.2031146E-008  0.4614232E+02  0.7816164E-02  0.1320468E+00
        -11   -1    0    0    0    0  0.00000000000E+00  0.00000000000E+00  0.45593999997E+02  0.45594000000E+02  0.51100000000E-03 0. -1.
         11   -1    0    0    0    0 -0.00000000000E+00 -0.00000000000E+00 -0.45593999997E+02  0.45594000000E+02  0.51100000000E-03 0.  1.
    9900012    2    1    2    0    0 -0.29945166585E+02  0.16119500383E+02  0.29539160612E+02  0.46142319807E+02  0.10000018655E+02 0.  0.
        -12    1    1    2    0    0  0.29945166585E+02 -0.16119500383E+02 -0.29539160612E+02  0.45045680193E+02  0.00000000000E+00 0.  1.
         11    1    3    3    0    0 -0.15575172086E+02  0.52271434520E+01  0.17947452297E+02  0.24331462316E+02  0.51100000000E-03 0. -1.
        -11    1    3    3    0    0 -0.76724192456E+01  0.81416238709E+01  0.62635708103E+01  0.12821247049E+02  0.51100000000E-03 0.  1.
         12    1    3    3    0    0 -0.66975752533E+01  0.27507330598E+01  0.53281375043E+01  0.89896104423E+01  0.00000000000E+00 0. -1.
</event>
<event>
 7    1  0.2031146E-008  0.4614232E+02  0.7816164E-02  0.1320468E+00
        -11   -1    0    0    0    0  0.00000000000E+00  0.00000000000E+00  0.45593999997E+02  0.45594000000E+02  0.51100000000E-03 0.  1.
         11   -1    0    0    0    0 -0.00000000000E+00 -0.00000000000E+00 -0.45593999997E+02  0.45594000000E+02  0.51100000000E-03 0. -1.
    9900012    2    1    2    0    0 -0.18910102252E+02  0.40594822654E+02 -0.48561148789E+01  0.46142318240E+02  0.10000004368E+02 0.  0.
        -12    1    1    2    0    0  0.18910102252E+02 -0.40594822654E+02  0.48561148789E+01  0.45045681760E+02  0.00000000000E+00 0.  1.
         11    1    3    3    0    0 -0.12874778880E+02  0.18474182690E+02 -0.10607281923E+01  0.22542859220E+02  0.51100000000E-03 0. -1.
        -11    1    3    3    0    0 -0.60631312668E+00  0.11332986871E+00 -0.20382721238E+00  0.64961916563E+00  0.51100000000E-03 0.  1.
         12    1    3    3    0    0 -0.54290102455E+01  0.22007310096E+02 -0.35915594743E+01  0.22949839854E+02  0.00000000000E+00 0. -1.
</event>
<event>
 7    1  0.2031146E-008  0.4614232E+02  0.7816164E-02  0.1320468E+00
        -11   -1    0    0    0    0  0.00000000000E+00  0.00000000000E+00  0.45593999997E+02  0.45594000000E+02  0.51100000000E-03 0.  1.
         11   -1    0    0    0    0 -0.00000000000E+00 -0.00000000000E+00 -0.45593999997E+02  0.45594000000E+02  0.51100000000E-03 0. -1.
    9900012    2    1    2    0    0  0.90195558110E+01  0.27150195062E+02 -0.34794079933E+02  0.46142317884E+02  0.10000001120E+02 0.  0.
        -12    1    1    2    0    0 -0.90195558110E+01 -0.27150195062E+02  0.34794079933E+02  0.45045682116E+02  0.00000000000E+00 0.  1.
         11    1    3    3    0    0  0.97057881223E+00  0.46477406164E+01 -0.18678034603E+01  0.51021766038E+01  0.51100000000E-03 0. -1.
        -11    1    3    3    0    0  0.19811096230E+01  0.16027478929E+01 -0.52192260749E+01  0.58080906698E+01  0.51100000000E-03 0.  1.
         12    1    3    3    0    0  0.60678673758E+01  0.20899706552E+02 -0.27707050398E+02  0.35232050610E+02  0.00000000000E+00 0. -1.
</event>
<event>
 7    1  0.2031146E-008  0.4614232E+02  0.7816164E-02  0.1320468E+00
        -11   -1    0    0    0    0  0.00000000000E+00  0.00000000000E+00  0.45593999997E+02  0.45594000000E+02  0.51100000000E-03 0. -1.
         11   -1    0    0    0    0 -0.00000000000E+00 -0.00000000000E+00 -0.45593999997E+02  0.45594000000E+02  0.51100000000E-03 0.  1.
    9900012    2    1    2    0    0 -0.14679996903E+01 -0.20692715397E+02  0.39984623824E+02  0.46142316123E+02  0.99999850649E+01 0.  0.
        -12    1    1    2    0    0  0.14679996903E+01  0.20692715397E+02 -0.39984623824E+02  0.45045683877E+02  0.00000000000E+00 0.  1.
         11    1    3    3    0    0 -0.26155656943E+01 -0.11683589456E+02  0.31272218956E+02  0.33485804831E+02  0.51100000000E-03 0. -1.
        -11    1    3    3    0    0  0.10411363313E+01 -0.39457501989E+01  0.33408410251E+01  0.52739101726E+01  0.51100000000E-03 0.  1.
         12    1    3    3    0    0  0.10642967261E+00 -0.50633757413E+01  0.53715638424E+01  0.73826011193E+01  0.00000000000E+00 0. -1.
</event>
<event>
 7    1  0.2326495E-008  0.4614232E+02  0.7816164E-02  0.1320468E+00
        -11   -1    0    0    0    0  0.00000000000E+00  0.00000000000E+00  0.45593999997E+02  0.45594000000E+02  0.51100000000E-03 0.  1.
         11   -1    0    0    0    0 -0.00000000000E+00 -0.00000000000E+00 -0.45593999997E+02  0.45594000000E+02  0.51100000000E-03 0. -1.
    9900012    2    1    2    0    0 -0.14530237109E+01 -0.23825679514E+02 -0.38201295551E+02  0.46142320252E+02  0.10000022714E+02 0.  0.
        -12    1    1    2    0    0  0.14530237109E+01  0.23825679514E+02  0.38201295551E+02  0.45045679748E+02  0.00000000000E+00 0.  1.
         11    1    3    3    0    0  0.14112139924E+01 -0.10823856221E+02 -0.15251520713E+02  0.18755166561E+02  0.51100000000E-03 0. -1.
        -11    1    3    3    0    0 -0.19589619514E+01 -0.13611945093E+02 -0.20282826250E+02  0.24505420260E+02  0.51100000000E-03 0.  1.
        -12    1    3    3    0    0 -0.90527575192E+00  0.61012180020E+00 -0.26669485880E+01  0.28817334313E+01  0.00000000000E+00 0.  1.
</event>
<event>
 7    1  0.2031146E-008  0.4614232E+02  0.7816164E-02  0.1320468E+00
        -11   -1    0    0    0    0  0.00000000000E+00  0.00000000000E+00  0.45593999997E+02  0.45594000000E+02  0.51100000000E-03 0. -1.
         11   -1    0    0    0    0 -0.00000000000E+00 -0.00000000000E+00 -0.45593999997E+02  0.45594000000E+02  0.51100000000E-03 0.  1.
    9900012    2    1    2    0    0  0.13133072235E+02 -0.24354631193E+01  0.43019814406E+02  0.46142317649E+02  0.99999989817E+01 0.  0.
        -12    1    1    2    0    0 -0.13133072235E+02  0.24354631193E+01 -0.43019814406E+02  0.45045682351E+02  0.00000000000E+00 0.  1.
         11    1    3    3    0    0  0.41367429664E+01 -0.25709853612E+01  0.23720229458E+02  0.24215117053E+02  0.51100000000E-03 0. -1.
        -11    1    3    3    0    0  0.83276321047E+01 -0.69672719101E+00  0.12447879331E+02  0.14992817792E+02  0.51100000000E-03 0.  1.
        -12    1    3    3    0    0  0.66869716356E+00  0.83224943300E+00  0.68517056164E+01  0.69343828038E+01  0.00000000000E+00 0.  1.
</event>
<event>
 7    1  0.2031146E-008  0.4614232E+02  0.7816164E-02  0.1320468E+00
        -11   -1    0    0    0    0  0.00000000000E+00  0.00000000000E+00  0.45593999997E+02  0.45594000000E+02  0.51100000000E-03 0. -1.
         11   -1    0    0    0    0 -0.00000000000E+00 -0.00000000000E+00 -0.45593999997E+02  0.45594000000E+02  0.51100000000E-03 0.  1.
    9900012    2    1    2    0    0  0.40572685460E+01 -0.44627070092E+02  0.45909100874E+01  0.46142320202E+02  0.10000022258E+02 0.  0.
        -12    1    1    2    0    0 -0.40572685460E+01  0.44627070092E+02 -0.45909100874E+01  0.45045679798E+02  0.00000000000E+00 0.  1.
         11    1    3    3    0    0  0.14240103656E+01 -0.17745573234E+02 -0.19147713947E+01  0.17905293203E+02  0.51100000000E-03 0. -1.
        -11    1    3    3    0    0 -0.94329029250E+00 -0.16782082176E+01 -0.13324718919E+00  0.19297498470E+01  0.51100000000E-03 0.  1.
         12    1    3    3    0    0  0.35765484730E+01 -0.25203288640E+02  0.66389286712E+01  0.26307277152E+02  0.00000000000E+00 0. -1.
</event>
<event>
 7    1  0.2031146E-008  0.4614232E+02  0.7816164E-02  0.1320468E+00
        -11   -1    0    0    0    0  0.00000000000E+00  0.00000000000E+00  0.45593999997E+02  0.45594000000E+02  0.51100000000E-03 0.  1.
         11   -1    0    0    0    0 -0.00000000000E+00 -0.00000000000E+00 -0.45593999997E+02  0.45594000000E+02  0.51100000000E-03 0. -1.
    9900012    2    1    2    0    0  0.21905911308E+02  0.35639013575E+02 -0.16706440642E+02  0.46142318767E+02  0.10000009172E+02 0.  0.
        -12    1    1    2    0    0 -0.21905911308E+02 -0.35639013575E+02  0.16706440642E+02  0.45045681233E+02  0.00000000000E+00 0.  1.
         11    1    3    3    0    0  0.10094924299E+02  0.19610428228E+02 -0.12900652952E+02  0.25551971328E+02  0.51100000000E-03 0. -1.
        -11    1    3    3    0    0  0.49412796978E+01  0.49590072099E+01 -0.27440694139E+01  0.75191698192E+01  0.51100000000E-03 0.  1.
         12    1    3    3    0    0  0.68697073109E+01  0.11069578137E+02 -0.10617182757E+01  0.13071177619E+02  0.00000000000E+00 0. -1.
</event>
<event>
 7    1  0.2031146E-008  0.4614232E+02  0.7816164E-02  0.1320468E+00
        -11   -1    0    0    0    0  0.00000000000E+00  0.00000000000E+00  0.45593999997E+02  0.45594000000E+02  0.51100000000E-03 0.  1.
         11   -1    0    0    0    0 -0.00000000000E+00 -0.00000000000E+00 -0.45593999997E+02  0.45594000000E+02  0.51100000000E-03 0. -1.
    9900012    2    1    2    0    0 -0.11641336254E+02  0.71542803892E+01 -0.42923292776E+02  0.46142317628E+02  0.99999987826E+01 0.  0.
        -12    1    1    2    0    0  0.11641336254E+02 -0.71542803892E+01  0.42923292776E+02  0.45045682372E+02  0.00000000000E+00 0.  1.
         11    1    3    3    0    0 -0.87817608663E+01  0.29902463161E+00 -0.17638944841E+02  0.19706372446E+02  0.51100000000E-03 0. -1.
        -11    1    3    3    0    0 -0.22518040323E+01  0.32545375491E+01 -0.15341372455E+02  0.15843621591E+02  0.51100000000E-03 0.  1.
         12    1    3    3    0    0 -0.60777135574E+00  0.36007182085E+01 -0.99429754807E+01  0.10592323591E+02  0.00000000000E+00 0. -1.
</event>
<event>
 7    1  0.2031146E-008  0.4614232E+02  0.7816164E-02  0.1320468E+00
        -11   -1    0    0    0    0  0.00000000000E+00  0.00000000000E+00  0.45593999997E+02  0.45594000000E+02  0.51100000000E-03 0. -1.
         11   -1    0    0    0    0 -0.00000000000E+00 -0.00000000000E+00 -0.45593999997E+02  0.45594000000E+02  0.51100000000E-03 0.  1.
    9900012    2    1    2    0    0 -0.30383744736E+02 -0.32408362360E+02  0.74592035628E+01  0.46142316380E+02  0.99999874054E+01 0.  0.
        -12    1    1    2    0    0  0.30383744736E+02  0.32408362360E+02 -0.74592035628E+01  0.45045683620E+02  0.00000000000E+00 0.  1.
         11    1    3    3    0    0 -0.26755123917E+00 -0.14661283887E+01  0.43145450721E+00  0.15515377439E+01  0.51100000000E-03 0. -1.
        -11    1    3    3    0    0 -0.11073580561E+02 -0.17059502285E+02  0.49590932013E+01  0.20934264026E+02  0.51100000000E-03 0.  1.
        -12    1    3    3    0    0 -0.19042612935E+02 -0.13882731686E+02  0.20686558543E+01  0.23656514610E+02  0.00000000000E+00 0.  1.
</event>
<event>
 7    1  0.2031146E-008  0.4614232E+02  0.7816164E-02  0.1320468E+00
        -11   -1    0    0    0    0  0.00000000000E+00  0.00000000000E+00  0.45593999997E+02  0.45594000000E+02  0.51100000000E-03 0.  1.
         11   -1    0    0    0    0 -0.00000000000E+00 -0.00000000000E+00 -0.45593999997E+02  0.45594000000E+02  0.51100000000E-03 0. -1.
    9900012    2    1    2    0    0  0.37041287749E+02 -0.21472984257E+02 -0.13998842073E+02  0.46142316185E+02  0.99999856251E+01 0.  0.
        -12    1    1    2    0    0 -0.37041287749E+02  0.21472984257E+02  0.13998842073E+02  0.45045683815E+02  0.00000000000E+00 0.  1.
         11    1    3    3    0    0  0.21267782887E+02 -0.14401128924E+02 -0.91475213588E+01  0.27265147176E+02  0.51100000000E-03 0. -1.
        -11    1    3    3    0    0  0.54362423314E+00  0.28160893387E-01 -0.16943236766E+01  0.17796216803E+01  0.51100000000E-03 0.  1.
        -12    1    3    3    0    0  0.15229880628E+02 -0.71000162263E+01 -0.31569970378E+01  0.17097547329E+02  0.00000000000E+00 0.  1.
</event>
<event>
 7    1  0.2031146E-008  0.4614232E+02  0.7816164E-02  0.1320468E+00
        -11   -1    0    0    0    0  0.00000000000E+00  0.00000000000E+00  0.45593999997E+02  0.45594000000E+02  0.51100000000E-03 0. -1.
         11   -1    0    0    0    0 -0.00000000000E+00 -0.00000000000E+00 -0.45593999997E+02  0.45594000000E+02  0.51100000000E-03 0.  1.
    9900012    2    1    2    0    0  0.23967232743E+02 -0.36243046097E+02  0.11879682074E+02  0.46142317832E+02  0.10000000650E+02 0.  0.
        -12    1    1    2    0    0 -0.23967232743E+02  0.36243046097E+02 -0.11879682074E+02  0.45045682168E+02  0.00000000000E+00 0.  1.
         11    1    3    3    0    0  0.21302176886E+02 -0.28773388111E+02  0.97996137232E+01  0.37117691642E+02  0.51100000000E-03 0. -1.
        -11    1    3    3    0    0  0.87567846789E+00 -0.49319002246E+01  0.29328455720E+01  0.58044841299E+01  0.51100000000E-03 0.  1.
        -12    1    3    3    0    0  0.17893773894E+01 -0.25377577617E+01 -0.85277722147E+00  0.32201420602E+01  0.00000000000E+00 0.  1.
</event>
<event>
 7    1  0.2031146E-008  0.4614232E+02  0.7816164E-02  0.1320468E+00
        -11   -1    0    0    0    0  0.00000000000E+00  0.00000000000E+00  0.45593999997E+02  0.45594000000E+02  0.51100000000E-03 0. -1.
         11   -1    0    0    0    0 -0.00000000000E+00 -0.00000000000E+00 -0.45593999997E+02  0.45594000000E+02  0.51100000000E-03 0.  1.
    9900012    2    1    2    0    0 -0.29093692244E+02 -0.12368808751E+02  0.32088677371E+02  0.46142316813E+02  0.99999913583E+01 0.  0.
        -12    1    1    2    0    0  0.29093692244E+02  0.12368808751E+02 -0.32088677371E+02  0.45045683187E+02  0.00000000000E+00 0.  1.
         11    1    3    3    0    0 -0.12671772483E+02 -0.62975359302E+01  0.11270090113E+02  0.18089989168E+02  0.51100000000E-03 0. -1.
        -11    1    3    3    0    0 -0.86645504967E+01 -0.48796267632E+01  0.16013445932E+02  0.18849818130E+02  0.51100000000E-03 0.  1.
        -12    1    3    3    0    0 -0.77573692643E+01 -0.11916460572E+01  0.48051413261E+01  0.92025095160E+01  0.00000000000E+00 0.  1.
</event>
<event>
 7    1  0.2031146E-008  0.4614232E+02  0.7816164E-02  0.1320468E+00
        -11   -1    0    0    0    0  0.00000000000E+00  0.00000000000E+00  0.45593999997E+02  0.45594000000E+02  0.51100000000E-03 0. -1.
         11   -1    0    0    0    0 -0.00000000000E+00 -0.00000000000E+00 -0.45593999997E+02  0.45594000000E+02  0.51100000000E-03 0.  1.
    9900012    2    1    2    0    0  0.19934159102E+02  0.37818775537E+02  0.14194471163E+02  0.46142317701E+02  0.99999994500E+01 0.  0.
        -12    1    1    2    0    0 -0.19934159102E+02 -0.37818775537E+02 -0.14194471163E+02  0.45045682299E+02  0.00000000000E+00 0.  1.
         11    1    3    3    0    0  0.91833923073E+01  0.21876134727E+02  0.11074292054E+02  0.26182817068E+02  0.51100000000E-03 0. -1.
        -11    1    3    3    0    0 -0.11822235280E+00 -0.20124139204E+00  0.13643833716E+00  0.27035218427E+00  0.51100000000E-03 0.  1.
        -12    1    3    3    0    0  0.10868989147E+02  0.16143882202E+02  0.29837407719E+01  0.19689148449E+02  0.00000000000E+00 0.  1.
</event>
<event>
 7    1  0.2031146E-008  0.4614232E+02  0.7816164E-02  0.1320468E+00
        -11   -1    0    0    0    0  0.00000000000E+00  0.00000000000E+00  0.45593999997E+02  0.45594000000E+02  0.51100000000E-03 0. -1.
         11   -1    0    0    0    0 -0.00000000000E+00 -0.00000000000E+00 -0.45593999997E+02  0.45594000000E+02  0.51100000000E-03 0.  1.
    9900012    2    1    2    0    0 -0.19345830142E+02 -0.39612502737E+01  0.40486550643E+02  0.46142318402E+02  0.10000005847E+02 0.  0.
        -12    1    1    2    0    0  0.19345830142E+02  0.39612502737E+01 -0.40486550643E+02  0.45045681598E+02  0.00000000000E+00 0.  1.
         11    1    3    3    0    0 -0.10164731439E+02 -0.11444509186E+01  0.16430965806E+02  0.19354797098E+02  0.51100000000E-03 0. -1.
        -11    1    3    3    0    0 -0.31461325997E+01  0.14723062179E+01  0.13186355762E+02  0.13636195014E+02  0.51100000000E-03 0.  1.
        -12    1    3    3    0    0 -0.60349661032E+01 -0.42891055730E+01  0.10869229076E+02  0.13151326290E+02  0.00000000000E+00 0.  1.
</event>
<event>
 7    1  0.2031146E-008  0.4614232E+02  0.7816164E-02  0.1320468E+00
        -11   -1    0    0    0    0  0.00000000000E+00  0.00000000000E+00  0.45593999997E+02  0.45594000000E+02  0.51100000000E-03 0. -1.
         11   -1    0    0    0    0 -0.00000000000E+00 -0.00000000000E+00 -0.45593999997E+02  0.45594000000E+02  0.51100000000E-03 0.  1.
    9900012    2    1    2    0    0 -0.24770158629E+02 -0.36373540666E+02  0.96186389569E+01  0.46142318359E+02  0.10000005454E+02 0.  0.
        -12    1    1    2    0    0  0.24770158629E+02  0.36373540666E+02 -0.96186389569E+01  0.45045681641E+02  0.00000000000E+00 0.  1.
         11    1    3    3    0    0 -0.21922791688E+01 -0.17249500242E+01  0.27116591550E+01  0.38903259727E+01  0.51100000000E-03 0. -1.
        -11    1    3    3    0    0 -0.11278336840E+00 -0.22798896783E+01  0.41282849430E+00  0.23197078825E+01  0.51100000000E-03 0.  1.
        -12    1    3    3    0    0 -0.22465096092E+02 -0.32368700964E+02  0.64941513076E+01  0.39932284504E+02  0.00000000000E+00 0.  1.
</event>
<event>
 7    1  0.2031146E-008  0.4614232E+02  0.7816164E-02  0.1320468E+00
        -11   -1    0    0    0    0  0.00000000000E+00  0.00000000000E+00  0.45593999997E+02  0.45594000000E+02  0.51100000000E-03 0.  1.
         11   -1    0    0    0    0 -0.00000000000E+00 -0.00000000000E+00 -0.45593999997E+02  0.45594000000E+02  0.51100000000E-03 0. -1.
    9900012    2    1    2    0    0 -0.31327562707E+02  0.48950029148E+00 -0.32364450249E+02  0.46142318347E+02  0.10000005339E+02 0.  0.
        -12    1    1    2    0    0  0.31327562707E+02 -0.48950029148E+00  0.32364450249E+02  0.45045681653E+02  0.00000000000E+00 0.  1.
         11    1    3    3    0    0 -0.67982027495E+01 -0.15135444047E+01 -0.91709652846E+01  0.11515771003E+02  0.51100000000E-03 0. -1.
        -11    1    3    3    0    0 -0.11359278532E+01  0.19339558173E+01 -0.28343510999E+01  0.36144243815E+01  0.51100000000E-03 0.  1.
         12    1    3    3    0    0 -0.23393432104E+02  0.69088878912E-01 -0.20359133865E+02  0.31012122962E+02  0.00000000000E+00 0. -1.
</event>
<event>
 7    1  0.2031146E-008  0.4614232E+02  0.7816164E-02  0.1320468E+00
        -11   -1    0    0    0    0  0.00000000000E+00  0.00000000000E+00  0.45593999997E+02  0.45594000000E+02  0.51100000000E-03 0.  1.
         11   -1    0    0    0    0 -0.00000000000E+00 -0.00000000000E+00 -0.45593999997E+02  0.45594000000E+02  0.51100000000E-03 0. -1.
    9900012    2    1    2    0    0 -0.26002801942E+02  0.29572747796E+02 -0.21872821691E+02  0.46142318190E+02  0.10000003913E+02 0.  0.
        -12    1    1    2    0    0  0.26002801942E+02 -0.29572747796E+02  0.21872821691E+02  0.45045681810E+02  0.00000000000E+00 0.  1.
         11    1    3    3    0    0 -0.70994750456E+01  0.10762284080E+02 -0.78760465320E+01  0.15108322666E+02  0.51100000000E-03 0. -1.
        -11    1    3    3    0    0 -0.73446237395E+01  0.26254298715E+01 -0.35712696525E+01  0.85784816300E+01  0.51100000000E-03 0.  1.
        -12    1    3    3    0    0 -0.11558703157E+02  0.16185033844E+02 -0.10425505506E+02  0.22455513894E+02  0.00000000000E+00 0.  1.
</event>
<event>
 7    1  0.2031146E-008  0.4614233E+02  0.7816164E-02  0.1320468E+00
        -11   -1    0    0    0    0  0.00000000000E+00  0.00000000000E+00  0.45593999997E+02  0.45594000000E+02  0.51100000000E-03 0.  1.
         11   -1    0    0    0    0 -0.00000000000E+00 -0.00000000000E+00 -0.45593999997E+02  0.45594000000E+02  0.51100000000E-03 0. -1.
    9900012    2    1    2    0    0 -0.51974352721E+01 -0.20870618833E+02 -0.39579243176E+02  0.46142328129E+02  0.10000094546E+02 0.  0.
        -12    1    1    2    0    0  0.51974352721E+01  0.20870618833E+02  0.39579243176E+02  0.45045671871E+02  0.00000000000E+00 0.  1.
         11    1    3    3    0    0 -0.24627782101E+01 -0.17733122344E+02 -0.24465750292E+02  0.30316692468E+02  0.51100000000E-03 0. -1.
        -11    1    3    3    0    0 -0.20044802477E+01 -0.33331703928E+01 -0.11704241204E+02  0.12333581327E+02  0.51100000000E-03 0.  1.
         12    1    3    3    0    0 -0.73017681422E+00  0.19567390375E+00 -0.34092516801E+01  0.34920543345E+01  0.00000000000E+00 0. -1.
</event>
<event>
 7    1  0.2031146E-008  0.4614232E+02  0.7816164E-02  0.1320468E+00
        -11   -1    0    0    0    0  0.00000000000E+00  0.00000000000E+00  0.45593999997E+02  0.45594000000E+02  0.51100000000E-03 0.  1.
         11   -1    0    0    0    0 -0.00000000000E+00 -0.00000000000E+00 -0.45593999997E+02  0.45594000000E+02  0.51100000000E-03 0. -1.
    9900012    2    1    2    0    0 -0.17818112241E+02 -0.38903334905E+02 -0.14076897623E+02  0.46142316109E+02  0.99999849347E+01 0.  0.
        -12    1    1    2    0    0  0.17818112241E+02  0.38903334905E+02  0.14076897623E+02  0.45045683891E+02  0.00000000000E+00 0.  1.
         11    1    3    3    0    0 -0.20859105646E+01 -0.27918421674E+01 -0.21045674645E+01  0.40711927054E+01  0.51100000000E-03 0.  1.
        -11    1    3    3    0    0 -0.68107771490E+01 -0.13961575321E+02 -0.40900841525E+00  0.15539612575E+02  0.51100000000E-03 0. -1.
        -12    1    3    3    0    0 -0.89214245270E+01 -0.22149917416E+02 -0.11563321743E+02  0.26531510829E+02  0.00000000000E+00 0.  1.
</event>
<event>
 7    1  0.2031146E-008  0.4614232E+02  0.7816164E-02  0.1320468E+00
        -11   -1    0    0    0    0  0.00000000000E+00  0.00000000000E+00  0.45593999997E+02  0.45594000000E+02  0.51100000000E-03 0.  1.
         11   -1    0    0    0    0 -0.00000000000E+00 -0.00000000000E+00 -0.45593999997E+02  0.45594000000E+02  0.51100000000E-03 0. -1.
    9900012    2    1    2    0    0 -0.38088482824E+02 -0.23950694513E+02 -0.21783530894E+01  0.46142317480E+02  0.99999974366E+01 0.  0.
        -12    1    1    2    0    0  0.38088482824E+02  0.23950694513E+02  0.21783530894E+01  0.45045682520E+02  0.00000000000E+00 0.  1.
         11    1    3    3    0    0 -0.12992568243E+02 -0.12600646755E+02  0.73323321499E+00  0.18114103880E+02  0.51100000000E-03 0.  1.
        -11    1    3    3    0    0 -0.20399287896E+02 -0.86095393582E+01 -0.68499994085E+00  0.22152298748E+02  0.51100000000E-03 0. -1.
        -12    1    3    3    0    0 -0.46966266853E+01 -0.27405084000E+01 -0.22265863635E+01  0.58759148518E+01  0.00000000000E+00 0.  1.
</event>
<event>
 7    1  0.2031146E-008  0.4614232E+02  0.7816164E-02  0.1320468E+00
        -11   -1    0    0    0    0  0.00000000000E+00  0.00000000000E+00  0.45593999997E+02  0.45594000000E+02  0.51100000000E-03 0.  1.
         11   -1    0    0    0    0 -0.00000000000E+00 -0.00000000000E+00 -0.45593999997E+02  0.45594000000E+02  0.51100000000E-03 0. -1.
    9900012    2    1    2    0    0 -0.29592949734E+02 -0.19460400274E+02 -0.27832781022E+02  0.46142317053E+02  0.99999935415E+01 0.  0.
        -12    1    1    2    0    0  0.29592949734E+02  0.19460400274E+02  0.27832781022E+02  0.45045682947E+02  0.00000000000E+00 0.  1.
         11    1    3    3    0    0 -0.95250054525E+01 -0.20414179588E+01 -0.71450762250E+01  0.12080779390E+02  0.51100000000E-03 0. -1.
        -11    1    3    3    0    0 -0.94364967000E+01 -0.73867629465E+01 -0.62488978434E+01  0.13515193721E+02  0.51100000000E-03 0.  1.
        -12    1    3    3    0    0 -0.10631447581E+02 -0.10032219368E+02 -0.14438806953E+02  0.20546343942E+02  0.00000000000E+00 0.  1.
</event>
<event>
 7    1  0.2031146E-008  0.4614233E+02  0.7816164E-02  0.1320468E+00
        -11   -1    0    0    0    0  0.00000000000E+00  0.00000000000E+00  0.45593999997E+02  0.45594000000E+02  0.51100000000E-03 0.  1.
         11   -1    0    0    0    0 -0.00000000000E+00 -0.00000000000E+00 -0.45593999997E+02  0.45594000000E+02  0.51100000000E-03 0. -1.
    9900012    2    1    2    0    0 -0.30146088515E+00  0.45019100207E+02  0.15174223676E+01  0.46142325038E+02  0.10000066356E+02 0.  0.
        -12    1    1    2    0    0  0.30146088515E+00 -0.45019100207E+02 -0.15174223676E+01  0.45045674962E+02  0.00000000000E+00 0.  1.
         11    1    3    3    0    0 -0.35495472787E+00  0.10287718832E+02  0.15694295060E+01  0.10412793135E+02  0.51100000000E-03 0. -1.
        -11    1    3    3    0    0 -0.26932166673E+01  0.16856563783E+02 -0.32147670116E+01  0.17370431364E+02  0.51100000000E-03 0.  1.
         12    1    3    3    0    0  0.27467105100E+01  0.17874817592E+02  0.31627598732E+01  0.18359100539E+02  0.00000000000E+00 0. -1.
</event>
<event>
 7    1  0.2031146E-008  0.4614232E+02  0.7816164E-02  0.1320468E+00
        -11   -1    0    0    0    0  0.00000000000E+00  0.00000000000E+00  0.45593999997E+02  0.45594000000E+02  0.51100000000E-03 0.  1.
         11   -1    0    0    0    0 -0.00000000000E+00 -0.00000000000E+00 -0.45593999997E+02  0.45594000000E+02  0.51100000000E-03 0. -1.
    9900012    2    1    2    0    0  0.44028559169E+02  0.28258067301E+01 -0.90892347971E+01  0.46142318793E+02  0.10000009409E+02 0.  0.
        -12    1    1    2    0    0 -0.44028559169E+02 -0.28258067301E+01  0.90892347971E+01  0.45045681207E+02  0.00000000000E+00 0.  1.
         11    1    3    3    0    0  0.23649706638E+02 -0.10531491566E+01 -0.19292293217E+01  0.23751624645E+02  0.51100000000E-03 0. -1.
        -11    1    3    3    0    0  0.24208575640E+01  0.14316512784E+01  0.22145014923E+00  0.28212084570E+01  0.51100000000E-03 0.  1.
         12    1    3    3    0    0  0.17957994967E+02  0.24473046083E+01 -0.73814556247E+01  0.19569485691E+02  0.00000000000E+00 0. -1.
</event>
<event>
 7    1  0.2031146E-008  0.4614232E+02  0.7816164E-02  0.1320468E+00
        -11   -1    0    0    0    0  0.00000000000E+00  0.00000000000E+00  0.45593999997E+02  0.45594000000E+02  0.51100000000E-03 0.  1.
         11   -1    0    0    0    0 -0.00000000000E+00 -0.00000000000E+00 -0.45593999997E+02  0.45594000000E+02  0.51100000000E-03 0. -1.
    9900012    2    1    2    0    0 -0.44355285438E+02 -0.14256011136E+01 -0.77259180170E+01  0.46142317699E+02  0.99999994299E+01 0.  0.
        -12    1    1    2    0    0  0.44355285438E+02  0.14256011136E+01  0.77259180170E+01  0.45045682301E+02  0.00000000000E+00 0.  1.
         11    1    3    3    0    0 -0.73750848501E+01  0.98671330782E-01 -0.46147545960E+01  0.87004352087E+01  0.51100000000E-03 0. -1.
        -11    1    3    3    0    0 -0.86151576286E+01 -0.18989417508E+01 -0.20367833305E+01  0.90540271336E+01  0.51100000000E-03 0.  1.
         12    1    3    3    0    0 -0.28365042959E+02  0.37466930640E+00 -0.10743800904E+01  0.28387855356E+02  0.00000000000E+00 0. -1.
</event>
<event>
 7    1  0.2031146E-008  0.4614232E+02  0.7816164E-02  0.1320468E+00
        -11   -1    0    0    0    0  0.00000000000E+00  0.00000000000E+00  0.45593999997E+02  0.45594000000E+02  0.51100000000E-03 0. -1.
         11   -1    0    0    0    0 -0.00000000000E+00 -0.00000000000E+00 -0.45593999997E+02  0.45594000000E+02  0.51100000000E-03 0.  1.
    9900012    2    1    2    0    0 -0.15728046689E+01 -0.26625835107E+02  0.36300201569E+02  0.46142318258E+02  0.10000004533E+02 0.  0.
        -12    1    1    2    0    0  0.15728046689E+01  0.26625835107E+02 -0.36300201569E+02  0.45045681742E+02  0.00000000000E+00 0.  1.
         11    1    3    3    0    0 -0.11761435090E+01 -0.37928410344E+01  0.89586031725E+01  0.97992615911E+01  0.51100000000E-03 0. -1.
        -11    1    3    3    0    0 -0.31990647383E+01 -0.18197035625E+02  0.20133020146E+02  0.27325896531E+02  0.51100000000E-03 0.  1.
        -12    1    3    3    0    0  0.28024035784E+01 -0.46359584471E+01  0.72085782501E+01  0.90171601365E+01  0.00000000000E+00 0.  1.
</event>
<event>
 7    1  0.2031146E-008  0.4614231E+02  0.7816164E-02  0.1320468E+00
        -11   -1    0    0    0    0  0.00000000000E+00  0.00000000000E+00  0.45593999997E+02  0.45594000000E+02  0.51100000000E-03 0. -1.
         11   -1    0    0    0    0 -0.00000000000E+00 -0.00000000000E+00 -0.45593999997E+02  0.45594000000E+02  0.51100000000E-03 0.  1.
    9900012    2    1    2    0    0 -0.15301175087E+02  0.26816605533E+02  0.32800267218E+02  0.46142314070E+02  0.99999663379E+01 0.  0.
        -12    1    1    2    0    0  0.15301175087E+02 -0.26816605533E+02 -0.32800267218E+02  0.45045685930E+02  0.00000000000E+00 0.  1.
         11    1    3    3    0    0 -0.12203082824E+02  0.17737865082E+02  0.17724071028E+02  0.27887089883E+02  0.51100000000E-03 0. -1.
        -11    1    3    3    0    0 -0.33260526151E+01  0.46299891228E+01  0.99189169426E+01  0.11440469346E+02  0.51100000000E-03 0.  1.
         12    1    3    3    0    0  0.22796035214E+00  0.44487513284E+01  0.51572792478E+01  0.68147548410E+01  0.00000000000E+00 0. -1.
</event>
<event>
 7    1  0.2184004E-008  0.4614232E+02  0.7816164E-02  0.1320468E+00
        -11   -1    0    0    0    0  0.00000000000E+00  0.00000000000E+00  0.45593999997E+02  0.45594000000E+02  0.51100000000E-03 0. -1.
         11   -1    0    0    0    0 -0.00000000000E+00 -0.00000000000E+00 -0.45593999997E+02  0.45594000000E+02  0.51100000000E-03 0.  1.
    9900012    2    1    2    0    0  0.22159259409E+02 -0.25962838773E+01  0.39132339754E+02  0.46142317830E+02  0.10000000627E+02 0.  0.
        -12    1    1    2    0    0 -0.22159259409E+02  0.25962838773E+01 -0.39132339754E+02  0.45045682170E+02  0.00000000000E+00 0.  1.
         11    1    3    3    0    0  0.10794641608E+02 -0.36892494589E+00  0.21449807434E+02  0.24015716360E+02  0.51100000000E-03 0. -1.
        -11    1    3    3    0    0  0.11993122570E+02 -0.11487308595E+01  0.15848920315E+02  0.19908361233E+02  0.51100000000E-03 0.  1.
        -12    1    3    3    0    0 -0.62850476931E+00 -0.10786280719E+01  0.18336120063E+01  0.22182402377E+01  0.00000000000E+00 0.  1.
</event>
<event>
 7    1  0.2031146E-008  0.4614232E+02  0.7816164E-02  0.1320468E+00
        -11   -1    0    0    0    0  0.00000000000E+00  0.00000000000E+00  0.45593999997E+02  0.45594000000E+02  0.51100000000E-03 0. -1.
         11   -1    0    0    0    0 -0.00000000000E+00 -0.00000000000E+00 -0.45593999997E+02  0.45594000000E+02  0.51100000000E-03 0.  1.
    9900012    2    1    2    0    0 -0.31474998040E+02 -0.20205864188E+00  0.32224169691E+02  0.46142318280E+02  0.10000004735E+02 0.  0.
        -12    1    1    2    0    0  0.31474998040E+02  0.20205864188E+00 -0.32224169691E+02  0.45045681720E+02  0.00000000000E+00 0.  1.
         11    1    3    3    0    0 -0.69492336672E+01  0.31316065362E+01  0.78673189205E+01  0.10954155162E+02  0.51100000000E-03 0. -1.
        -11    1    3    3    0    0 -0.18180108515E+02 -0.22764961482E+00  0.15765074650E+02  0.24064616119E+02  0.51100000000E-03 0.  1.
        -12    1    3    3    0    0 -0.63456558575E+01 -0.31060155633E+01  0.85917761198E+01  0.11123546999E+02  0.00000000000E+00 0.  1.
</event>
<event>
 7    1  0.2031146E-008  0.4614232E+02  0.7816164E-02  0.1320468E+00
        -11   -1    0    0    0    0  0.00000000000E+00  0.00000000000E+00  0.45593999997E+02  0.45594000000E+02  0.51100000000E-03 0.  1.
         11   -1    0    0    0    0 -0.00000000000E+00 -0.00000000000E+00 -0.45593999997E+02  0.45594000000E+02  0.51100000000E-03 0. -1.
    9900012    2    1    2    0    0 -0.10507196976E+02  0.41378814959E+02 -0.14370315213E+02  0.46142317909E+02  0.10000001352E+02 0.  0.
        -12    1    1    2    0    0  0.10507196976E+02 -0.41378814959E+02  0.14370315213E+02  0.45045682091E+02  0.00000000000E+00 0.  1.
         11    1    3    3    0    0 -0.35315195637E+01  0.16649504701E+02 -0.93214014824E+01  0.19405312754E+02  0.51100000000E-03 0. -1.
        -11    1    3    3    0    0 -0.50225822523E+01  0.22706323845E+02 -0.34715928621E+01  0.23512878010E+02  0.51100000000E-03 0.  1.
        -12    1    3    3    0    0 -0.19530951597E+01  0.20229864126E+01 -0.15773208686E+01  0.32241271456E+01  0.00000000000E+00 0.  1.
</event>
<event>
 7    1  0.2031146E-008  0.4614232E+02  0.7816164E-02  0.1320468E+00
        -11   -1    0    0    0    0  0.00000000000E+00  0.00000000000E+00  0.45593999997E+02  0.45594000000E+02  0.51100000000E-03 0. -1.
         11   -1    0    0    0    0 -0.00000000000E+00 -0.00000000000E+00 -0.45593999997E+02  0.45594000000E+02  0.51100000000E-03 0.  1.
    9900012    2    1    2    0    0 -0.42080551591E+02  0.14017459609E+02 -0.78645716619E+01  0.46142317815E+02  0.10000000492E+02 0.  0.
        -12    1    1    2    0    0  0.42080551591E+02 -0.14017459609E+02  0.78645716619E+01  0.45045682185E+02  0.00000000000E+00 0.  1.
         11    1    3    3    0    0 -0.17072578323E+02  0.96741641477E+01 -0.50712564152E+01  0.20267708910E+02  0.51100000000E-03 0. -1.
        -11    1    3    3    0    0 -0.14010609059E+02  0.12438294049E+01 -0.32627561939E+01  0.14439177818E+02  0.51100000000E-03 0.  1.
         12    1    3    3    0    0 -0.10997364208E+02  0.30994660566E+01  0.46944094718E+00  0.11435431088E+02  0.00000000000E+00 0. -1.
</event>
<event>
 7    1  0.2031146E-008  0.4614232E+02  0.7816164E-02  0.1320468E+00
        -11   -1    0    0    0    0  0.00000000000E+00  0.00000000000E+00  0.45593999997E+02  0.45594000000E+02  0.51100000000E-03 0.  1.
         11   -1    0    0    0    0 -0.00000000000E+00 -0.00000000000E+00 -0.45593999997E+02  0.45594000000E+02  0.51100000000E-03 0. -1.
    9900012    2    1    2    0    0 -0.26429488887E+02  0.32910298055E+02 -0.15732377485E+02  0.46142319827E+02  0.10000018842E+02 0.  0.
        -12    1    1    2    0    0  0.26429488887E+02 -0.32910298055E+02  0.15732377485E+02  0.45045680173E+02  0.00000000000E+00 0.  1.
         11    1    3    3    0    0 -0.14899415648E+01  0.34863957298E+01 -0.30894388773E+01  0.48907580076E+01  0.51100000000E-03 0. -1.
        -11    1    3    3    0    0 -0.30915805481E+01  0.64237881660E+01 -0.73814363672E-01  0.71294020442E+01  0.51100000000E-03 0.  1.
         12    1    3    3    0    0 -0.21847966774E+02  0.23000114159E+02 -0.12569124244E+02  0.34122159776E+02  0.00000000000E+00 0. -1.
</event>
<event>
 7    1  0.2031146E-008  0.4614231E+02  0.7816164E-02  0.1320468E+00
        -11   -1    0    0    0    0  0.00000000000E+00  0.00000000000E+00  0.45593999997E+02  0.45594000000E+02  0.51100000000E-03 0.  1.
         11   -1    0    0    0    0 -0.00000000000E+00 -0.00000000000E+00 -0.45593999997E+02  0.45594000000E+02  0.51100000000E-03 0. -1.
    9900012    2    1    2    0    0  0.24317897837E+02  0.11560228869E+02 -0.36112529819E+02  0.46142313674E+02  0.99999627267E+01 0.  0.
        -12    1    1    2    0    0 -0.24317897837E+02 -0.11560228869E+02  0.36112529819E+02  0.45045686326E+02  0.00000000000E+00 0.  1.
         11    1    3    3    0    0  0.45602195392E+01  0.79893975518E+00 -0.52148090375E+01  0.69733880243E+01  0.51100000000E-03 0. -1.
        -11    1    3    3    0    0  0.32733717141E+01  0.53830531587E+01 -0.52028495543E+01  0.81707935621E+01  0.51100000000E-03 0.  1.
        -12    1    3    3    0    0  0.16484306583E+02  0.53782359550E+01 -0.25694871227E+02  0.30998132087E+02  0.00000000000E+00 0.  1.
</event>
<event>
 7    1  0.2031146E-008  0.4614232E+02  0.7816164E-02  0.1320468E+00
        -11   -1    0    0    0    0  0.00000000000E+00  0.00000000000E+00  0.45593999997E+02  0.45594000000E+02  0.51100000000E-03 0.  1.
         11   -1    0    0    0    0 -0.00000000000E+00 -0.00000000000E+00 -0.45593999997E+02  0.45594000000E+02  0.51100000000E-03 0. -1.
    9900012    2    1    2    0    0  0.13162521433E+02  0.27421262245E+02 -0.33225522000E+02  0.46142324228E+02  0.10000058969E+02 0.  0.
        -12    1    1    2    0    0 -0.13162521433E+02 -0.27421262245E+02  0.33225522000E+02  0.45045675772E+02  0.00000000000E+00 0.  1.
         11    1    3    3    0    0  0.16987413830E+01  0.88354208476E+01 -0.12324929495E+02  0.15259563269E+02  0.51100000000E-03 0. -1.
        -11    1    3    3    0    0  0.82395499678E+00  0.63673523664E+01 -0.45860386784E+01  0.78901095693E+01  0.51100000000E-03 0.  1.
        -12    1    3    3    0    0  0.10639825053E+02  0.12218489031E+02 -0.16314553826E+02  0.22992651390E+02  0.00000000000E+00 0.  1.
</event>
<event>
 7    1  0.2031146E-008  0.4614232E+02  0.7816164E-02  0.1320468E+00
        -11   -1    0    0    0    0  0.00000000000E+00  0.00000000000E+00  0.45593999997E+02  0.45594000000E+02  0.51100000000E-03 0.  1.
         11   -1    0    0    0    0 -0.00000000000E+00 -0.00000000000E+00 -0.45593999997E+02  0.45594000000E+02  0.51100000000E-03 0. -1.
    9900012    2    1    2    0    0 -0.30187120168E+02  0.26749620484E+02 -0.20057643234E+02  0.46142317941E+02  0.10000001639E+02 0.  0.
        -12    1    1    2    0    0  0.30187120168E+02 -0.26749620484E+02  0.20057643234E+02  0.45045682059E+02  0.00000000000E+00 0.  1.
         11    1    3    3    0    0 -0.23740980805E+02  0.19156451220E+02 -0.15667611601E+02  0.34293991405E+02  0.51100000000E-03 0. -1.
        -11    1    3    3    0    0 -0.29773545745E+01  0.62766760499E+01 -0.42324052477E+01  0.81347745476E+01  0.51100000000E-03 0.  1.
         12    1    3    3    0    0 -0.34687847890E+01  0.13164932138E+01 -0.15762638480E+00  0.37135519886E+01  0.00000000000E+00 0. -1.
</event>
<event>
 7    1  0.2031146E-008  0.4614232E+02  0.7816164E-02  0.1320468E+00
        -11   -1    0    0    0    0  0.00000000000E+00  0.00000000000E+00  0.45593999997E+02  0.45594000000E+02  0.51100000000E-03 0.  1.
         11   -1    0    0    0    0 -0.00000000000E+00 -0.00000000000E+00 -0.45593999997E+02  0.45594000000E+02  0.51100000000E-03 0. -1.
    9900012    2    1    2    0    0 -0.40602524096E+02 -0.15032860450E+02 -0.12432282785E+02  0.46142317504E+02  0.99999976581E+01 0.  0.
        -12    1    1    2    0    0  0.40602524096E+02  0.15032860450E+02  0.12432282785E+02  0.45045682496E+02  0.00000000000E+00 0.  1.
         11    1    3    3    0    0 -0.10898433787E+02 -0.19437083184E+01 -0.36670121984E+01  0.11661939795E+02  0.51100000000E-03 0.  1.
        -11    1    3    3    0    0 -0.28683461250E+02 -0.10566464482E+02 -0.74741758567E+01  0.31468308279E+02  0.51100000000E-03 0. -1.
        -12    1    3    3    0    0 -0.10206290578E+01 -0.25226876500E+01 -0.12910947303E+01  0.30120694307E+01  0.00000000000E+00 0.  1.
</event>
<event>
 7    1  0.2031146E-008  0.4614232E+02  0.7816164E-02  0.1320468E+00
        -11   -1    0    0    0    0  0.00000000000E+00  0.00000000000E+00  0.45593999997E+02  0.45594000000E+02  0.51100000000E-03 0. -1.
         11   -1    0    0    0    0 -0.00000000000E+00 -0.00000000000E+00 -0.45593999997E+02  0.45594000000E+02  0.51100000000E-03 0.  1.
    9900012    2    1    2    0    0 -0.32068781535E+02  0.21968360234E+02  0.22761761270E+02  0.46142319001E+02  0.10000011311E+02 0.  0.
        -12    1    1    2    0    0  0.32068781535E+02 -0.21968360234E+02 -0.22761761270E+02  0.45045680999E+02  0.00000000000E+00 0.  1.
         11    1    3    3    0    0 -0.56037384968E+01  0.50062403616E+01  0.13077782423E+01  0.76272283230E+01  0.51100000000E-03 0. -1.
        -11    1    3    3    0    0 -0.16433657437E+02  0.12136961861E+02  0.16798696757E+02  0.26449331805E+02  0.51100000000E-03 0.  1.
         12    1    3    3    0    0 -0.10031385602E+02  0.48251580112E+01  0.46552862709E+01  0.12065758873E+02  0.00000000000E+00 0. -1.
</event>
<event>
 7    1  0.2031146E-008  0.4614232E+02  0.7816164E-02  0.1320468E+00
        -11   -1    0    0    0    0  0.00000000000E+00  0.00000000000E+00  0.45593999997E+02  0.45594000000E+02  0.51100000000E-03 0.  1.
         11   -1    0    0    0    0 -0.00000000000E+00 -0.00000000000E+00 -0.45593999997E+02  0.45594000000E+02  0.51100000000E-03 0. -1.
    9900012    2    1    2    0    0 -0.14522755950E+02  0.31920938926E+02 -0.28271130635E+02  0.46142316415E+02  0.99999877226E+01 0.  0.
        -12    1    1    2    0    0  0.14522755950E+02 -0.31920938926E+02  0.28271130635E+02  0.45045683585E+02  0.00000000000E+00 0.  1.
         11    1    3    3    0    0 -0.69093853564E+01  0.62706746625E+01 -0.85704853172E+01  0.12669419306E+02  0.51100000000E-03 0. -1.
        -11    1    3    3    0    0 -0.13771766418E+01  0.12110940497E+01 -0.11739373210E+01  0.21774970481E+01  0.51100000000E-03 0.  1.
        -12    1    3    3    0    0 -0.62361939517E+01  0.24439170214E+02 -0.18526707997E+02  0.31295400060E+02  0.00000000000E+00 0.  1.
</event>
<event>
 7    1  0.2031146E-008  0.4614232E+02  0.7816164E-02  0.1320468E+00
        -11   -1    0    0    0    0  0.00000000000E+00  0.00000000000E+00  0.45593999997E+02  0.45594000000E+02  0.51100000000E-03 0.  1.
         11   -1    0    0    0    0 -0.00000000000E+00 -0.00000000000E+00 -0.45593999997E+02  0.45594000000E+02  0.51100000000E-03 0. -1.
    9900012    2    1    2    0    0 -0.40600564079E+02  0.11554912458E+02 -0.15722328530E+02  0.46142318522E+02  0.10000006937E+02 0.  0.
        -12    1    1    2    0    0  0.40600564079E+02 -0.11554912458E+02  0.15722328530E+02  0.45045681478E+02  0.00000000000E+00 0.  1.
         11    1    3    3    0    0 -0.15543255488E+02  0.42609851228E+01 -0.45570610188E+01  0.16748599666E+02  0.51100000000E-03 0. -1.
        -11    1    3    3    0    0 -0.17111279203E+02  0.13978903240E+01 -0.56980698110E+01  0.18089167287E+02  0.51100000000E-03 0.  1.
        -12    1    3    3    0    0 -0.79460293875E+01  0.58960370116E+01 -0.54671976999E+01  0.11304551568E+02  0.00000000000E+00 0.  1.
</event>
<event>
 7    1  0.2031146E-008  0.4614231E+02  0.7816164E-02  0.1320468E+00
        -11   -1    0    0    0    0  0.00000000000E+00  0.00000000000E+00  0.45593999997E+02  0.45594000000E+02  0.51100000000E-03 0. -1.
         11   -1    0    0    0    0 -0.00000000000E+00 -0.00000000000E+00 -0.45593999997E+02  0.45594000000E+02  0.51100000000E-03 0.  1.
    9900012    2    1    2    0    0  0.30008353697E+02 -0.78320696364E+01  0.32669118751E+02  0.46142312900E+02  0.99999556684E+01 0.  0.
        -12    1    1    2    0    0 -0.30008353697E+02  0.78320696364E+01 -0.32669118751E+02  0.45045687100E+02  0.00000000000E+00 0.  1.
         11    1    3    3    0    0  0.14894052202E+02 -0.61016509689E+01  0.21719220660E+02  0.27033081251E+02  0.51100000000E-03 0.  1.
        -11    1    3    3    0    0  0.73763139022E+01 -0.19530030873E+01  0.72645833423E+01  0.10535577784E+02  0.51100000000E-03 0. -1.
        -12    1    3    3    0    0  0.77379875921E+01  0.22258441980E+00  0.36853147484E+01  0.85736538648E+01  0.00000000000E+00 0.  1.
</event>
<event>
 7    1  0.2031146E-008  0.4614232E+02  0.7816164E-02  0.1320468E+00
        -11   -1    0    0    0    0  0.00000000000E+00  0.00000000000E+00  0.45593999997E+02  0.45594000000E+02  0.51100000000E-03 0.  1.
         11   -1    0    0    0    0 -0.00000000000E+00 -0.00000000000E+00 -0.45593999997E+02  0.45594000000E+02  0.51100000000E-03 0. -1.
    9900012    2    1    2    0    0  0.89451967140E+01  0.28654321951E+02 -0.33586108442E+02  0.46142318842E+02  0.10000009858E+02 0.  0.
        -12    1    1    2    0    0 -0.89451967140E+01 -0.28654321951E+02  0.33586108442E+02  0.45045681158E+02  0.00000000000E+00 0.  1.
         11    1    3    3    0    0  0.19014695097E+01  0.67246157346E+01 -0.10028747663E+02  0.12223412904E+02  0.51100000000E-03 0. -1.
        -11    1    3    3    0    0  0.85836209885E+01  0.20757724989E+02 -0.21478043373E+02  0.31078417646E+02  0.51100000000E-03 0.  1.
         12    1    3    3    0    0 -0.15398937841E+01  0.11719812276E+01 -0.20793174057E+01  0.28404882921E+01  0.00000000000E+00 0. -1.
</event>
<event>
 7    1  0.2031146E-008  0.4614232E+02  0.7816164E-02  0.1320468E+00
        -11   -1    0    0    0    0  0.00000000000E+00  0.00000000000E+00  0.45593999997E+02  0.45594000000E+02  0.51100000000E-03 0. -1.
         11   -1    0    0    0    0 -0.00000000000E+00 -0.00000000000E+00 -0.45593999997E+02  0.45594000000E+02  0.51100000000E-03 0.  1.
    9900012    2    1    2    0    0  0.28794786661E+02  0.22120724979E+02  0.26657968264E+02  0.46142317805E+02  0.10000000403E+02 0.  0.
        -12    1    1    2    0    0 -0.28794786661E+02 -0.22120724979E+02 -0.26657968264E+02  0.45045682195E+02  0.00000000000E+00 0.  1.
         11    1    3    3    0    0  0.44364209157E+01  0.77488339895E+01  0.88693757669E+01  0.12585391750E+02  0.51100000000E-03 0.  1.
        -11    1    3    3    0    0  0.11062550840E+02  0.48054548570E+01  0.80488636150E+01  0.14500228730E+02  0.51100000000E-03 0. -1.
        -12    1    3    3    0    0  0.13295814905E+02  0.95664361321E+01  0.97397288820E+01  0.19056697325E+02  0.00000000000E+00 0.  1.
</event>
<event>
 7    1  0.2031146E-008  0.4614232E+02  0.7816164E-02  0.1320468E+00
        -11   -1    0    0    0    0  0.00000000000E+00  0.00000000000E+00  0.45593999997E+02  0.45594000000E+02  0.51100000000E-03 0.  1.
         11   -1    0    0    0    0 -0.00000000000E+00 -0.00000000000E+00 -0.45593999997E+02  0.45594000000E+02  0.51100000000E-03 0. -1.
    9900012    2    1    2    0    0 -0.38319509374E+02 -0.17588848534E+02  0.15854371938E+02  0.46142317621E+02  0.99999987217E+01 0.  0.
        -12    1    1    2    0    0  0.38319509374E+02  0.17588848534E+02 -0.15854371938E+02  0.45045682379E+02  0.00000000000E+00 0.  1.
         11    1    3    3    0    0 -0.83803327114E+00 -0.10882516923E+01  0.38280096824E+00  0.14258780984E+01  0.51100000000E-03 0. -1.
        -11    1    3    3    0    0 -0.20956083780E+02 -0.66774181507E+01  0.40774616091E+01  0.22368975256E+02  0.51100000000E-03 0.  1.
        -12    1    3    3    0    0 -0.16525392323E+02 -0.98231786912E+01  0.11394109361E+02  0.22347464267E+02  0.00000000000E+00 0.  1.
</event>
<event>
 7    1  0.2031146E-008  0.4614232E+02  0.7816164E-02  0.1320468E+00
        -11   -1    0    0    0    0  0.00000000000E+00  0.00000000000E+00  0.45593999997E+02  0.45594000000E+02  0.51100000000E-03 0.  1.
         11   -1    0    0    0    0 -0.00000000000E+00 -0.00000000000E+00 -0.45593999997E+02  0.45594000000E+02  0.51100000000E-03 0. -1.
    9900012    2    1    2    0    0 -0.35883481789E+02 -0.19065242120E+02 -0.19442369139E+02  0.46142318297E+02  0.10000004882E+02 0.  0.
        -12    1    1    2    0    0  0.35883481789E+02  0.19065242120E+02  0.19442369139E+02  0.45045681703E+02  0.00000000000E+00 0.  1.
         11    1    3    3    0    0 -0.60907812664E+01 -0.45594907951E+01 -0.17801498945E+01  0.78138023173E+01  0.51100000000E-03 0. -1.
        -11    1    3    3    0    0 -0.74769640322E+01 -0.64373412460E+01 -0.80201158028E+01  0.12714818568E+02  0.51100000000E-03 0.  1.
         12    1    3    3    0    0 -0.22315736491E+02 -0.80684100786E+01 -0.96421034414E+01  0.25613697412E+02  0.00000000000E+00 0. -1.
</event>
<event>
 7    1  0.2031146E-008  0.4614232E+02  0.7816164E-02  0.1320468E+00
        -11   -1    0    0    0    0  0.00000000000E+00  0.00000000000E+00  0.45593999997E+02  0.45594000000E+02  0.51100000000E-03 0.  1.
         11   -1    0    0    0    0 -0.00000000000E+00 -0.00000000000E+00 -0.45593999997E+02  0.45594000000E+02  0.51100000000E-03 0. -1.
    9900012    2    1    2    0    0 -0.56042998095E+01  0.54253630989E+01 -0.44365195041E+02  0.46142320162E+02  0.10000021890E+02 0.  0.
        -12    1    1    2    0    0  0.56042998095E+01 -0.54253630989E+01  0.44365195041E+02  0.45045679838E+02  0.00000000000E+00 0.  1.
         11    1    3    3    0    0  0.50002526482E+00  0.23660584464E+01 -0.29371063167E+01  0.38045829750E+01  0.51100000000E-03 0. -1.
        -11    1    3    3    0    0 -0.48314226038E+01  0.14012244080E+01 -0.14877114348E+02  0.15704604605E+02  0.51100000000E-03 0.  1.
         12    1    3    3    0    0 -0.12729024705E+01  0.16580802445E+01 -0.26550974376E+02  0.26633132582E+02  0.00000000000E+00 0. -1.
</event>
<event>
 7    1  0.2031146E-008  0.4614232E+02  0.7816164E-02  0.1320468E+00
        -11   -1    0    0    0    0  0.00000000000E+00  0.00000000000E+00  0.45593999997E+02  0.45594000000E+02  0.51100000000E-03 0.  1.
         11   -1    0    0    0    0 -0.00000000000E+00 -0.00000000000E+00 -0.45593999997E+02  0.45594000000E+02  0.51100000000E-03 0. -1.
    9900012    2    1    2    0    0 -0.34350252994E+02 -0.14481202025E+02 -0.25287716028E+02  0.46142315692E+02  0.99999811367E+01 0.  0.
        -12    1    1    2    0    0  0.34350252994E+02  0.14481202025E+02  0.25287716028E+02  0.45045684308E+02  0.00000000000E+00 0.  1.
         11    1    3    3    0    0 -0.60259615444E+01 -0.25054558542E+01 -0.63089609803E+01  0.90770320306E+01  0.51100000000E-03 0. -1.
        -11    1    3    3    0    0 -0.28575760537E+02 -0.11190691586E+02 -0.17385121049E+02  0.35271066082E+02  0.51100000000E-03 0.  1.
         12    1    3    3    0    0  0.25146908705E+00 -0.78505458518E+00 -0.15936339984E+01  0.17942175800E+01  0.00000000000E+00 0. -1.
</event>
<event>
 7    1  0.2031146E-008  0.4614232E+02  0.7816164E-02  0.1320468E+00
        -11   -1    0    0    0    0  0.00000000000E+00  0.00000000000E+00  0.45593999997E+02  0.45594000000E+02  0.51100000000E-03 0.  1.
         11   -1    0    0    0    0 -0.00000000000E+00 -0.00000000000E+00 -0.45593999997E+02  0.45594000000E+02  0.51100000000E-03 0. -1.
    9900012    2    1    2    0    0 -0.46052966538E+01 -0.52074125605E+00 -0.44806623369E+02  0.46142318448E+02  0.10000006264E+02 0.  0.
        -12    1    1    2    0    0  0.46052966538E+01  0.52074125605E+00  0.44806623369E+02  0.45045681552E+02  0.00000000000E+00 0.  1.
         11    1    3    3    0    0 -0.56676715665E+00  0.27814591735E+01 -0.16557862181E+02  0.16799420836E+02  0.51100000000E-03 0. -1.
        -11    1    3    3    0    0 -0.29340376384E+01 -0.14019587187E+01 -0.48384565345E+01  0.58296420996E+01  0.51100000000E-03 0.  1.
        -12    1    3    3    0    0 -0.11044918587E+01 -0.19002417108E+01 -0.23410304654E+02  0.23513255513E+02  0.00000000000E+00 0.  1.
</event>
<event>
 7    1  0.2031146E-008  0.4614232E+02  0.7816164E-02  0.1320468E+00
        -11   -1    0    0    0    0  0.00000000000E+00  0.00000000000E+00  0.45593999997E+02  0.45594000000E+02  0.51100000000E-03 0.  1.
         11   -1    0    0    0    0 -0.00000000000E+00 -0.00000000000E+00 -0.45593999997E+02  0.45594000000E+02  0.51100000000E-03 0. -1.
    9900012    2    1    2    0    0  0.10139808160E+02  0.41169215112E+02 -0.15211625971E+02  0.46142317109E+02  0.99999940552E+01 0.  0.
        -12    1    1    2    0    0 -0.10139808160E+02 -0.41169215112E+02  0.15211625971E+02  0.45045682891E+02  0.00000000000E+00 0.  1.
         11    1    3    3    0    0 -0.91753006714E+00  0.78643367045E+01 -0.30520089042E+01  0.84855413403E+01  0.51100000000E-03 0. -1.
        -11    1    3    3    0    0 -0.27895111439E+00  0.57143913627E+01 -0.99426427325E+00  0.58069479141E+01  0.51100000000E-03 0.  1.
         12    1    3    3    0    0  0.11336289342E+02  0.27590487044E+02 -0.11165352794E+02  0.31849827855E+02  0.00000000000E+00 0. -1.
</event>
<event>
 7    1  0.2157705E-008  0.4614232E+02  0.7816164E-02  0.1320468E+00
        -11   -1    0    0    0    0  0.00000000000E+00  0.00000000000E+00  0.45593999997E+02  0.45594000000E+02  0.51100000000E-03 0.  1.
         11   -1    0    0    0    0 -0.00000000000E+00 -0.00000000000E+00 -0.45593999997E+02  0.45594000000E+02  0.51100000000E-03 0. -1.
    9900012    2    1    2    0    0  0.23087458851E+02 -0.37251162825E+02 -0.10413148328E+02  0.46142317120E+02  0.99999941533E+01 0.  0.
        -12    1    1    2    0    0 -0.23087458851E+02  0.37251162825E+02  0.10413148328E+02  0.45045682880E+02  0.00000000000E+00 0.  1.
         11    1    3    3    0    0  0.16943179904E+02 -0.26573277935E+02 -0.56802572410E+01  0.32023050574E+02  0.51100000000E-03 0. -1.
        -11    1    3    3    0    0  0.48296318080E+01 -0.86216992248E+01 -0.13888705414E+01  0.99793788667E+01  0.51100000000E-03 0.  1.
        -12    1    3    3    0    0  0.13146471391E+01 -0.20561856658E+01 -0.33440205453E+01  0.41398876797E+01  0.00000000000E+00 0.  1.
</event>
<event>
 7    1  0.2031146E-008  0.4614232E+02  0.7816164E-02  0.1320468E+00
        -11   -1    0    0    0    0  0.00000000000E+00  0.00000000000E+00  0.45593999997E+02  0.45594000000E+02  0.51100000000E-03 0.  1.
         11   -1    0    0    0    0 -0.00000000000E+00 -0.00000000000E+00 -0.45593999997E+02  0.45594000000E+02  0.51100000000E-03 0. -1.
    9900012    2    1    2    0    0  0.20872717859E+02  0.39711833180E+02  0.40513237052E+01  0.46142320195E+02  0.10000022194E+02 0.  0.
        -12    1    1    2    0    0 -0.20872717859E+02 -0.39711833180E+02 -0.40513237052E+01  0.45045679805E+02  0.00000000000E+00 0.  1.
         11    1    3    3    0    0  0.14973267305E+01  0.29898719279E+01 -0.11654657552E+00  0.33458787857E+01  0.51100000000E-03 0. -1.
        -11    1    3    3    0    0  0.48005047856E+01  0.19251572490E+02  0.18763209586E+01  0.19929587807E+02  0.51100000000E-03 0.  1.
        -12    1    3    3    0    0  0.14574886342E+02  0.17470388762E+02  0.22915493221E+01  0.22866853603E+02  0.00000000000E+00 0.  1.
</event>
<event>
 7    1  0.2031146E-008  0.4614232E+02  0.7816164E-02  0.1320468E+00
        -11   -1    0    0    0    0  0.00000000000E+00  0.00000000000E+00  0.45593999997E+02  0.45594000000E+02  0.51100000000E-03 0.  1.
         11   -1    0    0    0    0 -0.00000000000E+00 -0.00000000000E+00 -0.45593999997E+02  0.45594000000E+02  0.51100000000E-03 0. -1.
    9900012    2    1    2    0    0  0.44940753572E+02  0.30558127433E+01 -0.32276111274E+00  0.46142317655E+02  0.99999990366E+01 0.  0.
        -12    1    1    2    0    0 -0.44940753572E+02 -0.30558127433E+01  0.32276111274E+00  0.45045682345E+02  0.00000000000E+00 0.  1.
         11    1    3    3    0    0  0.19148622260E+02 -0.91998888637E+00  0.14366118297E+01  0.19224462744E+02  0.51100000000E-03 0. -1.
        -11    1    3    3    0    0  0.15268363713E+02 -0.51659215170E+00  0.35695004944E+00  0.15281269957E+02  0.51100000000E-03 0.  1.
        -12    1    3    3    0    0  0.10523767600E+02  0.44923937813E+01 -0.21163229919E+01  0.11636584954E+02  0.00000000000E+00 0.  1.
</event>
<event>
 7    1  0.2031146E-008  0.4614232E+02  0.7816164E-02  0.1320468E+00
        -11   -1    0    0    0    0  0.00000000000E+00  0.00000000000E+00  0.45593999997E+02  0.45594000000E+02  0.51100000000E-03 0.  1.
         11   -1    0    0    0    0 -0.00000000000E+00 -0.00000000000E+00 -0.45593999997E+02  0.45594000000E+02  0.51100000000E-03 0. -1.
    9900012    2    1    2    0    0  0.37381168499E+02  0.13675936179E+02 -0.21088634962E+02  0.46142317485E+02  0.99999974802E+01 0.  0.
        -12    1    1    2    0    0 -0.37381168499E+02 -0.13675936179E+02  0.21088634962E+02  0.45045682515E+02  0.00000000000E+00 0.  1.
         11    1    3    3    0    0  0.16619263825E+02  0.84879533627E+01 -0.65604378204E+01  0.19780915728E+02  0.51100000000E-03 0. -1.
        -11    1    3    3    0    0  0.97296078046E+00  0.13933285600E+01 -0.20427414220E+01  0.26572184583E+01  0.51100000000E-03 0.  1.
        -12    1    3    3    0    0  0.19788943893E+02  0.37946542562E+01 -0.12485455720E+02  0.23704183299E+02  0.00000000000E+00 0.  1.
</event>
<event>
 7    1  0.2031146E-008  0.4614232E+02  0.7816164E-02  0.1320468E+00
        -11   -1    0    0    0    0  0.00000000000E+00  0.00000000000E+00  0.45593999997E+02  0.45594000000E+02  0.51100000000E-03 0.  1.
         11   -1    0    0    0    0 -0.00000000000E+00 -0.00000000000E+00 -0.45593999997E+02  0.45594000000E+02  0.51100000000E-03 0. -1.
    9900012    2    1    2    0    0 -0.39926240940E+02 -0.48484889304E+01  0.20285484294E+02  0.46142318370E+02  0.10000005553E+02 0.  0.
        -12    1    1    2    0    0  0.39926240940E+02  0.48484889304E+01 -0.20285484294E+02  0.45045681630E+02  0.00000000000E+00 0.  1.
         11    1    3    3    0    0 -0.11665786814E+02  0.47437345139E+00  0.69501155397E+01  0.13587483889E+02  0.51100000000E-03 0. -1.
        -11    1    3    3    0    0 -0.93026156993E+01  0.96692513371E+00  0.67096719216E+01  0.11510573427E+02  0.51100000000E-03 0.  1.
         12    1    3    3    0    0 -0.18957838426E+02 -0.62897875155E+01  0.66256968324E+01  0.21044261054E+02  0.00000000000E+00 0. -1.
</event>
<event>
 7    1  0.2031146E-008  0.4614232E+02  0.7816164E-02  0.1320468E+00
        -11   -1    0    0    0    0  0.00000000000E+00  0.00000000000E+00  0.45593999997E+02  0.45594000000E+02  0.51100000000E-03 0. -1.
         11   -1    0    0    0    0 -0.00000000000E+00 -0.00000000000E+00 -0.45593999997E+02  0.45594000000E+02  0.51100000000E-03 0.  1.
    9900012    2    1    2    0    0  0.25312898575E+02 -0.30930405176E+02  0.20776927449E+02  0.46142317489E+02  0.99999975219E+01 0.  0.
        -12    1    1    2    0    0 -0.25312898575E+02  0.30930405176E+02 -0.20776927449E+02  0.45045682511E+02  0.00000000000E+00 0.  1.
         11    1    3    3    0    0  0.73515207125E+01 -0.11725947526E+02  0.75843668027E+01  0.15781803517E+02  0.51100000000E-03 0. -1.
        -11    1    3    3    0    0  0.32224511975E+01 -0.55028151902E+01  0.14805341414E+00  0.63786430228E+01  0.51100000000E-03 0.  1.
        -12    1    3    3    0    0  0.14738926665E+02 -0.13701642459E+02  0.13044507233E+02  0.23981870950E+02  0.00000000000E+00 0.  1.
</event>
<event>
 7    1  0.2113440E-008  0.4614232E+02  0.7816164E-02  0.1320468E+00
        -11   -1    0    0    0    0  0.00000000000E+00  0.00000000000E+00  0.45593999997E+02  0.45594000000E+02  0.51100000000E-03 0. -1.
         11   -1    0    0    0    0 -0.00000000000E+00 -0.00000000000E+00 -0.45593999997E+02  0.45594000000E+02  0.51100000000E-03 0.  1.
    9900012    2    1    2    0    0  0.43631277652E+01 -0.37794960622E+02  0.24116748297E+02  0.46142317846E+02  0.10000000777E+02 0.  0.
        -12    1    1    2    0    0 -0.43631277652E+01  0.37794960622E+02 -0.24116748297E+02  0.45045682154E+02  0.00000000000E+00 0.  1.
         11    1    3    3    0    0  0.26528536228E+01 -0.16232061035E+02  0.97710807309E+01  0.19130903186E+02  0.51100000000E-03 0. -1.
        -11    1    3    3    0    0 -0.83172197825E+00 -0.15659071906E+02  0.67806625091E+01  0.17084369427E+02  0.51100000000E-03 0.  1.
        -12    1    3    3    0    0  0.25419961206E+01 -0.59038276808E+01  0.75650050567E+01  0.99270452335E+01  0.00000000000E+00 0.  1.
</event>
<event>
 7    1  0.2031146E-008  0.4614232E+02  0.7816164E-02  0.1320468E+00
        -11   -1    0    0    0    0  0.00000000000E+00  0.00000000000E+00  0.45593999997E+02  0.45594000000E+02  0.51100000000E-03 0.  1.
         11   -1    0    0    0    0 -0.00000000000E+00 -0.00000000000E+00 -0.45593999997E+02  0.45594000000E+02  0.51100000000E-03 0. -1.
    9900012    2    1    2    0    0  0.40945409271E+02 -0.18496264738E+02 -0.32365510487E+01  0.46142316385E+02  0.99999874491E+01 0.  0.
        -12    1    1    2    0    0 -0.40945409271E+02  0.18496264738E+02  0.32365510487E+01  0.45045683615E+02  0.00000000000E+00 0.  1.
         11    1    3    3    0    0  0.19658778883E+02 -0.12360974639E+02 -0.39944421744E+00  0.23225435133E+02  0.51100000000E-03 0. -1.
        -11    1    3    3    0    0  0.10129663609E+02 -0.49572905867E+01 -0.30961355233E+01  0.11694907876E+02  0.51100000000E-03 0.  1.
         12    1    3    3    0    0  0.11156966779E+02 -0.11779995128E+01  0.25902869206E+00  0.11221973375E+02  0.00000000000E+00 0. -1.
</event>
<event>
 7    1  0.2031146E-008  0.4614232E+02  0.7816164E-02  0.1320468E+00
        -11   -1    0    0    0    0  0.00000000000E+00  0.00000000000E+00  0.45593999997E+02  0.45594000000E+02  0.51100000000E-03 0.  1.
         11   -1    0    0    0    0 -0.00000000000E+00 -0.00000000000E+00 -0.45593999997E+02  0.45594000000E+02  0.51100000000E-03 0. -1.
    9900012    2    1    2    0    0 -0.31922991373E+00 -0.29816103671E+02 -0.33764059518E+02  0.46142315844E+02  0.99999825210E+01 0.  0.
        -12    1    1    2    0    0  0.31922991373E+00  0.29816103671E+02  0.33764059518E+02  0.45045684156E+02  0.00000000000E+00 0.  1.
         11    1    3    3    0    0  0.21452459199E+01 -0.17284215541E+02 -0.19276042250E+02  0.25979068344E+02  0.51100000000E-03 0. -1.
        -11    1    3    3    0    0 -0.96516622098E-01 -0.82325134973E+01 -0.54349806197E+01  0.98652221738E+01  0.51100000000E-03 0.  1.
        -12    1    3    3    0    0 -0.23679592115E+01 -0.42993746331E+01 -0.90530366492E+01  0.10298025327E+02  0.00000000000E+00 0.  1.
</event>
<event>
 7    1  0.2031146E-008  0.4614232E+02  0.7816164E-02  0.1320468E+00
        -11   -1    0    0    0    0  0.00000000000E+00  0.00000000000E+00  0.45593999997E+02  0.45594000000E+02  0.51100000000E-03 0.  1.
         11   -1    0    0    0    0 -0.00000000000E+00 -0.00000000000E+00 -0.45593999997E+02  0.45594000000E+02  0.51100000000E-03 0. -1.
    9900012    2    1    2    0    0  0.23076583461E+02  0.22727546187E+02 -0.31305645922E+02  0.46142317338E+02  0.99999961405E+01 0.  0.
        -12    1    1    2    0    0 -0.23076583461E+02 -0.22727546187E+02  0.31305645922E+02  0.45045682662E+02  0.00000000000E+00 0.  1.
         11    1    3    3    0    0  0.16428489772E+01  0.30595697559E+01 -0.52522122712E+01  0.62964794811E+01  0.51100000000E-03 0. -1.
        -11    1    3    3    0    0  0.10851857364E+02  0.48219019095E+01 -0.92580137242E+01  0.15057369114E+02  0.51100000000E-03 0.  1.
         12    1    3    3    0    0  0.10581877120E+02  0.14846074522E+02 -0.16795419927E+02  0.24788468742E+02  0.00000000000E+00 0. -1.
</event>
<event>
 7    1  0.2031146E-008  0.4614232E+02  0.7816164E-02  0.1320468E+00
        -11   -1    0    0    0    0  0.00000000000E+00  0.00000000000E+00  0.45593999997E+02  0.45594000000E+02  0.51100000000E-03 0.  1.
         11   -1    0    0    0    0 -0.00000000000E+00 -0.00000000000E+00 -0.45593999997E+02  0.45594000000E+02  0.51100000000E-03 0. -1.
    9900012    2    1    2    0    0  0.29435954227E+02 -0.22604797028E+02 -0.25527659761E+02  0.46142315824E+02  0.99999823400E+01 0.  0.
        -12    1    1    2    0    0 -0.29435954227E+02  0.22604797028E+02  0.25527659761E+02  0.45045684176E+02  0.00000000000E+00 0.  1.
         11    1    3    3    0    0  0.25215222103E+01 -0.32397754318E+01 -0.11423742065E+01  0.42613657663E+01  0.51100000000E-03 0.  1.
        -11    1    3    3    0    0  0.17180862642E+02 -0.76197726405E+01 -0.13347080909E+02  0.23051844725E+02  0.51100000000E-03 0. -1.
         12    1    3    3    0    0  0.97335693755E+01 -0.11745248956E+02 -0.11038204646E+02  0.18829105333E+02  0.00000000000E+00 0. -1.
</event>
<event>
 7    1  0.2031146E-008  0.4614232E+02  0.7816164E-02  0.1320468E+00
        -11   -1    0    0    0    0  0.00000000000E+00  0.00000000000E+00  0.45593999997E+02  0.45594000000E+02  0.51100000000E-03 0. -1.
         11   -1    0    0    0    0 -0.00000000000E+00 -0.00000000000E+00 -0.45593999997E+02  0.45594000000E+02  0.51100000000E-03 0.  1.
    9900012    2    1    2    0    0  0.31159653696E+02  0.27233721458E+02  0.17790837127E+02  0.46142317759E+02  0.99999999769E+01 0.  0.
        -12    1    1    2    0    0 -0.31159653696E+02 -0.27233721458E+02 -0.17790837127E+02  0.45045682241E+02  0.00000000000E+00 0.  1.
         11    1    3    3    0    0  0.22220009748E+02  0.22395511980E+02  0.12694766094E+02  0.34006541672E+02  0.51100000000E-03 0. -1.
        -11    1    3    3    0    0  0.67982052868E+00  0.22467135061E+00 -0.73189200712E+00  0.10238649023E+01  0.51100000000E-03 0.  1.
        -12    1    3    3    0    0  0.82598234190E+01  0.46135381280E+01  0.58279630400E+01  0.11111911184E+02  0.00000000000E+00 0.  1.
</event>
<event>
 7    1  0.2031146E-008  0.4614232E+02  0.7816164E-02  0.1320468E+00
        -11   -1    0    0    0    0  0.00000000000E+00  0.00000000000E+00  0.45593999997E+02  0.45594000000E+02  0.51100000000E-03 0.  1.
         11   -1    0    0    0    0 -0.00000000000E+00 -0.00000000000E+00 -0.45593999997E+02  0.45594000000E+02  0.51100000000E-03 0. -1.
    9900012    2    1    2    0    0  0.43799553302E+02 -0.94792606193E+01  0.45668636967E+01  0.46142317683E+02  0.99999992907E+01 0.  0.
        -12    1    1    2    0    0 -0.43799553302E+02  0.94792606193E+01 -0.45668636967E+01  0.45045682317E+02  0.00000000000E+00 0.  1.
         11    1    3    3    0    0  0.19192742201E+02 -0.72851163921E+01  0.23338832931E+01  0.20661105622E+02  0.51100000000E-03 0. -1.
        -11    1    3    3    0    0  0.18734403442E+02 -0.38024105019E+00  0.38416420380E+01  0.19128007460E+02  0.51100000000E-03 0.  1.
         12    1    3    3    0    0  0.58724076599E+01 -0.18139031770E+01 -0.16086616344E+01  0.63532046019E+01  0.00000000000E+00 0. -1.
</event>
<event>
 7    1  0.2031146E-008  0.4614232E+02  0.7816164E-02  0.1320468E+00
        -11   -1    0    0    0    0  0.00000000000E+00  0.00000000000E+00  0.45593999997E+02  0.45594000000E+02  0.51100000000E-03 0. -1.
         11   -1    0    0    0    0 -0.00000000000E+00 -0.00000000000E+00 -0.45593999997E+02  0.45594000000E+02  0.51100000000E-03 0.  1.
    9900012    2    1    2    0    0 -0.17381758148E+02 -0.40915217345E+02  0.72755096208E+01  0.46142316889E+02  0.99999920469E+01 0.  0.
        -12    1    1    2    0    0  0.17381758148E+02  0.40915217345E+02 -0.72755096208E+01  0.45045683111E+02  0.00000000000E+00 0.  1.
         11    1    3    3    0    0 -0.89036478839E+01 -0.18602862627E+02  0.14724917496E+01  0.20676307111E+02  0.51100000000E-03 0. -1.
        -11    1    3    3    0    0 -0.92408939573E+01 -0.21773673834E+02  0.61980846294E+01  0.24452060173E+02  0.51100000000E-03 0.  1.
         12    1    3    3    0    0  0.76278369306E+00 -0.53868088369E+00 -0.39506675814E+00  0.10139496044E+01  0.00000000000E+00 0. -1.
</event>
<event>
 7    1  0.2031146E-008  0.4614232E+02  0.7816164E-02  0.1320468E+00
        -11   -1    0    0    0    0  0.00000000000E+00  0.00000000000E+00  0.45593999997E+02  0.45594000000E+02  0.51100000000E-03 0.  1.
         11   -1    0    0    0    0 -0.00000000000E+00 -0.00000000000E+00 -0.45593999997E+02  0.45594000000E+02  0.51100000000E-03 0. -1.
    9900012    2    1    2    0    0  0.20937777016E+02  0.38962324916E+02  0.85240973536E+01  0.46142317577E+02  0.99999983245E+01 0.  0.
        -12    1    1    2    0    0 -0.20937777016E+02 -0.38962324916E+02 -0.85240973536E+01  0.45045682423E+02  0.00000000000E+00 0.  1.
         11    1    3    3    0    0  0.11080097487E+02  0.20036299108E+02  0.16915423762E+01  0.22958291708E+02  0.51100000000E-03 0. -1.
        -11    1    3    3    0    0  0.47669168392E+01  0.13938706072E+02  0.27982279914E+01  0.14994702506E+02  0.51100000000E-03 0.  1.
         12    1    3    3    0    0  0.50907626902E+01  0.49873197362E+01  0.40343269860E+01  0.81893233633E+01  0.00000000000E+00 0. -1.
</event>
<event>
 7    1  0.2031146E-008  0.4614232E+02  0.7816164E-02  0.1320468E+00
        -11   -1    0    0    0    0  0.00000000000E+00  0.00000000000E+00  0.45593999997E+02  0.45594000000E+02  0.51100000000E-03 0.  1.
         11   -1    0    0    0    0 -0.00000000000E+00 -0.00000000000E+00 -0.45593999997E+02  0.45594000000E+02  0.51100000000E-03 0. -1.
    9900012    2    1    2    0    0  0.29961013543E+01 -0.83136311850E+00 -0.44938243413E+02  0.46142317532E+02  0.99999979148E+01 0.  0.
        -12    1    1    2    0    0 -0.29961013543E+01  0.83136311850E+00  0.44938243413E+02  0.45045682468E+02  0.00000000000E+00 0.  1.
         11    1    3    3    0    0  0.36842033425E+01 -0.29529346603E+01 -0.34260356617E+02  0.34584175762E+02  0.51100000000E-03 0. -1.
        -11    1    3    3    0    0  0.14376338117E+01  0.16010187522E+01 -0.41754270950E+01  0.46972591698E+01  0.51100000000E-03 0.  1.
         12    1    3    3    0    0 -0.21257357998E+01  0.52055278959E+00 -0.65024597006E+01  0.68608826004E+01  0.00000000000E+00 0. -1.
</event>
<event>
 7    1  0.2031146E-008  0.4614232E+02  0.7816164E-02  0.1320468E+00
        -11   -1    0    0    0    0  0.00000000000E+00  0.00000000000E+00  0.45593999997E+02  0.45594000000E+02  0.51100000000E-03 0.  1.
         11   -1    0    0    0    0 -0.00000000000E+00 -0.00000000000E+00 -0.45593999997E+02  0.45594000000E+02  0.51100000000E-03 0. -1.
    9900012    2    1    2    0    0  0.16672387595E+02 -0.11342508269E+02 -0.40280170464E+02  0.46142321688E+02  0.10000035813E+02 0.  0.
        -12    1    1    2    0    0 -0.16672387595E+02  0.11342508269E+02  0.40280170464E+02  0.45045678312E+02  0.00000000000E+00 0.  1.
         11    1    3    3    0    0  0.32189179776E+01 -0.46543781930E+01 -0.11282750859E+02  0.12622406130E+02  0.51100000000E-03 0. -1.
        -11    1    3    3    0    0  0.12497851846E+02 -0.70765751330E+01 -0.20912225495E+02  0.25369181929E+02  0.51100000000E-03 0.  1.
         12    1    3    3    0    0  0.95561777157E+00  0.38844505680E+00 -0.80851941100E+01  0.81507336285E+01  0.00000000000E+00 0. -1.
</event>
<event>
 7    1  0.2031146E-008  0.4614232E+02  0.7816164E-02  0.1320468E+00
        -11   -1    0    0    0    0  0.00000000000E+00  0.00000000000E+00  0.45593999997E+02  0.45594000000E+02  0.51100000000E-03 0.  1.
         11   -1    0    0    0    0 -0.00000000000E+00 -0.00000000000E+00 -0.45593999997E+02  0.45594000000E+02  0.51100000000E-03 0. -1.
    9900012    2    1    2    0    0  0.23824480652E+02 -0.38159562115E+02  0.23141784478E+01  0.46142317842E+02  0.10000000740E+02 0.  0.
        -12    1    1    2    0    0 -0.23824480652E+02  0.38159562115E+02 -0.23141784478E+01  0.45045682158E+02  0.00000000000E+00 0.  1.
         11    1    3    3    0    0  0.48191534183E+01 -0.74909564284E+01  0.85383030716E+00  0.89480553382E+01  0.51100000000E-03 0. -1.
        -11    1    3    3    0    0  0.45280065018E+01 -0.55399801700E+01  0.37960730630E+01  0.80996539510E+01  0.51100000000E-03 0.  1.
         12    1    3    3    0    0  0.14477320732E+02 -0.25128625517E+02 -0.23357249224E+01  0.29094608553E+02  0.00000000000E+00 0. -1.
</event>
<event>
 7    1  0.2031146E-008  0.4614232E+02  0.7816164E-02  0.1320468E+00
        -11   -1    0    0    0    0  0.00000000000E+00  0.00000000000E+00  0.45593999997E+02  0.45594000000E+02  0.51100000000E-03 0. -1.
         11   -1    0    0    0    0 -0.00000000000E+00 -0.00000000000E+00 -0.45593999997E+02  0.45594000000E+02  0.51100000000E-03 0.  1.
    9900012    2    1    2    0    0 -0.23012049092E+02 -0.22356592788E+02  0.31618694795E+02  0.46142317576E+02  0.99999983164E+01 0.  0.
        -12    1    1    2    0    0  0.23012049092E+02  0.22356592788E+02 -0.31618694795E+02  0.45045682424E+02  0.00000000000E+00 0.  1.
         11    1    3    3    0    0 -0.43031659680E+01 -0.38358636676E+01  0.95643003549E+01  0.11167225661E+02  0.51100000000E-03 0. -1.
        -11    1    3    3    0    0  0.11757852521E+00 -0.16027351601E+01  0.25781225725E+01  0.30379764586E+01  0.51100000000E-03 0.  1.
         12    1    3    3    0    0 -0.18826461649E+02 -0.16917993960E+02  0.19476271867E+02  0.31937115457E+02  0.00000000000E+00 0. -1.
</event>
<event>
 7    1  0.2031146E-008  0.4614232E+02  0.7816164E-02  0.1320468E+00
        -11   -1    0    0    0    0  0.00000000000E+00  0.00000000000E+00  0.45593999997E+02  0.45594000000E+02  0.51100000000E-03 0. -1.
         11   -1    0    0    0    0 -0.00000000000E+00 -0.00000000000E+00 -0.45593999997E+02  0.45594000000E+02  0.51100000000E-03 0.  1.
    9900012    2    1    2    0    0 -0.34326948695E+01 -0.42180352004E+02 -0.15432046172E+02  0.46142317206E+02  0.99999949426E+01 0.  0.
        -12    1    1    2    0    0  0.34326948695E+01  0.42180352004E+02  0.15432046172E+02  0.45045682794E+02  0.00000000000E+00 0.  1.
         11    1    3    3    0    0 -0.23290517214E+01 -0.11408069410E+02 -0.38016701291E+01  0.12248315215E+02  0.51100000000E-03 0. -1.
        -11    1    3    3    0    0 -0.11356278084E+01 -0.40427043549E+01 -0.46552095784E+01  0.62692970500E+01  0.51100000000E-03 0.  1.
         12    1    3    3    0    0  0.31984660271E-01 -0.26729578239E+02 -0.69751664644E+01  0.27624704941E+02  0.00000000000E+00 0. -1.
</event>
<event>
 7    1  0.2031146E-008  0.4614232E+02  0.7816164E-02  0.1320468E+00
        -11   -1    0    0    0    0  0.00000000000E+00  0.00000000000E+00  0.45593999997E+02  0.45594000000E+02  0.51100000000E-03 0. -1.
         11   -1    0    0    0    0 -0.00000000000E+00 -0.00000000000E+00 -0.45593999997E+02  0.45594000000E+02  0.51100000000E-03 0.  1.
    9900012    2    1    2    0    0 -0.54222226908E+00  0.35141932244E+02  0.28175594301E+02  0.46142317398E+02  0.99999966934E+01 0.  0.
        -12    1    1    2    0    0  0.54222226908E+00 -0.35141932244E+02 -0.28175594301E+02  0.45045682602E+02  0.00000000000E+00 0.  1.
         11    1    3    3    0    0 -0.82193870888E+00  0.19218228421E+02  0.17181284435E+02  0.25791712273E+02  0.51100000000E-03 0. -1.
        -11    1    3    3    0    0  0.89868251575E-01  0.39147404864E+01  0.63767953497E+01  0.74831001979E+01  0.51100000000E-03 0.  1.
        -12    1    3    3    0    0  0.18984818822E+00  0.12008963337E+02  0.46175145166E+01  0.12867504928E+02  0.00000000000E+00 0.  1.
</event>
<event>
 7    1  0.2031146E-008  0.4614232E+02  0.7816164E-02  0.1320468E+00
        -11   -1    0    0    0    0  0.00000000000E+00  0.00000000000E+00  0.45593999997E+02  0.45594000000E+02  0.51100000000E-03 0.  1.
         11   -1    0    0    0    0 -0.00000000000E+00 -0.00000000000E+00 -0.45593999997E+02  0.45594000000E+02  0.51100000000E-03 0. -1.
    9900012    2    1    2    0    0 -0.35992996583E+01  0.44734353971E+02  0.38724888847E+01  0.46142317039E+02  0.99999934151E+01 0.  0.
        -12    1    1    2    0    0  0.35992996583E+01 -0.44734353971E+02 -0.38724888847E+01  0.45045682961E+02  0.00000000000E+00 0.  1.
         11    1    3    3    0    0 -0.94262484089E+00  0.15155146633E+02  0.97761032554E+00  0.15215871097E+02  0.51100000000E-03 0. -1.
        -11    1    3    3    0    0 -0.29458924250E+01  0.18221852908E+02 -0.19787203202E+01  0.18564200494E+02  0.51100000000E-03 0.  1.
        -12    1    3    3    0    0  0.28921760751E+00  0.11357354430E+02  0.48735988793E+01  0.12362245448E+02  0.00000000000E+00 0.  1.
</event>
<event>
 7    1  0.2031146E-008  0.4614232E+02  0.7816164E-02  0.1320468E+00
        -11   -1    0    0    0    0  0.00000000000E+00  0.00000000000E+00  0.45593999997E+02  0.45594000000E+02  0.51100000000E-03 0.  1.
         11   -1    0    0    0    0 -0.00000000000E+00 -0.00000000000E+00 -0.45593999997E+02  0.45594000000E+02  0.51100000000E-03 0. -1.
    9900012    2    1    2    0    0  0.65525931454E+01  0.76169706490E+01 -0.43910803587E+02  0.46142318848E+02  0.10000009911E+02 0.  0.
        -12    1    1    2    0    0 -0.65525931454E+01 -0.76169706490E+01  0.43910803587E+02  0.45045681152E+02  0.00000000000E+00 0.  1.
         11    1    3    3    0    0 -0.78335065959E+00  0.33935625761E+01 -0.18202051884E+02  0.18532258315E+02  0.51100000000E-03 0. -1.
        -11    1    3    3    0    0  0.27683456808E+00  0.27570027038E+01 -0.88700952978E+01  0.92928086249E+01  0.51100000000E-03 0.  1.
        -12    1    3    3    0    0  0.70591092369E+01  0.14664053690E+01 -0.16838656405E+02  0.18317251908E+02  0.00000000000E+00 0.  1.
</event>
<event>
 7    1  0.2031146E-008  0.4614232E+02  0.7816164E-02  0.1320468E+00
        -11   -1    0    0    0    0  0.00000000000E+00  0.00000000000E+00  0.45593999997E+02  0.45594000000E+02  0.51100000000E-03 0.  1.
         11   -1    0    0    0    0 -0.00000000000E+00 -0.00000000000E+00 -0.45593999997E+02  0.45594000000E+02  0.51100000000E-03 0. -1.
    9900012    2    1    2    0    0  0.79721253336E+01  0.43471685831E+02 -0.87046700881E+01  0.46142317270E+02  0.99999955176E+01 0.  0.
        -12    1    1    2    0    0 -0.79721253336E+01 -0.43471685831E+02  0.87046700881E+01  0.45045682730E+02  0.00000000000E+00 0.  1.
         11    1    3    3    0    0  0.13290225483E+01  0.20272190783E+02 -0.80868994007E+01  0.21866091609E+02  0.51100000000E-03 0.  1.
        -11    1    3    3    0    0  0.23240689771E+01  0.85255692954E+01 -0.14611417291E+01  0.89566491410E+01  0.51100000000E-03 0. -1.
        -12    1    3    3    0    0  0.43190338082E+01  0.14673925753E+02  0.84337104168E+00  0.15319576520E+02  0.00000000000E+00 0.  1.
</event>
<event>
 7    1  0.2031146E-008  0.4614232E+02  0.7816164E-02  0.1320468E+00
        -11   -1    0    0    0    0  0.00000000000E+00  0.00000000000E+00  0.45593999997E+02  0.45594000000E+02  0.51100000000E-03 0.  1.
         11   -1    0    0    0    0 -0.00000000000E+00 -0.00000000000E+00 -0.45593999997E+02  0.45594000000E+02  0.51100000000E-03 0. -1.
    9900012    2    1    2    0    0  0.16538529355E+02 -0.41594229027E+02 -0.50508053645E+01  0.46142317894E+02  0.10000001211E+02 0.  0.
        -12    1    1    2    0    0 -0.16538529355E+02  0.41594229027E+02  0.50508053645E+01  0.45045682106E+02  0.00000000000E+00 0.  1.
         11    1    3    3    0    0  0.14010070030E+02 -0.31879030487E+02 -0.65827030673E+01  0.35438490755E+02  0.51100000000E-03 0. -1.
        -11    1    3    3    0    0  0.15632225488E+00 -0.54672592842E+01 -0.36517739068E+00  0.54816708690E+01  0.51100000000E-03 0.  1.
        -12    1    3    3    0    0  0.23721370700E+01 -0.42479392552E+01  0.18970750935E+01  0.52221562697E+01  0.00000000000E+00 0.  1.
</event>
<event>
 7    1  0.2031146E-008  0.4614232E+02  0.7816164E-02  0.1320468E+00
        -11   -1    0    0    0    0  0.00000000000E+00  0.00000000000E+00  0.45593999997E+02  0.45594000000E+02  0.51100000000E-03 0.  1.
         11   -1    0    0    0    0 -0.00000000000E+00 -0.00000000000E+00 -0.45593999997E+02  0.45594000000E+02  0.51100000000E-03 0. -1.
    9900012    2    1    2    0    0 -0.70211740245E+01 -0.36801170094E+02 -0.25009807451E+02  0.46142317923E+02  0.10000001480E+02 0.  0.
        -12    1    1    2    0    0  0.70211740245E+01  0.36801170094E+02  0.25009807451E+02  0.45045682077E+02  0.00000000000E+00 0.  1.
         11    1    3    3    0    0 -0.17278769375E+01 -0.26786871495E+01 -0.96991454082E+00  0.33319150700E+01  0.51100000000E-03 0. -1.
        -11    1    3    3    0    0 -0.31514797497E+01 -0.30498947127E+02 -0.18350296747E+02  0.35733051807E+02  0.51100000000E-03 0.  1.
         12    1    3    3    0    0 -0.21418173373E+01 -0.36235358174E+01 -0.56895961634E+01  0.70773510461E+01  0.00000000000E+00 0. -1.
</event>
<event>
 7    1  0.2031146E-008  0.4614232E+02  0.7816164E-02  0.1320468E+00
        -11   -1    0    0    0    0  0.00000000000E+00  0.00000000000E+00  0.45593999997E+02  0.45594000000E+02  0.51100000000E-03 0.  1.
         11   -1    0    0    0    0 -0.00000000000E+00 -0.00000000000E+00 -0.45593999997E+02  0.45594000000E+02  0.51100000000E-03 0. -1.
    9900012    2    1    2    0    0  0.18401618049E+02 -0.13689872489E+02 -0.38769593748E+02  0.46142317022E+02  0.99999932622E+01 0.  0.
        -12    1    1    2    0    0 -0.18401618049E+02  0.13689872489E+02  0.38769593748E+02  0.45045682978E+02  0.00000000000E+00 0.  1.
         11    1    3    3    0    0  0.99699311342E+01 -0.84501674537E+01 -0.26988128717E+02  0.29986062574E+02  0.51100000000E-03 0. -1.
        -11    1    3    3    0    0  0.17400907636E+01 -0.53665350557E+00 -0.56442415753E+01  0.59307146342E+01  0.51100000000E-03 0.  1.
        -12    1    3    3    0    0  0.66915961507E+01 -0.47030515303E+01 -0.61372234557E+01  0.10225539814E+02  0.00000000000E+00 0.  1.
</event>
<event>
 7    1  0.2031146E-008  0.4614232E+02  0.7816164E-02  0.1320468E+00
        -11   -1    0    0    0    0  0.00000000000E+00  0.00000000000E+00  0.45593999997E+02  0.45594000000E+02  0.51100000000E-03 0.  1.
         11   -1    0    0    0    0 -0.00000000000E+00 -0.00000000000E+00 -0.45593999997E+02  0.45594000000E+02  0.51100000000E-03 0. -1.
    9900012    2    1    2    0    0 -0.20384360927E+02  0.39971866055E+02 -0.39801081924E+01  0.46142317548E+02  0.99999980598E+01 0.  0.
        -12    1    1    2    0    0  0.20384360927E+02 -0.39971866055E+02  0.39801081924E+01  0.45045682452E+02  0.00000000000E+00 0.  1.
         11    1    3    3    0    0 -0.13739146398E+02  0.30089199666E+02 -0.19238232069E+01  0.33133444981E+02  0.51100000000E-03 0. -1.
        -11    1    3    3    0    0 -0.33400668257E+01  0.83923818652E+01 -0.45121883057E+00  0.90438774022E+01  0.51100000000E-03 0.  1.
        -12    1    3    3    0    0 -0.33051477028E+01  0.14902845234E+01 -0.16050661549E+01  0.39649951651E+01  0.00000000000E+00 0.  1.
</event>
<event>
 7    1  0.2031146E-008  0.4614232E+02  0.7816164E-02  0.1320468E+00
        -11   -1    0    0    0    0  0.00000000000E+00  0.00000000000E+00  0.45593999997E+02  0.45594000000E+02  0.51100000000E-03 0. -1.
         11   -1    0    0    0    0 -0.00000000000E+00 -0.00000000000E+00 -0.45593999997E+02  0.45594000000E+02  0.51100000000E-03 0.  1.
    9900012    2    1    2    0    0  0.47353980669E+01  0.15568272284E+02  0.42003790401E+02  0.46142317578E+02  0.99999983308E+01 0.  0.
        -12    1    1    2    0    0 -0.47353980669E+01 -0.15568272284E+02 -0.42003790401E+02  0.45045682422E+02  0.00000000000E+00 0.  1.
         11    1    3    3    0    0  0.36891288041E+01  0.41404766721E+01  0.17306987822E+02  0.18173746068E+02  0.51100000000E-03 0.  1.
        -11    1    3    3    0    0 -0.11161318748E+01  0.80730642838E+01  0.21009133712E+02  0.22534502810E+02  0.51100000000E-03 0. -1.
         12    1    3    3    0    0  0.21624011376E+01  0.33547313285E+01  0.36876688674E+01  0.54340687006E+01  0.00000000000E+00 0. -1.
</event>
<event>
 7    1  0.2031146E-008  0.4614232E+02  0.7816164E-02  0.1320468E+00
        -11   -1    0    0    0    0  0.00000000000E+00  0.00000000000E+00  0.45593999997E+02  0.45594000000E+02  0.51100000000E-03 0. -1.
         11   -1    0    0    0    0 -0.00000000000E+00 -0.00000000000E+00 -0.45593999997E+02  0.45594000000E+02  0.51100000000E-03 0.  1.
    9900012    2    1    2    0    0  0.22029959241E+02  0.39288256413E+02 -0.47679777737E+00  0.46142317274E+02  0.99999955593E+01 0.  0.
        -12    1    1    2    0    0 -0.22029959241E+02 -0.39288256413E+02  0.47679777737E+00  0.45045682726E+02  0.00000000000E+00 0.  1.
         11    1    3    3    0    0  0.86900317882E+00  0.37565943270E+01  0.85234740054E+00  0.39488813372E+01  0.51100000000E-03 0. -1.
        -11    1    3    3    0    0  0.73839214992E+01  0.10094416600E+02  0.32070234177E+01  0.12911411335E+02  0.51100000000E-03 0.  1.
         12    1    3    3    0    0  0.13777034563E+02  0.25437245486E+02 -0.45361685957E+01  0.29282024602E+02  0.00000000000E+00 0. -1.
</event>
<event>
 7    1  0.2031146E-008  0.4614232E+02  0.7816164E-02  0.1320468E+00
        -11   -1    0    0    0    0  0.00000000000E+00  0.00000000000E+00  0.45593999997E+02  0.45594000000E+02  0.51100000000E-03 0.  1.
         11   -1    0    0    0    0 -0.00000000000E+00 -0.00000000000E+00 -0.45593999997E+02  0.45594000000E+02  0.51100000000E-03 0. -1.
    9900012    2    1    2    0    0 -0.43280735362E+02  0.95039897914E+01  0.80972636995E+01  0.46142317023E+02  0.99999932677E+01 0.  0.
        -12    1    1    2    0    0  0.43280735362E+02 -0.95039897914E+01 -0.80972636995E+01  0.45045682977E+02  0.00000000000E+00 0.  1.
         11    1    3    3    0    0 -0.27925901933E+02  0.52484470132E+01  0.17526584629E+01  0.28468825174E+02  0.51100000000E-03 0. -1.
        -11    1    3    3    0    0 -0.10089929626E+02  0.47878491848E+01  0.37594283586E+01  0.11784035027E+02  0.51100000000E-03 0.  1.
        -12    1    3    3    0    0 -0.52649038029E+01 -0.53230640661E+00  0.25851768779E+01  0.58894568217E+01  0.00000000000E+00 0.  1.
</event>
<event>
 7    1  0.2031146E-008  0.4614232E+02  0.7816164E-02  0.1320468E+00
        -11   -1    0    0    0    0  0.00000000000E+00  0.00000000000E+00  0.45593999997E+02  0.45594000000E+02  0.51100000000E-03 0.  1.
         11   -1    0    0    0    0 -0.00000000000E+00 -0.00000000000E+00 -0.45593999997E+02  0.45594000000E+02  0.51100000000E-03 0. -1.
    9900012    2    1    2    0    0  0.30783943839E+02  0.56573571627E+01 -0.32395313839E+02  0.46142320440E+02  0.10000024424E+02 0.  0.
        -12    1    1    2    0    0 -0.30783943839E+02 -0.56573571627E+01  0.32395313839E+02  0.45045679560E+02  0.00000000000E+00 0.  1.
         11    1    3    3    0    0  0.85044208955E+01  0.17254662177E+01 -0.97658738872E+01  0.13064252810E+02  0.51100000000E-03 0. -1.
        -11    1    3    3    0    0  0.19967556430E+02  0.23177148854E+01 -0.15413679210E+02  0.25330941931E+02  0.51100000000E-03 0.  1.
        -12    1    3    3    0    0  0.23119665140E+01  0.16141760596E+01 -0.72157607418E+01  0.77471256989E+01  0.00000000000E+00 0.  1.
</event>
<event>
 7    1  0.2031146E-008  0.4614232E+02  0.7816164E-02  0.1320468E+00
        -11   -1    0    0    0    0  0.00000000000E+00  0.00000000000E+00  0.45593999997E+02  0.45594000000E+02  0.51100000000E-03 0.  1.
         11   -1    0    0    0    0 -0.00000000000E+00 -0.00000000000E+00 -0.45593999997E+02  0.45594000000E+02  0.51100000000E-03 0. -1.
    9900012    2    1    2    0    0  0.22340112008E+02  0.33022059273E+02 -0.20966079856E+02  0.46142317547E+02  0.99999980485E+01 0.  0.
        -12    1    1    2    0    0 -0.22340112008E+02 -0.33022059273E+02  0.20966079856E+02  0.45045682453E+02  0.00000000000E+00 0.  1.
         11    1    3    3    0    0 -0.14971414260E+00  0.19500823756E+01 -0.10215080329E+01  0.22065163762E+01  0.51100000000E-03 0.  1.
        -11    1    3    3    0    0  0.19580553600E+02  0.21581034927E+02 -0.13624073518E+02  0.32167600583E+02  0.51100000000E-03 0. -1.
         12    1    3    3    0    0  0.29092725508E+01  0.94909419701E+01 -0.63204983046E+01  0.11768200588E+02  0.00000000000E+00 0. -1.
</event>
<event>
 7    1  0.2031146E-008  0.4614232E+02  0.7816164E-02  0.1320468E+00
        -11   -1    0    0    0    0  0.00000000000E+00  0.00000000000E+00  0.45593999997E+02  0.45594000000E+02  0.51100000000E-03 0. -1.
         11   -1    0    0    0    0 -0.00000000000E+00 -0.00000000000E+00 -0.45593999997E+02  0.45594000000E+02  0.51100000000E-03 0.  1.
    9900012    2    1    2    0    0  0.77150993546E+01 -0.30817850646E+02  0.31935101584E+02  0.46142318857E+02  0.10000009993E+02 0.  0.
        -12    1    1    2    0    0 -0.77150993546E+01  0.30817850646E+02 -0.31935101584E+02  0.45045681143E+02  0.00000000000E+00 0.  1.
         11    1    3    3    0    0  0.64489541044E+01 -0.17300536132E+02  0.14779887261E+02  0.23650425519E+02  0.51100000000E-03 0. -1.
        -11    1    3    3    0    0  0.18243876228E+01 -0.14520504929E+01  0.17448614346E+01  0.29122813256E+01  0.51100000000E-03 0.  1.
        -12    1    3    3    0    0 -0.55824237261E+00 -0.12065264020E+02  0.15410352888E+02  0.19579612012E+02  0.00000000000E+00 0.  1.
</event>
<event>
 7    1  0.2031146E-008  0.4614232E+02  0.7816164E-02  0.1320468E+00
        -11   -1    0    0    0    0  0.00000000000E+00  0.00000000000E+00  0.45593999997E+02  0.45594000000E+02  0.51100000000E-03 0. -1.
         11   -1    0    0    0    0 -0.00000000000E+00 -0.00000000000E+00 -0.45593999997E+02  0.45594000000E+02  0.51100000000E-03 0.  1.
    9900012    2    1    2    0    0  0.40929304692E+02  0.18469991333E+02  0.35727953168E+01  0.46142318423E+02  0.10000006033E+02 0.  0.
        -12    1    1    2    0    0 -0.40929304692E+02 -0.18469991333E+02 -0.35727953168E+01  0.45045681577E+02  0.00000000000E+00 0.  1.
         11    1    3    3    0    0  0.16209234949E+02  0.92283996149E+01  0.33110350470E+01  0.18943748585E+02  0.51100000000E-03 0. -1.
        -11    1    3    3    0    0  0.23558451797E+01 -0.77806714065E+00  0.10155645493E+01  0.26808145406E+01  0.51100000000E-03 0.  1.
         12    1    3    3    0    0  0.22364224563E+02  0.10019658859E+02 -0.75380427944E+00  0.24517755297E+02  0.00000000000E+00 0. -1.
</event>
<event>
 7    1  0.2031146E-008  0.4614232E+02  0.7816164E-02  0.1320468E+00
        -11   -1    0    0    0    0  0.00000000000E+00  0.00000000000E+00  0.45593999997E+02  0.45594000000E+02  0.51100000000E-03 0.  1.
         11   -1    0    0    0    0 -0.00000000000E+00 -0.00000000000E+00 -0.45593999997E+02  0.45594000000E+02  0.51100000000E-03 0. -1.
    9900012    2    1    2    0    0 -0.22694889716E+02 -0.18625932710E+02 -0.34163285623E+02  0.46142317931E+02  0.10000001548E+02 0.  0.
        -12    1    1    2    0    0  0.22694889716E+02  0.18625932710E+02  0.34163285623E+02  0.45045682069E+02  0.00000000000E+00 0.  1.
         11    1    3    3    0    0 -0.87923946521E+01 -0.10491915316E+02 -0.17634267679E+02  0.22323841236E+02  0.51100000000E-03 0. -1.
        -11    1    3    3    0    0 -0.13421785216E+02 -0.89247460141E+01 -0.16154322802E+02  0.22820112955E+02  0.51100000000E-03 0.  1.
        -12    1    3    3    0    0 -0.48070984744E+00  0.79072862009E+00 -0.37469514196E+00  0.99836374006E+00  0.00000000000E+00 0.  1.
</event>
<event>
 7    1  0.2031146E-008  0.4614232E+02  0.7816164E-02  0.1320468E+00
        -11   -1    0    0    0    0  0.00000000000E+00  0.00000000000E+00  0.45593999997E+02  0.45594000000E+02  0.51100000000E-03 0.  1.
         11   -1    0    0    0    0 -0.00000000000E+00 -0.00000000000E+00 -0.45593999997E+02  0.45594000000E+02  0.51100000000E-03 0. -1.
    9900012    2    1    2    0    0 -0.27206095427E+02 -0.33854035605E+02 -0.11951827028E+02  0.46142317361E+02  0.99999963517E+01 0.  0.
        -12    1    1    2    0    0  0.27206095427E+02  0.33854035605E+02  0.11951827028E+02  0.45045682639E+02  0.00000000000E+00 0.  1.
         11    1    3    3    0    0 -0.92001268487E+01 -0.14931167787E+02 -0.30389388248E+01  0.17799361083E+02  0.51100000000E-03 0. -1.
        -11    1    3    3    0    0 -0.11520029675E+02 -0.81521855609E+01 -0.29056103943E+01  0.14408739888E+02  0.51100000000E-03 0.  1.
        -12    1    3    3    0    0 -0.64859389027E+01 -0.10770682257E+02 -0.60072778090E+01  0.13934216390E+02  0.00000000000E+00 0.  1.
</event>
<event>
 7    1  0.2031146E-008  0.4614232E+02  0.7816164E-02  0.1320468E+00
        -11   -1    0    0    0    0  0.00000000000E+00  0.00000000000E+00  0.45593999997E+02  0.45594000000E+02  0.51100000000E-03 0.  1.
         11   -1    0    0    0    0 -0.00000000000E+00 -0.00000000000E+00 -0.45593999997E+02  0.45594000000E+02  0.51100000000E-03 0. -1.
    9900012    2    1    2    0    0  0.39514738153E+02  0.20583833653E+02 -0.66336031193E+01  0.46142318415E+02  0.10000005960E+02 0.  0.
        -12    1    1    2    0    0 -0.39514738153E+02 -0.20583833653E+02  0.66336031193E+01  0.45045681585E+02  0.00000000000E+00 0.  1.
         11    1    3    3    0    0  0.17380194433E+02  0.62356368542E+01 -0.42402889099E+01  0.18945563486E+02  0.51100000000E-03 0. -1.
        -11    1    3    3    0    0 -0.10071331768E+00  0.12717367320E+01 -0.33749152732E+00  0.13196053501E+01  0.51100000000E-03 0.  1.
         12    1    3    3    0    0  0.22235257038E+02  0.13076460066E+02 -0.20558226821E+01  0.25877149578E+02  0.00000000000E+00 0. -1.
</event>
<event>
 7    1  0.2031146E-008  0.4614232E+02  0.7816164E-02  0.1320468E+00
        -11   -1    0    0    0    0  0.00000000000E+00  0.00000000000E+00  0.45593999997E+02  0.45594000000E+02  0.51100000000E-03 0.  1.
         11   -1    0    0    0    0 -0.00000000000E+00 -0.00000000000E+00 -0.45593999997E+02  0.45594000000E+02  0.51100000000E-03 0. -1.
    9900012    2    1    2    0    0 -0.88714173526E+01 -0.42204303247E+01 -0.43961340197E+02  0.46142317523E+02  0.99999978254E+01 0.  0.
        -12    1    1    2    0    0  0.88714173526E+01  0.42204303247E+01  0.43961340197E+02  0.45045682477E+02  0.00000000000E+00 0.  1.
         11    1    3    3    0    0 -0.23884123312E+01 -0.20380781275E+01 -0.28447411493E+01  0.42368417937E+01  0.51100000000E-03 0. -1.
        -11    1    3    3    0    0 -0.71635610881E-01 -0.18539150837E-01  0.10706350338E+00  0.13014690060E+00  0.51100000000E-03 0.  1.
         12    1    3    3    0    0 -0.64113694105E+01 -0.21638130463E+01 -0.41223662551E+02  0.41775328828E+02  0.00000000000E+00 0. -1.
</event>
<event>
 7    1  0.2031146E-008  0.4614232E+02  0.7816164E-02  0.1320468E+00
        -11   -1    0    0    0    0  0.00000000000E+00  0.00000000000E+00  0.45593999997E+02  0.45594000000E+02  0.51100000000E-03 0.  1.
         11   -1    0    0    0    0 -0.00000000000E+00 -0.00000000000E+00 -0.45593999997E+02  0.45594000000E+02  0.51100000000E-03 0. -1.
    9900012    2    1    2    0    0 -0.24372451308E+02  0.26865220197E+02  0.26708741550E+02  0.46142319695E+02  0.10000017636E+02 0.  0.
        -12    1    1    2    0    0  0.24372451308E+02 -0.26865220197E+02 -0.26708741550E+02  0.45045680305E+02  0.00000000000E+00 0.  1.
         11    1    3    3    0    0 -0.25141063532E+01  0.17654894880E+01  0.35738732940E+01  0.47127756652E+01  0.51100000000E-03 0. -1.
        -11    1    3    3    0    0 -0.53117271484E+01  0.35061897104E+01  0.82489170711E+01  0.10418850450E+02  0.51100000000E-03 0.  1.
         12    1    3    3    0    0 -0.16546617806E+02  0.21593540998E+02  0.14885951184E+02  0.31010693580E+02  0.00000000000E+00 0. -1.
</event>
<event>
 7    1  0.2031146E-008  0.4614232E+02  0.7816164E-02  0.1320468E+00
        -11   -1    0    0    0    0  0.00000000000E+00  0.00000000000E+00  0.45593999997E+02  0.45594000000E+02  0.51100000000E-03 0.  1.
         11   -1    0    0    0    0 -0.00000000000E+00 -0.00000000000E+00 -0.45593999997E+02  0.45594000000E+02  0.51100000000E-03 0. -1.
    9900012    2    1    2    0    0  0.20213651974E+02 -0.16166651489E+02 -0.36866799803E+02  0.46142320138E+02  0.10000021677E+02 0.  0.
        -12    1    1    2    0    0 -0.20213651974E+02  0.16166651489E+02  0.36866799803E+02  0.45045679862E+02  0.00000000000E+00 0.  1.
         11    1    3    3    0    0  0.55347823022E+01 -0.33869028571E+01 -0.54393863221E+01  0.84671039865E+01  0.51100000000E-03 0. -1.
        -11    1    3    3    0    0  0.24342248505E+01 -0.62217993760E+01 -0.12804265883E+02  0.14442488122E+02  0.51100000000E-03 0.  1.
        -12    1    3    3    0    0  0.12244644822E+02 -0.65579492564E+01 -0.18623147598E+02  0.23232728030E+02  0.00000000000E+00 0.  1.
</event>
<event>
 7    1  0.2031146E-008  0.4614232E+02  0.7816164E-02  0.1320468E+00
        -11   -1    0    0    0    0  0.00000000000E+00  0.00000000000E+00  0.45593999997E+02  0.45594000000E+02  0.51100000000E-03 0.  1.
         11   -1    0    0    0    0 -0.00000000000E+00 -0.00000000000E+00 -0.45593999997E+02  0.45594000000E+02  0.51100000000E-03 0. -1.
    9900012    2    1    2    0    0  0.32054280889E+02 -0.59886010326E+01 -0.31076891444E+02  0.46142318216E+02  0.10000004144E+02 0.  0.
        -12    1    1    2    0    0 -0.32054280889E+02  0.59886010326E+01  0.31076891444E+02  0.45045681784E+02  0.00000000000E+00 0.  1.
         11    1    3    3    0    0  0.84284479408E+01 -0.36743160757E+01 -0.82286895364E+01  0.12338989629E+02  0.51100000000E-03 0. -1.
        -11    1    3    3    0    0  0.12409727894E+02  0.21122945049E+01 -0.14127904599E+02  0.18922495160E+02  0.51100000000E-03 0.  1.
        -12    1    3    3    0    0  0.11216105054E+02 -0.44265794619E+01 -0.87202973089E+01  0.14880833426E+02  0.00000000000E+00 0.  1.
</event>
<event>
 7    1  0.2031146E-008  0.4614231E+02  0.7816164E-02  0.1320468E+00
        -11   -1    0    0    0    0  0.00000000000E+00  0.00000000000E+00  0.45593999997E+02  0.45594000000E+02  0.51100000000E-03 0.  1.
         11   -1    0    0    0    0 -0.00000000000E+00 -0.00000000000E+00 -0.45593999997E+02  0.45594000000E+02  0.51100000000E-03 0. -1.
    9900012    2    1    2    0    0 -0.18577295079E+01 -0.23268596752E+02 -0.38525770382E+02  0.46142314998E+02  0.99999748042E+01 0.  0.
        -12    1    1    2    0    0  0.18577295079E+01  0.23268596752E+02  0.38525770382E+02  0.45045685002E+02  0.00000000000E+00 0.  1.
         11    1    3    3    0    0 -0.32729362643E+01 -0.89400598033E+01 -0.14947100472E+02  0.17721529106E+02  0.51100000000E-03 0. -1.
        -11    1    3    3    0    0  0.62376758845E+00 -0.13554683159E+00  0.24069205985E+00  0.68219636231E+00  0.51100000000E-03 0.  1.
         12    1    3    3    0    0  0.79143916800E+00 -0.14192990117E+02 -0.23819361970E+02  0.27738589530E+02  0.00000000000E+00 0. -1.
</event>
<event>
 7    1  0.2031146E-008  0.4614232E+02  0.7816164E-02  0.1320468E+00
        -11   -1    0    0    0    0  0.00000000000E+00  0.00000000000E+00  0.45593999997E+02  0.45594000000E+02  0.51100000000E-03 0. -1.
         11   -1    0    0    0    0 -0.00000000000E+00 -0.00000000000E+00 -0.45593999997E+02  0.45594000000E+02  0.51100000000E-03 0.  1.
    9900012    2    1    2    0    0 -0.32311756274E+02 -0.31310534427E+02 -0.21712533266E+01  0.46142317625E+02  0.99999987571E+01 0.  0.
        -12    1    1    2    0    0  0.32311756274E+02  0.31310534427E+02  0.21712533266E+01  0.45045682375E+02  0.00000000000E+00 0.  1.
         11    1    3    3    0    0 -0.17710569254E+02 -0.19228884445E+02 -0.30904699965E+01  0.26324233424E+02  0.51100000000E-03 0. -1.
        -11    1    3    3    0    0 -0.10044652879E+02 -0.89189039541E+01 -0.19493882919E+01  0.13573577796E+02  0.51100000000E-03 0.  1.
        -12    1    3    3    0    0 -0.45565341408E+01 -0.31627460283E+01  0.28686049617E+01  0.62445064050E+01  0.00000000000E+00 0.  1.
</event>
<event>
 7    1  0.2031146E-008  0.4614232E+02  0.7816164E-02  0.1320468E+00
        -11   -1    0    0    0    0  0.00000000000E+00  0.00000000000E+00  0.45593999997E+02  0.45594000000E+02  0.51100000000E-03 0.  1.
         11   -1    0    0    0    0 -0.00000000000E+00 -0.00000000000E+00 -0.45593999997E+02  0.45594000000E+02  0.51100000000E-03 0. -1.
    9900012    2    1    2    0    0  0.13939646005E+02  0.34154770474E+02 -0.25850554925E+02  0.46142320221E+02  0.10000022431E+02 0.  0.
        -12    1    1    2    0    0 -0.13939646005E+02 -0.34154770474E+02  0.25850554925E+02  0.45045679779E+02  0.00000000000E+00 0.  1.
         11    1    3    3    0    0  0.12144711659E+02  0.20119022001E+02 -0.16516591809E+02  0.28723977315E+02  0.51100000000E-03 0.  1.
        -11    1    3    3    0    0  0.45786381619E+00  0.38277845832E+00 -0.15148326568E+01  0.16281513632E+01  0.51100000000E-03 0. -1.
        -12    1    3    3    0    0  0.13370705290E+01  0.13652970015E+02 -0.78191304589E+01  0.15790191543E+02  0.00000000000E+00 0.  1.
</event>
<event>
 7    1  0.2031146E-008  0.4614232E+02  0.7816164E-02  0.1320468E+00
        -11   -1    0    0    0    0  0.00000000000E+00  0.00000000000E+00  0.45593999997E+02  0.45594000000E+02  0.51100000000E-03 0.  1.
         11   -1    0    0    0    0 -0.00000000000E+00 -0.00000000000E+00 -0.45593999997E+02  0.45594000000E+02  0.51100000000E-03 0. -1.
    9900012    2    1    2    0    0 -0.20758359142E+02 -0.92149010900E+01 -0.38901023189E+02  0.46142317837E+02  0.10000000694E+02 0.  0.
        -12    1    1    2    0    0  0.20758359142E+02  0.92149010900E+01  0.38901023189E+02  0.45045682163E+02  0.00000000000E+00 0.  1.
         11    1    3    3    0    0 -0.95078944622E+01 -0.20982059880E+01 -0.19152362548E+02  0.21485239512E+02  0.51100000000E-03 0. -1.
        -11    1    3    3    0    0 -0.78100535172E+00 -0.24747690901E+01 -0.12030887599E+01  0.28603975657E+01  0.51100000000E-03 0.  1.
        -12    1    3    3    0    0 -0.10469459328E+02 -0.46419260120E+01 -0.18545571881E+02  0.21796680759E+02  0.00000000000E+00 0.  1.
</event>
<event>
 7    1  0.2031146E-008  0.4614232E+02  0.7816164E-02  0.1320468E+00
        -11   -1    0    0    0    0  0.00000000000E+00  0.00000000000E+00  0.45593999997E+02  0.45594000000E+02  0.51100000000E-03 0.  1.
         11   -1    0    0    0    0 -0.00000000000E+00 -0.00000000000E+00 -0.45593999997E+02  0.45594000000E+02  0.51100000000E-03 0. -1.
    9900012    2    1    2    0    0  0.22858748280E+02 -0.23977042252E+02 -0.30523638255E+02  0.46142318515E+02  0.10000006879E+02 0.  0.
        -12    1    1    2    0    0 -0.22858748280E+02  0.23977042252E+02  0.30523638255E+02  0.45045681485E+02  0.00000000000E+00 0.  1.
         11    1    3    3    0    0  0.41706799439E+01 -0.27707488126E+01 -0.41807465718E+01  0.65230562113E+01  0.51100000000E-03 0.  1.
        -11    1    3    3    0    0  0.11646111793E+02 -0.67875408648E+01 -0.10707537701E+02  0.17214935224E+02  0.51100000000E-03 0. -1.
         12    1    3    3    0    0  0.70419565426E+01 -0.14418752574E+02 -0.15635353983E+02  0.22404327080E+02  0.00000000000E+00 0. -1.
</event>
<event>
 7    1  0.2031146E-008  0.4614232E+02  0.7816164E-02  0.1320468E+00
        -11   -1    0    0    0    0  0.00000000000E+00  0.00000000000E+00  0.45593999997E+02  0.45594000000E+02  0.51100000000E-03 0. -1.
         11   -1    0    0    0    0 -0.00000000000E+00 -0.00000000000E+00 -0.45593999997E+02  0.45594000000E+02  0.51100000000E-03 0.  1.
    9900012    2    1    2    0    0  0.21432406027E+01  0.28874460244E+02  0.34507757387E+02  0.46142320356E+02  0.10000023662E+02 0.  0.
        -12    1    1    2    0    0 -0.21432406027E+01 -0.28874460244E+02 -0.34507757387E+02  0.45045679644E+02  0.00000000000E+00 0.  1.
         11    1    3    3    0    0  0.15399184869E+01  0.23322041678E+02  0.24880231843E+02  0.34136709182E+02  0.51100000000E-03 0. -1.
        -11    1    3    3    0    0  0.73905838518E+00  0.59443253515E+01  0.98549393155E+01  0.11532607700E+02  0.51100000000E-03 0.  1.
        -12    1    3    3    0    0 -0.13573626938E+00 -0.39190678482E+00 -0.22741377157E+00  0.47300347389E+00  0.00000000000E+00 0.  1.
</event>
<event>
 7    1  0.2031146E-008  0.4614232E+02  0.7816164E-02  0.1320468E+00
        -11   -1    0    0    0    0  0.00000000000E+00  0.00000000000E+00  0.45593999997E+02  0.45594000000E+02  0.51100000000E-03 0.  1.
         11   -1    0    0    0    0 -0.00000000000E+00 -0.00000000000E+00 -0.45593999997E+02  0.45594000000E+02  0.51100000000E-03 0. -1.
    9900012    2    1    2    0    0  0.81259116506E+01 -0.44283201878E+02 -0.14426436696E+01  0.46142316195E+02  0.99999857184E+01 0.  0.
        -12    1    1    2    0    0 -0.81259116506E+01  0.44283201878E+02  0.14426436696E+01  0.45045683805E+02  0.00000000000E+00 0.  1.
         11    1    3    3    0    0  0.49950495719E+01 -0.22468498747E+02  0.10011534348E+01  0.23038799114E+02  0.51100000000E-03 0. -1.
        -11    1    3    3    0    0 -0.19112748821E+00 -0.96701813814E+01 -0.39003255997E+01  0.10428877107E+02  0.51100000000E-03 0.  1.
        -12    1    3    3    0    0  0.33219895670E+01 -0.12144521749E+02  0.14565284953E+01  0.12674639974E+02  0.00000000000E+00 0.  1.
</event>
<event>
 7    1  0.2031146E-008  0.4614232E+02  0.7816164E-02  0.1320468E+00
        -11   -1    0    0    0    0  0.00000000000E+00  0.00000000000E+00  0.45593999997E+02  0.45594000000E+02  0.51100000000E-03 0.  1.
         11   -1    0    0    0    0 -0.00000000000E+00 -0.00000000000E+00 -0.45593999997E+02  0.45594000000E+02  0.51100000000E-03 0. -1.
    9900012    2    1    2    0    0  0.37490458699E+02 -0.14443973217E+02 -0.20370334542E+02  0.46142318907E+02  0.10000010446E+02 0.  0.
        -12    1    1    2    0    0 -0.37490458699E+02  0.14443973217E+02  0.20370334542E+02  0.45045681093E+02  0.00000000000E+00 0.  1.
         11    1    3    3    0    0  0.20943907544E+02 -0.55336208431E+01 -0.10225986522E+02  0.23954937350E+02  0.51100000000E-03 0. -1.
        -11    1    3    3    0    0  0.21294044700E+01  0.70035096643E+00 -0.30657895174E+00  0.22624866382E+01  0.51100000000E-03 0.  1.
         12    1    3    3    0    0  0.14417146685E+02 -0.96107033407E+01 -0.98377690690E+01  0.19924894918E+02  0.00000000000E+00 0. -1.
</event>
<event>
 7    1  0.2031146E-008  0.4614232E+02  0.7816164E-02  0.1320468E+00
        -11   -1    0    0    0    0  0.00000000000E+00  0.00000000000E+00  0.45593999997E+02  0.45594000000E+02  0.51100000000E-03 0.  1.
         11   -1    0    0    0    0 -0.00000000000E+00 -0.00000000000E+00 -0.45593999997E+02  0.45594000000E+02  0.51100000000E-03 0. -1.
    9900012    2    1    2    0    0 -0.87457310257E+01 -0.44183509400E+02  0.66583255613E+00  0.46142315999E+02  0.99999839343E+01 0.  0.
        -12    1    1    2    0    0  0.87457310257E+01  0.44183509400E+02 -0.66583255613E+00  0.45045684001E+02  0.00000000000E+00 0.  1.
         11    1    3    3    0    0 -0.32679942098E+01 -0.99709945447E+01 -0.14077607043E+01  0.10586893257E+02  0.51100000000E-03 0. -1.
        -11    1    3    3    0    0 -0.35739931712E+01 -0.10452636951E+02 -0.23968611490E+01  0.11303804229E+02  0.51100000000E-03 0.  1.
         12    1    3    3    0    0 -0.19037436447E+01 -0.23759877905E+02  0.44704544095E+01  0.24251618514E+02  0.00000000000E+00 0. -1.
</event>
<event>
 7    1  0.2031146E-008  0.4614232E+02  0.7816164E-02  0.1320468E+00
        -11   -1    0    0    0    0  0.00000000000E+00  0.00000000000E+00  0.45593999997E+02  0.45594000000E+02  0.51100000000E-03 0.  1.
         11   -1    0    0    0    0 -0.00000000000E+00 -0.00000000000E+00 -0.45593999997E+02  0.45594000000E+02  0.51100000000E-03 0. -1.
    9900012    2    1    2    0    0  0.92677353089E+01 -0.13189834080E+02 -0.42062463379E+02  0.46142318006E+02  0.10000002234E+02 0.  0.
        -12    1    1    2    0    0 -0.92677353089E+01  0.13189834080E+02  0.42062463379E+02  0.45045681994E+02  0.00000000000E+00 0.  1.
         11    1    3    3    0    0  0.65596295778E+01 -0.28861856470E+01 -0.15274203591E+02  0.16871873144E+02  0.51100000000E-03 0. -1.
        -11    1    3    3    0    0  0.57753849894E+00  0.36657394076E+00 -0.34925556944E+01  0.35589145412E+01  0.51100000000E-03 0.  1.
         12    1    3    3    0    0  0.21305672322E+01 -0.10670222374E+02 -0.23295704093E+02  0.25711530321E+02  0.00000000000E+00 0. -1.
</event>
<event>
 7    1  0.2031146E-008  0.4614232E+02  0.7816164E-02  0.1320468E+00
        -11   -1    0    0    0    0  0.00000000000E+00  0.00000000000E+00  0.45593999997E+02  0.45594000000E+02  0.51100000000E-03 0.  1.
         11   -1    0    0    0    0 -0.00000000000E+00 -0.00000000000E+00 -0.45593999997E+02  0.45594000000E+02  0.51100000000E-03 0. -1.
    9900012    2    1    2    0    0 -0.95387163287E+01  0.90315487354E+00 -0.44014893310E+02  0.46142316177E+02  0.99999855585E+01 0.  0.
        -12    1    1    2    0    0  0.95387163287E+01 -0.90315487354E+00  0.44014893310E+02  0.45045683823E+02  0.00000000000E+00 0.  1.
         11    1    3    3    0    0  0.49749141743E+00  0.18882804562E+01 -0.16815532778E+02  0.16928533417E+02  0.51100000000E-03 0. -1.
        -11    1    3    3    0    0 -0.78692240304E+01 -0.21353994962E+01 -0.19606109269E+02  0.21234032560E+02  0.51100000000E-03 0.  1.
         12    1    3    3    0    0 -0.21669837157E+01  0.11502739136E+01 -0.75932512634E+01  0.79797501997E+01  0.00000000000E+00 0. -1.
</event>
<event>
 7    1  0.2031146E-008  0.4614232E+02  0.7816164E-02  0.1320468E+00
        -11   -1    0    0    0    0  0.00000000000E+00  0.00000000000E+00  0.45593999997E+02  0.45594000000E+02  0.51100000000E-03 0.  1.
         11   -1    0    0    0    0 -0.00000000000E+00 -0.00000000000E+00 -0.45593999997E+02  0.45594000000E+02  0.51100000000E-03 0. -1.
    9900012    2    1    2    0    0  0.16885536742E+02  0.16775391171E+02 -0.38243669425E+02  0.46142319285E+02  0.10000013896E+02 0.  0.
        -12    1    1    2    0    0 -0.16885536742E+02 -0.16775391171E+02  0.38243669425E+02  0.45045680715E+02  0.00000000000E+00 0.  1.
         11    1    3    3    0    0  0.22185888851E+01  0.69730824026E+01 -0.10318522861E+02  0.12649819332E+02  0.51100000000E-03 0. -1.
        -11    1    3    3    0    0  0.13013323910E+02  0.62517784309E+01 -0.23524058357E+02  0.27600953871E+02  0.51100000000E-03 0.  1.
        -12    1    3    3    0    0  0.16536239467E+01  0.35505303373E+01 -0.44010882070E+01  0.58915460822E+01  0.00000000000E+00 0.  1.
</event>
<event>
 7    1  0.2031146E-008  0.4614232E+02  0.7816164E-02  0.1320468E+00
        -11   -1    0    0    0    0  0.00000000000E+00  0.00000000000E+00  0.45593999997E+02  0.45594000000E+02  0.51100000000E-03 0.  1.
         11   -1    0    0    0    0 -0.00000000000E+00 -0.00000000000E+00 -0.45593999997E+02  0.45594000000E+02  0.51100000000E-03 0. -1.
    9900012    2    1    2    0    0 -0.42641750511E+02 -0.14409265885E+02  0.17797789822E+01  0.46142318262E+02  0.10000004568E+02 0.  0.
        -12    1    1    2    0    0  0.42641750511E+02  0.14409265885E+02 -0.17797789822E+01  0.45045681738E+02  0.00000000000E+00 0.  1.
         11    1    3    3    0    0 -0.61249828995E+01 -0.37137748936E+01  0.91058062672E+00  0.72205745490E+01  0.51100000000E-03 0. -1.
        -11    1    3    3    0    0 -0.10913634545E+02 -0.11399687886E+01  0.33714363830E+01  0.11479265280E+02  0.51100000000E-03 0.  1.
         12    1    3    3    0    0 -0.25603133067E+02 -0.95555222024E+01 -0.25022380276E+01  0.27442478433E+02  0.00000000000E+00 0. -1.
</event>
<event>
 7    1  0.2031146E-008  0.4614232E+02  0.7816164E-02  0.1320468E+00
        -11   -1    0    0    0    0  0.00000000000E+00  0.00000000000E+00  0.45593999997E+02  0.45594000000E+02  0.51100000000E-03 0.  1.
         11   -1    0    0    0    0 -0.00000000000E+00 -0.00000000000E+00 -0.45593999997E+02  0.45594000000E+02  0.51100000000E-03 0. -1.
    9900012    2    1    2    0    0 -0.39755469055E+02  0.13048190258E+02  0.16684150917E+02  0.46142317847E+02  0.10000000785E+02 0.  0.
        -12    1    1    2    0    0  0.39755469055E+02 -0.13048190258E+02 -0.16684150917E+02  0.45045682153E+02  0.00000000000E+00 0.  1.
         11    1    3    3    0    0 -0.61212864418E+01 -0.14404086325E+00  0.55226317567E+01  0.82456265531E+01  0.51100000000E-03 0. -1.
        -11    1    3    3    0    0 -0.38591345582E+01  0.98535681142E+00  0.18829302014E+01  0.44055957587E+01  0.51100000000E-03 0.  1.
        -12    1    3    3    0    0 -0.29775048055E+02  0.12206874309E+02  0.92785889586E+01  0.33491095535E+02  0.00000000000E+00 0.  1.
</event>
<event>
 7    1  0.2031146E-008  0.4614232E+02  0.7816164E-02  0.1320468E+00
        -11   -1    0    0    0    0  0.00000000000E+00  0.00000000000E+00  0.45593999997E+02  0.45594000000E+02  0.51100000000E-03 0.  1.
         11   -1    0    0    0    0 -0.00000000000E+00 -0.00000000000E+00 -0.45593999997E+02  0.45594000000E+02  0.51100000000E-03 0. -1.
    9900012    2    1    2    0    0  0.35602432849E+02  0.25251506339E+01 -0.27480973458E+02  0.46142317492E+02  0.99999975425E+01 0.  0.
        -12    1    1    2    0    0 -0.35602432849E+02 -0.25251506339E+01  0.27480973458E+02  0.45045682508E+02  0.00000000000E+00 0.  1.
         11    1    3    3    0    0  0.25655821786E+02 -0.59496618338E+00 -0.23638137170E+02  0.34890352612E+02  0.51100000000E-03 0. -1.
        -11    1    3    3    0    0  0.15541945253E+01  0.65172604971E+00  0.28925579179E-01  0.16855575981E+01  0.51100000000E-03 0.  1.
         12    1    3    3    0    0  0.83924165377E+01  0.24683907676E+01 -0.38717618669E+01  0.95664072817E+01  0.00000000000E+00 0. -1.
</event>
<event>
 7    1  0.2031146E-008  0.4614232E+02  0.7816164E-02  0.1320468E+00
        -11   -1    0    0    0    0  0.00000000000E+00  0.00000000000E+00  0.45593999997E+02  0.45594000000E+02  0.51100000000E-03 0. -1.
         11   -1    0    0    0    0 -0.00000000000E+00 -0.00000000000E+00 -0.45593999997E+02  0.45594000000E+02  0.51100000000E-03 0.  1.
    9900012    2    1    2    0    0 -0.34556872590E+01 -0.42472664236E+02  0.14602895592E+02  0.46142317172E+02  0.99999946292E+01 0.  0.
        -12    1    1    2    0    0  0.34556872590E+01  0.42472664236E+02 -0.14602895592E+02  0.45045682828E+02  0.00000000000E+00 0.  1.
         11    1    3    3    0    0  0.53180695760E+00 -0.58859222316E+01  0.12687645130E+01  0.60445564607E+01  0.51100000000E-03 0. -1.
        -11    1    3    3    0    0 -0.24933888909E+01 -0.22759230547E+01  0.20428538896E+01  0.39458923183E+01  0.51100000000E-03 0.  1.
        -12    1    3    3    0    0 -0.14941053257E+01 -0.34310818950E+02  0.11291277190E+02  0.36151868393E+02  0.00000000000E+00 0.  1.
</event>
<event>
 7    1  0.2031146E-008  0.4614232E+02  0.7816164E-02  0.1320468E+00
        -11   -1    0    0    0    0  0.00000000000E+00  0.00000000000E+00  0.45593999997E+02  0.45594000000E+02  0.51100000000E-03 0. -1.
         11   -1    0    0    0    0 -0.00000000000E+00 -0.00000000000E+00 -0.45593999997E+02  0.45594000000E+02  0.51100000000E-03 0.  1.
    9900012    2    1    2    0    0 -0.24608149549E+01 -0.30792345363E+02  0.32785505935E+02  0.46142317159E+02  0.99999945097E+01 0.  0.
        -12    1    1    2    0    0  0.24608149549E+01  0.30792345363E+02 -0.32785505935E+02  0.45045682841E+02  0.00000000000E+00 0.  1.
         11    1    3    3    0    0 -0.15340368346E+01 -0.18100929125E+02  0.12725788662E+02  0.22179779113E+02  0.51100000000E-03 0. -1.
        -11    1    3    3    0    0  0.21014752700E-01 -0.18958712466E+00  0.18159306108E+01  0.18259214501E+01  0.51100000000E-03 0.  1.
        -12    1    3    3    0    0 -0.94779287299E+00 -0.12501829114E+02  0.18243786663E+02  0.22136616596E+02  0.00000000000E+00 0.  1.
</event>
<event>
 7    1  0.2031146E-008  0.4614232E+02  0.7816164E-02  0.1320468E+00
        -11   -1    0    0    0    0  0.00000000000E+00  0.00000000000E+00  0.45593999997E+02  0.45594000000E+02  0.51100000000E-03 0.  1.
         11   -1    0    0    0    0 -0.00000000000E+00 -0.00000000000E+00 -0.45593999997E+02  0.45594000000E+02  0.51100000000E-03 0. -1.
    9900012    2    1    2    0    0 -0.34029274126E+02 -0.25132568104E+02 -0.15475012388E+02  0.46142317794E+02  0.10000000297E+02 0.  0.
        -12    1    1    2    0    0  0.34029274126E+02  0.25132568104E+02  0.15475012388E+02  0.45045682206E+02  0.00000000000E+00 0.  1.
         11    1    3    3    0    0 -0.62888501298E+00 -0.16740044594E+01  0.36110499094E+00  0.18243312104E+01  0.51100000000E-03 0.  1.
        -11    1    3    3    0    0 -0.25993942712E+02 -0.19685969596E+02 -0.98079409178E+01  0.34050229984E+02  0.51100000000E-03 0. -1.
         12    1    3    3    0    0 -0.74064464004E+01 -0.37725940493E+01 -0.60281764608E+01  0.10267756599E+02  0.00000000000E+00 0. -1.
</event>
<event>
 7    1  0.2031146E-008  0.4614232E+02  0.7816164E-02  0.1320468E+00
        -11   -1    0    0    0    0  0.00000000000E+00  0.00000000000E+00  0.45593999997E+02  0.45594000000E+02  0.51100000000E-03 0.  1.
         11   -1    0    0    0    0 -0.00000000000E+00 -0.00000000000E+00 -0.45593999997E+02  0.45594000000E+02  0.51100000000E-03 0. -1.
    9900012    2    1    2    0    0  0.25496263999E+01 -0.15526845178E+02 -0.42208173728E+02  0.46142318237E+02  0.10000004344E+02 0.  0.
        -12    1    1    2    0    0 -0.25496263999E+01  0.15526845178E+02  0.42208173728E+02  0.45045681763E+02  0.00000000000E+00 0.  1.
         11    1    3    3    0    0 -0.32264762433E+01 -0.49190452405E+01 -0.91691983183E+01  0.10894097167E+02  0.51100000000E-03 0. -1.
        -11    1    3    3    0    0  0.32709396358E+01 -0.41490141257E+01 -0.12436245947E+02  0.13511979049E+02  0.51100000000E-03 0.  1.
         12    1    3    3    0    0  0.25051630073E+01 -0.64587858119E+01 -0.20602729463E+02  0.21736242021E+02  0.00000000000E+00 0. -1.
</event>
<event>
 7    1  0.2031146E-008  0.4614232E+02  0.7816164E-02  0.1320468E+00
        -11   -1    0    0    0    0  0.00000000000E+00  0.00000000000E+00  0.45593999997E+02  0.45594000000E+02  0.51100000000E-03 0.  1.
         11   -1    0    0    0    0 -0.00000000000E+00 -0.00000000000E+00 -0.45593999997E+02  0.45594000000E+02  0.51100000000E-03 0. -1.
    9900012    2    1    2    0    0 -0.11729564118E+02  0.27409090321E+02 -0.33767922016E+02  0.46142318033E+02  0.10000002475E+02 0.  0.
        -12    1    1    2    0    0  0.11729564118E+02 -0.27409090321E+02  0.33767922016E+02  0.45045681967E+02  0.00000000000E+00 0.  1.
         11    1    3    3    0    0 -0.71847438517E+01  0.16211867167E+02 -0.23473481770E+02  0.29418523551E+02  0.51100000000E-03 0. -1.
        -11    1    3    3    0    0 -0.56607209815E+00  0.81431524075E+01 -0.62601814634E+01  0.10286945172E+02  0.51100000000E-03 0.  1.
        -12    1    3    3    0    0 -0.39787481677E+01  0.30540707471E+01 -0.40342587824E+01  0.64368493095E+01  0.00000000000E+00 0.  1.
</event>
<event>
 7    1  0.2031146E-008  0.4614233E+02  0.7816164E-02  0.1320468E+00
        -11   -1    0    0    0    0  0.00000000000E+00  0.00000000000E+00  0.45593999997E+02  0.45594000000E+02  0.51100000000E-03 0. -1.
         11   -1    0    0    0    0 -0.00000000000E+00 -0.00000000000E+00 -0.45593999997E+02  0.45594000000E+02  0.51100000000E-03 0.  1.
    9900012    2    1    2    0    0  0.92208253595E+01 -0.39111547627E+01  0.43918012836E+02  0.46142327584E+02  0.10000089575E+02 0.  0.
        -12    1    1    2    0    0 -0.92208253595E+01  0.39111547627E+01 -0.43918012836E+02  0.45045672416E+02  0.00000000000E+00 0.  1.
         11    1    3    3    0    0  0.76673463557E+01 -0.24244395255E+01  0.28349966238E+02  0.29468401604E+02  0.51100000000E-03 0. -1.
        -11    1    3    3    0    0  0.76582680328E+00 -0.12208481976E+01  0.41726824912E+00  0.15003579796E+01  0.51100000000E-03 0.  1.
         12    1    3    3    0    0  0.78765220051E+00 -0.26586703959E+00  0.15150778349E+02  0.15173568000E+02  0.00000000000E+00 0. -1.
</event>
<event>
 7    1  0.2031146E-008  0.4614232E+02  0.7816164E-02  0.1320468E+00
        -11   -1    0    0    0    0  0.00000000000E+00  0.00000000000E+00  0.45593999997E+02  0.45594000000E+02  0.51100000000E-03 0. -1.
         11   -1    0    0    0    0 -0.00000000000E+00 -0.00000000000E+00 -0.45593999997E+02  0.45594000000E+02  0.51100000000E-03 0.  1.
    9900012    2    1    2    0    0  0.19260406261E+02  0.20655971184E+02  0.35092463408E+02  0.46142318931E+02  0.10000010667E+02 0.  0.
        -12    1    1    2    0    0 -0.19260406261E+02 -0.20655971184E+02 -0.35092463408E+02  0.45045681069E+02  0.00000000000E+00 0.  1.
         11    1    3    3    0    0  0.17867605684E+02  0.19188794178E+02  0.29597206806E+02  0.39540558998E+02  0.51100000000E-03 0. -1.
        -11    1    3    3    0    0  0.18788757001E+01  0.98202001864E+00  0.55214769060E+01  0.59144944584E+01  0.51100000000E-03 0.  1.
         12    1    3    3    0    0 -0.48607512297E+00  0.48515698766E+00 -0.26220303952E-01  0.68726547432E+00  0.00000000000E+00 0. -1.
</event>
<event>
 7    1  0.2031146E-008  0.4614232E+02  0.7816164E-02  0.1320468E+00
        -11   -1    0    0    0    0  0.00000000000E+00  0.00000000000E+00  0.45593999997E+02  0.45594000000E+02  0.51100000000E-03 0. -1.
         11   -1    0    0    0    0 -0.00000000000E+00 -0.00000000000E+00 -0.45593999997E+02  0.45594000000E+02  0.51100000000E-03 0.  1.
    9900012    2    1    2    0    0 -0.26201209409E+02  0.30347729195E+02  0.20533520151E+02  0.46142317725E+02  0.99999996714E+01 0.  0.
        -12    1    1    2    0    0  0.26201209409E+02 -0.30347729195E+02 -0.20533520151E+02  0.45045682275E+02  0.00000000000E+00 0.  1.
         11    1    3    3    0    0 -0.47073217430E+01  0.19830151150E+01  0.61909744458E+00  0.51453385549E+01  0.51100000000E-03 0.  1.
        -11    1    3    3    0    0 -0.29617181976E+01  0.38429223175E+01  0.11542089313E+01  0.49871860942E+01  0.51100000000E-03 0. -1.
         12    1    3    3    0    0 -0.18532169469E+02  0.24521791763E+02  0.18760213776E+02  0.36009793076E+02  0.00000000000E+00 0. -1.
</event>
<event>
 7    1  0.2031146E-008  0.4614232E+02  0.7816164E-02  0.1320468E+00
        -11   -1    0    0    0    0  0.00000000000E+00  0.00000000000E+00  0.45593999997E+02  0.45594000000E+02  0.51100000000E-03 0.  1.
         11   -1    0    0    0    0 -0.00000000000E+00 -0.00000000000E+00 -0.45593999997E+02  0.45594000000E+02  0.51100000000E-03 0. -1.
    9900012    2    1    2    0    0  0.13272561296E+02 -0.18006406070E+02 -0.39098872589E+02  0.46142318957E+02  0.10000010905E+02 0.  0.
        -12    1    1    2    0    0 -0.13272561296E+02  0.18006406070E+02  0.39098872589E+02  0.45045681043E+02  0.00000000000E+00 0.  1.
         11    1    3    3    0    0  0.49470343454E+01 -0.52370890840E+01 -0.13745865200E+02  0.15519312525E+02  0.51100000000E-03 0. -1.
        -11    1    3    3    0    0 -0.84070952349E-01  0.92941562488E-01 -0.55753289282E+01  0.55767373058E+01  0.51100000000E-03 0.  1.
         12    1    3    3    0    0  0.84095979033E+01 -0.12862258548E+02 -0.19777678460E+02  0.25046269126E+02  0.00000000000E+00 0. -1.
</event>
<event>
 7    1  0.2031146E-008  0.4614232E+02  0.7816164E-02  0.1320468E+00
        -11   -1    0    0    0    0  0.00000000000E+00  0.00000000000E+00  0.45593999997E+02  0.45594000000E+02  0.51100000000E-03 0.  1.
         11   -1    0    0    0    0 -0.00000000000E+00 -0.00000000000E+00 -0.45593999997E+02  0.45594000000E+02  0.51100000000E-03 0. -1.
    9900012    2    1    2    0    0  0.10019672746E+02 -0.39455156336E+02 -0.19287568539E+02  0.46142317592E+02  0.99999984601E+01 0.  0.
        -12    1    1    2    0    0 -0.10019672746E+02  0.39455156336E+02  0.19287568539E+02  0.45045682408E+02  0.00000000000E+00 0.  1.
         11    1    3    3    0    0  0.11228687200E+01 -0.93943395366E+01 -0.21587295363E+01  0.97043579367E+01  0.51100000000E-03 0. -1.
        -11    1    3    3    0    0  0.10615041180E+00 -0.21699335069E+01 -0.36274357028E+01  0.42282584327E+01  0.51100000000E-03 0.  1.
        -12    1    3    3    0    0  0.87906536139E+01 -0.27890883293E+02 -0.13501403300E+02  0.32209701223E+02  0.00000000000E+00 0.  1.
</event>
<event>
 7    1  0.2031146E-008  0.4614232E+02  0.7816164E-02  0.1320468E+00
        -11   -1    0    0    0    0  0.00000000000E+00  0.00000000000E+00  0.45593999997E+02  0.45594000000E+02  0.51100000000E-03 0.  1.
         11   -1    0    0    0    0 -0.00000000000E+00 -0.00000000000E+00 -0.45593999997E+02  0.45594000000E+02  0.51100000000E-03 0. -1.
    9900012    2    1    2    0    0  0.29230391667E+02 -0.16555060539E+02 -0.30010459870E+02  0.46142317320E+02  0.99999959801E+01 0.  0.
        -12    1    1    2    0    0 -0.29230391667E+02  0.16555060539E+02  0.30010459870E+02  0.45045682680E+02  0.00000000000E+00 0.  1.
         11    1    3    3    0    0  0.76786799713E+01 -0.83468767084E+01 -0.83742557055E+01  0.14098249387E+02  0.51100000000E-03 0. -1.
        -11    1    3    3    0    0  0.30876094510E+00 -0.11489944793E+01 -0.63003366462E+00  0.13462779484E+01  0.51100000000E-03 0.  1.
         12    1    3    3    0    0  0.21242950751E+02 -0.70591893509E+01 -0.21006170500E+02  0.30697789985E+02  0.00000000000E+00 0. -1.
</event>
<event>
 7    1  0.2031146E-008  0.4614232E+02  0.7816164E-02  0.1320468E+00
        -11   -1    0    0    0    0  0.00000000000E+00  0.00000000000E+00  0.45593999997E+02  0.45594000000E+02  0.51100000000E-03 0. -1.
         11   -1    0    0    0    0 -0.00000000000E+00 -0.00000000000E+00 -0.45593999997E+02  0.45594000000E+02  0.51100000000E-03 0.  1.
    9900012    2    1    2    0    0 -0.31508628894E+02  0.26686612026E+01  0.32081117733E+02  0.46142316940E+02  0.99999925087E+01 0.  0.
        -12    1    1    2    0    0  0.31508628894E+02 -0.26686612026E+01 -0.32081117733E+02  0.45045683060E+02  0.00000000000E+00 0.  1.
         11    1    3    3    0    0 -0.26686064761E+01 -0.14964996206E+00  0.47969131013E+01  0.54912868436E+01  0.51100000000E-03 0. -1.
        -11    1    3    3    0    0 -0.26178710548E+02  0.33507125119E+01  0.20739984976E+02  0.33566339350E+02  0.51100000000E-03 0.  1.
        -12    1    3    3    0    0 -0.26613118691E+01 -0.53240134727E+00  0.65442196556E+01  0.70846907455E+01  0.00000000000E+00 0.  1.
</event>
<event>
 7    1  0.2031146E-008  0.4614232E+02  0.7816164E-02  0.1320468E+00
        -11   -1    0    0    0    0  0.00000000000E+00  0.00000000000E+00  0.45593999997E+02  0.45594000000E+02  0.51100000000E-03 0.  1.
         11   -1    0    0    0    0 -0.00000000000E+00 -0.00000000000E+00 -0.45593999997E+02  0.45594000000E+02  0.51100000000E-03 0. -1.
    9900012    2    1    2    0    0 -0.15746990429E+02  0.45749619415E+00 -0.42201141233E+02  0.46142319500E+02  0.10000015855E+02 0.  0.
        -12    1    1    2    0    0  0.15746990429E+02 -0.45749619415E+00  0.42201141233E+02  0.45045680500E+02  0.00000000000E+00 0.  1.
         11    1    3    3    0    0 -0.83728885681E+01 -0.18628558318E+01 -0.20817501731E+02  0.22515414129E+02  0.51100000000E-03 0. -1.
        -11    1    3    3    0    0 -0.28893406718E+01  0.31281966560E+01 -0.47455596330E+01  0.63760677794E+01  0.51100000000E-03 0.  1.
        -12    1    3    3    0    0 -0.44847611893E+01 -0.80784463004E+00 -0.16638079869E+02  0.17250837591E+02  0.00000000000E+00 0.  1.
</event>
<event>
 7    1  0.2031146E-008  0.4614232E+02  0.7816164E-02  0.1320468E+00
        -11   -1    0    0    0    0  0.00000000000E+00  0.00000000000E+00  0.45593999997E+02  0.45594000000E+02  0.51100000000E-03 0.  1.
         11   -1    0    0    0    0 -0.00000000000E+00 -0.00000000000E+00 -0.45593999997E+02  0.45594000000E+02  0.51100000000E-03 0. -1.
    9900012    2    1    2    0    0  0.22439125668E+02  0.56670239675E+01 -0.38645616384E+02  0.46142321106E+02  0.10000030498E+02 0.  0.
        -12    1    1    2    0    0 -0.22439125668E+02 -0.56670239675E+01  0.38645616384E+02  0.45045678894E+02  0.00000000000E+00 0.  1.
         11    1    3    3    0    0  0.37651709743E+01  0.15310426677E+01 -0.22356656031E+01  0.46388366069E+01  0.51100000000E-03 0. -1.
        -11    1    3    3    0    0  0.47376781926E+01  0.32547498664E+01 -0.80433125681E+01  0.98860441370E+01  0.51100000000E-03 0.  1.
         12    1    3    3    0    0  0.13936276501E+02  0.88123143340E+00 -0.28366638212E+02  0.31617440362E+02  0.00000000000E+00 0. -1.
</event>
<event>
 7    1  0.2031146E-008  0.4614232E+02  0.7816164E-02  0.1320468E+00
        -11   -1    0    0    0    0  0.00000000000E+00  0.00000000000E+00  0.45593999997E+02  0.45594000000E+02  0.51100000000E-03 0. -1.
         11   -1    0    0    0    0 -0.00000000000E+00 -0.00000000000E+00 -0.45593999997E+02  0.45594000000E+02  0.51100000000E-03 0.  1.
    9900012    2    1    2    0    0  0.33714288375E+02 -0.15986136126E+02  0.25236951430E+02  0.46142317562E+02  0.99999981821E+01 0.  0.
        -12    1    1    2    0    0 -0.33714288375E+02  0.15986136126E+02 -0.25236951430E+02  0.45045682438E+02  0.00000000000E+00 0.  1.
         11    1    3    3    0    0  0.11415718907E+02 -0.34203062970E+01  0.37233134283E+01  0.12485199097E+02  0.51100000000E-03 0. -1.
        -11    1    3    3    0    0  0.52921027034E+01 -0.35620624150E+01  0.75358279729E+01  0.98733653417E+01  0.51100000000E-03 0.  1.
        -12    1    3    3    0    0  0.17006466764E+02 -0.90037674137E+01  0.13977810029E+02  0.23783753123E+02  0.00000000000E+00 0.  1.
</event>
<event>
 7    1  0.2031146E-008  0.4614232E+02  0.7816164E-02  0.1320468E+00
        -11   -1    0    0    0    0  0.00000000000E+00  0.00000000000E+00  0.45593999997E+02  0.45594000000E+02  0.51100000000E-03 0.  1.
         11   -1    0    0    0    0 -0.00000000000E+00 -0.00000000000E+00 -0.45593999997E+02  0.45594000000E+02  0.51100000000E-03 0. -1.
    9900012    2    1    2    0    0 -0.44900174259E+02 -0.65326088740E+00 -0.35582579847E+01  0.46142316542E+02  0.99999888831E+01 0.  0.
        -12    1    1    2    0    0  0.44900174259E+02  0.65326088740E+00  0.35582579847E+01  0.45045683458E+02  0.00000000000E+00 0.  1.
         11    1    3    3    0    0 -0.24779120467E+02  0.28412844439E+01  0.65070530282E+00  0.24949972466E+02  0.51100000000E-03 0. -1.
        -11    1    3    3    0    0 -0.11423721946E+00  0.29695597967E+00 -0.33905063282E+00  0.46496084664E+00  0.51100000000E-03 0.  1.
        -12    1    3    3    0    0 -0.20006816573E+02 -0.37915013110E+01 -0.38699126547E+01  0.20727383229E+02  0.00000000000E+00 0.  1.
</event>
<event>
 7    1  0.2031146E-008  0.4614232E+02  0.7816164E-02  0.1320468E+00
        -11   -1    0    0    0    0  0.00000000000E+00  0.00000000000E+00  0.45593999997E+02  0.45594000000E+02  0.51100000000E-03 0.  1.
         11   -1    0    0    0    0 -0.00000000000E+00 -0.00000000000E+00 -0.45593999997E+02  0.45594000000E+02  0.51100000000E-03 0. -1.
    9900012    2    1    2    0    0  0.22126779651E+02 -0.28367198133E+02 -0.27107585204E+02  0.46142317818E+02  0.10000000523E+02 0.  0.
        -12    1    1    2    0    0 -0.22126779651E+02  0.28367198133E+02  0.27107585204E+02  0.45045682182E+02  0.00000000000E+00 0.  1.
         11    1    3    3    0    0  0.77420275350E+01 -0.11171036788E+02 -0.11476995404E+02  0.17789111193E+02  0.51100000000E-03 0. -1.
        -11    1    3    3    0    0  0.84320472284E+01 -0.89243405477E+01 -0.12886815022E+02  0.17799249320E+02  0.51100000000E-03 0.  1.
        -12    1    3    3    0    0  0.59527048878E+01 -0.82718207969E+01 -0.27437747773E+01  0.10553957305E+02  0.00000000000E+00 0.  1.
</event>
<event>
 7    1  0.2031146E-008  0.4614232E+02  0.7816164E-02  0.1320468E+00
        -11   -1    0    0    0    0  0.00000000000E+00  0.00000000000E+00  0.45593999997E+02  0.45594000000E+02  0.51100000000E-03 0.  1.
         11   -1    0    0    0    0 -0.00000000000E+00 -0.00000000000E+00 -0.45593999997E+02  0.45594000000E+02  0.51100000000E-03 0. -1.
    9900012    2    1    2    0    0  0.12573659753E+01  0.27357515009E+02 -0.35764491600E+02  0.46142318119E+02  0.10000003268E+02 0.  0.
        -12    1    1    2    0    0 -0.12573659753E+01 -0.27357515009E+02  0.35764491600E+02  0.45045681881E+02  0.00000000000E+00 0.  1.
         11    1    3    3    0    0  0.49768051412E-01  0.63742514837E+01 -0.12887657684E+02  0.14377944209E+02  0.51100000000E-03 0. -1.
        -11    1    3    3    0    0 -0.17968609728E+01  0.16735664845E+02 -0.17668692367E+02  0.24402743235E+02  0.51100000000E-03 0.  1.
        -12    1    3    3    0    0  0.30044588967E+01  0.42475986804E+01 -0.52081415490E+01  0.73616306758E+01  0.00000000000E+00 0.  1.
</event>
<event>
 7    1  0.2031146E-008  0.4614233E+02  0.7816164E-02  0.1320468E+00
        -11   -1    0    0    0    0  0.00000000000E+00  0.00000000000E+00  0.45593999997E+02  0.45594000000E+02  0.51100000000E-03 0.  1.
         11   -1    0    0    0    0 -0.00000000000E+00 -0.00000000000E+00 -0.45593999997E+02  0.45594000000E+02  0.51100000000E-03 0. -1.
    9900012    2    1    2    0    0  0.54608112965E+01 -0.30856501355E+02 -0.32359983152E+02  0.46142327117E+02  0.10000085310E+02 0.  0.
        -12    1    1    2    0    0 -0.54608112965E+01  0.30856501355E+02  0.32359983152E+02  0.45045672883E+02  0.00000000000E+00 0.  1.
         11    1    3    3    0    0  0.11058437179E+01 -0.22608608168E+02 -0.21622853355E+02  0.31303671368E+02  0.51100000000E-03 0. -1.
        -11    1    3    3    0    0  0.26356592572E+01 -0.52532479136E+01 -0.35532644141E+01  0.68679692500E+01  0.51100000000E-03 0.  1.
         12    1    3    3    0    0  0.17193083214E+01 -0.29946452737E+01 -0.71838653829E+01  0.79706864986E+01  0.00000000000E+00 0. -1.
</event>
<event>
 7    1  0.2031146E-008  0.4614233E+02  0.7816164E-02  0.1320468E+00
        -11   -1    0    0    0    0  0.00000000000E+00  0.00000000000E+00  0.45593999997E+02  0.45594000000E+02  0.51100000000E-03 0.  1.
         11   -1    0    0    0    0 -0.00000000000E+00 -0.00000000000E+00 -0.45593999997E+02  0.45594000000E+02  0.51100000000E-03 0. -1.
    9900012    2    1    2    0    0  0.22763168596E+02 -0.29389720825E+02 -0.25440026459E+02  0.46142328944E+02  0.10000101970E+02 0.  0.
        -12    1    1    2    0    0 -0.22763168596E+02  0.29389720825E+02  0.25440026459E+02  0.45045671056E+02  0.00000000000E+00 0.  1.
         11    1    3    3    0    0  0.16053853436E+02 -0.18410304769E+02 -0.19095416565E+02  0.31004845845E+02  0.51100000000E-03 0. -1.
        -11    1    3    3    0    0  0.34688138377E+01 -0.16760053387E+01 -0.23081376455E+01  0.44910091280E+01  0.51100000000E-03 0.  1.
         12    1    3    3    0    0  0.32405013230E+01 -0.93034107171E+01 -0.40364722479E+01  0.10646473970E+02  0.00000000000E+00 0. -1.
</event>
<event>
 7    1  0.2031146E-008  0.4614232E+02  0.7816164E-02  0.1320468E+00
        -11   -1    0    0    0    0  0.00000000000E+00  0.00000000000E+00  0.45593999997E+02  0.45594000000E+02  0.51100000000E-03 0.  1.
         11   -1    0    0    0    0 -0.00000000000E+00 -0.00000000000E+00 -0.45593999997E+02  0.45594000000E+02  0.51100000000E-03 0. -1.
    9900012    2    1    2    0    0 -0.26088080041E+02  0.35950360456E+02 -0.74898052750E+01  0.46142317408E+02  0.99999967794E+01 0.  0.
        -12    1    1    2    0    0  0.26088080041E+02 -0.35950360456E+02  0.74898052750E+01  0.45045682592E+02  0.00000000000E+00 0.  1.
         11    1    3    3    0    0  0.20060848632E+00  0.21956820443E+01  0.12451818190E+00  0.22083406538E+01  0.51100000000E-03 0. -1.
        -11    1    3    3    0    0 -0.11424430327E+02  0.11538270016E+02 -0.37921761346E+00  0.16241708331E+02  0.51100000000E-03 0.  1.
         12    1    3    3    0    0 -0.14864258200E+02  0.22216408396E+02 -0.72351058435E+01  0.27692268423E+02  0.00000000000E+00 0. -1.
</event>
<event>
 7    1  0.2031146E-008  0.4614232E+02  0.7816164E-02  0.1320468E+00
        -11   -1    0    0    0    0  0.00000000000E+00  0.00000000000E+00  0.45593999997E+02  0.45594000000E+02  0.51100000000E-03 0.  1.
         11   -1    0    0    0    0 -0.00000000000E+00 -0.00000000000E+00 -0.45593999997E+02  0.45594000000E+02  0.51100000000E-03 0. -1.
    9900012    2    1    2    0    0  0.18502129145E+02  0.20158079476E+02 -0.35783189143E+02  0.46142316785E+02  0.99999910979E+01 0.  0.
        -12    1    1    2    0    0 -0.18502129145E+02 -0.20158079476E+02  0.35783189143E+02  0.45045683215E+02  0.00000000000E+00 0.  1.
         11    1    3    3    0    0  0.11775376993E+02  0.15446811346E+02 -0.25351146266E+02  0.31936563706E+02  0.51100000000E-03 0. -1.
        -11    1    3    3    0    0  0.33229003712E+00  0.25794779359E+01 -0.46373623988E+01  0.53168838026E+01  0.51100000000E-03 0.  1.
        -12    1    3    3    0    0  0.63944621144E+01  0.21317901944E+01 -0.57946804788E+01  0.88888692766E+01  0.00000000000E+00 0.  1.
</event>
<event>
 7    1  0.2031146E-008  0.4614233E+02  0.7816164E-02  0.1320468E+00
        -11   -1    0    0    0    0  0.00000000000E+00  0.00000000000E+00  0.45593999997E+02  0.45594000000E+02  0.51100000000E-03 0.  1.
         11   -1    0    0    0    0 -0.00000000000E+00 -0.00000000000E+00 -0.45593999997E+02  0.45594000000E+02  0.51100000000E-03 0. -1.
    9900012    2    1    2    0    0  0.35506540060E+02  0.26284251594E+02 -0.88054752318E+01  0.46142326923E+02  0.10000083546E+02 0.  0.
        -12    1    1    2    0    0 -0.35506540060E+02 -0.26284251594E+02  0.88054752318E+01  0.45045673077E+02  0.00000000000E+00 0.  1.
         11    1    3    3    0    0  0.12608474272E+02  0.11169840521E+02 -0.10661116120E+01  0.16878256870E+02  0.51100000000E-03 0.  1.
        -11    1    3    3    0    0  0.10994797858E+02  0.34703338310E+01 -0.39451304835E+01  0.12185764302E+02  0.51100000000E-03 0. -1.
         12    1    3    3    0    0  0.11903267929E+02  0.11644077242E+02 -0.37942331362E+01  0.17078305751E+02  0.00000000000E+00 0. -1.
</event>
<event>
 7    1  0.2031146E-008  0.4614232E+02  0.7816164E-02  0.1320468E+00
        -11   -1    0    0    0    0  0.00000000000E+00  0.00000000000E+00  0.45593999997E+02  0.45594000000E+02  0.51100000000E-03 0.  1.
         11   -1    0    0    0    0 -0.00000000000E+00 -0.00000000000E+00 -0.45593999997E+02  0.45594000000E+02  0.51100000000E-03 0. -1.
    9900012    2    1    2    0    0  0.38487315806E+02  0.21889434192E+02 -0.82881059168E+01  0.46142317556E+02  0.99999981309E+01 0.  0.
        -12    1    1    2    0    0 -0.38487315806E+02 -0.21889434192E+02  0.82881059168E+01  0.45045682444E+02  0.00000000000E+00 0.  1.
         11    1    3    3    0    0  0.10892480209E+01 -0.71347855558E-01 -0.13630412085E+01  0.17462626850E+01  0.51100000000E-03 0. -1.
        -11    1    3    3    0    0  0.52262904712E+01  0.21266429640E+01 -0.30218321307E+01  0.64006399737E+01  0.51100000000E-03 0.  1.
         12    1    3    3    0    0  0.32171777313E+02  0.19834139083E+02 -0.39032325775E+01  0.37995414897E+02  0.00000000000E+00 0. -1.
</event>
<event>
 7    1  0.2031146E-008  0.4614231E+02  0.7816164E-02  0.1320468E+00
        -11   -1    0    0    0    0  0.00000000000E+00  0.00000000000E+00  0.45593999997E+02  0.45594000000E+02  0.51100000000E-03 0.  1.
         11   -1    0    0    0    0 -0.00000000000E+00 -0.00000000000E+00 -0.45593999997E+02  0.45594000000E+02  0.51100000000E-03 0. -1.
    9900012    2    1    2    0    0  0.32682459553E+02 -0.17701994694E+02 -0.25448192092E+02  0.46142309203E+02  0.99999219623E+01 0.  0.
        -12    1    1    2    0    0 -0.32682459553E+02  0.17701994694E+02  0.25448192092E+02  0.45045690797E+02  0.00000000000E+00 0.  1.
         11    1    3    3    0    0  0.88153465625E+01 -0.79085770724E+01 -0.10129916574E+02  0.15584323417E+02  0.51100000000E-03 0.  1.
        -11    1    3    3    0    0  0.35783710284E+01 -0.37567341130E+01 -0.40221499141E+01  0.65647148152E+01  0.51100000000E-03 0. -1.
        -12    1    3    3    0    0  0.20288741962E+02 -0.60366835081E+01 -0.11296125605E+02  0.23993270971E+02  0.00000000000E+00 0.  1.
</event>
<event>
 7    1  0.2031146E-008  0.4614232E+02  0.7816164E-02  0.1320468E+00
        -11   -1    0    0    0    0  0.00000000000E+00  0.00000000000E+00  0.45593999997E+02  0.45594000000E+02  0.51100000000E-03 0.  1.
         11   -1    0    0    0    0 -0.00000000000E+00 -0.00000000000E+00 -0.45593999997E+02  0.45594000000E+02  0.51100000000E-03 0. -1.
    9900012    2    1    2    0    0 -0.25397391868E+02  0.27809510810E+01 -0.37099222623E+02  0.46142317390E+02  0.99999966122E+01 0.  0.
        -12    1    1    2    0    0  0.25397391868E+02 -0.27809510810E+01  0.37099222623E+02  0.45045682610E+02  0.00000000000E+00 0.  1.
         11    1    3    3    0    0 -0.16658220735E+01 -0.12111027531E+01 -0.10462922782E+01  0.23100781051E+01  0.51100000000E-03 0. -1.
        -11    1    3    3    0    0 -0.49469387512E+00  0.53116356919E+00 -0.41469891897E+01  0.42100328227E+01  0.51100000000E-03 0.  1.
         12    1    3    3    0    0 -0.23236875919E+02  0.34608902648E+01 -0.31905941155E+02  0.39622206462E+02  0.00000000000E+00 0. -1.
</event>
<event>
 7    1  0.2031146E-008  0.4614231E+02  0.7816164E-02  0.1320468E+00
        -11   -1    0    0    0    0  0.00000000000E+00  0.00000000000E+00  0.45593999997E+02  0.45594000000E+02  0.51100000000E-03 0.  1.
         11   -1    0    0    0    0 -0.00000000000E+00 -0.00000000000E+00 -0.45593999997E+02  0.45594000000E+02  0.51100000000E-03 0. -1.
    9900012    2    1    2    0    0  0.33512180300E+02  0.13075021233E+02 -0.27112568169E+02  0.46142314730E+02  0.99999723641E+01 0.  0.
        -12    1    1    2    0    0 -0.33512180300E+02 -0.13075021233E+02  0.27112568169E+02  0.45045685270E+02  0.00000000000E+00 0.  1.
         11    1    3    3    0    0  0.84744479501E+01  0.59173560378E+01 -0.68893511567E+01  0.12421534936E+02  0.51100000000E-03 0. -1.
        -11    1    3    3    0    0  0.39690382402E+01  0.36651397529E+01 -0.24311058128E+01  0.59242543577E+01  0.51100000000E-03 0.  1.
        -12    1    3    3    0    0  0.21068694109E+02  0.34925254424E+01 -0.17792111200E+02  0.27796525437E+02  0.00000000000E+00 0.  1.
</event>
<event>
 7    1  0.2031146E-008  0.4614232E+02  0.7816164E-02  0.1320468E+00
        -11   -1    0    0    0    0  0.00000000000E+00  0.00000000000E+00  0.45593999997E+02  0.45594000000E+02  0.51100000000E-03 0. -1.
         11   -1    0    0    0    0 -0.00000000000E+00 -0.00000000000E+00 -0.45593999997E+02  0.45594000000E+02  0.51100000000E-03 0.  1.
    9900012    2    1    2    0    0 -0.46799421514E+01  0.27915329919E+02  0.35042059479E+02  0.46142318347E+02  0.10000005342E+02 0.  0.
        -12    1    1    2    0    0  0.46799421514E+01 -0.27915329919E+02 -0.35042059479E+02  0.45045681653E+02  0.00000000000E+00 0.  1.
         11    1    3    3    0    0 -0.39878686266E+01  0.68880375410E+01  0.51657872886E+01  0.94885992602E+01  0.51100000000E-03 0. -1.
        -11    1    3    3    0    0  0.98600119453E+00  0.84669124021E+01  0.13105588924E+02  0.15633849983E+02  0.51100000000E-03 0.  1.
         12    1    3    3    0    0 -0.16780747194E+01  0.12560379976E+02  0.16770683267E+02  0.21019869104E+02  0.00000000000E+00 0. -1.
</event>
<event>
 7    1  0.2031146E-008  0.4614232E+02  0.7816164E-02  0.1320468E+00
        -11   -1    0    0    0    0  0.00000000000E+00  0.00000000000E+00  0.45593999997E+02  0.45594000000E+02  0.51100000000E-03 0.  1.
         11   -1    0    0    0    0 -0.00000000000E+00 -0.00000000000E+00 -0.45593999997E+02  0.45594000000E+02  0.51100000000E-03 0. -1.
    9900012    2    1    2    0    0  0.25623000782E+02  0.24227375098E+02 -0.28028728508E+02  0.46142317688E+02  0.99999993307E+01 0.  0.
        -12    1    1    2    0    0 -0.25623000782E+02 -0.24227375098E+02  0.28028728508E+02  0.45045682312E+02  0.00000000000E+00 0.  1.
         11    1    3    3    0    0  0.79924612102E+01  0.62909270481E+01 -0.83515231579E+01  0.13160666345E+02  0.51100000000E-03 0. -1.
        -11    1    3    3    0    0  0.10798823321E+02  0.61525114183E+01 -0.64819773967E+01  0.14017275524E+02  0.51100000000E-03 0.  1.
        -12    1    3    3    0    0  0.68317162500E+01  0.11783936632E+02 -0.13195227954E+02  0.18964375819E+02  0.00000000000E+00 0.  1.
</event>
<event>
 7    1  0.2031146E-008  0.4614232E+02  0.7816164E-02  0.1320468E+00
        -11   -1    0    0    0    0  0.00000000000E+00  0.00000000000E+00  0.45593999997E+02  0.45594000000E+02  0.51100000000E-03 0.  1.
         11   -1    0    0    0    0 -0.00000000000E+00 -0.00000000000E+00 -0.45593999997E+02  0.45594000000E+02  0.51100000000E-03 0. -1.
    9900012    2    1    2    0    0 -0.42681191096E+02 -0.10666266878E+02 -0.96778199280E+01  0.46142317399E+02  0.99999966950E+01 0.  0.
        -12    1    1    2    0    0  0.42681191096E+02  0.10666266878E+02  0.96778199280E+01  0.45045682601E+02  0.00000000000E+00 0.  1.
         11    1    3    3    0    0 -0.31104276763E+02 -0.80378908601E+01 -0.27914933937E+01  0.32247110848E+02  0.51100000000E-03 0. -1.
        -11    1    3    3    0    0 -0.14741466516E+01 -0.34452058561E+00 -0.11015626760E+00  0.15178726721E+01  0.51100000000E-03 0.  1.
        -12    1    3    3    0    0 -0.10102767681E+02 -0.22838554320E+01 -0.67761702667E+01  0.12377333879E+02  0.00000000000E+00 0.  1.
</event>
<event>
 7    1  0.2031146E-008  0.4614232E+02  0.7816164E-02  0.1320468E+00
        -11   -1    0    0    0    0  0.00000000000E+00  0.00000000000E+00  0.45593999997E+02  0.45594000000E+02  0.51100000000E-03 0.  1.
         11   -1    0    0    0    0 -0.00000000000E+00 -0.00000000000E+00 -0.45593999997E+02  0.45594000000E+02  0.51100000000E-03 0. -1.
    9900012    2    1    2    0    0 -0.29415027599E+02  0.27797167991E+02 -0.19778450744E+02  0.46142317512E+02  0.99999977263E+01 0.  0.
        -12    1    1    2    0    0  0.29415027599E+02 -0.27797167991E+02  0.19778450744E+02  0.45045682488E+02  0.00000000000E+00 0.  1.
         11    1    3    3    0    0 -0.42854172718E+01  0.60449372246E+01 -0.71369733902E+00  0.74441541760E+01  0.51100000000E-03 0.  1.
        -11    1    3    3    0    0 -0.26065222218E+01  0.39228076055E+01 -0.11650089519E+01  0.48517650110E+01  0.51100000000E-03 0. -1.
         12    1    3    3    0    0 -0.22523088105E+02  0.17829423161E+02 -0.17899744453E+02  0.33846398325E+02  0.00000000000E+00 0. -1.
</event>
<event>
 7    1  0.2031146E-008  0.4614232E+02  0.7816164E-02  0.1320468E+00
        -11   -1    0    0    0    0  0.00000000000E+00  0.00000000000E+00  0.45593999997E+02  0.45594000000E+02  0.51100000000E-03 0. -1.
         11   -1    0    0    0    0 -0.00000000000E+00 -0.00000000000E+00 -0.45593999997E+02  0.45594000000E+02  0.51100000000E-03 0.  1.
    9900012    2    1    2    0    0  0.28939098428E+02  0.34286671673E+02  0.40082676985E+01  0.46142317830E+02  0.10000000629E+02 0.  0.
        -12    1    1    2    0    0 -0.28939098428E+02 -0.34286671673E+02 -0.40082676985E+01  0.45045682170E+02  0.00000000000E+00 0.  1.
         11    1    3    3    0    0  0.43778229026E+01  0.31922406590E+01  0.31318023981E+00  0.54271369907E+01  0.51100000000E-03 0. -1.
        -11    1    3    3    0    0  0.38163504071E+01  0.10661727055E+02 -0.27777730013E+00  0.11327582033E+02  0.51100000000E-03 0.  1.
         12    1    3    3    0    0  0.20744925118E+02  0.20432703959E+02  0.39728647589E+01  0.29387598807E+02  0.00000000000E+00 0. -1.
</event>
<event>
 7    1  0.2031146E-008  0.4614232E+02  0.7816164E-02  0.1320468E+00
        -11   -1    0    0    0    0  0.00000000000E+00  0.00000000000E+00  0.45593999997E+02  0.45594000000E+02  0.51100000000E-03 0.  1.
         11   -1    0    0    0    0 -0.00000000000E+00 -0.00000000000E+00 -0.45593999997E+02  0.45594000000E+02  0.51100000000E-03 0. -1.
    9900012    2    1    2    0    0  0.26667078706E+02 -0.29392765118E+02 -0.21308339332E+02  0.46142322593E+02  0.10000044060E+02 0.  0.
        -12    1    1    2    0    0 -0.26667078706E+02  0.29392765118E+02  0.21308339332E+02  0.45045677407E+02  0.00000000000E+00 0.  1.
         11    1    3    3    0    0  0.21817916140E+01 -0.36471726090E+01 -0.37324419394E+01  0.56562536877E+01  0.51100000000E-03 0. -1.
        -11    1    3    3    0    0  0.12709030190E+02 -0.11577244180E+02 -0.41381331905E+01  0.17682651886E+02  0.51100000000E-03 0.  1.
         12    1    3    3    0    0  0.11776256902E+02 -0.14168348329E+02 -0.13437764202E+02  0.22803417019E+02  0.00000000000E+00 0. -1.
</event>
<event>
 7    1  0.2031146E-008  0.4614232E+02  0.7816164E-02  0.1320468E+00
        -11   -1    0    0    0    0  0.00000000000E+00  0.00000000000E+00  0.45593999997E+02  0.45594000000E+02  0.51100000000E-03 0.  1.
         11   -1    0    0    0    0 -0.00000000000E+00 -0.00000000000E+00 -0.45593999997E+02  0.45594000000E+02  0.51100000000E-03 0. -1.
    9900012    2    1    2    0    0  0.20714238776E+02  0.34363605367E+02 -0.20473796865E+02  0.46142318521E+02  0.10000006926E+02 0.  0.
        -12    1    1    2    0    0 -0.20714238776E+02 -0.34363605367E+02  0.20473796865E+02  0.45045681479E+02  0.00000000000E+00 0.  1.
         11    1    3    3    0    0  0.14738724393E+02  0.19711391347E+02 -0.11230164558E+02  0.27053383186E+02  0.51100000000E-03 0. -1.
        -11    1    3    3    0    0  0.52784415050E+01  0.14329829611E+02 -0.71561424431E+01  0.16864647530E+02  0.51100000000E-03 0.  1.
        -12    1    3    3    0    0  0.69707287724E+00  0.32238440977E+00 -0.20874898641E+01  0.22242878043E+01  0.00000000000E+00 0.  1.
</event>
<event>
 7    1  0.2031146E-008  0.4614232E+02  0.7816164E-02  0.1320468E+00
        -11   -1    0    0    0    0  0.00000000000E+00  0.00000000000E+00  0.45593999997E+02  0.45594000000E+02  0.51100000000E-03 0.  1.
         11   -1    0    0    0    0 -0.00000000000E+00 -0.00000000000E+00 -0.45593999997E+02  0.45594000000E+02  0.51100000000E-03 0. -1.
    9900012    2    1    2    0    0 -0.22178580650E+02  0.30789622827E+02 -0.24273919204E+02  0.46142317998E+02  0.10000002165E+02 0.  0.
        -12    1    1    2    0    0  0.22178580650E+02 -0.30789622827E+02  0.24273919204E+02  0.45045682002E+02  0.00000000000E+00 0.  1.
         11    1    3    3    0    0 -0.12463230869E+02  0.14700443055E+02 -0.98180218440E+01  0.21629348184E+02  0.51100000000E-03 0. -1.
        -11    1    3    3    0    0 -0.32680002084E+01  0.88612297953E+01 -0.39896038783E+01  0.10252714675E+02  0.51100000000E-03 0.  1.
         12    1    3    3    0    0 -0.64473495727E+01  0.72279499772E+01 -0.10466293481E+02  0.14260255139E+02  0.00000000000E+00 0. -1.
</event>
<event>
 7    1  0.2031146E-008  0.4614232E+02  0.7816164E-02  0.1320468E+00
        -11   -1    0    0    0    0  0.00000000000E+00  0.00000000000E+00  0.45593999997E+02  0.45594000000E+02  0.51100000000E-03 0. -1.
         11   -1    0    0    0    0 -0.00000000000E+00 -0.00000000000E+00 -0.45593999997E+02  0.45594000000E+02  0.51100000000E-03 0.  1.
    9900012    2    1    2    0    0  0.69561465264E+01 -0.42653615218E+02  0.12704116629E+02  0.46142318242E+02  0.10000004388E+02 0.  0.
        -12    1    1    2    0    0 -0.69561465264E+01  0.42653615218E+02 -0.12704116629E+02  0.45045681758E+02  0.00000000000E+00 0.  1.
         11    1    3    3    0    0  0.90207302348E+00 -0.18066594280E+01  0.27180819932E+01  0.33861075015E+01  0.51100000000E-03 0. -1.
        -11    1    3    3    0    0  0.35409981154E-01 -0.17412402710E-02 -0.22353137515E+00  0.22632594964E+00  0.51100000000E-03 0.  1.
        -12    1    3    3    0    0  0.60186635218E+01 -0.40845214550E+02  0.10209566011E+02  0.42529884791E+02  0.00000000000E+00 0.  1.
</event>
<event>
 7    1  0.2031146E-008  0.4614232E+02  0.7816164E-02  0.1320468E+00
        -11   -1    0    0    0    0  0.00000000000E+00  0.00000000000E+00  0.45593999997E+02  0.45594000000E+02  0.51100000000E-03 0. -1.
         11   -1    0    0    0    0 -0.00000000000E+00 -0.00000000000E+00 -0.45593999997E+02  0.45594000000E+02  0.51100000000E-03 0.  1.
    9900012    2    1    2    0    0 -0.34409608548E+01 -0.44870955747E+02 -0.19674206046E+01  0.46142316243E+02  0.99999861589E+01 0.  0.
        -12    1    1    2    0    0  0.34409608548E+01  0.44870955747E+02  0.19674206046E+01  0.45045683757E+02  0.00000000000E+00 0.  1.
         11    1    3    3    0    0  0.13578761066E+01 -0.21991037517E+02 -0.59919499979E-01  0.22033001366E+02  0.51100000000E-03 0. -1.
        -11    1    3    3    0    0 -0.48926349282E+01 -0.19379197985E+02 -0.34497148741E+01  0.20282793794E+02  0.51100000000E-03 0.  1.
         12    1    3    3    0    0  0.93797966815E-01 -0.35007202450E+01  0.15422137695E+01  0.38265210836E+01  0.00000000000E+00 0. -1.
</event>
<event>
 7    1  0.2031146E-008  0.4614232E+02  0.7816164E-02  0.1320468E+00
        -11   -1    0    0    0    0  0.00000000000E+00  0.00000000000E+00  0.45593999997E+02  0.45594000000E+02  0.51100000000E-03 0.  1.
         11   -1    0    0    0    0 -0.00000000000E+00 -0.00000000000E+00 -0.45593999997E+02  0.45594000000E+02  0.51100000000E-03 0. -1.
    9900012    2    1    2    0    0 -0.28328901377E+02 -0.36124154333E+01 -0.34835862332E+02  0.46142317600E+02  0.99999985269E+01 0.  0.
        -12    1    1    2    0    0  0.28328901377E+02  0.36124154333E+01  0.34835862332E+02  0.45045682400E+02  0.00000000000E+00 0.  1.
         11    1    3    3    0    0 -0.26922968812E+02 -0.32672320729E+01 -0.32725986617E+02  0.42503073482E+02  0.51100000000E-03 0. -1.
        -11    1    3    3    0    0 -0.11826241604E-01  0.81190898653E+00 -0.15383474871E+01  0.17394968567E+01  0.51100000000E-03 0.  1.
        -12    1    3    3    0    0 -0.13941063229E+01 -0.11570923470E+01 -0.57152822777E+00  0.18997472606E+01  0.00000000000E+00 0.  1.
</event>
<event>
 7    1  0.2031146E-008  0.4614232E+02  0.7816164E-02  0.1320468E+00
        -11   -1    0    0    0    0  0.00000000000E+00  0.00000000000E+00  0.45593999997E+02  0.45594000000E+02  0.51100000000E-03 0.  1.
         11   -1    0    0    0    0 -0.00000000000E+00 -0.00000000000E+00 -0.45593999997E+02  0.45594000000E+02  0.51100000000E-03 0. -1.
    9900012    2    1    2    0    0  0.17794827026E+02  0.10808255935E+02 -0.39945451155E+02  0.46142319483E+02  0.10000015703E+02 0.  0.
        -12    1    1    2    0    0 -0.17794827026E+02 -0.10808255935E+02  0.39945451155E+02  0.45045680517E+02  0.00000000000E+00 0.  1.
         11    1    3    3    0    0  0.35680673851E+01  0.47143966698E+01 -0.10823314684E+02  0.12332914572E+02  0.51100000000E-03 0.  1.
        -11    1    3    3    0    0  0.11413189931E+02  0.34543843762E+01 -0.26732297884E+02  0.29271307218E+02  0.51100000000E-03 0. -1.
         12    1    3    3    0    0  0.28135697095E+01  0.26394748896E+01 -0.23898385867E+01  0.45380976932E+01  0.00000000000E+00 0. -1.
</event>
<event>
 7    1  0.2031146E-008  0.4614232E+02  0.7816164E-02  0.1320468E+00
        -11   -1    0    0    0    0  0.00000000000E+00  0.00000000000E+00  0.45593999997E+02  0.45594000000E+02  0.51100000000E-03 0.  1.
         11   -1    0    0    0    0 -0.00000000000E+00 -0.00000000000E+00 -0.45593999997E+02  0.45594000000E+02  0.51100000000E-03 0. -1.
    9900012    2    1    2    0    0  0.34557993589E+02 -0.25348673589E+02 -0.13867344525E+02  0.46142318544E+02  0.10000007142E+02 0.  0.
        -12    1    1    2    0    0 -0.34557993589E+02  0.25348673589E+02  0.13867344525E+02  0.45045681456E+02  0.00000000000E+00 0.  1.
         11    1    3    3    0    0  0.43270155601E+01 -0.50378147546E+01 -0.17590647876E+01  0.68700036642E+01  0.51100000000E-03 0. -1.
        -11    1    3    3    0    0  0.90264580270E+01 -0.40609084807E+01  0.10373282621E+00  0.98984182050E+01  0.51100000000E-03 0.  1.
         12    1    3    3    0    0  0.21204520002E+02 -0.16249950354E+02 -0.12212012563E+02  0.29373896675E+02  0.00000000000E+00 0. -1.
</event>
<event>
 7    1  0.2031146E-008  0.4614232E+02  0.7816164E-02  0.1320468E+00
        -11   -1    0    0    0    0  0.00000000000E+00  0.00000000000E+00  0.45593999997E+02  0.45594000000E+02  0.51100000000E-03 0.  1.
         11   -1    0    0    0    0 -0.00000000000E+00 -0.00000000000E+00 -0.45593999997E+02  0.45594000000E+02  0.51100000000E-03 0. -1.
    9900012    2    1    2    0    0 -0.22670045740E+02  0.18598573707E+02 -0.34194673019E+02  0.46142316736E+02  0.99999906557E+01 0.  0.
        -12    1    1    2    0    0  0.22670045740E+02 -0.18598573707E+02  0.34194673019E+02  0.45045683264E+02  0.00000000000E+00 0.  1.
         11    1    3    3    0    0 -0.79269201475E+01  0.48711329991E+01 -0.17326997830E+02  0.19666948258E+02  0.51100000000E-03 0. -1.
        -11    1    3    3    0    0 -0.89359868168E+01  0.70966684744E+01 -0.77518355337E+01  0.13795126612E+02  0.51100000000E-03 0.  1.
         12    1    3    3    0    0 -0.58071387754E+01  0.66307722338E+01 -0.91158396551E+01  0.12680241866E+02  0.00000000000E+00 0. -1.
</event>
<event>
 7    1  0.2031146E-008  0.4614232E+02  0.7816164E-02  0.1320468E+00
        -11   -1    0    0    0    0  0.00000000000E+00  0.00000000000E+00  0.45593999997E+02  0.45594000000E+02  0.51100000000E-03 0. -1.
         11   -1    0    0    0    0 -0.00000000000E+00 -0.00000000000E+00 -0.45593999997E+02  0.45594000000E+02  0.51100000000E-03 0.  1.
    9900012    2    1    2    0    0  0.37627475472E+02 -0.22288181103E+02  0.10794605524E+02  0.46142318346E+02  0.10000005331E+02 0.  0.
        -12    1    1    2    0    0 -0.37627475472E+02  0.22288181103E+02 -0.10794605524E+02  0.45045681654E+02  0.00000000000E+00 0.  1.
         11    1    3    3    0    0  0.18640463169E+02 -0.88616574261E+01  0.34919676291E+01  0.20932980621E+02  0.51100000000E-03 0. -1.
        -11    1    3    3    0    0  0.10793593112E+02 -0.40791842645E+01  0.49644414283E+01  0.12561332552E+02  0.51100000000E-03 0.  1.
        -12    1    3    3    0    0  0.81934191912E+01 -0.93473394121E+01  0.23381964661E+01  0.12648005172E+02  0.00000000000E+00 0.  1.
</event>
<event>
 7    1  0.2031146E-008  0.4614232E+02  0.7816164E-02  0.1320468E+00
        -11   -1    0    0    0    0  0.00000000000E+00  0.00000000000E+00  0.45593999997E+02  0.45594000000E+02  0.51100000000E-03 0.  1.
         11   -1    0    0    0    0 -0.00000000000E+00 -0.00000000000E+00 -0.45593999997E+02  0.45594000000E+02  0.51100000000E-03 0. -1.
    9900012    2    1    2    0    0  0.10152097164E+02 -0.42968827783E+02  0.89290721823E+01  0.46142316878E+02  0.99999919440E+01 0.  0.
        -12    1    1    2    0    0 -0.10152097164E+02  0.42968827783E+02 -0.89290721823E+01  0.45045683122E+02  0.00000000000E+00 0.  1.
         11    1    3    3    0    0  0.12173353762E+01 -0.19491641700E+02  0.69952080697E+01  0.20744612259E+02  0.51100000000E-03 0. -1.
        -11    1    3    3    0    0  0.59742227706E+01 -0.15421623482E+02 -0.25605514719E+00  0.16540355892E+02  0.51100000000E-03 0.  1.
        -12    1    3    3    0    0  0.29605390176E+01 -0.80555626022E+01  0.21899192598E+01  0.88573487273E+01  0.00000000000E+00 0.  1.
</event>
<event>
 7    1  0.2031146E-008  0.4614232E+02  0.7816164E-02  0.1320468E+00
        -11   -1    0    0    0    0  0.00000000000E+00  0.00000000000E+00  0.45593999997E+02  0.45594000000E+02  0.51100000000E-03 0.  1.
         11   -1    0    0    0    0 -0.00000000000E+00 -0.00000000000E+00 -0.45593999997E+02  0.45594000000E+02  0.51100000000E-03 0. -1.
    9900012    2    1    2    0    0  0.28782813292E+02  0.13977446172E+02 -0.31706372864E+02  0.46142318490E+02  0.10000006645E+02 0.  0.
        -12    1    1    2    0    0 -0.28782813292E+02 -0.13977446172E+02  0.31706372864E+02  0.45045681510E+02  0.00000000000E+00 0.  1.
         11    1    3    3    0    0  0.93047590590E+01  0.38334268183E+01 -0.66782678768E+01  0.12077788060E+02  0.51100000000E-03 0. -1.
        -11    1    3    3    0    0  0.59665046656E+01  0.63413946277E+01 -0.67408547762E+01  0.11011429840E+02  0.51100000000E-03 0.  1.
         12    1    3    3    0    0  0.13511549568E+02  0.38026247262E+01 -0.18287250211E+02  0.23053100590E+02  0.00000000000E+00 0. -1.
</event>
<event>
 7    1  0.2031146E-008  0.4614232E+02  0.7816164E-02  0.1320468E+00
        -11   -1    0    0    0    0  0.00000000000E+00  0.00000000000E+00  0.45593999997E+02  0.45594000000E+02  0.51100000000E-03 0.  1.
         11   -1    0    0    0    0 -0.00000000000E+00 -0.00000000000E+00 -0.45593999997E+02  0.45594000000E+02  0.51100000000E-03 0. -1.
    9900012    2    1    2    0    0 -0.47033529146E+01  0.31314383545E+02 -0.32037497814E+02  0.46142318613E+02  0.10000007770E+02 0.  0.
        -12    1    1    2    0    0  0.47033529146E+01 -0.31314383545E+02  0.32037497814E+02  0.45045681387E+02  0.00000000000E+00 0.  1.
         11    1    3    3    0    0 -0.48764975117E+01  0.24504833164E+02 -0.26625608335E+02  0.36512875754E+02  0.51100000000E-03 0. -1.
        -11    1    3    3    0    0 -0.15804799222E+01  0.41814601996E+01 -0.44956593469E+01  0.63398327589E+01  0.51100000000E-03 0.  1.
        -12    1    3    3    0    0  0.17536245193E+01  0.26280901814E+01 -0.91623013163E+00  0.32896101001E+01  0.00000000000E+00 0.  1.
</event>
<event>
 7    1  0.2031146E-008  0.4614232E+02  0.7816164E-02  0.1320468E+00
        -11   -1    0    0    0    0  0.00000000000E+00  0.00000000000E+00  0.45593999997E+02  0.45594000000E+02  0.51100000000E-03 0. -1.
         11   -1    0    0    0    0 -0.00000000000E+00 -0.00000000000E+00 -0.45593999997E+02  0.45594000000E+02  0.51100000000E-03 0.  1.
    9900012    2    1    2    0    0 -0.13097830976E+02  0.18780821427E+02  0.38792283043E+02  0.46142315928E+02  0.99999832886E+01 0.  0.
        -12    1    1    2    0    0  0.13097830976E+02 -0.18780821427E+02 -0.38792283043E+02  0.45045684072E+02  0.00000000000E+00 0.  1.
         11    1    3    3    0    0 -0.30084124085E+01  0.57982159212E+01  0.95463739063E+01  0.11567329342E+02  0.51100000000E-03 0. -1.
        -11    1    3    3    0    0 -0.53251979381E+01  0.12577923140E+02  0.21447612454E+02  0.25427582737E+02  0.51100000000E-03 0.  1.
         12    1    3    3    0    0 -0.47642206299E+01  0.40468236512E+00  0.77982966826E+01  0.91474038490E+01  0.00000000000E+00 0. -1.
</event>
<event>
 7    1  0.2031146E-008  0.4614232E+02  0.7816164E-02  0.1320468E+00
        -11   -1    0    0    0    0  0.00000000000E+00  0.00000000000E+00  0.45593999997E+02  0.45594000000E+02  0.51100000000E-03 0.  1.
         11   -1    0    0    0    0 -0.00000000000E+00 -0.00000000000E+00 -0.45593999997E+02  0.45594000000E+02  0.51100000000E-03 0. -1.
    9900012    2    1    2    0    0  0.35572614572E+02 -0.63022310424E+01 -0.26906959089E+02  0.46142317954E+02  0.10000001757E+02 0.  0.
        -12    1    1    2    0    0 -0.35572614572E+02  0.63022310424E+01  0.26906959089E+02  0.45045682046E+02  0.00000000000E+00 0.  1.
         11    1    3    3    0    0  0.16761870937E+02 -0.27215822690E+01 -0.15790454176E+02  0.23188483579E+02  0.51100000000E-03 0. -1.
        -11    1    3    3    0    0  0.27954550195E+01 -0.13065216290E+01 -0.45460994037E+01  0.54944142165E+01  0.51100000000E-03 0.  1.
         12    1    3    3    0    0  0.16015288616E+02 -0.22741271444E+01 -0.65704055094E+01  0.17459420158E+02  0.00000000000E+00 0. -1.
</event>
<event>
 7    1  0.2031146E-008  0.4614232E+02  0.7816164E-02  0.1320468E+00
        -11   -1    0    0    0    0  0.00000000000E+00  0.00000000000E+00  0.45593999997E+02  0.45594000000E+02  0.51100000000E-03 0.  1.
         11   -1    0    0    0    0 -0.00000000000E+00 -0.00000000000E+00 -0.45593999997E+02  0.45594000000E+02  0.51100000000E-03 0. -1.
    9900012    2    1    2    0    0  0.34493436778E+02  0.28830860122E+02  0.28456664211E+01  0.46142317704E+02  0.99999994818E+01 0.  0.
        -12    1    1    2    0    0 -0.34493436778E+02 -0.28830860122E+02 -0.28456664211E+01  0.45045682296E+02  0.00000000000E+00 0.  1.
         11    1    3    3    0    0  0.10705149278E+01  0.89545091148E-01 -0.74046913448E+00  0.13047280691E+01  0.51100000000E-03 0. -1.
        -11    1    3    3    0    0  0.17757039812E+02  0.11472416174E+02 -0.59806360310E+00  0.21149148354E+02  0.51100000000E-03 0.  1.
         12    1    3    3    0    0  0.15665882038E+02  0.17268898856E+02  0.41841991586E+01  0.23688441282E+02  0.00000000000E+00 0. -1.
</event>
<event>
 7    1  0.2031146E-008  0.4614232E+02  0.7816164E-02  0.1320468E+00
        -11   -1    0    0    0    0  0.00000000000E+00  0.00000000000E+00  0.45593999997E+02  0.45594000000E+02  0.51100000000E-03 0.  1.
         11   -1    0    0    0    0 -0.00000000000E+00 -0.00000000000E+00 -0.45593999997E+02  0.45594000000E+02  0.51100000000E-03 0. -1.
    9900012    2    1    2    0    0  0.64671661247E+01 -0.20140380449E+02 -0.39770018445E+02  0.46142317305E+02  0.99999958448E+01 0.  0.
        -12    1    1    2    0    0 -0.64671661247E+01  0.20140380449E+02  0.39770018445E+02  0.45045682695E+02  0.00000000000E+00 0.  1.
         11    1    3    3    0    0  0.46912328867E+01 -0.12856851948E+02 -0.28406383720E+02  0.31531396168E+02  0.51100000000E-03 0. -1.
        -11    1    3    3    0    0  0.17197752506E+00 -0.74752627485E+01 -0.84806137926E+01  0.11306190339E+02  0.51100000000E-03 0.  1.
         12    1    3    3    0    0  0.16039557129E+01  0.19173424747E+00 -0.28830209326E+01  0.33047307982E+01  0.00000000000E+00 0. -1.
</event>
<event>
 7    1  0.2031146E-008  0.4614231E+02  0.7816164E-02  0.1320468E+00
        -11   -1    0    0    0    0  0.00000000000E+00  0.00000000000E+00  0.45593999997E+02  0.45594000000E+02  0.51100000000E-03 0. -1.
         11   -1    0    0    0    0 -0.00000000000E+00 -0.00000000000E+00 -0.45593999997E+02  0.45594000000E+02  0.51100000000E-03 0.  1.
    9900012    2    1    2    0    0 -0.32820193588E+02  0.29259105345E+02 -0.97904830832E+01  0.46142313062E+02  0.99999571479E+01 0.  0.
        -12    1    1    2    0    0  0.32820193588E+02 -0.29259105345E+02  0.97904830832E+01  0.45045686938E+02  0.00000000000E+00 0.  1.
         11    1    3    3    0    0 -0.21459755352E+02  0.20355345908E+02 -0.91960314914E+01  0.30974638049E+02  0.51100000000E-03 0.  1.
        -11    1    3    3    0    0 -0.11031390185E+02  0.79874418356E+01  0.59264293407E+00  0.13632388727E+02  0.51100000000E-03 0. -1.
         12    1    3    3    0    0 -0.32904805029E+00  0.91631760186E+00 -0.11870945259E+01  0.15352862861E+01  0.00000000000E+00 0. -1.
</event>
<event>
 7    1  0.2031146E-008  0.4614232E+02  0.7816164E-02  0.1320468E+00
        -11   -1    0    0    0    0  0.00000000000E+00  0.00000000000E+00  0.45593999997E+02  0.45594000000E+02  0.51100000000E-03 0.  1.
         11   -1    0    0    0    0 -0.00000000000E+00 -0.00000000000E+00 -0.45593999997E+02  0.45594000000E+02  0.51100000000E-03 0. -1.
    9900012    2    1    2    0    0  0.30766787088E+02 -0.32901620444E+02  0.42127639477E-01  0.46142316630E+02  0.99999896814E+01 0.  0.
        -12    1    1    2    0    0 -0.30766787088E+02  0.32901620444E+02 -0.42127639477E-01  0.45045683370E+02  0.00000000000E+00 0.  1.
         11    1    3    3    0    0  0.14387657525E+02 -0.11402408734E+02 -0.28837432236E+01  0.18583207184E+02  0.51100000000E-03 0. -1.
        -11    1    3    3    0    0  0.25751359202E+01 -0.61639187944E+01  0.16815651483E+01  0.68886051941E+01  0.51100000000E-03 0.  1.
         12    1    3    3    0    0  0.13803993643E+02 -0.15335292916E+02  0.12443057148E+01  0.20670504251E+02  0.00000000000E+00 0. -1.
</event>
<event>
 7    1  0.2031146E-008  0.4614232E+02  0.7816164E-02  0.1320468E+00
        -11   -1    0    0    0    0  0.00000000000E+00  0.00000000000E+00  0.45593999997E+02  0.45594000000E+02  0.51100000000E-03 0.  1.
         11   -1    0    0    0    0 -0.00000000000E+00 -0.00000000000E+00 -0.45593999997E+02  0.45594000000E+02  0.51100000000E-03 0. -1.
    9900012    2    1    2    0    0  0.40785916789E+02  0.46054359136E+01 -0.18558354742E+02  0.46142316755E+02  0.99999908218E+01 0.  0.
        -12    1    1    2    0    0 -0.40785916789E+02 -0.46054359136E+01  0.18558354742E+02  0.45045683245E+02  0.00000000000E+00 0.  1.
         11    1    3    3    0    0  0.32569864675E+02  0.18425167787E+01 -0.16064986651E+02  0.36363095982E+02  0.51100000000E-03 0. -1.
        -11    1    3    3    0    0  0.18971532044E+01  0.14271343365E+01 -0.23184614551E+01  0.33183077729E+01  0.51100000000E-03 0.  1.
        -12    1    3    3    0    0  0.63188989097E+01  0.13357847984E+01 -0.17490663646E+00  0.64609129997E+01  0.00000000000E+00 0.  1.
</event>
<event>
 7    1  0.2031146E-008  0.4614232E+02  0.7816164E-02  0.1320468E+00
        -11   -1    0    0    0    0  0.00000000000E+00  0.00000000000E+00  0.45593999997E+02  0.45594000000E+02  0.51100000000E-03 0.  1.
         11   -1    0    0    0    0 -0.00000000000E+00 -0.00000000000E+00 -0.45593999997E+02  0.45594000000E+02  0.51100000000E-03 0. -1.
    9900012    2    1    2    0    0  0.15911221723E+02 -0.32159890569E+02 -0.27233948354E+02  0.46142317842E+02  0.10000000740E+02 0.  0.
        -12    1    1    2    0    0 -0.15911221723E+02  0.32159890569E+02  0.27233948354E+02  0.45045682158E+02  0.00000000000E+00 0.  1.
         11    1    3    3    0    0  0.91988233651E+01 -0.10366095654E+02 -0.98387655304E+01  0.16996340719E+02  0.51100000000E-03 0. -1.
        -11    1    3    3    0    0  0.57420381897E+01 -0.20449103835E+02 -0.14210200679E+02  0.25555168828E+02  0.51100000000E-03 0.  1.
         12    1    3    3    0    0  0.97036016772E+00 -0.13446910800E+01 -0.31849821440E+01  0.35908082953E+01  0.00000000000E+00 0. -1.
</event>
<event>
 7    1  0.2031146E-008  0.4614232E+02  0.7816164E-02  0.1320468E+00
        -11   -1    0    0    0    0  0.00000000000E+00  0.00000000000E+00  0.45593999997E+02  0.45594000000E+02  0.51100000000E-03 0. -1.
         11   -1    0    0    0    0 -0.00000000000E+00 -0.00000000000E+00 -0.45593999997E+02  0.45594000000E+02  0.51100000000E-03 0.  1.
    9900012    2    1    2    0    0  0.26311753142E+02  0.54043034646E+01  0.36160735649E+02  0.46142315945E+02  0.99999834391E+01 0.  0.
        -12    1    1    2    0    0 -0.26311753142E+02 -0.54043034646E+01 -0.36160735649E+02  0.45045684055E+02  0.00000000000E+00 0.  1.
         11    1    3    3    0    0  0.21192117980E+02  0.17944311435E+01  0.24877176258E+02  0.32729187989E+02  0.51100000000E-03 0. -1.
        -11    1    3    3    0    0  0.26178303400E+01  0.66101971731E+00  0.76277146623E+01  0.80914778617E+01  0.51100000000E-03 0.  1.
        -12    1    3    3    0    0  0.25018048221E+01  0.29488526038E+01  0.36558447284E+01  0.53216500942E+01  0.00000000000E+00 0.  1.
</event>
<event>
 7    1  0.2031146E-008  0.4614232E+02  0.7816164E-02  0.1320468E+00
        -11   -1    0    0    0    0  0.00000000000E+00  0.00000000000E+00  0.45593999997E+02  0.45594000000E+02  0.51100000000E-03 0.  1.
         11   -1    0    0    0    0 -0.00000000000E+00 -0.00000000000E+00 -0.45593999997E+02  0.45594000000E+02  0.51100000000E-03 0. -1.
    9900012    2    1    2    0    0 -0.54928880975E+01  0.21660611004E+02 -0.39112141852E+02  0.46142317310E+02  0.99999958872E+01 0.  0.
        -12    1    1    2    0    0  0.54928880975E+01 -0.21660611004E+02  0.39112141852E+02  0.45045682690E+02  0.00000000000E+00 0.  1.
         11    1    3    3    0    0 -0.69209194063E+01  0.15501336973E+02 -0.29687735722E+02  0.34198716729E+02  0.51100000000E-03 0. -1.
        -11    1    3    3    0    0  0.15419421516E+01  0.65733516076E+01 -0.93074767415E+01  0.11498506882E+02  0.51100000000E-03 0.  1.
         12    1    3    3    0    0 -0.11391084277E+00 -0.41407757602E+00 -0.11692938900E+00  0.44509369921E+00  0.00000000000E+00 0. -1.
</event>
<event>
 7    1  0.2031146E-008  0.4614232E+02  0.7816164E-02  0.1320468E+00
        -11   -1    0    0    0    0  0.00000000000E+00  0.00000000000E+00  0.45593999997E+02  0.45594000000E+02  0.51100000000E-03 0.  1.
         11   -1    0    0    0    0 -0.00000000000E+00 -0.00000000000E+00 -0.45593999997E+02  0.45594000000E+02  0.51100000000E-03 0. -1.
    9900012    2    1    2    0    0 -0.19677973392E+02  0.41560174350E+01 -0.40306554255E+02  0.46142318368E+02  0.10000005538E+02 0.  0.
        -12    1    1    2    0    0  0.19677973392E+02 -0.41560174350E+01  0.40306554255E+02  0.45045681632E+02  0.00000000000E+00 0.  1.
         11    1    3    3    0    0 -0.98717561410E+01  0.16437619922E+01 -0.12506639242E+02  0.16017788493E+02  0.51100000000E-03 0. -1.
        -11    1    3    3    0    0 -0.40666066743E+01  0.14334197983E+01 -0.50663884601E+01  0.66528395780E+01  0.51100000000E-03 0.  1.
         12    1    3    3    0    0 -0.57396105770E+01  0.10788356445E+01 -0.22733526552E+02  0.23471690298E+02  0.00000000000E+00 0. -1.
</event>
<event>
 7    1  0.2031146E-008  0.4614232E+02  0.7816164E-02  0.1320468E+00
        -11   -1    0    0    0    0  0.00000000000E+00  0.00000000000E+00  0.45593999997E+02  0.45594000000E+02  0.51100000000E-03 0. -1.
         11   -1    0    0    0    0 -0.00000000000E+00 -0.00000000000E+00 -0.45593999997E+02  0.45594000000E+02  0.51100000000E-03 0.  1.
    9900012    2    1    2    0    0  0.38474430655E+02 -0.97863490823E+01  0.21285183630E+02  0.46142317802E+02  0.10000000370E+02 0.  0.
        -12    1    1    2    0    0 -0.38474430655E+02  0.97863490823E+01 -0.21285183630E+02  0.45045682198E+02  0.00000000000E+00 0.  1.
         11    1    3    3    0    0  0.11544435102E+02  0.15389737777E+01  0.52851165617E+01  0.12789639536E+02  0.51100000000E-03 0. -1.
        -11    1    3    3    0    0  0.83046571927E-01  0.28981146029E-01  0.14719052730E+00  0.17146997516E+00  0.51100000000E-03 0.  1.
        -12    1    3    3    0    0  0.26846948980E+02 -0.11354304006E+02  0.15852876541E+02  0.33181208291E+02  0.00000000000E+00 0.  1.
</event>
<event>
 7    1  0.2031146E-008  0.4614232E+02  0.7816164E-02  0.1320468E+00
        -11   -1    0    0    0    0  0.00000000000E+00  0.00000000000E+00  0.45593999997E+02  0.45594000000E+02  0.51100000000E-03 0.  1.
         11   -1    0    0    0    0 -0.00000000000E+00 -0.00000000000E+00 -0.45593999997E+02  0.45594000000E+02  0.51100000000E-03 0. -1.
    9900012    2    1    2    0    0  0.24561790821E+02 -0.34154648390E+02 -0.16102541122E+02  0.46142318680E+02  0.10000008378E+02 0.  0.
        -12    1    1    2    0    0 -0.24561790821E+02  0.34154648390E+02  0.16102541122E+02  0.45045681320E+02  0.00000000000E+00 0.  1.
         11    1    3    3    0    0  0.10563958088E+02 -0.11850745758E+02 -0.29858526665E+01  0.16154030516E+02  0.51100000000E-03 0. -1.
        -11    1    3    3    0    0  0.27276883570E-01 -0.23104193386E+01 -0.24478509801E+01  0.33661188676E+01  0.51100000000E-03 0.  1.
         12    1    3    3    0    0  0.13970555850E+02 -0.19993483293E+02 -0.10668837476E+02  0.26622169296E+02  0.00000000000E+00 0. -1.
</event>
<event>
 7    1  0.2031146E-008  0.4614232E+02  0.7816164E-02  0.1320468E+00
        -11   -1    0    0    0    0  0.00000000000E+00  0.00000000000E+00  0.45593999997E+02  0.45594000000E+02  0.51100000000E-03 0.  1.
         11   -1    0    0    0    0 -0.00000000000E+00 -0.00000000000E+00 -0.45593999997E+02  0.45594000000E+02  0.51100000000E-03 0. -1.
    9900012    2    1    2    0    0 -0.36722769715E+01 -0.18916080459E+02 -0.40716210395E+02  0.46142317554E+02  0.99999981138E+01 0.  0.
        -12    1    1    2    0    0  0.36722769715E+01  0.18916080459E+02  0.40716210395E+02  0.45045682446E+02  0.00000000000E+00 0.  1.
         11    1    3    3    0    0  0.54745640541E+00 -0.26971904220E+00 -0.12537352158E+01  0.13943848572E+01  0.51100000000E-03 0. -1.
        -11    1    3    3    0    0  0.97600498592E+00 -0.71008051838E+01 -0.75241183948E+01  0.10391649430E+02  0.51100000000E-03 0.  1.
         12    1    3    3    0    0 -0.51957383628E+01 -0.11545556233E+02 -0.31938356784E+02  0.34356283267E+02  0.00000000000E+00 0. -1.
</event>
<event>
 7    1  0.2031146E-008  0.4614232E+02  0.7816164E-02  0.1320468E+00
        -11   -1    0    0    0    0  0.00000000000E+00  0.00000000000E+00  0.45593999997E+02  0.45594000000E+02  0.51100000000E-03 0.  1.
         11   -1    0    0    0    0 -0.00000000000E+00 -0.00000000000E+00 -0.45593999997E+02  0.45594000000E+02  0.51100000000E-03 0. -1.
    9900012    2    1    2    0    0  0.15853620292E+02 -0.42159265469E+02 -0.61029632939E+00  0.46142318710E+02  0.10000008654E+02 0.  0.
        -12    1    1    2    0    0 -0.15853620292E+02  0.42159265469E+02  0.61029632939E+00  0.45045681290E+02  0.00000000000E+00 0.  1.
         11    1    3    3    0    0  0.86728954091E+00 -0.64076571762E+01 -0.22765385528E+01  0.68551360073E+01  0.51100000000E-03 0. -1.
        -11    1    3    3    0    0  0.79727164899E+00 -0.15544035406E+01  0.14376683146E+01  0.22624550589E+01  0.51100000000E-03 0.  1.
         12    1    3    3    0    0  0.14189059102E+02 -0.34197204752E+02  0.22857390880E+00  0.37024727644E+02  0.00000000000E+00 0. -1.
</event>
<event>
 7    1  0.2031146E-008  0.4614232E+02  0.7816164E-02  0.1320468E+00
        -11   -1    0    0    0    0  0.00000000000E+00  0.00000000000E+00  0.45593999997E+02  0.45594000000E+02  0.51100000000E-03 0.  1.
         11   -1    0    0    0    0 -0.00000000000E+00 -0.00000000000E+00 -0.45593999997E+02  0.45594000000E+02  0.51100000000E-03 0. -1.
    9900012    2    1    2    0    0  0.19287315075E+01  0.39235743153E+02 -0.22044271549E+02  0.46142318141E+02  0.10000003466E+02 0.  0.
        -12    1    1    2    0    0 -0.19287315075E+01 -0.39235743153E+02  0.22044271549E+02  0.45045681859E+02  0.00000000000E+00 0.  1.
         11    1    3    3    0    0  0.15284793431E+01  0.26738018246E+02 -0.11245180654E+02  0.29046720245E+02  0.51100000000E-03 0. -1.
        -11    1    3    3    0    0  0.80360660786E-02 -0.18804043028E+00  0.21876516544E+00  0.28858662566E+00  0.51100000000E-03 0.  1.
        -12    1    3    3    0    0  0.39221609838E+00  0.12685765338E+02 -0.11017856060E+02  0.16807011270E+02  0.00000000000E+00 0.  1.
</event>
<event>
 7    1  0.2031146E-008  0.4614232E+02  0.7816164E-02  0.1320468E+00
        -11   -1    0    0    0    0  0.00000000000E+00  0.00000000000E+00  0.45593999997E+02  0.45594000000E+02  0.51100000000E-03 0. -1.
         11   -1    0    0    0    0 -0.00000000000E+00 -0.00000000000E+00 -0.45593999997E+02  0.45594000000E+02  0.51100000000E-03 0.  1.
    9900012    2    1    2    0    0  0.43874640682E+02 -0.87752693387E+01 -0.52080777797E+01  0.46142317398E+02  0.99999966845E+01 0.  0.
        -12    1    1    2    0    0 -0.43874640682E+02  0.87752693387E+01  0.52080777797E+01  0.45045682602E+02  0.00000000000E+00 0.  1.
         11    1    3    3    0    0  0.15867961622E+01 -0.25251906456E+00 -0.16108977725E+01  0.22752318196E+01  0.51100000000E-03 0. -1.
        -11    1    3    3    0    0  0.15249391892E+01  0.35941947587E+00  0.10554354536E+01  0.18890648873E+01  0.51100000000E-03 0.  1.
         12    1    3    3    0    0  0.40762905331E+02 -0.88821697500E+01 -0.46526154609E+01  0.41978020691E+02  0.00000000000E+00 0. -1.
</event>
<event>
 7    1  0.2031146E-008  0.4614232E+02  0.7816164E-02  0.1320468E+00
        -11   -1    0    0    0    0  0.00000000000E+00  0.00000000000E+00  0.45593999997E+02  0.45594000000E+02  0.51100000000E-03 0.  1.
         11   -1    0    0    0    0 -0.00000000000E+00 -0.00000000000E+00 -0.45593999997E+02  0.45594000000E+02  0.51100000000E-03 0. -1.
    9900012    2    1    2    0    0 -0.63178860986E+01 -0.33922117722E+02 -0.28956647377E+02  0.46142321152E+02  0.10000030923E+02 0.  0.
        -12    1    1    2    0    0  0.63178860986E+01  0.33922117722E+02  0.28956647377E+02  0.45045678848E+02  0.00000000000E+00 0.  1.
         11    1    3    3    0    0 -0.76071723218E+00 -0.10588815989E+02 -0.14185255448E+02  0.17717877614E+02  0.51100000000E-03 0. -1.
        -11    1    3    3    0    0 -0.75671434806E+00 -0.10527435513E+02 -0.54972267197E+01  0.11900378858E+02  0.51100000000E-03 0.  1.
        -12    1    3    3    0    0 -0.48004545183E+01 -0.12805866220E+02 -0.92741652093E+01  0.16524064680E+02  0.00000000000E+00 0.  1.
</event>
<event>
 7    1  0.2031146E-008  0.4614232E+02  0.7816164E-02  0.1320468E+00
        -11   -1    0    0    0    0  0.00000000000E+00  0.00000000000E+00  0.45593999997E+02  0.45594000000E+02  0.51100000000E-03 0. -1.
         11   -1    0    0    0    0 -0.00000000000E+00 -0.00000000000E+00 -0.45593999997E+02  0.45594000000E+02  0.51100000000E-03 0.  1.
    9900012    2    1    2    0    0 -0.28816128400E+02  0.24150887699E+02  0.24808847658E+02  0.46142317024E+02  0.99999932820E+01 0.  0.
        -12    1    1    2    0    0  0.28816128400E+02 -0.24150887699E+02 -0.24808847658E+02  0.45045682976E+02  0.00000000000E+00 0.  1.
         11    1    3    3    0    0 -0.10254126566E+02  0.11464715524E+02  0.62657978117E+01  0.16608643417E+02  0.51100000000E-03 0. -1.
        -11    1    3    3    0    0 -0.47731829068E+00 -0.42413351264E+00  0.37053214289E+00  0.73825220433E+00  0.51100000000E-03 0.  1.
        -12    1    3    3    0    0 -0.18084683543E+02  0.13110305688E+02  0.18172517704E+02  0.28795421403E+02  0.00000000000E+00 0.  1.
</event>
<event>
 7    1  0.2031146E-008  0.4614232E+02  0.7816164E-02  0.1320468E+00
        -11   -1    0    0    0    0  0.00000000000E+00  0.00000000000E+00  0.45593999997E+02  0.45594000000E+02  0.51100000000E-03 0.  1.
         11   -1    0    0    0    0 -0.00000000000E+00 -0.00000000000E+00 -0.45593999997E+02  0.45594000000E+02  0.51100000000E-03 0. -1.
    9900012    2    1    2    0    0 -0.26296560577E+02  0.21779146238E+02 -0.29381511111E+02  0.46142317585E+02  0.99999983951E+01 0.  0.
        -12    1    1    2    0    0  0.26296560577E+02 -0.21779146238E+02  0.29381511111E+02  0.45045682415E+02  0.00000000000E+00 0.  1.
         11    1    3    3    0    0 -0.13034887389E+01  0.25919487996E+01 -0.29925693243E+01  0.41680634465E+01  0.51100000000E-03 0. -1.
        -11    1    3    3    0    0 -0.31126659737E+01  0.56002947879E+01 -0.83716146874E+01  0.10542102443E+02  0.51100000000E-03 0.  1.
         12    1    3    3    0    0 -0.21880405864E+02  0.13586902650E+02 -0.18017327100E+02  0.31432151696E+02  0.00000000000E+00 0. -1.
</event>
<event>
 7    1  0.2031146E-008  0.4614232E+02  0.7816164E-02  0.1320468E+00
        -11   -1    0    0    0    0  0.00000000000E+00  0.00000000000E+00  0.45593999997E+02  0.45594000000E+02  0.51100000000E-03 0.  1.
         11   -1    0    0    0    0 -0.00000000000E+00 -0.00000000000E+00 -0.45593999997E+02  0.45594000000E+02  0.51100000000E-03 0. -1.
    9900012    2    1    2    0    0  0.25891597173E+02  0.14623790059E+02 -0.33836126916E+02  0.46142317360E+02  0.99999963415E+01 0.  0.
        -12    1    1    2    0    0 -0.25891597173E+02 -0.14623790059E+02  0.33836126916E+02  0.45045682640E+02  0.00000000000E+00 0.  1.
         11    1    3    3    0    0  0.39540336799E+01  0.46521485679E+01 -0.50427696288E+01  0.79187369213E+01  0.51100000000E-03 0. -1.
        -11    1    3    3    0    0  0.69661542960E+01 -0.12155581919E+00 -0.97229340812E+01  0.11961501950E+02  0.51100000000E-03 0.  1.
        -12    1    3    3    0    0  0.14971409197E+02  0.10093197310E+02 -0.19070423206E+02  0.26262078489E+02  0.00000000000E+00 0.  1.
</event>
<event>
 7    1  0.2031146E-008  0.4614232E+02  0.7816164E-02  0.1320468E+00
        -11   -1    0    0    0    0  0.00000000000E+00  0.00000000000E+00  0.45593999997E+02  0.45594000000E+02  0.51100000000E-03 0. -1.
         11   -1    0    0    0    0 -0.00000000000E+00 -0.00000000000E+00 -0.45593999997E+02  0.45594000000E+02  0.51100000000E-03 0.  1.
    9900012    2    1    2    0    0 -0.19859368267E+00  0.32523340061E+02  0.31165788361E+02  0.46142318161E+02  0.10000003646E+02 0.  0.
        -12    1    1    2    0    0  0.19859368267E+00 -0.32523340061E+02 -0.31165788361E+02  0.45045681839E+02  0.00000000000E+00 0.  1.
         11    1    3    3    0    0  0.40335425011E+00  0.15085598188E+02  0.15988152465E+02  0.21985426692E+02  0.51100000000E-03 0. -1.
        -11    1    3    3    0    0  0.23808878096E+01  0.12639736904E+02  0.85331275574E+01  0.15435214347E+02  0.51100000000E-03 0.  1.
        -12    1    3    3    0    0 -0.29828357424E+01  0.47980049688E+01  0.66445083385E+01  0.87216771213E+01  0.00000000000E+00 0.  1.
</event>
<event>
 7    1  0.2031146E-008  0.4614232E+02  0.7816164E-02  0.1320468E+00
        -11   -1    0    0    0    0  0.00000000000E+00  0.00000000000E+00  0.45593999997E+02  0.45594000000E+02  0.51100000000E-03 0.  1.
         11   -1    0    0    0    0 -0.00000000000E+00 -0.00000000000E+00 -0.45593999997E+02  0.45594000000E+02  0.51100000000E-03 0. -1.
    9900012    2    1    2    0    0 -0.13828210544E+02 -0.12153410222E+02 -0.41111904106E+02  0.46142318230E+02  0.10000004276E+02 0.  0.
        -12    1    1    2    0    0  0.13828210544E+02  0.12153410222E+02  0.41111904106E+02  0.45045681770E+02  0.00000000000E+00 0.  1.
         11    1    3    3    0    0 -0.62027907367E+01 -0.32413147829E+01 -0.14125248731E+02  0.15763990181E+02  0.51100000000E-03 0. -1.
        -11    1    3    3    0    0 -0.58733551757E+01 -0.17055264665E+01 -0.15939166599E+02  0.17072262699E+02  0.51100000000E-03 0.  1.
        -12    1    3    3    0    0 -0.17520646316E+01 -0.72065689724E+01 -0.11047488776E+02  0.13306065350E+02  0.00000000000E+00 0.  1.
</event>
<event>
 7    1  0.2031146E-008  0.4614231E+02  0.7816164E-02  0.1320468E+00
        -11   -1    0    0    0    0  0.00000000000E+00  0.00000000000E+00  0.45593999997E+02  0.45594000000E+02  0.51100000000E-03 0. -1.
         11   -1    0    0    0    0 -0.00000000000E+00 -0.00000000000E+00 -0.45593999997E+02  0.45594000000E+02  0.51100000000E-03 0.  1.
    9900012    2    1    2    0    0 -0.36306053546E+02  0.22833849234E+02  0.13769519337E+02  0.46142313661E+02  0.99999626158E+01 0.  0.
        -12    1    1    2    0    0  0.36306053546E+02 -0.22833849234E+02 -0.13769519337E+02  0.45045686339E+02  0.00000000000E+00 0.  1.
         11    1    3    3    0    0 -0.21201099810E+02  0.17274450525E+02  0.73164335186E+01  0.28309423763E+02  0.51100000000E-03 0. -1.
        -11    1    3    3    0    0 -0.10079321110E+02  0.28885189367E+01  0.21630797978E+01  0.10705847475E+02  0.51100000000E-03 0.  1.
        -12    1    3    3    0    0 -0.50256326261E+01  0.26708797729E+01  0.42900060205E+01  0.71270424237E+01  0.00000000000E+00 0.  1.
</event>
<event>
 7    1  0.2031146E-008  0.4614232E+02  0.7816164E-02  0.1320468E+00
        -11   -1    0    0    0    0  0.00000000000E+00  0.00000000000E+00  0.45593999997E+02  0.45594000000E+02  0.51100000000E-03 0.  1.
         11   -1    0    0    0    0 -0.00000000000E+00 -0.00000000000E+00 -0.45593999997E+02  0.45594000000E+02  0.51100000000E-03 0. -1.
    9900012    2    1    2    0    0  0.44245788924E+02  0.84481005338E+01  0.23047876877E+00  0.46142319179E+02  0.10000012931E+02 0.  0.
        -12    1    1    2    0    0 -0.44245788924E+02 -0.84481005338E+01 -0.23047876877E+00  0.45045680821E+02  0.00000000000E+00 0.  1.
         11    1    3    3    0    0  0.21701879177E+02  0.71824160325E+01 -0.23918903956E+01  0.22984338141E+02  0.51100000000E-03 0. -1.
        -11    1    3    3    0    0  0.22492636730E+02  0.15572228177E+01  0.22158414675E+01  0.22655101052E+02  0.51100000000E-03 0.  1.
        -12    1    3    3    0    0  0.51273016973E-01 -0.29153831639E+00  0.40652769686E+00  0.50287998619E+00  0.00000000000E+00 0.  1.
</event>
<event>
 7    1  0.2031146E-008  0.4614232E+02  0.7816164E-02  0.1320468E+00
        -11   -1    0    0    0    0  0.00000000000E+00  0.00000000000E+00  0.45593999997E+02  0.45594000000E+02  0.51100000000E-03 0.  1.
         11   -1    0    0    0    0 -0.00000000000E+00 -0.00000000000E+00 -0.45593999997E+02  0.45594000000E+02  0.51100000000E-03 0. -1.
    9900012    2    1    2    0    0 -0.20025616221E+01  0.20140069180E+02 -0.40242774248E+02  0.46142317423E+02  0.99999969165E+01 0.  0.
        -12    1    1    2    0    0  0.20025616221E+01 -0.20140069180E+02  0.40242774248E+02  0.45045682577E+02  0.00000000000E+00 0.  1.
         11    1    3    3    0    0 -0.65778901978E+00  0.24115395643E+01 -0.90438529989E+01  0.93829359367E+01  0.51100000000E-03 0.  1.
        -11    1    3    3    0    0  0.97356486807E+00  0.10709979452E+02 -0.11625320151E+02  0.15836652339E+02  0.51100000000E-03 0. -1.
         12    1    3    3    0    0 -0.23183374704E+01  0.70185501637E+01 -0.19573601098E+02  0.20922729148E+02  0.00000000000E+00 0. -1.
</event>
<event>
 7    1  0.2031146E-008  0.4614232E+02  0.7816164E-02  0.1320468E+00
        -11   -1    0    0    0    0  0.00000000000E+00  0.00000000000E+00  0.45593999997E+02  0.45594000000E+02  0.51100000000E-03 0.  1.
         11   -1    0    0    0    0 -0.00000000000E+00 -0.00000000000E+00 -0.45593999997E+02  0.45594000000E+02  0.51100000000E-03 0. -1.
    9900012    2    1    2    0    0  0.45634838014E+01  0.36275449051E+02 -0.26313112945E+02  0.46142317620E+02  0.99999987129E+01 0.  0.
        -12    1    1    2    0    0 -0.45634838014E+01 -0.36275449051E+02  0.26313112945E+02  0.45045682380E+02  0.00000000000E+00 0.  1.
         11    1    3    3    0    0 -0.47043223907E+00  0.21057264698E+01 -0.13551857573E+01  0.25479244799E+01  0.51100000000E-03 0. -1.
        -11    1    3    3    0    0  0.15584198473E+01  0.76990604466E+01 -0.13796597401E+01  0.79754413947E+01  0.51100000000E-03 0.  1.
         12    1    3    3    0    0  0.34754961932E+01  0.26470662134E+02 -0.23578267448E+02  0.35618951745E+02  0.00000000000E+00 0. -1.
</event>
<event>
 7    1  0.2031146E-008  0.4614232E+02  0.7816164E-02  0.1320468E+00
        -11   -1    0    0    0    0  0.00000000000E+00  0.00000000000E+00  0.45593999997E+02  0.45594000000E+02  0.51100000000E-03 0. -1.
         11   -1    0    0    0    0 -0.00000000000E+00 -0.00000000000E+00 -0.45593999997E+02  0.45594000000E+02  0.51100000000E-03 0.  1.
    9900012    2    1    2    0    0 -0.97486262664E+01 -0.41302465773E+02  0.15105763581E+02  0.46142317784E+02  0.10000000206E+02 0.  0.
        -12    1    1    2    0    0  0.97486262664E+01  0.41302465773E+02 -0.15105763581E+02  0.45045682216E+02  0.00000000000E+00 0.  1.
         11    1    3    3    0    0 -0.46136822385E+01 -0.11237992879E+02  0.53788200790E+01  0.13285716143E+02  0.51100000000E-03 0.  1.
        -11    1    3    3    0    0 -0.32661712081E+01 -0.85734017320E+01 -0.44408555349E-01  0.91745879471E+01  0.51100000000E-03 0. -1.
         12    1    3    3    0    0 -0.18687728197E+01 -0.21491071162E+02  0.97713520570E+01  0.23682013693E+02  0.00000000000E+00 0. -1.
</event>
<event>
 7    1  0.2031146E-008  0.4614232E+02  0.7816164E-02  0.1320468E+00
        -11   -1    0    0    0    0  0.00000000000E+00  0.00000000000E+00  0.45593999997E+02  0.45594000000E+02  0.51100000000E-03 0.  1.
         11   -1    0    0    0    0 -0.00000000000E+00 -0.00000000000E+00 -0.45593999997E+02  0.45594000000E+02  0.51100000000E-03 0. -1.
    9900012    2    1    2    0    0  0.17411507423E+02  0.62466338490E+01 -0.41072283301E+02  0.46142317846E+02  0.10000000771E+02 0.  0.
        -12    1    1    2    0    0 -0.17411507423E+02 -0.62466338490E+01  0.41072283301E+02  0.45045682154E+02  0.00000000000E+00 0.  1.
         11    1    3    3    0    0  0.45098349580E+01  0.27686748902E+01 -0.21387715865E+02  0.22032670337E+02  0.51100000000E-03 0. -1.
        -11    1    3    3    0    0  0.35145487378E+01  0.27950546660E+01 -0.57855482436E+01  0.73237252922E+01  0.51100000000E-03 0.  1.
        -12    1    3    3    0    0  0.93871237272E+01  0.68290429279E+00 -0.13899019192E+02  0.16785922216E+02  0.00000000000E+00 0.  1.
</event>
<event>
 7    1  0.2031146E-008  0.4614233E+02  0.7816164E-02  0.1320468E+00
        -11   -1    0    0    0    0  0.00000000000E+00  0.00000000000E+00  0.45593999997E+02  0.45594000000E+02  0.51100000000E-03 0. -1.
         11   -1    0    0    0    0 -0.00000000000E+00 -0.00000000000E+00 -0.45593999997E+02  0.45594000000E+02  0.51100000000E-03 0.  1.
    9900012    2    1    2    0    0 -0.44398005050E+02  0.49946895954E+01  0.57430871388E+01  0.46142325108E+02  0.10000066998E+02 0.  0.
        -12    1    1    2    0    0  0.44398005050E+02 -0.49946895954E+01 -0.57430871388E+01  0.45045674892E+02  0.00000000000E+00 0.  1.
         11    1    3    3    0    0 -0.72170576560E+01  0.66710395586E+00  0.84533038329E+00  0.72969536531E+01  0.51100000000E-03 0. -1.
        -11    1    3    3    0    0 -0.12239156324E+02 -0.66988316938E+00 -0.21612662923E+01  0.12446556280E+02  0.51100000000E-03 0.  1.
        -12    1    3    3    0    0 -0.24941791070E+02  0.49974688090E+01  0.70590230478E+01  0.26398815175E+02  0.00000000000E+00 0.  1.
</event>
<event>
 7    1  0.2031146E-008  0.4614231E+02  0.7816164E-02  0.1320468E+00
        -11   -1    0    0    0    0  0.00000000000E+00  0.00000000000E+00  0.45593999997E+02  0.45594000000E+02  0.51100000000E-03 0.  1.
         11   -1    0    0    0    0 -0.00000000000E+00 -0.00000000000E+00 -0.45593999997E+02  0.45594000000E+02  0.51100000000E-03 0. -1.
    9900012    2    1    2    0    0  0.19837301264E+02 -0.14003722866E+01 -0.40418244193E+02  0.46142311776E+02  0.99999454222E+01 0.  0.
        -12    1    1    2    0    0 -0.19837301264E+02  0.14003722866E+01  0.40418244193E+02  0.45045688224E+02  0.00000000000E+00 0.  1.
         11    1    3    3    0    0  0.48470869717E+00 -0.85785236073E+00 -0.26552250779E+01  0.28321500083E+01  0.51100000000E-03 0. -1.
        -11    1    3    3    0    0  0.54785312718E+01 -0.31259216555E+01 -0.17623104596E+02  0.18717892695E+02  0.51100000000E-03 0.  1.
         12    1    3    3    0    0  0.13874061295E+02  0.25834017297E+01 -0.20139914519E+02  0.24592269073E+02  0.00000000000E+00 0. -1.
</event>
<event>
 7    1  0.2031146E-008  0.4614232E+02  0.7816164E-02  0.1320468E+00
        -11   -1    0    0    0    0  0.00000000000E+00  0.00000000000E+00  0.45593999997E+02  0.45594000000E+02  0.51100000000E-03 0.  1.
         11   -1    0    0    0    0 -0.00000000000E+00 -0.00000000000E+00 -0.45593999997E+02  0.45594000000E+02  0.51100000000E-03 0. -1.
    9900012    2    1    2    0    0 -0.23482642032E+02 -0.10372945299E+02 -0.37014605605E+02  0.46142317642E+02  0.99999989160E+01 0.  0.
        -12    1    1    2    0    0  0.23482642032E+02  0.10372945299E+02  0.37014605605E+02  0.45045682358E+02  0.00000000000E+00 0.  1.
         11    1    3    3    0    0 -0.17196791861E+02 -0.74261934714E+01 -0.23275466185E+02  0.29876835947E+02  0.51100000000E-03 0. -1.
        -11    1    3    3    0    0 -0.44781018682E+01  0.54547210704E+00 -0.53335860490E+01  0.69855620078E+01  0.51100000000E-03 0.  1.
         12    1    3    3    0    0 -0.18077483020E+01 -0.34922239344E+01 -0.84055533712E+01  0.92799196875E+01  0.00000000000E+00 0. -1.
</event>
<event>
 7    1  0.2031146E-008  0.4614232E+02  0.7816164E-02  0.1320468E+00
        -11   -1    0    0    0    0  0.00000000000E+00  0.00000000000E+00  0.45593999997E+02  0.45594000000E+02  0.51100000000E-03 0. -1.
         11   -1    0    0    0    0 -0.00000000000E+00 -0.00000000000E+00 -0.45593999997E+02  0.45594000000E+02  0.51100000000E-03 0.  1.
    9900012    2    1    2    0    0 -0.33268836523E+01 -0.43518929759E+02 -0.11142181898E+02  0.46142316304E+02  0.99999867151E+01 0.  0.
        -12    1    1    2    0    0  0.33268836523E+01  0.43518929759E+02  0.11142181898E+02  0.45045683696E+02  0.00000000000E+00 0.  1.
         11    1    3    3    0    0 -0.51457483965E+00 -0.21845516429E+02 -0.40564153584E+01  0.22224893276E+02  0.51100000000E-03 0. -1.
        -11    1    3    3    0    0 -0.22065973818E+01 -0.18907577979E+02 -0.83866667829E+01  0.20801484491E+02  0.51100000000E-03 0.  1.
         12    1    3    3    0    0 -0.60571143083E+00 -0.27658353511E+01  0.13009002434E+01  0.31159385376E+01  0.00000000000E+00 0. -1.
</event>
<event>
 7    1  0.2031146E-008  0.4614232E+02  0.7816164E-02  0.1320468E+00
        -11   -1    0    0    0    0  0.00000000000E+00  0.00000000000E+00  0.45593999997E+02  0.45594000000E+02  0.51100000000E-03 0. -1.
         11   -1    0    0    0    0 -0.00000000000E+00 -0.00000000000E+00 -0.45593999997E+02  0.45594000000E+02  0.51100000000E-03 0.  1.
    9900012    2    1    2    0    0 -0.13030112287E+02  0.12825575412E+02  0.41168364890E+02  0.46142317870E+02  0.10000000989E+02 0.  0.
        -12    1    1    2    0    0  0.13030112287E+02 -0.12825575412E+02 -0.41168364890E+02  0.45045682130E+02  0.00000000000E+00 0.  1.
         11    1    3    3    0    0 -0.11872170917E+01  0.98200547781E+00  0.50261229686E+01  0.52569698057E+01  0.51100000000E-03 0. -1.
        -11    1    3    3    0    0 -0.58238075621E+01  0.36029194064E+01  0.24330494296E+02  0.25275891987E+02  0.51100000000E-03 0.  1.
         12    1    3    3    0    0 -0.60190876334E+01  0.82406505276E+01  0.11811747625E+02  0.15609456077E+02  0.00000000000E+00 0. -1.
</event>
<event>
 7    1  0.2031146E-008  0.4614232E+02  0.7816164E-02  0.1320468E+00
        -11   -1    0    0    0    0  0.00000000000E+00  0.00000000000E+00  0.45593999997E+02  0.45594000000E+02  0.51100000000E-03 0.  1.
         11   -1    0    0    0    0 -0.00000000000E+00 -0.00000000000E+00 -0.45593999997E+02  0.45594000000E+02  0.51100000000E-03 0. -1.
    9900012    2    1    2    0    0 -0.13385483988E+02 -0.31273653156E+02 -0.29527964677E+02  0.46142320282E+02  0.10000022983E+02 0.  0.
        -12    1    1    2    0    0  0.13385483988E+02  0.31273653156E+02  0.29527964677E+02  0.45045679718E+02  0.00000000000E+00 0.  1.
         11    1    3    3    0    0 -0.59646134941E+01 -0.20823369951E+02 -0.16435160096E+02  0.27190142293E+02  0.51100000000E-03 0. -1.
        -11    1    3    3    0    0 -0.71951058227E+01 -0.97831575304E+01 -0.13483972338E+02  0.18146548690E+02  0.51100000000E-03 0.  1.
        -12    1    3    3    0    0 -0.22576467087E+00 -0.66712567436E+00  0.39116775774E+00  0.80562929856E+00  0.00000000000E+00 0.  1.
</event>
<event>
 7    1  0.2031146E-008  0.4614232E+02  0.7816164E-02  0.1320468E+00
        -11   -1    0    0    0    0  0.00000000000E+00  0.00000000000E+00  0.45593999997E+02  0.45594000000E+02  0.51100000000E-03 0.  1.
         11   -1    0    0    0    0 -0.00000000000E+00 -0.00000000000E+00 -0.45593999997E+02  0.45594000000E+02  0.51100000000E-03 0. -1.
    9900012    2    1    2    0    0  0.14870881214E+02  0.98892432046E+01 -0.41354240523E+02  0.46142318204E+02  0.10000004038E+02 0.  0.
        -12    1    1    2    0    0 -0.14870881214E+02 -0.98892432046E+01  0.41354240523E+02  0.45045681796E+02  0.00000000000E+00 0.  1.
         11    1    3    3    0    0  0.16357083043E+00  0.21344977279E+00 -0.13317922276E+01  0.13586710495E+01  0.51100000000E-03 0. -1.
        -11    1    3    3    0    0  0.30498823694E+01  0.12791303482E+01 -0.19219569253E+02  0.19502046032E+02  0.51100000000E-03 0.  1.
        -12    1    3    3    0    0  0.11657428014E+02  0.83966630836E+01 -0.20802879043E+02  0.25281601122E+02  0.00000000000E+00 0.  1.
</event>
<event>
 7    1  0.2031146E-008  0.4614232E+02  0.7816164E-02  0.1320468E+00
        -11   -1    0    0    0    0  0.00000000000E+00  0.00000000000E+00  0.45593999997E+02  0.45594000000E+02  0.51100000000E-03 0.  1.
         11   -1    0    0    0    0 -0.00000000000E+00 -0.00000000000E+00 -0.45593999997E+02  0.45594000000E+02  0.51100000000E-03 0. -1.
    9900012    2    1    2    0    0 -0.18694036700E+02 -0.40880981016E+02  0.28968697186E+01  0.46142317952E+02  0.10000001740E+02 0.  0.
        -12    1    1    2    0    0  0.18694036700E+02  0.40880981016E+02 -0.28968697186E+01  0.45045682048E+02  0.00000000000E+00 0.  1.
         11    1    3    3    0    0 -0.89627332543E+01 -0.13465712897E+02  0.42543871125E+00  0.16181378482E+02  0.51100000000E-03 0. -1.
        -11    1    3    3    0    0 -0.89409685488E+01 -0.27468220564E+02  0.18352479042E+01  0.28944985657E+02  0.51100000000E-03 0.  1.
        -12    1    3    3    0    0 -0.79033489708E+00  0.52952444154E-01  0.63618310317E+00  0.10159538137E+01  0.00000000000E+00 0.  1.
</event>
<event>
 7    1  0.2031146E-008  0.4614232E+02  0.7816164E-02  0.1320468E+00
        -11   -1    0    0    0    0  0.00000000000E+00  0.00000000000E+00  0.45593999997E+02  0.45594000000E+02  0.51100000000E-03 0.  1.
         11   -1    0    0    0    0 -0.00000000000E+00 -0.00000000000E+00 -0.45593999997E+02  0.45594000000E+02  0.51100000000E-03 0. -1.
    9900012    2    1    2    0    0 -0.28301698687E+02  0.33884706787E+01 -0.34880447106E+02  0.46142317938E+02  0.10000001613E+02 0.  0.
        -12    1    1    2    0    0  0.28301698687E+02 -0.33884706787E+01  0.34880447106E+02  0.45045682062E+02  0.00000000000E+00 0.  1.
         11    1    3    3    0    0 -0.15751067627E+02  0.34269336389E+01 -0.20203306395E+02  0.25845958971E+02  0.51100000000E-03 0. -1.
        -11    1    3    3    0    0 -0.80353840126E+01 -0.28205062738E+01 -0.10655536800E+02  0.13640495469E+02  0.51100000000E-03 0.  1.
        -12    1    3    3    0    0 -0.45152470474E+01  0.27820433136E+01 -0.40216039105E+01  0.66558634985E+01  0.00000000000E+00 0.  1.
</event>
<event>
 7    1  0.2031146E-008  0.4614232E+02  0.7816164E-02  0.1320468E+00
        -11   -1    0    0    0    0  0.00000000000E+00  0.00000000000E+00  0.45593999997E+02  0.45594000000E+02  0.51100000000E-03 0. -1.
         11   -1    0    0    0    0 -0.00000000000E+00 -0.00000000000E+00 -0.45593999997E+02  0.45594000000E+02  0.51100000000E-03 0.  1.
    9900012    2    1    2    0    0 -0.24042117282E+02  0.33683095711E+02  0.17791546959E+02  0.46142317817E+02  0.10000000513E+02 0.  0.
        -12    1    1    2    0    0  0.24042117282E+02 -0.33683095711E+02 -0.17791546959E+02  0.45045682183E+02  0.00000000000E+00 0.  1.
         11    1    3    3    0    0 -0.75148901300E+01  0.69817161667E+01  0.71130862532E+01  0.12482545037E+02  0.51100000000E-03 0. -1.
        -11    1    3    3    0    0 -0.11832666690E+02  0.14533157193E+02  0.47523400508E+01  0.19334151009E+02  0.51100000000E-03 0.  1.
        -12    1    3    3    0    0 -0.46945604615E+01  0.12168222351E+02  0.59261206555E+01  0.14325621771E+02  0.00000000000E+00 0.  1.
</event>
<event>
 7    1  0.2031146E-008  0.4614232E+02  0.7816164E-02  0.1320468E+00
        -11   -1    0    0    0    0  0.00000000000E+00  0.00000000000E+00  0.45593999997E+02  0.45594000000E+02  0.51100000000E-03 0. -1.
         11   -1    0    0    0    0 -0.00000000000E+00 -0.00000000000E+00 -0.45593999997E+02  0.45594000000E+02  0.51100000000E-03 0.  1.
    9900012    2    1    2    0    0 -0.17097923361E+02  0.28332283797E+00  0.41673664253E+02  0.46142317107E+02  0.99999940316E+01 0.  0.
        -12    1    1    2    0    0  0.17097923361E+02 -0.28332283797E+00 -0.41673664253E+02  0.45045682893E+02  0.00000000000E+00 0.  1.
         11    1    3    3    0    0 -0.43926709300E+01  0.22647203780E-01  0.71800147099E+01  0.84171659299E+01  0.51100000000E-03 0. -1.
        -11    1    3    3    0    0 -0.65409678508E+01 -0.21800411552E+00  0.71576074544E+01  0.96986148986E+01  0.51100000000E-03 0.  1.
         12    1    3    3    0    0 -0.61642845799E+01  0.47867974972E+00  0.27336042088E+02  0.28026536278E+02  0.00000000000E+00 0. -1.
</event>
<event>
 7    1  0.2031146E-008  0.4614232E+02  0.7816164E-02  0.1320468E+00
        -11   -1    0    0    0    0  0.00000000000E+00  0.00000000000E+00  0.45593999997E+02  0.45594000000E+02  0.51100000000E-03 0.  1.
         11   -1    0    0    0    0 -0.00000000000E+00 -0.00000000000E+00 -0.45593999997E+02  0.45594000000E+02  0.51100000000E-03 0. -1.
    9900012    2    1    2    0    0 -0.35041528988E+02 -0.26998481013E+02 -0.85021633118E+01  0.46142317501E+02  0.99999976275E+01 0.  0.
        -12    1    1    2    0    0  0.35041528988E+02  0.26998481013E+02  0.85021633118E+01  0.45045682499E+02  0.00000000000E+00 0.  1.
         11    1    3    3    0    0 -0.75850494657E+01 -0.69708997877E+01 -0.14165108977E+01  0.10398698122E+02  0.51100000000E-03 0. -1.
        -11    1    3    3    0    0 -0.92726836190E+01 -0.11411624088E+02 -0.49217030725E+01  0.15505837198E+02  0.51100000000E-03 0.  1.
         12    1    3    3    0    0 -0.18183795903E+02 -0.86159571376E+01 -0.21639493415E+01  0.20237782181E+02  0.00000000000E+00 0. -1.
</event>
<event>
 7    1  0.2031146E-008  0.4614232E+02  0.7816164E-02  0.1320468E+00
        -11   -1    0    0    0    0  0.00000000000E+00  0.00000000000E+00  0.45593999997E+02  0.45594000000E+02  0.51100000000E-03 0. -1.
         11   -1    0    0    0    0 -0.00000000000E+00 -0.00000000000E+00 -0.45593999997E+02  0.45594000000E+02  0.51100000000E-03 0.  1.
    9900012    2    1    2    0    0 -0.17690309028E+01 -0.12189562940E+02  0.43328956673E+02  0.46142318726E+02  0.10000008803E+02 0.  0.
        -12    1    1    2    0    0  0.17690309028E+01  0.12189562940E+02 -0.43328956673E+02  0.45045681274E+02  0.00000000000E+00 0.  1.
         11    1    3    3    0    0 -0.28698972518E+01 -0.47706227201E+01  0.14982637596E+02  0.15983572221E+02  0.51100000000E-03 0. -1.
        -11    1    3    3    0    0 -0.19065359595E+01 -0.20311565211E+01  0.30932076481E+01  0.41627406830E+01  0.51100000000E-03 0.  1.
         12    1    3    3    0    0  0.30074023085E+01 -0.53877836987E+01  0.25253111429E+02  0.25996005822E+02  0.00000000000E+00 0. -1.
</event>
<event>
 7    1  0.2031146E-008  0.4614232E+02  0.7816164E-02  0.1320468E+00
        -11   -1    0    0    0    0  0.00000000000E+00  0.00000000000E+00  0.45593999997E+02  0.45594000000E+02  0.51100000000E-03 0.  1.
         11   -1    0    0    0    0 -0.00000000000E+00 -0.00000000000E+00 -0.45593999997E+02  0.45594000000E+02  0.51100000000E-03 0. -1.
    9900012    2    1    2    0    0  0.47398689125E+00  0.39954529478E+02 -0.20797210495E+02  0.46142322585E+02  0.10000043986E+02 0.  0.
        -12    1    1    2    0    0 -0.47398689125E+00 -0.39954529478E+02  0.20797210495E+02  0.45045677415E+02  0.00000000000E+00 0.  1.
         11    1    3    3    0    0  0.21693543084E+00  0.12262282197E+02 -0.20796079851E+01  0.12439268278E+02  0.51100000000E-03 0. -1.
        -11    1    3    3    0    0  0.61309017981E+00  0.24198807268E+02 -0.14508613596E+02  0.28221587863E+02  0.51100000000E-03 0.  1.
        -12    1    3    3    0    0 -0.35603871940E+00  0.34934400135E+01 -0.42089889139E+01  0.54814664438E+01  0.00000000000E+00 0.  1.
</event>
<event>
 7    1  0.2031146E-008  0.4614232E+02  0.7816164E-02  0.1320468E+00
        -11   -1    0    0    0    0  0.00000000000E+00  0.00000000000E+00  0.45593999997E+02  0.45594000000E+02  0.51100000000E-03 0. -1.
         11   -1    0    0    0    0 -0.00000000000E+00 -0.00000000000E+00 -0.45593999997E+02  0.45594000000E+02  0.51100000000E-03 0.  1.
    9900012    2    1    2    0    0 -0.41594420717E+02 -0.12854447075E+02 -0.11566364853E+02  0.46142318294E+02  0.10000004861E+02 0.  0.
        -12    1    1    2    0    0  0.41594420717E+02  0.12854447075E+02  0.11566364853E+02  0.45045681706E+02  0.00000000000E+00 0.  1.
         11    1    3    3    0    0 -0.41629217635E+01 -0.40387320959E+00 -0.30045609181E+01  0.51497978358E+01  0.51100000000E-03 0. -1.
        -11    1    3    3    0    0 -0.29641820662E+01 -0.25439252253E+01 -0.24549218651E+01  0.46135206187E+01  0.51100000000E-03 0.  1.
         12    1    3    3    0    0 -0.34467316888E+02 -0.99066486405E+01 -0.61068820697E+01  0.36378999840E+02  0.00000000000E+00 0. -1.
</event>
<event>
 7    1  0.2031146E-008  0.4614231E+02  0.7816164E-02  0.1320468E+00
        -11   -1    0    0    0    0  0.00000000000E+00  0.00000000000E+00  0.45593999997E+02  0.45594000000E+02  0.51100000000E-03 0.  1.
         11   -1    0    0    0    0 -0.00000000000E+00 -0.00000000000E+00 -0.45593999997E+02  0.45594000000E+02  0.51100000000E-03 0. -1.
    9900012    2    1    2    0    0  0.25807534675E+02  0.30688485044E+02  0.20525637099E+02  0.46142314984E+02  0.99999746719E+01 0.  0.
        -12    1    1    2    0    0 -0.25807534675E+02 -0.30688485044E+02 -0.20525637099E+02  0.45045685016E+02  0.00000000000E+00 0.  1.
         11    1    3    3    0    0  0.88736549020E+01  0.75078024972E+01  0.34800761929E+01  0.12133415852E+02  0.51100000000E-03 0. -1.
        -11    1    3    3    0    0  0.67677760769E+00  0.17189885158E+01  0.32933410507E+01  0.37761150651E+01  0.51100000000E-03 0.  1.
         12    1    3    3    0    0  0.16257102165E+02  0.21461694031E+02  0.13752219855E+02  0.30232784067E+02  0.00000000000E+00 0. -1.
</event>
<event>
 7    1  0.2031146E-008  0.4614232E+02  0.7816164E-02  0.1320468E+00
        -11   -1    0    0    0    0  0.00000000000E+00  0.00000000000E+00  0.45593999997E+02  0.45594000000E+02  0.51100000000E-03 0.  1.
         11   -1    0    0    0    0 -0.00000000000E+00 -0.00000000000E+00 -0.45593999997E+02  0.45594000000E+02  0.51100000000E-03 0. -1.
    9900012    2    1    2    0    0  0.74849146982E+01  0.31918183672E+02 -0.30892056113E+02  0.46142317323E+02  0.99999960052E+01 0.  0.
        -12    1    1    2    0    0 -0.74849146982E+01 -0.31918183672E+02  0.30892056113E+02  0.45045682677E+02  0.00000000000E+00 0.  1.
         11    1    3    3    0    0 -0.13723426206E+01  0.59600600268E+01 -0.34568566050E+01  0.70253467986E+01  0.51100000000E-03 0. -1.
        -11    1    3    3    0    0  0.13112224505E+01  0.71678233088E+01 -0.10143653839E+02  0.12489624044E+02  0.51100000000E-03 0.  1.
        -12    1    3    3    0    0  0.75460348682E+01  0.18790300336E+02 -0.17291545669E+02  0.26627346481E+02  0.00000000000E+00 0.  1.
</event>
<event>
 7    1  0.2031146E-008  0.4614232E+02  0.7816164E-02  0.1320468E+00
        -11   -1    0    0    0    0  0.00000000000E+00  0.00000000000E+00  0.45593999997E+02  0.45594000000E+02  0.51100000000E-03 0. -1.
         11   -1    0    0    0    0 -0.00000000000E+00 -0.00000000000E+00 -0.45593999997E+02  0.45594000000E+02  0.51100000000E-03 0.  1.
    9900012    2    1    2    0    0 -0.45026887635E+02  0.10859639302E+01  0.71662206176E+00  0.46142317910E+02  0.10000001358E+02 0.  0.
        -12    1    1    2    0    0  0.45026887635E+02 -0.10859639302E+01 -0.71662206176E+00  0.45045682090E+02  0.00000000000E+00 0.  1.
         11    1    3    3    0    0 -0.20347534444E+02 -0.38555957317E+01  0.23381387762E+01  0.20841177260E+02  0.51100000000E-03 0. -1.
        -11    1    3    3    0    0 -0.15164380152E+02  0.24140719582E+01 -0.21974469719E+00  0.15356902578E+02  0.51100000000E-03 0.  1.
         12    1    3    3    0    0 -0.95149730393E+01  0.25274877038E+01 -0.14017720172E+01  0.99442380714E+01  0.00000000000E+00 0. -1.
</event>
<event>
 7    1  0.2031146E-008  0.4614231E+02  0.7816164E-02  0.1320468E+00
        -11   -1    0    0    0    0  0.00000000000E+00  0.00000000000E+00  0.45593999997E+02  0.45594000000E+02  0.51100000000E-03 0.  1.
         11   -1    0    0    0    0 -0.00000000000E+00 -0.00000000000E+00 -0.45593999997E+02  0.45594000000E+02  0.51100000000E-03 0. -1.
    9900012    2    1    2    0    0  0.44711739687E+02 -0.10186547891E+01  0.53792641056E+01  0.46142314239E+02  0.99999678814E+01 0.  0.
        -12    1    1    2    0    0 -0.44711739687E+02  0.10186547891E+01 -0.53792641056E+01  0.45045685761E+02  0.00000000000E+00 0.  1.
         11    1    3    3    0    0  0.39304363285E+02  0.74094554507E+00  0.28234003742E+01  0.39412606657E+02  0.51100000000E-03 0. -1.
        -11    1    3    3    0    0  0.27840688763E+00 -0.17374888026E+00 -0.46535251797E+00  0.56943155477E+00  0.51100000000E-03 0.  1.
        -12    1    3    3    0    0  0.51289695137E+01 -0.15858514539E+01  0.30212162494E+01  0.61602760273E+01  0.00000000000E+00 0.  1.
</event>
<event>
 7    1  0.2031146E-008  0.4614232E+02  0.7816164E-02  0.1320468E+00
        -11   -1    0    0    0    0  0.00000000000E+00  0.00000000000E+00  0.45593999997E+02  0.45594000000E+02  0.51100000000E-03 0.  1.
         11   -1    0    0    0    0 -0.00000000000E+00 -0.00000000000E+00 -0.45593999997E+02  0.45594000000E+02  0.51100000000E-03 0. -1.
    9900012    2    1    2    0    0 -0.40852479114E+02 -0.34234820985E+01 -0.18667304379E+02  0.46142317275E+02  0.99999955648E+01 0.  0.
        -12    1    1    2    0    0  0.40852479114E+02  0.34234820985E+01  0.18667304379E+02  0.45045682725E+02  0.00000000000E+00 0.  1.
         11    1    3    3    0    0 -0.42304035899E+01  0.63902648881E+00 -0.34101780068E+01  0.54711958187E+01  0.51100000000E-03 0. -1.
        -11    1    3    3    0    0 -0.37967770133E+01 -0.82801257841E+00 -0.45697009661E+01  0.59986071467E+01  0.51100000000E-03 0.  1.
        -12    1    3    3    0    0 -0.32825298510E+02 -0.32344960089E+01 -0.10687425406E+02  0.34672514309E+02  0.00000000000E+00 0.  1.
</event>
<event>
 7    1  0.2031146E-008  0.4614232E+02  0.7816164E-02  0.1320468E+00
        -11   -1    0    0    0    0  0.00000000000E+00  0.00000000000E+00  0.45593999997E+02  0.45594000000E+02  0.51100000000E-03 0. -1.
         11   -1    0    0    0    0 -0.00000000000E+00 -0.00000000000E+00 -0.45593999997E+02  0.45594000000E+02  0.51100000000E-03 0.  1.
    9900012    2    1    2    0    0  0.30329886726E+02 -0.20946549085E+02  0.25893119484E+02  0.46142316700E+02  0.99999903196E+01 0.  0.
        -12    1    1    2    0    0 -0.30329886726E+02  0.20946549085E+02 -0.25893119484E+02  0.45045683300E+02  0.00000000000E+00 0.  1.
         11    1    3    3    0    0  0.21242317675E+02 -0.11886606856E+02  0.18408321229E+02  0.30518744625E+02  0.51100000000E-03 0. -1.
        -11    1    3    3    0    0  0.48476819447E+01 -0.31037256589E+01  0.98278442347E+00  0.58394347917E+01  0.51100000000E-03 0.  1.
        -12    1    3    3    0    0  0.42398871067E+01 -0.59562165698E+01  0.65020138313E+01  0.97841372827E+01  0.00000000000E+00 0.  1.
</event>
<event>
 7    1  0.2031146E-008  0.4614231E+02  0.7816164E-02  0.1320468E+00
        -11   -1    0    0    0    0  0.00000000000E+00  0.00000000000E+00  0.45593999997E+02  0.45594000000E+02  0.51100000000E-03 0. -1.
         11   -1    0    0    0    0 -0.00000000000E+00 -0.00000000000E+00 -0.45593999997E+02  0.45594000000E+02  0.51100000000E-03 0.  1.
    9900012    2    1    2    0    0 -0.31241002670E+02 -0.32332679818E+02  0.27769977209E+01  0.46142310435E+02  0.99999331954E+01 0.  0.
        -12    1    1    2    0    0  0.31241002670E+02  0.32332679818E+02 -0.27769977209E+01  0.45045689565E+02  0.00000000000E+00 0.  1.
         11    1    3    3    0    0 -0.12576210829E+02 -0.95705747187E+01  0.39063183382E+01  0.16279321315E+02  0.51100000000E-03 0. -1.
        -11    1    3    3    0    0  0.28232495004E+00 -0.73025788696E+00 -0.11720085883E-01  0.78302080459E+00  0.51100000000E-03 0.  1.
         12    1    3    3    0    0 -0.18947116792E+02 -0.22031847212E+02 -0.11176005314E+01  0.29079968316E+02  0.00000000000E+00 0. -1.
</event>
<event>
 7    1  0.2031146E-008  0.4614232E+02  0.7816164E-02  0.1320468E+00
        -11   -1    0    0    0    0  0.00000000000E+00  0.00000000000E+00  0.45593999997E+02  0.45594000000E+02  0.51100000000E-03 0.  1.
         11   -1    0    0    0    0 -0.00000000000E+00 -0.00000000000E+00 -0.45593999997E+02  0.45594000000E+02  0.51100000000E-03 0. -1.
    9900012    2    1    2    0    0 -0.20878988553E+02  0.21235057632E+02 -0.33797236454E+02  0.46142322876E+02  0.10000046639E+02 0.  0.
        -12    1    1    2    0    0  0.20878988553E+02 -0.21235057632E+02  0.33797236454E+02  0.45045677124E+02  0.00000000000E+00 0.  1.
         11    1    3    3    0    0 -0.20468180374E+01  0.16873324816E+01 -0.65642890175E+01  0.70800032167E+01  0.51100000000E-03 0. -1.
        -11    1    3    3    0    0  0.39175823338E+00  0.71248760018E+00 -0.57137026181E-01  0.81509385639E+00  0.51100000000E-03 0.  1.
        -12    1    3    3    0    0 -0.19223928749E+02  0.18835237550E+02 -0.27175810410E+02  0.38247225803E+02  0.00000000000E+00 0.  1.
</event>
<event>
 7    1  0.2031146E-008  0.4614232E+02  0.7816164E-02  0.1320468E+00
        -11   -1    0    0    0    0  0.00000000000E+00  0.00000000000E+00  0.45593999997E+02  0.45594000000E+02  0.51100000000E-03 0. -1.
         11   -1    0    0    0    0 -0.00000000000E+00 -0.00000000000E+00 -0.45593999997E+02  0.45594000000E+02  0.51100000000E-03 0.  1.
    9900012    2    1    2    0    0 -0.34168802786E+01 -0.17854329151E+02  0.41214819795E+02  0.46142317510E+02  0.99999977083E+01 0.  0.
        -12    1    1    2    0    0  0.34168802786E+01  0.17854329151E+02 -0.41214819795E+02  0.45045682490E+02  0.00000000000E+00 0.  1.
         11    1    3    3    0    0 -0.46975678974E+01 -0.70471358879E+01  0.17476832661E+02  0.19420837996E+02  0.51100000000E-03 0. -1.
        -11    1    3    3    0    0 -0.42578918139E+00 -0.30555987263E+01  0.13043536038E+02  0.13403425407E+02  0.51100000000E-03 0.  1.
         12    1    3    3    0    0  0.17064768002E+01 -0.77515945363E+01  0.10694451097E+02  0.13318054106E+02  0.00000000000E+00 0. -1.
</event>
<event>
 7    1  0.2031146E-008  0.4614232E+02  0.7816164E-02  0.1320468E+00
        -11   -1    0    0    0    0  0.00000000000E+00  0.00000000000E+00  0.45593999997E+02  0.45594000000E+02  0.51100000000E-03 0. -1.
         11   -1    0    0    0    0 -0.00000000000E+00 -0.00000000000E+00 -0.45593999997E+02  0.45594000000E+02  0.51100000000E-03 0.  1.
    9900012    2    1    2    0    0  0.22604383967E+01  0.40955398303E+02  0.18618787859E+02  0.46142317707E+02  0.99999995064E+01 0.  0.
        -12    1    1    2    0    0 -0.22604383967E+01 -0.40955398303E+02 -0.18618787859E+02  0.45045682293E+02  0.00000000000E+00 0.  1.
         11    1    3    3    0    0  0.46930446342E+00  0.10755155856E+02  0.21832185270E+01  0.10984537658E+02  0.51100000000E-03 0. -1.
        -11    1    3    3    0    0 -0.26818755576E+01  0.86659701017E+01  0.43191102011E+01  0.10047198988E+02  0.51100000000E-03 0.  1.
         12    1    3    3    0    0  0.44730094909E+01  0.21534272345E+02  0.12116459131E+02  0.25110581061E+02  0.00000000000E+00 0. -1.
</event>
<event>
 7    1  0.2031146E-008  0.4614232E+02  0.7816164E-02  0.1320468E+00
        -11   -1    0    0    0    0  0.00000000000E+00  0.00000000000E+00  0.45593999997E+02  0.45594000000E+02  0.51100000000E-03 0.  1.
         11   -1    0    0    0    0 -0.00000000000E+00 -0.00000000000E+00 -0.45593999997E+02  0.45594000000E+02  0.51100000000E-03 0. -1.
    9900012    2    1    2    0    0  0.63023756937E+00 -0.13707567692E+00 -0.45041064967E+02  0.46142317382E+02  0.99999965444E+01 0.  0.
        -12    1    1    2    0    0 -0.63023756937E+00  0.13707567692E+00  0.45041064967E+02  0.45045682618E+02  0.00000000000E+00 0.  1.
         11    1    3    3    0    0  0.18499745476E+01  0.30007814366E+01 -0.81788286054E+01  0.89061963078E+01  0.51100000000E-03 0.  1.
        -11    1    3    3    0    0 -0.12354038451E+01 -0.16399120380E+01 -0.60772746100E+01  0.64147331277E+01  0.51100000000E-03 0. -1.
         12    1    3    3    0    0  0.15666866926E-01 -0.14979450755E+01 -0.30784961752E+02  0.30821387947E+02  0.00000000000E+00 0. -1.
</event>
<event>
 7    1  0.2031146E-008  0.4614232E+02  0.7816164E-02  0.1320468E+00
        -11   -1    0    0    0    0  0.00000000000E+00  0.00000000000E+00  0.45593999997E+02  0.45594000000E+02  0.51100000000E-03 0.  1.
         11   -1    0    0    0    0 -0.00000000000E+00 -0.00000000000E+00 -0.45593999997E+02  0.45594000000E+02  0.51100000000E-03 0. -1.
    9900012    2    1    2    0    0 -0.15185103731E+02  0.27107060097E+02 -0.32614926497E+02  0.46142317490E+02  0.99999975253E+01 0.  0.
        -12    1    1    2    0    0  0.15185103731E+02 -0.27107060097E+02  0.32614926497E+02  0.45045682510E+02  0.00000000000E+00 0.  1.
         11    1    3    3    0    0 -0.20578621560E+01  0.82230356070E+01 -0.98589910082E+01  0.13002031195E+02  0.51100000000E-03 0. -1.
        -11    1    3    3    0    0 -0.10264026424E+02  0.10266096349E+02 -0.17145790298E+02  0.22465998707E+02  0.51100000000E-03 0.  1.
        -12    1    3    3    0    0 -0.28632151509E+01  0.86179281409E+01 -0.56101451905E+01  0.10674287587E+02  0.00000000000E+00 0.  1.
</event>
<event>
 7    1  0.2031146E-008  0.4614232E+02  0.7816164E-02  0.1320468E+00
        -11   -1    0    0    0    0  0.00000000000E+00  0.00000000000E+00  0.45593999997E+02  0.45594000000E+02  0.51100000000E-03 0.  1.
         11   -1    0    0    0    0 -0.00000000000E+00 -0.00000000000E+00 -0.45593999997E+02  0.45594000000E+02  0.51100000000E-03 0. -1.
    9900012    2    1    2    0    0  0.32541379378E+01 -0.21293502233E+02 -0.39561480620E+02  0.46142318743E+02  0.10000008954E+02 0.  0.
        -12    1    1    2    0    0 -0.32541379378E+01  0.21293502233E+02  0.39561480620E+02  0.45045681257E+02  0.00000000000E+00 0.  1.
         11    1    3    3    0    0  0.18271380832E+01 -0.11400399268E+02 -0.14334999859E+02  0.18406514017E+02  0.51100000000E-03 0. -1.
        -11    1    3    3    0    0  0.29529659558E+01 -0.44681631301E+01 -0.81396747116E+01  0.97436540561E+01  0.51100000000E-03 0.  1.
         12    1    3    3    0    0 -0.15259661013E+01 -0.54249398348E+01 -0.17086806050E+02  0.17992150670E+02  0.00000000000E+00 0. -1.
</event>
<event>
 7    1  0.2031146E-008  0.4614232E+02  0.7816164E-02  0.1320468E+00
        -11   -1    0    0    0    0  0.00000000000E+00  0.00000000000E+00  0.45593999997E+02  0.45594000000E+02  0.51100000000E-03 0. -1.
         11   -1    0    0    0    0 -0.00000000000E+00 -0.00000000000E+00 -0.45593999997E+02  0.45594000000E+02  0.51100000000E-03 0.  1.
    9900012    2    1    2    0    0  0.11136008201E+02  0.21742337317E+02  0.37846707844E+02  0.46142320903E+02  0.10000028650E+02 0.  0.
        -12    1    1    2    0    0 -0.11136008201E+02 -0.21742337317E+02 -0.37846707844E+02  0.45045679097E+02  0.00000000000E+00 0.  1.
         11    1    3    3    0    0  0.36885352388E+01  0.73642779882E+01  0.12893133615E+02  0.15299371790E+02  0.51100000000E-03 0. -1.
        -11    1    3    3    0    0  0.40829722855E+01  0.13414079360E+02  0.22696347617E+02  0.26678312975E+02  0.51100000000E-03 0.  1.
         12    1    3    3    0    0  0.33645006767E+01  0.96397996899E+00  0.22572266116E+01  0.41646361378E+01  0.00000000000E+00 0. -1.
</event>
<event>
 7    1  0.2031146E-008  0.4614232E+02  0.7816164E-02  0.1320468E+00
        -11   -1    0    0    0    0  0.00000000000E+00  0.00000000000E+00  0.45593999997E+02  0.45594000000E+02  0.51100000000E-03 0.  1.
         11   -1    0    0    0    0 -0.00000000000E+00 -0.00000000000E+00 -0.45593999997E+02  0.45594000000E+02  0.51100000000E-03 0. -1.
    9900012    2    1    2    0    0  0.23187219941E+02 -0.11068459084E+02 -0.36999398607E+02  0.46142318161E+02  0.10000003644E+02 0.  0.
        -12    1    1    2    0    0 -0.23187219941E+02  0.11068459084E+02  0.36999398607E+02  0.45045681839E+02  0.00000000000E+00 0.  1.
         11    1    3    3    0    0  0.14088340219E+02 -0.26097918927E+01 -0.17352747954E+02  0.22503559844E+02  0.51100000000E-03 0. -1.
        -11    1    3    3    0    0  0.10037047653E+01  0.45681465654E+00 -0.16883305176E+01  0.20165721123E+01  0.51100000000E-03 0.  1.
        -12    1    3    3    0    0  0.80951749566E+01 -0.89154818478E+01 -0.17958320135E+02  0.21622186204E+02  0.00000000000E+00 0.  1.
</event>
<event>
 7    1  0.2031146E-008  0.4614232E+02  0.7816164E-02  0.1320468E+00
        -11   -1    0    0    0    0  0.00000000000E+00  0.00000000000E+00  0.45593999997E+02  0.45594000000E+02  0.51100000000E-03 0.  1.
         11   -1    0    0    0    0 -0.00000000000E+00 -0.00000000000E+00 -0.45593999997E+02  0.45594000000E+02  0.51100000000E-03 0. -1.
    9900012    2    1    2    0    0 -0.29395719702E+02  0.29817723280E+02 -0.16610493477E+02  0.46142318165E+02  0.10000003688E+02 0.  0.
        -12    1    1    2    0    0  0.29395719702E+02 -0.29817723280E+02  0.16610493477E+02  0.45045681835E+02  0.00000000000E+00 0.  1.
         11    1    3    3    0    0 -0.11421951158E+02  0.11434456445E+02 -0.47046804565E+01  0.16832759159E+02  0.51100000000E-03 0. -1.
        -11    1    3    3    0    0 -0.12198680893E+01 -0.59291485787E+00 -0.50802069371E-01  0.13572793726E+01  0.51100000000E-03 0.  1.
        -12    1    3    3    0    0 -0.16753900455E+02  0.18976181693E+02 -0.11855010951E+02  0.27952279634E+02  0.00000000000E+00 0.  1.
</event>
<event>
 7    1  0.2031146E-008  0.4614232E+02  0.7816164E-02  0.1320468E+00
        -11   -1    0    0    0    0  0.00000000000E+00  0.00000000000E+00  0.45593999997E+02  0.45594000000E+02  0.51100000000E-03 0.  1.
         11   -1    0    0    0    0 -0.00000000000E+00 -0.00000000000E+00 -0.45593999997E+02  0.45594000000E+02  0.51100000000E-03 0. -1.
    9900012    2    1    2    0    0 -0.68172374909E+00 -0.43194664325E+02 -0.12762043359E+02  0.46142317365E+02  0.99999963851E+01 0.  0.
        -12    1    1    2    0    0  0.68172374909E+00  0.43194664325E+02  0.12762043359E+02  0.45045682635E+02  0.00000000000E+00 0.  1.
         11    1    3    3    0    0 -0.41902876274E+01 -0.28094715201E+02 -0.11269686243E+02  0.30559407078E+02  0.51100000000E-03 0. -1.
        -11    1    3    3    0    0  0.57587369259E+00 -0.27846058400E+01 -0.79976069083E-01  0.28446540434E+01  0.51100000000E-03 0.  1.
         12    1    3    3    0    0  0.29326901857E+01 -0.12315343283E+02 -0.14123810464E+01  0.12738256244E+02  0.00000000000E+00 0. -1.
</event>
<event>
 7    1  0.2031146E-008  0.4614232E+02  0.7816164E-02  0.1320468E+00
        -11   -1    0    0    0    0  0.00000000000E+00  0.00000000000E+00  0.45593999997E+02  0.45594000000E+02  0.51100000000E-03 0. -1.
         11   -1    0    0    0    0 -0.00000000000E+00 -0.00000000000E+00 -0.45593999997E+02  0.45594000000E+02  0.51100000000E-03 0.  1.
    9900012    2    1    2    0    0 -0.37112527061E+01 -0.36490050556E+02  0.26149883357E+02  0.46142316679E+02  0.99999901308E+01 0.  0.
        -12    1    1    2    0    0  0.37112527061E+01  0.36490050556E+02 -0.26149883357E+02  0.45045683321E+02  0.00000000000E+00 0.  1.
         11    1    3    3    0    0 -0.10650735039E+01 -0.28120395068E+01  0.13472200725E+01  0.32949886102E+01  0.51100000000E-03 0. -1.
        -11    1    3    3    0    0 -0.43478166196E+00 -0.43318968295E+00 -0.66902733842E+00  0.90790210688E+00  0.51100000000E-03 0.  1.
         12    1    3    3    0    0 -0.22113975402E+01 -0.33244821367E+02  0.25471690623E+02  0.41939425962E+02  0.00000000000E+00 0. -1.
</event>
<event>
 7    1  0.2338592E-008  0.4614232E+02  0.7816164E-02  0.1320468E+00
        -11   -1    0    0    0    0  0.00000000000E+00  0.00000000000E+00  0.45593999997E+02  0.45594000000E+02  0.51100000000E-03 0.  1.
         11   -1    0    0    0    0 -0.00000000000E+00 -0.00000000000E+00 -0.45593999997E+02  0.45594000000E+02  0.51100000000E-03 0. -1.
    9900012    2    1    2    0    0  0.50846067367E+01 -0.36864293034E+02 -0.25382751196E+02  0.46142318911E+02  0.10000010481E+02 0.  0.
        -12    1    1    2    0    0 -0.50846067367E+01  0.36864293034E+02  0.25382751196E+02  0.45045681089E+02  0.00000000000E+00 0.  1.
         11    1    3    3    0    0  0.10642838480E+01 -0.10405955254E+02 -0.59729596083E+01  0.12045449414E+02  0.51100000000E-03 0. -1.
        -11    1    3    3    0    0  0.15740585458E+01 -0.25239951604E+02 -0.17797415157E+02  0.30923790256E+02  0.51100000000E-03 0.  1.
        -12    1    3    3    0    0  0.24462643430E+01 -0.12183861761E+01 -0.16123764307E+01  0.31730792401E+01  0.00000000000E+00 0.  1.
</event>
<event>
 7    1  0.2031146E-008  0.4614232E+02  0.7816164E-02  0.1320468E+00
        -11   -1    0    0    0    0  0.00000000000E+00  0.00000000000E+00  0.45593999997E+02  0.45594000000E+02  0.51100000000E-03 0.  1.
         11   -1    0    0    0    0 -0.00000000000E+00 -0.00000000000E+00 -0.45593999997E+02  0.45594000000E+02  0.51100000000E-03 0. -1.
    9900012    2    1    2    0    0 -0.89110975204E+01  0.18033752449E+02 -0.40304956592E+02  0.46142318605E+02  0.10000007698E+02 0.  0.
        -12    1    1    2    0    0  0.89110975204E+01 -0.18033752449E+02  0.40304956592E+02  0.45045681395E+02  0.00000000000E+00 0.  1.
         11    1    3    3    0    0 -0.77225125309E+01  0.86287535336E+01 -0.18221274510E+02  0.21589521356E+02  0.51100000000E-03 0. -1.
        -11    1    3    3    0    0  0.16363957192E+01  0.16932743158E+01 -0.33186444634E+01  0.40691977335E+01  0.51100000000E-03 0.  1.
         12    1    3    3    0    0 -0.28249807087E+01  0.77117245996E+01 -0.18765037619E+02  0.20483599516E+02  0.00000000000E+00 0. -1.
</event>
<event>
 7    1  0.2031146E-008  0.4614232E+02  0.7816164E-02  0.1320468E+00
        -11   -1    0    0    0    0  0.00000000000E+00  0.00000000000E+00  0.45593999997E+02  0.45594000000E+02  0.51100000000E-03 0.  1.
         11   -1    0    0    0    0 -0.00000000000E+00 -0.00000000000E+00 -0.45593999997E+02  0.45594000000E+02  0.51100000000E-03 0. -1.
    9900012    2    1    2    0    0 -0.90293252031E+01  0.33664548536E+02 -0.28535643757E+02  0.46142317561E+02  0.99999981774E+01 0.  0.
        -12    1    1    2    0    0  0.90293252031E+01 -0.33664548536E+02  0.28535643757E+02  0.45045682439E+02  0.00000000000E+00 0.  1.
         11    1    3    3    0    0 -0.12645820772E+00  0.88189851511E+01 -0.49923063865E+01  0.10134772523E+02  0.51100000000E-03 0. -1.
        -11    1    3    3    0    0 -0.11426700091E+01  0.71968119059E+00 -0.33207737969E+01  0.35848535029E+01  0.51100000000E-03 0.  1.
         12    1    3    3    0    0 -0.77601969863E+01  0.24125882194E+02 -0.20222563573E+02  0.32422691535E+02  0.00000000000E+00 0. -1.
</event>
<event>
 7    1  0.2031146E-008  0.4614232E+02  0.7816164E-02  0.1320468E+00
        -11   -1    0    0    0    0  0.00000000000E+00  0.00000000000E+00  0.45593999997E+02  0.45594000000E+02  0.51100000000E-03 0.  1.
         11   -1    0    0    0    0 -0.00000000000E+00 -0.00000000000E+00 -0.45593999997E+02  0.45594000000E+02  0.51100000000E-03 0. -1.
    9900012    2    1    2    0    0 -0.26279968029E+02  0.23983015586E+01 -0.36506505785E+02  0.46142317248E+02  0.99999953218E+01 0.  0.
        -12    1    1    2    0    0  0.26279968029E+02 -0.23983015586E+01  0.36506505785E+02  0.45045682752E+02  0.00000000000E+00 0.  1.
         11    1    3    3    0    0 -0.20160356884E+01  0.81795460122E-01 -0.27335460427E+01  0.33975527403E+01  0.51100000000E-03 0. -1.
        -11    1    3    3    0    0 -0.18698767006E+02  0.46888147772E+01 -0.20402797232E+02  0.28069610020E+02  0.51100000000E-03 0.  1.
        -12    1    3    3    0    0 -0.55651653340E+01 -0.23723086787E+01 -0.13370162511E+02  0.14675154487E+02  0.00000000000E+00 0.  1.
</event>
<event>
 7    1  0.2031146E-008  0.4614232E+02  0.7816164E-02  0.1320468E+00
        -11   -1    0    0    0    0  0.00000000000E+00  0.00000000000E+00  0.45593999997E+02  0.45594000000E+02  0.51100000000E-03 0. -1.
         11   -1    0    0    0    0 -0.00000000000E+00 -0.00000000000E+00 -0.45593999997E+02  0.45594000000E+02  0.51100000000E-03 0.  1.
    9900012    2    1    2    0    0  0.34078144996E+02 -0.86434740700E+01  0.28161744501E+02  0.46142318035E+02  0.10000002496E+02 0.  0.
        -12    1    1    2    0    0 -0.34078144996E+02  0.86434740700E+01 -0.28161744501E+02  0.45045681965E+02  0.00000000000E+00 0.  1.
         11    1    3    3    0    0  0.11460694837E+02 -0.42152726963E+01  0.80850808400E+01  0.14645292162E+02  0.51100000000E-03 0. -1.
        -11    1    3    3    0    0  0.21091122638E+02 -0.60044139176E+01  0.17148858776E+02  0.27838315290E+02  0.51100000000E-03 0.  1.
        -12    1    3    3    0    0  0.15263275211E+01  0.15762125439E+01  0.29278048847E+01  0.36587105828E+01  0.00000000000E+00 0.  1.
</event>
<event>
 7    1  0.2031146E-008  0.4614232E+02  0.7816164E-02  0.1320468E+00
        -11   -1    0    0    0    0  0.00000000000E+00  0.00000000000E+00  0.45593999997E+02  0.45594000000E+02  0.51100000000E-03 0.  1.
         11   -1    0    0    0    0 -0.00000000000E+00 -0.00000000000E+00 -0.45593999997E+02  0.45594000000E+02  0.51100000000E-03 0. -1.
    9900012    2    1    2    0    0  0.19395005878E+01  0.17748394639E+02 -0.41356334299E+02  0.46142316950E+02  0.99999926007E+01 0.  0.
        -12    1    1    2    0    0 -0.19395005878E+01 -0.17748394639E+02  0.41356334299E+02  0.45045683050E+02  0.00000000000E+00 0.  1.
         11    1    3    3    0    0  0.12278055969E+01  0.11795887748E+02 -0.29074090903E+02  0.31399892300E+02  0.51100000000E-03 0. -1.
        -11    1    3    3    0    0 -0.11121685478E+01 -0.48329629094E+00 -0.34909959197E+01  0.36956118514E+01  0.51100000000E-03 0.  1.
        -12    1    3    3    0    0  0.18238635387E+01  0.64358031823E+01 -0.87912474761E+01  0.11046812798E+02  0.00000000000E+00 0.  1.
</event>
<event>
 7    1  0.2031146E-008  0.4614232E+02  0.7816164E-02  0.1320468E+00
        -11   -1    0    0    0    0  0.00000000000E+00  0.00000000000E+00  0.45593999997E+02  0.45594000000E+02  0.51100000000E-03 0.  1.
         11   -1    0    0    0    0 -0.00000000000E+00 -0.00000000000E+00 -0.45593999997E+02  0.45594000000E+02  0.51100000000E-03 0. -1.
    9900012    2    1    2    0    0  0.30160557401E+02 -0.18375509836E+02 -0.27960595487E+02  0.46142317804E+02  0.10000000391E+02 0.  0.
        -12    1    1    2    0    0 -0.30160557401E+02  0.18375509836E+02  0.27960595487E+02  0.45045682196E+02  0.00000000000E+00 0.  1.
         11    1    3    3    0    0  0.33535189343E+00 -0.10093840298E+01 -0.59945383062E+00  0.12209267661E+01  0.51100000000E-03 0. -1.
        -11    1    3    3    0    0 -0.31023234349E+00  0.27147529175E+00  0.17973578632E+00  0.44972008514E+00  0.51100000000E-03 0.  1.
         12    1    3    3    0    0  0.30135437852E+02 -0.17637601098E+02 -0.27540877443E+02  0.44471670953E+02  0.00000000000E+00 0. -1.
</event>
<event>
 7    1  0.2031146E-008  0.4614232E+02  0.7816164E-02  0.1320468E+00
        -11   -1    0    0    0    0  0.00000000000E+00  0.00000000000E+00  0.45593999997E+02  0.45594000000E+02  0.51100000000E-03 0.  1.
         11   -1    0    0    0    0 -0.00000000000E+00 -0.00000000000E+00 -0.45593999997E+02  0.45594000000E+02  0.51100000000E-03 0. -1.
    9900012    2    1    2    0    0 -0.37051346751E+01  0.22075580123E+01 -0.44838735435E+02  0.46142317291E+02  0.99999957126E+01 0.  0.
        -12    1    1    2    0    0  0.37051346751E+01 -0.22075580123E+01  0.44838735435E+02  0.45045682709E+02  0.00000000000E+00 0.  1.
         11    1    3    3    0    0  0.42653029908E+00  0.14129830281E+01 -0.61243460195E+01  0.62996875765E+01  0.51100000000E-03 0.  1.
        -11    1    3    3    0    0 -0.42131999966E+00  0.11717437384E+01 -0.34456419094E+00  0.12919824586E+01  0.51100000000E-03 0. -1.
         12    1    3    3    0    0 -0.37103449745E+01 -0.37716875416E+00 -0.38369825224E+02  0.38550647256E+02  0.00000000000E+00 0. -1.
</event>
<event>
 7    1  0.2031146E-008  0.4614232E+02  0.7816164E-02  0.1320468E+00
        -11   -1    0    0    0    0  0.00000000000E+00  0.00000000000E+00  0.45593999997E+02  0.45594000000E+02  0.51100000000E-03 0. -1.
         11   -1    0    0    0    0 -0.00000000000E+00 -0.00000000000E+00 -0.45593999997E+02  0.45594000000E+02  0.51100000000E-03 0.  1.
    9900012    2    1    2    0    0 -0.33990348070E+02  0.26932414065E+02  0.12182559082E+02  0.46142318353E+02  0.10000005393E+02 0.  0.
        -12    1    1    2    0    0  0.33990348070E+02 -0.26932414065E+02 -0.12182559082E+02  0.45045681647E+02  0.00000000000E+00 0.  1.
         11    1    3    3    0    0 -0.11093763458E+02  0.10336619908E+02  0.28823571725E+01  0.15434548322E+02  0.51100000000E-03 0. -1.
        -11    1    3    3    0    0 -0.14584458490E+02  0.59390391732E+01  0.47807826960E+01  0.16457050137E+02  0.51100000000E-03 0.  1.
         12    1    3    3    0    0 -0.83121261215E+01  0.10656754984E+02  0.45194192130E+01  0.14250719893E+02  0.00000000000E+00 0. -1.
</event>
<event>
 7    1  0.2031146E-008  0.4614232E+02  0.7816164E-02  0.1320468E+00
        -11   -1    0    0    0    0  0.00000000000E+00  0.00000000000E+00  0.45593999997E+02  0.45594000000E+02  0.51100000000E-03 0.  1.
         11   -1    0    0    0    0 -0.00000000000E+00 -0.00000000000E+00 -0.45593999997E+02  0.45594000000E+02  0.51100000000E-03 0. -1.
    9900012    2    1    2    0    0 -0.15972172256E+02 -0.21409978333E+02 -0.36271424784E+02  0.46142315249E+02  0.99999770942E+01 0.  0.
        -12    1    1    2    0    0  0.15972172256E+02  0.21409978333E+02  0.36271424784E+02  0.45045684751E+02  0.00000000000E+00 0.  1.
         11    1    3    3    0    0 -0.72752603328E+01 -0.10340101610E+02 -0.98300223484E+01  0.16014882261E+02  0.51100000000E-03 0. -1.
        -11    1    3    3    0    0 -0.15266349866E+01 -0.25847342150E+01 -0.86134496444E+01  0.91215667723E+01  0.51100000000E-03 0.  1.
         12    1    3    3    0    0 -0.71702769365E+01 -0.84851425076E+01 -0.17827952792E+02  0.21005866216E+02  0.00000000000E+00 0. -1.
</event>
<event>
 7    1  0.2031146E-008  0.4614232E+02  0.7816164E-02  0.1320468E+00
        -11   -1    0    0    0    0  0.00000000000E+00  0.00000000000E+00  0.45593999997E+02  0.45594000000E+02  0.51100000000E-03 0.  1.
         11   -1    0    0    0    0 -0.00000000000E+00 -0.00000000000E+00 -0.45593999997E+02  0.45594000000E+02  0.51100000000E-03 0. -1.
    9900012    2    1    2    0    0  0.24232567297E+02 -0.37895992090E+02 -0.24062518661E+01  0.46142316719E+02  0.99999904936E+01 0.  0.
        -12    1    1    2    0    0 -0.24232567297E+02  0.37895992090E+02  0.24062518661E+01  0.45045683281E+02  0.00000000000E+00 0.  1.
         11    1    3    3    0    0  0.16927450586E+01 -0.91135361743E+01 -0.15170240109E+01  0.93927253524E+01  0.51100000000E-03 0. -1.
        -11    1    3    3    0    0  0.17188519738E+02 -0.22198582927E+02  0.85290490600E+00  0.28088249177E+02  0.51100000000E-03 0.  1.
         12    1    3    3    0    0  0.53513024998E+01 -0.65838729881E+01 -0.17421327612E+01  0.86613421896E+01  0.00000000000E+00 0. -1.
</event>
<event>
 7    1  0.2031146E-008  0.4614232E+02  0.7816164E-02  0.1320468E+00
        -11   -1    0    0    0    0  0.00000000000E+00  0.00000000000E+00  0.45593999997E+02  0.45594000000E+02  0.51100000000E-03 0.  1.
         11   -1    0    0    0    0 -0.00000000000E+00 -0.00000000000E+00 -0.45593999997E+02  0.45594000000E+02  0.51100000000E-03 0. -1.
    9900012    2    1    2    0    0 -0.32305531849E+02  0.11710355188E+02 -0.29126172070E+02  0.46142315344E+02  0.99999779601E+01 0.  0.
        -12    1    1    2    0    0  0.32305531849E+02 -0.11710355188E+02  0.29126172070E+02  0.45045684656E+02  0.00000000000E+00 0.  1.
         11    1    3    3    0    0 -0.12349747784E+02  0.46946805105E+01 -0.11523537390E+02  0.17531349340E+02  0.51100000000E-03 0. -1.
        -11    1    3    3    0    0 -0.19494801668E+02  0.57020881477E+01 -0.13785601085E+02  0.24547991748E+02  0.51100000000E-03 0.  1.
        -12    1    3    3    0    0 -0.46098239615E+00  0.13135865295E+01 -0.38170335953E+01  0.40629742563E+01  0.00000000000E+00 0.  1.
</event>
<event>
 7    1  0.2031146E-008  0.4614232E+02  0.7816164E-02  0.1320468E+00
        -11   -1    0    0    0    0  0.00000000000E+00  0.00000000000E+00  0.45593999997E+02  0.45594000000E+02  0.51100000000E-03 0.  1.
         11   -1    0    0    0    0 -0.00000000000E+00 -0.00000000000E+00 -0.45593999997E+02  0.45594000000E+02  0.51100000000E-03 0. -1.
    9900012    2    1    2    0    0  0.87272276678E+01 -0.38648501540E+02 -0.21429939530E+02  0.46142317828E+02  0.10000000610E+02 0.  0.
        -12    1    1    2    0    0 -0.87272276678E+01  0.38648501540E+02  0.21429939530E+02  0.45045682172E+02  0.00000000000E+00 0.  1.
         11    1    3    3    0    0  0.35685677449E+01 -0.20931979002E+02 -0.16673771249E+02  0.26998093796E+02  0.51100000000E-03 0. -1.
        -11    1    3    3    0    0  0.11554961408E-01 -0.82839867492E+00  0.97327105841E-01  0.83417666498E+00  0.51100000000E-03 0.  1.
         12    1    3    3    0    0  0.51471049614E+01 -0.16888123864E+02 -0.48534953865E+01  0.18310047367E+02  0.00000000000E+00 0. -1.
</event>
<event>
 7    1  0.2031146E-008  0.4614232E+02  0.7816164E-02  0.1320468E+00
        -11   -1    0    0    0    0  0.00000000000E+00  0.00000000000E+00  0.45593999997E+02  0.45594000000E+02  0.51100000000E-03 0. -1.
         11   -1    0    0    0    0 -0.00000000000E+00 -0.00000000000E+00 -0.45593999997E+02  0.45594000000E+02  0.51100000000E-03 0.  1.
    9900012    2    1    2    0    0  0.25198091784E+01 -0.12939196872E+02  0.43073670225E+02  0.46142319623E+02  0.10000016979E+02 0.  0.
        -12    1    1    2    0    0 -0.25198091784E+01  0.12939196872E+02 -0.43073670225E+02  0.45045680377E+02  0.00000000000E+00 0.  1.
         11    1    3    3    0    0 -0.19459155000E+01 -0.29105289556E+01  0.16853797995E+02  0.17213607206E+02  0.51100000000E-03 0. -1.
        -11    1    3    3    0    0 -0.13430179231E-03 -0.60485643722E+01  0.10627543673E+02  0.12228238457E+02  0.51100000000E-03 0.  1.
         12    1    3    3    0    0  0.44658589803E+01 -0.39801035446E+01  0.15592328557E+02  0.16700473960E+02  0.00000000000E+00 0. -1.
</event>
<event>
 7    1  0.2031146E-008  0.4614232E+02  0.7816164E-02  0.1320468E+00
        -11   -1    0    0    0    0  0.00000000000E+00  0.00000000000E+00  0.45593999997E+02  0.45594000000E+02  0.51100000000E-03 0.  1.
         11   -1    0    0    0    0 -0.00000000000E+00 -0.00000000000E+00 -0.45593999997E+02  0.45594000000E+02  0.51100000000E-03 0. -1.
    9900012    2    1    2    0    0 -0.13460718932E+02 -0.34682299710E+02 -0.25398044622E+02  0.46142317210E+02  0.99999949772E+01 0.  0.
        -12    1    1    2    0    0  0.13460718932E+02  0.34682299710E+02  0.25398044622E+02  0.45045682790E+02  0.00000000000E+00 0.  1.
         11    1    3    3    0    0 -0.19483611610E+01 -0.26854394986E+01 -0.23890911846E+01  0.40884536763E+01  0.51100000000E-03 0. -1.
        -11    1    3    3    0    0 -0.68160421345E+01 -0.10672356901E+02 -0.45316715590E+01  0.13449672099E+02  0.51100000000E-03 0.  1.
        -12    1    3    3    0    0 -0.46963156370E+01 -0.21324503311E+02 -0.18477281879E+02  0.28604191435E+02  0.00000000000E+00 0.  1.
</event>
<event>
 7    1  0.2031146E-008  0.4614232E+02  0.7816164E-02  0.1320468E+00
        -11   -1    0    0    0    0  0.00000000000E+00  0.00000000000E+00  0.45593999997E+02  0.45594000000E+02  0.51100000000E-03 0.  1.
         11   -1    0    0    0    0 -0.00000000000E+00 -0.00000000000E+00 -0.45593999997E+02  0.45594000000E+02  0.51100000000E-03 0. -1.
    9900012    2    1    2    0    0  0.39845977173E+02  0.15145801693E+02 -0.14560773420E+02  0.46142319537E+02  0.10000016195E+02 0.  0.
        -12    1    1    2    0    0 -0.39845977173E+02 -0.15145801693E+02  0.14560773420E+02  0.45045680463E+02  0.00000000000E+00 0.  1.
         11    1    3    3    0    0  0.13526183676E+02  0.88364190979E+01 -0.46341580885E+01  0.16808193501E+02  0.51100000000E-03 0. -1.
        -11    1    3    3    0    0  0.80667696969E+01 -0.19515399026E+00 -0.43666454227E+01  0.91748815214E+01  0.51100000000E-03 0.  1.
        -12    1    3    3    0    0  0.18253023800E+02  0.65045365857E+01 -0.55599699091E+01  0.20159244515E+02  0.00000000000E+00 0.  1.
</event>
<event>
 7    1  0.2031146E-008  0.4614232E+02  0.7816164E-02  0.1320468E+00
        -11   -1    0    0    0    0  0.00000000000E+00  0.00000000000E+00  0.45593999997E+02  0.45594000000E+02  0.51100000000E-03 0.  1.
         11   -1    0    0    0    0 -0.00000000000E+00 -0.00000000000E+00 -0.45593999997E+02  0.45594000000E+02  0.51100000000E-03 0. -1.
    9900012    2    1    2    0    0  0.10354063051E+02  0.43810648204E+02  0.15918740255E+01  0.46142316737E+02  0.99999906583E+01 0.  0.
        -12    1    1    2    0    0 -0.10354063051E+02 -0.43810648204E+02 -0.15918740255E+01  0.45045683263E+02  0.00000000000E+00 0.  1.
         11    1    3    3    0    0  0.16154559499E+01  0.57219799023E+01  0.21782158330E+01  0.63320909978E+01  0.51100000000E-03 0. -1.
        -11    1    3    3    0    0  0.61229524769E+00  0.11573287720E+02 -0.30036552916E+01  0.11972378189E+02  0.51100000000E-03 0.  1.
         12    1    3    3    0    0  0.81263118530E+01  0.26515380582E+02  0.24173134841E+01  0.27837847550E+02  0.00000000000E+00 0. -1.
</event>
<event>
 7    1  0.2031146E-008  0.4614232E+02  0.7816164E-02  0.1320468E+00
        -11   -1    0    0    0    0  0.00000000000E+00  0.00000000000E+00  0.45593999997E+02  0.45594000000E+02  0.51100000000E-03 0.  1.
         11   -1    0    0    0    0 -0.00000000000E+00 -0.00000000000E+00 -0.45593999997E+02  0.45594000000E+02  0.51100000000E-03 0. -1.
    9900012    2    1    2    0    0  0.28298211646E+02 -0.30544473090E+02  0.17186036960E+02  0.46142317798E+02  0.10000000333E+02 0.  0.
        -12    1    1    2    0    0 -0.28298211646E+02  0.30544473090E+02 -0.17186036960E+02  0.45045682202E+02  0.00000000000E+00 0.  1.
         11    1    3    3    0    0  0.11789292709E+02 -0.16019048175E+02  0.85904110402E+01  0.21665467664E+02  0.51100000000E-03 0. -1.
        -11    1    3    3    0    0  0.45403346687E+01 -0.81168442618E+01  0.27770050717E+01  0.97061607809E+01  0.51100000000E-03 0.  1.
         12    1    3    3    0    0  0.11968584268E+02 -0.64085806527E+01  0.58186208483E+01  0.14770689353E+02  0.00000000000E+00 0. -1.
</event>
<event>
 7    1  0.2031146E-008  0.4614233E+02  0.7816164E-02  0.1320468E+00
        -11   -1    0    0    0    0  0.00000000000E+00  0.00000000000E+00  0.45593999997E+02  0.45594000000E+02  0.51100000000E-03 0. -1.
         11   -1    0    0    0    0 -0.00000000000E+00 -0.00000000000E+00 -0.45593999997E+02  0.45594000000E+02  0.51100000000E-03 0.  1.
    9900012    2    1    2    0    0  0.33267813263E+02  0.24211366165E+02  0.18335076434E+02  0.46142326748E+02  0.10000081949E+02 0.  0.
        -12    1    1    2    0    0 -0.33267813263E+02 -0.24211366165E+02 -0.18335076434E+02  0.45045673252E+02  0.00000000000E+00 0.  1.
         11    1    3    3    0    0  0.13231573009E+02  0.10655967604E+02  0.12794910106E+02  0.21268142720E+02  0.51100000000E-03 0. -1.
        -11    1    3    3    0    0  0.12737219468E+02  0.88922082156E+01  0.43474638622E+01  0.16130981650E+02  0.51100000000E-03 0.  1.
         12    1    3    3    0    0  0.72990207872E+01  0.46631903450E+01  0.11927024657E+01  0.87432023777E+01  0.00000000000E+00 0. -1.
</event>
<event>
 7    1  0.2031146E-008  0.4614232E+02  0.7816164E-02  0.1320468E+00
        -11   -1    0    0    0    0  0.00000000000E+00  0.00000000000E+00  0.45593999997E+02  0.45594000000E+02  0.51100000000E-03 0.  1.
         11   -1    0    0    0    0 -0.00000000000E+00 -0.00000000000E+00 -0.45593999997E+02  0.45594000000E+02  0.51100000000E-03 0. -1.
    9900012    2    1    2    0    0  0.40227013679E+02 -0.19841765669E+02 -0.41479169204E+01  0.46142317530E+02  0.99999978926E+01 0.  0.
        -12    1    1    2    0    0 -0.40227013679E+02  0.19841765669E+02  0.41479169204E+01  0.45045682470E+02  0.00000000000E+00 0.  1.
         11    1    3    3    0    0  0.47840248791E+01 -0.52746820233E+01 -0.17587384481E+01  0.73350068630E+01  0.51100000000E-03 0.  1.
        -11    1    3    3    0    0  0.27848604536E+02 -0.11968141676E+02 -0.41370754205E+01  0.30592426891E+02  0.51100000000E-03 0. -1.
         12    1    3    3    0    0  0.75943842639E+01 -0.25989419697E+01  0.17478969483E+01  0.82148837759E+01  0.00000000000E+00 0. -1.
</event>
<event>
 7    1  0.2031146E-008  0.4614232E+02  0.7816164E-02  0.1320468E+00
        -11   -1    0    0    0    0  0.00000000000E+00  0.00000000000E+00  0.45593999997E+02  0.45594000000E+02  0.51100000000E-03 0. -1.
         11   -1    0    0    0    0 -0.00000000000E+00 -0.00000000000E+00 -0.45593999997E+02  0.45594000000E+02  0.51100000000E-03 0.  1.
    9900012    2    1    2    0    0  0.27019865879E+02 -0.11718034517E+02  0.34084129054E+02  0.46142319425E+02  0.10000015175E+02 0.  0.
        -12    1    1    2    0    0 -0.27019865879E+02  0.11718034517E+02 -0.34084129054E+02  0.45045680575E+02  0.00000000000E+00 0.  1.
         11    1    3    3    0    0  0.27460932643E+02 -0.12021640244E+02  0.32100671094E+02  0.43921244754E+02  0.51100000000E-03 0. -1.
        -11    1    3    3    0    0  0.96148662085E-01  0.42391279880E+00  0.69231826376E+00  0.81746649208E+00  0.51100000000E-03 0.  1.
         12    1    3    3    0    0 -0.53721542600E+00 -0.12030707166E+00  0.12911396963E+01  0.14036081792E+01  0.00000000000E+00 0. -1.
</event>
<event>
 7    1  0.2031146E-008  0.4614232E+02  0.7816164E-02  0.1320468E+00
        -11   -1    0    0    0    0  0.00000000000E+00  0.00000000000E+00  0.45593999997E+02  0.45594000000E+02  0.51100000000E-03 0.  1.
         11   -1    0    0    0    0 -0.00000000000E+00 -0.00000000000E+00 -0.45593999997E+02  0.45594000000E+02  0.51100000000E-03 0. -1.
    9900012    2    1    2    0    0  0.41473776326E+02 -0.80000490075E+01 -0.15653707102E+02  0.46142318155E+02  0.10000003592E+02 0.  0.
        -12    1    1    2    0    0 -0.41473776326E+02  0.80000490075E+01  0.15653707102E+02  0.45045681845E+02  0.00000000000E+00 0.  1.
         11    1    3    3    0    0  0.14935529184E+02 -0.32836969211E+01 -0.52557360513E+01  0.16170202818E+02  0.51100000000E-03 0.  1.
        -11    1    3    3    0    0  0.12166422219E+02 -0.40365004461E+00 -0.88400691839E+00  0.12205172324E+02  0.51100000000E-03 0. -1.
         12    1    3    3    0    0  0.14371824923E+02 -0.43127020418E+01 -0.95139641319E+01  0.17766943013E+02  0.00000000000E+00 0. -1.
</event>
<event>
 7    1  0.2031146E-008  0.4614232E+02  0.7816164E-02  0.1320468E+00
        -11   -1    0    0    0    0  0.00000000000E+00  0.00000000000E+00  0.45593999997E+02  0.45594000000E+02  0.51100000000E-03 0.  1.
         11   -1    0    0    0    0 -0.00000000000E+00 -0.00000000000E+00 -0.45593999997E+02  0.45594000000E+02  0.51100000000E-03 0. -1.
    9900012    2    1    2    0    0  0.23134202020E+02  0.31594456186E+02 -0.22264597377E+02  0.46142320283E+02  0.10000023000E+02 0.  0.
        -12    1    1    2    0    0 -0.23134202020E+02 -0.31594456186E+02  0.22264597377E+02  0.45045679717E+02  0.00000000000E+00 0.  1.
         11    1    3    3    0    0  0.47229414172E+01  0.79152225257E+01 -0.37793464973E+01  0.99619467710E+01  0.51100000000E-03 0. -1.
        -11    1    3    3    0    0  0.29026048114E+01  0.98554825859E+01 -0.51398457114E+01  0.11487979191E+02  0.51100000000E-03 0.  1.
         12    1    3    3    0    0  0.15508655792E+02  0.13823751074E+02 -0.13345405168E+02  0.24692394321E+02  0.00000000000E+00 0. -1.
</event>
<event>
 7    1  0.2031146E-008  0.4614232E+02  0.7816164E-02  0.1320468E+00
        -11   -1    0    0    0    0  0.00000000000E+00  0.00000000000E+00  0.45593999997E+02  0.45594000000E+02  0.51100000000E-03 0. -1.
         11   -1    0    0    0    0 -0.00000000000E+00 -0.00000000000E+00 -0.45593999997E+02  0.45594000000E+02  0.51100000000E-03 0.  1.
    9900012    2    1    2    0    0  0.10331783465E+02 -0.20922687742E+02  0.38530622569E+02  0.46142317771E+02  0.10000000089E+02 0.  0.
        -12    1    1    2    0    0 -0.10331783465E+02  0.20922687742E+02 -0.38530622569E+02  0.45045682229E+02  0.00000000000E+00 0.  1.
         11    1    3    3    0    0  0.13089117485E+01 -0.86103973779E+01  0.18078897389E+02  0.20067354685E+02  0.51100000000E-03 0.  1.
        -11    1    3    3    0    0  0.71433753579E+01 -0.10558883075E+02  0.19572998845E+02  0.23358512524E+02  0.51100000000E-03 0. -1.
        -12    1    3    3    0    0  0.18794963586E+01 -0.17534072894E+01  0.87872633495E+00  0.27164505621E+01  0.00000000000E+00 0.  1.
</event>
<event>
 7    1  0.2031146E-008  0.4614232E+02  0.7816164E-02  0.1320468E+00
        -11   -1    0    0    0    0  0.00000000000E+00  0.00000000000E+00  0.45593999997E+02  0.45594000000E+02  0.51100000000E-03 0.  1.
         11   -1    0    0    0    0 -0.00000000000E+00 -0.00000000000E+00 -0.45593999997E+02  0.45594000000E+02  0.51100000000E-03 0. -1.
    9900012    2    1    2    0    0  0.28196485762E+02 -0.32696243157E+02 -0.12846302481E+02  0.46142316374E+02  0.99999873517E+01 0.  0.
        -12    1    1    2    0    0 -0.28196485762E+02  0.32696243157E+02  0.12846302481E+02  0.45045683626E+02  0.00000000000E+00 0.  1.
         11    1    3    3    0    0  0.10118544977E+02 -0.90773957095E+01 -0.35799754516E+01  0.14057037021E+02  0.51100000000E-03 0. -1.
        -11    1    3    3    0    0  0.10723570232E+02 -0.12691067304E+02 -0.90317637262E+01  0.18911131751E+02  0.51100000000E-03 0.  1.
        -12    1    3    3    0    0  0.73543705525E+01 -0.10927780144E+02 -0.23456330286E+00  0.13174147602E+02  0.00000000000E+00 0.  1.
</event>
<event>
 7    1  0.2031146E-008  0.4614232E+02  0.7816164E-02  0.1320468E+00
        -11   -1    0    0    0    0  0.00000000000E+00  0.00000000000E+00  0.45593999997E+02  0.45594000000E+02  0.51100000000E-03 0.  1.
         11   -1    0    0    0    0 -0.00000000000E+00 -0.00000000000E+00 -0.45593999997E+02  0.45594000000E+02  0.51100000000E-03 0. -1.
    9900012    2    1    2    0    0  0.13746247326E+02  0.22338665533E+02 -0.36621554126E+02  0.46142317411E+02  0.99999968069E+01 0.  0.
        -12    1    1    2    0    0 -0.13746247326E+02 -0.22338665533E+02  0.36621554126E+02  0.45045682589E+02  0.00000000000E+00 0.  1.
         11    1    3    3    0    0  0.20994293587E+01  0.54111987833E+01 -0.60789178302E+01  0.84048746661E+01  0.51100000000E-03 0. -1.
        -11    1    3    3    0    0  0.12947136380E+02  0.15325539079E+02 -0.27000133861E+02  0.33637891094E+02  0.51100000000E-03 0.  1.
        -12    1    3    3    0    0 -0.13003184129E+01  0.16019276707E+01 -0.35425024346E+01  0.40995516507E+01  0.00000000000E+00 0.  1.
</event>
<event>
 7    1  0.2031146E-008  0.4614232E+02  0.7816164E-02  0.1320468E+00
        -11   -1    0    0    0    0  0.00000000000E+00  0.00000000000E+00  0.45593999997E+02  0.45594000000E+02  0.51100000000E-03 0.  1.
         11   -1    0    0    0    0 -0.00000000000E+00 -0.00000000000E+00 -0.45593999997E+02  0.45594000000E+02  0.51100000000E-03 0. -1.
    9900012    2    1    2    0    0  0.10251769138E+02  0.41007094687E+02 -0.15570263799E+02  0.46142315413E+02  0.99999785861E+01 0.  0.
        -12    1    1    2    0    0 -0.10251769138E+02 -0.41007094687E+02  0.15570263799E+02  0.45045684587E+02  0.00000000000E+00 0.  1.
         11    1    3    3    0    0  0.16384563268E+01  0.51349404436E+01 -0.11416125230E+01  0.55095763819E+01  0.51100000000E-03 0. -1.
        -11    1    3    3    0    0 -0.13514175618E+01  0.10525483525E+02 -0.25146206185E+01  0.10905753068E+02  0.51100000000E-03 0.  1.
        -12    1    3    3    0    0  0.99647303731E+01  0.25346670719E+02 -0.11914030658E+02  0.29726985963E+02  0.00000000000E+00 0.  1.
</event>
<event>
 7    1  0.2031146E-008  0.4614232E+02  0.7816164E-02  0.1320468E+00
        -11   -1    0    0    0    0  0.00000000000E+00  0.00000000000E+00  0.45593999997E+02  0.45594000000E+02  0.51100000000E-03 0.  1.
         11   -1    0    0    0    0 -0.00000000000E+00 -0.00000000000E+00 -0.45593999997E+02  0.45594000000E+02  0.51100000000E-03 0. -1.
    9900012    2    1    2    0    0 -0.39614292637E+02 -0.19136769061E+02 -0.96749889562E+01  0.46142317382E+02  0.99999965442E+01 0.  0.
        -12    1    1    2    0    0  0.39614292637E+02  0.19136769061E+02  0.96749889562E+01  0.45045682618E+02  0.00000000000E+00 0.  1.
         11    1    3    3    0    0 -0.67979834265E+01 -0.59408624509E+01  0.11272914696E+01  0.90981982637E+01  0.51100000000E-03 0.  1.
        -11    1    3    3    0    0 -0.13586526299E+02 -0.49407084874E+01 -0.34463509373E+01  0.14862087077E+02  0.51100000000E-03 0. -1.
        -12    1    3    3    0    0 -0.19229782912E+02 -0.82551981226E+01 -0.73559294885E+01  0.22182032042E+02  0.00000000000E+00 0.  1.
</event>
<event>
 7    1  0.2031146E-008  0.4614232E+02  0.7816164E-02  0.1320468E+00
        -11   -1    0    0    0    0  0.00000000000E+00  0.00000000000E+00  0.45593999997E+02  0.45594000000E+02  0.51100000000E-03 0.  1.
         11   -1    0    0    0    0 -0.00000000000E+00 -0.00000000000E+00 -0.45593999997E+02  0.45594000000E+02  0.51100000000E-03 0. -1.
    9900012    2    1    2    0    0  0.30459852399E+02  0.25458712646E+02 -0.21287668707E+02  0.46142317668E+02  0.99999991499E+01 0.  0.
        -12    1    1    2    0    0 -0.30459852399E+02 -0.25458712646E+02  0.21287668707E+02  0.45045682332E+02  0.00000000000E+00 0.  1.
         11    1    3    3    0    0  0.16229278820E+02  0.15323403744E+02 -0.10039156107E+02  0.24474085252E+02  0.51100000000E-03 0. -1.
        -11    1    3    3    0    0  0.72871233283E+01  0.29161590708E+01 -0.21541710599E+01  0.81392016405E+01  0.51100000000E-03 0.  1.
         12    1    3    3    0    0  0.69434502511E+01  0.72191498316E+01 -0.90943415400E+01  0.13529030776E+02  0.00000000000E+00 0. -1.
</event>
<event>
 7    1  0.2031146E-008  0.4614232E+02  0.7816164E-02  0.1320468E+00
        -11   -1    0    0    0    0  0.00000000000E+00  0.00000000000E+00  0.45593999997E+02  0.45594000000E+02  0.51100000000E-03 0.  1.
         11   -1    0    0    0    0 -0.00000000000E+00 -0.00000000000E+00 -0.45593999997E+02  0.45594000000E+02  0.51100000000E-03 0. -1.
    9900012    2    1    2    0    0 -0.28595810702E+02  0.11099261748E+02 -0.32987867009E+02  0.46142319066E+02  0.10000011897E+02 0.  0.
        -12    1    1    2    0    0  0.28595810702E+02 -0.11099261748E+02  0.32987867009E+02  0.45045680934E+02  0.00000000000E+00 0.  1.
         11    1    3    3    0    0 -0.43448587176E+01  0.41112005917E+01 -0.33962621584E+01  0.68785437769E+01  0.51100000000E-03 0. -1.
        -11    1    3    3    0    0 -0.46693465428E+01  0.31678934672E+01 -0.87564738710E+01  0.10417014019E+02  0.51100000000E-03 0.  1.
         12    1    3    3    0    0 -0.19581605441E+02  0.38201676892E+01 -0.20835130979E+02  0.28846761270E+02  0.00000000000E+00 0. -1.
</event>
<event>
 7    1  0.2031146E-008  0.4614231E+02  0.7816164E-02  0.1320468E+00
        -11   -1    0    0    0    0  0.00000000000E+00  0.00000000000E+00  0.45593999997E+02  0.45594000000E+02  0.51100000000E-03 0.  1.
         11   -1    0    0    0    0 -0.00000000000E+00 -0.00000000000E+00 -0.45593999997E+02  0.45594000000E+02  0.51100000000E-03 0. -1.
    9900012    2    1    2    0    0  0.63494017248E+01  0.40362082119E+02 -0.18965810448E+02  0.46142306075E+02  0.99998934343E+01 0.  0.
        -12    1    1    2    0    0 -0.63494017248E+01 -0.40362082119E+02  0.18965810448E+02  0.45045693925E+02  0.00000000000E+00 0.  1.
         11    1    3    3    0    0  0.25222665706E+01  0.41584601602E+01 -0.27861425307E+00  0.48715752811E+01  0.51100000000E-03 0. -1.
        -11    1    3    3    0    0 -0.77774049372E+00  0.17816758319E+02 -0.85996118068E+01  0.19798865644E+02  0.51100000000E-03 0.  1.
         12    1    3    3    0    0  0.46048756479E+01  0.18386863640E+02 -0.10087584388E+02  0.21471865150E+02  0.00000000000E+00 0. -1.
</event>
<event>
 7    1  0.2031146E-008  0.4614232E+02  0.7816164E-02  0.1320468E+00
        -11   -1    0    0    0    0  0.00000000000E+00  0.00000000000E+00  0.45593999997E+02  0.45594000000E+02  0.51100000000E-03 0.  1.
         11   -1    0    0    0    0 -0.00000000000E+00 -0.00000000000E+00 -0.45593999997E+02  0.45594000000E+02  0.51100000000E-03 0. -1.
    9900012    2    1    2    0    0  0.24035095968E+02 -0.32922315459E+02 -0.19171561666E+02  0.46142317964E+02  0.10000001854E+02 0.  0.
        -12    1    1    2    0    0 -0.24035095968E+02  0.32922315459E+02  0.19171561666E+02  0.45045682036E+02  0.00000000000E+00 0.  1.
         11    1    3    3    0    0  0.14174832775E+01 -0.16376955933E+01  0.59362075322E+00  0.22458164569E+01  0.51100000000E-03 0. -1.
        -11    1    3    3    0    0  0.52965648572E+01 -0.61750106423E+01 -0.73452913697E+01  0.10960732698E+02  0.51100000000E-03 0.  1.
         12    1    3    3    0    0  0.17321047833E+02 -0.25109609223E+02 -0.12419891049E+02  0.32935768809E+02  0.00000000000E+00 0. -1.
</event>
<event>
 7    1  0.2031146E-008  0.4614232E+02  0.7816164E-02  0.1320468E+00
        -11   -1    0    0    0    0  0.00000000000E+00  0.00000000000E+00  0.45593999997E+02  0.45594000000E+02  0.51100000000E-03 0.  1.
         11   -1    0    0    0    0 -0.00000000000E+00 -0.00000000000E+00 -0.45593999997E+02  0.45594000000E+02  0.51100000000E-03 0. -1.
    9900012    2    1    2    0    0 -0.43896295044E+02 -0.41127966871E+01 -0.92365446045E+01  0.46142316839E+02  0.99999915909E+01 0.  0.
        -12    1    1    2    0    0  0.43896295044E+02  0.41127966871E+01  0.92365446045E+01  0.45045683161E+02  0.00000000000E+00 0.  1.
         11    1    3    3    0    0  0.12854060123E+00 -0.89920945812E-01  0.22184252052E+00  0.27170356584E+00  0.51100000000E-03 0. -1.
        -11    1    3    3    0    0 -0.23762585197E+01 -0.21302770682E+01 -0.56232002462E+00  0.32405075237E+01  0.51100000000E-03 0.  1.
         12    1    3    3    0    0 -0.41648577126E+02 -0.18925986731E+01 -0.88960671004E+01  0.42630105749E+02  0.00000000000E+00 0. -1.
</event>
<event>
 7    1  0.2031146E-008  0.4614232E+02  0.7816164E-02  0.1320468E+00
        -11   -1    0    0    0    0  0.00000000000E+00  0.00000000000E+00  0.45593999997E+02  0.45594000000E+02  0.51100000000E-03 0. -1.
         11   -1    0    0    0    0 -0.00000000000E+00 -0.00000000000E+00 -0.45593999997E+02  0.45594000000E+02  0.51100000000E-03 0.  1.
    9900012    2    1    2    0    0 -0.27951784468E+02  0.30142772092E+02  0.18418048131E+02  0.46142318061E+02  0.10000002737E+02 0.  0.
        -12    1    1    2    0    0  0.27951784468E+02 -0.30142772092E+02 -0.18418048131E+02  0.45045681939E+02  0.00000000000E+00 0.  1.
         11    1    3    3    0    0 -0.46143949289E+01  0.50507593098E+01  0.18066996684E+01  0.70758020123E+01  0.51100000000E-03 0. -1.
        -11    1    3    3    0    0 -0.47957288868E+01  0.65588027532E+01  0.18041620445E+00  0.81270818489E+01  0.51100000000E-03 0.  1.
         12    1    3    3    0    0 -0.18541660652E+02  0.18533210029E+02  0.16430932258E+02  0.30939434200E+02  0.00000000000E+00 0. -1.
</event>
<event>
 7    1  0.2031146E-008  0.4614232E+02  0.7816164E-02  0.1320468E+00
        -11   -1    0    0    0    0  0.00000000000E+00  0.00000000000E+00  0.45593999997E+02  0.45594000000E+02  0.51100000000E-03 0.  1.
         11   -1    0    0    0    0 -0.00000000000E+00 -0.00000000000E+00 -0.45593999997E+02  0.45594000000E+02  0.51100000000E-03 0. -1.
    9900012    2    1    2    0    0 -0.30433364937E+02 -0.32828623071E+02  0.50204871106E+01  0.46142317799E+02  0.10000000342E+02 0.  0.
        -12    1    1    2    0    0  0.30433364937E+02  0.32828623071E+02 -0.50204871106E+01  0.45045682201E+02  0.00000000000E+00 0.  1.
         11    1    3    3    0    0 -0.46477080870E+01 -0.41487899014E+01  0.19501197851E+01  0.65281402823E+01  0.51100000000E-03 0. -1.
        -11    1    3    3    0    0 -0.14360078797E+02 -0.11430529338E+02  0.44245304097E+01  0.18879759893E+02  0.51100000000E-03 0.  1.
         12    1    3    3    0    0 -0.11425578053E+02 -0.17249303832E+02 -0.13541630842E+01  0.20734417624E+02  0.00000000000E+00 0. -1.
</event>
<event>
 7    1  0.2031146E-008  0.4614232E+02  0.7816164E-02  0.1320468E+00
        -11   -1    0    0    0    0  0.00000000000E+00  0.00000000000E+00  0.45593999997E+02  0.45594000000E+02  0.51100000000E-03 0. -1.
         11   -1    0    0    0    0 -0.00000000000E+00 -0.00000000000E+00 -0.45593999997E+02  0.45594000000E+02  0.51100000000E-03 0.  1.
    9900012    2    1    2    0    0  0.86763753008E+01 -0.44176982447E+02  0.14927127619E+01  0.46142318100E+02  0.10000003088E+02 0.  0.
        -12    1    1    2    0    0 -0.86763753008E+01  0.44176982447E+02 -0.14927127619E+01  0.45045681900E+02  0.00000000000E+00 0.  1.
         11    1    3    3    0    0  0.28523171943E+00 -0.18441945309E+02  0.19734938323E+01  0.18549430775E+02  0.51100000000E-03 0. -1.
        -11    1    3    3    0    0  0.17653056624E+01 -0.10352315325E+02 -0.22834448380E+01  0.10747132514E+02  0.51100000000E-03 0.  1.
        -12    1    3    3    0    0  0.66258379189E+01 -0.15382721812E+02  0.18026637676E+01  0.16845754811E+02  0.00000000000E+00 0.  1.
</event>
<event>
 7    1  0.2031146E-008  0.4614232E+02  0.7816164E-02  0.1320468E+00
        -11   -1    0    0    0    0  0.00000000000E+00  0.00000000000E+00  0.45593999997E+02  0.45594000000E+02  0.51100000000E-03 0.  1.
         11   -1    0    0    0    0 -0.00000000000E+00 -0.00000000000E+00 -0.45593999997E+02  0.45594000000E+02  0.51100000000E-03 0. -1.
    9900012    2    1    2    0    0 -0.49115641627E+01  0.13681751103E+02 -0.42635661373E+02  0.46142318781E+02  0.10000009296E+02 0.  0.
        -12    1    1    2    0    0  0.49115641627E+01 -0.13681751103E+02  0.42635661373E+02  0.45045681219E+02  0.00000000000E+00 0.  1.
         11    1    3    3    0    0 -0.47482450282E+01  0.39977261139E+01 -0.87963107496E+01  0.10765812928E+02  0.51100000000E-03 0. -1.
        -11    1    3    3    0    0 -0.18381685817E+01  0.47434466469E+01 -0.15893723390E+02  0.16688007469E+02  0.51100000000E-03 0.  1.
        -12    1    3    3    0    0  0.16748494471E+01  0.49405783426E+01 -0.17945627234E+02  0.18688498384E+02  0.00000000000E+00 0.  1.
</event>
<event>
 7    1  0.2031146E-008  0.4614232E+02  0.7816164E-02  0.1320468E+00
        -11   -1    0    0    0    0  0.00000000000E+00  0.00000000000E+00  0.45593999997E+02  0.45594000000E+02  0.51100000000E-03 0.  1.
         11   -1    0    0    0    0 -0.00000000000E+00 -0.00000000000E+00 -0.45593999997E+02  0.45594000000E+02  0.51100000000E-03 0. -1.
    9900012    2    1    2    0    0  0.44127963872E+01 -0.68819118832E+00 -0.44823733914E+02  0.46142317620E+02  0.99999987132E+01 0.  0.
        -12    1    1    2    0    0 -0.44127963872E+01  0.68819118832E+00  0.44823733914E+02  0.45045682380E+02  0.00000000000E+00 0.  1.
         11    1    3    3    0    0 -0.27162190589E+00  0.16161312748E+01 -0.30268237615E+01  0.34419937684E+01  0.51100000000E-03 0.  1.
        -11    1    3    3    0    0  0.93555955715E+00  0.24821827003E+01 -0.12071012348E+02  0.12359038879E+02  0.51100000000E-03 0. -1.
        -12    1    3    3    0    0  0.37488587360E+01 -0.47865051634E+01 -0.29725897804E+02  0.30341284972E+02  0.00000000000E+00 0.  1.
</event>
<event>
 7    1  0.2031146E-008  0.4614232E+02  0.7816164E-02  0.1320468E+00
        -11   -1    0    0    0    0  0.00000000000E+00  0.00000000000E+00  0.45593999997E+02  0.45594000000E+02  0.51100000000E-03 0. -1.
         11   -1    0    0    0    0 -0.00000000000E+00 -0.00000000000E+00 -0.45593999997E+02  0.45594000000E+02  0.51100000000E-03 0.  1.
    9900012    2    1    2    0    0 -0.72068946971E+01  0.38824108714E+02 -0.21676315473E+02  0.46142318730E+02  0.10000008835E+02 0.  0.
        -12    1    1    2    0    0  0.72068946971E+01 -0.38824108714E+02  0.21676315473E+02  0.45045681270E+02  0.00000000000E+00 0.  1.
         11    1    3    3    0    0 -0.37654163332E+01  0.87714253752E+01 -0.55169750881E+01  0.11025120301E+02  0.51100000000E-03 0. -1.
        -11    1    3    3    0    0 -0.36741430184E+01  0.10812692794E+02 -0.30035155465E+01  0.11808249585E+02  0.51100000000E-03 0.  1.
         12    1    3    3    0    0  0.23266465440E+00  0.19239990545E+02 -0.13155824838E+02  0.23308948843E+02  0.00000000000E+00 0. -1.
</event>
<event>
 7    1  0.2031146E-008  0.4614232E+02  0.7816164E-02  0.1320468E+00
        -11   -1    0    0    0    0  0.00000000000E+00  0.00000000000E+00  0.45593999997E+02  0.45594000000E+02  0.51100000000E-03 0.  1.
         11   -1    0    0    0    0 -0.00000000000E+00 -0.00000000000E+00 -0.45593999997E+02  0.45594000000E+02  0.51100000000E-03 0. -1.
    9900012    2    1    2    0    0  0.24513740332E+02  0.60142215177E+01 -0.37309771485E+02  0.46142319033E+02  0.10000011596E+02 0.  0.
        -12    1    1    2    0    0 -0.24513740332E+02 -0.60142215177E+01  0.37309771485E+02  0.45045680967E+02  0.00000000000E+00 0.  1.
         11    1    3    3    0    0  0.93624055175E+01  0.34314232730E+01 -0.11087956458E+02  0.14912145433E+02  0.51100000000E-03 0. -1.
        -11    1    3    3    0    0  0.33892249054E+01  0.68673057998E+00 -0.14646798323E+01  0.37554935256E+01  0.51100000000E-03 0.  1.
         12    1    3    3    0    0  0.11762109910E+02  0.18960676647E+01 -0.24757135195E+02  0.27474680074E+02  0.00000000000E+00 0. -1.
</event>
<event>
 7    1  0.2031146E-008  0.4614232E+02  0.7816164E-02  0.1320468E+00
        -11   -1    0    0    0    0  0.00000000000E+00  0.00000000000E+00  0.45593999997E+02  0.45594000000E+02  0.51100000000E-03 0.  1.
         11   -1    0    0    0    0 -0.00000000000E+00 -0.00000000000E+00 -0.45593999997E+02  0.45594000000E+02  0.51100000000E-03 0. -1.
    9900012    2    1    2    0    0  0.36505915694E+02  0.22786905691E+02 -0.13311218190E+02  0.46142317839E+02  0.10000000715E+02 0.  0.
        -12    1    1    2    0    0 -0.36505915694E+02 -0.22786905691E+02  0.13311218190E+02  0.45045682161E+02  0.00000000000E+00 0.  1.
         11    1    3    3    0    0  0.97032209810E+01  0.57346096250E+01  0.76781124534E-01  0.11271385920E+02  0.51100000000E-03 0. -1.
        -11    1    3    3    0    0  0.10326172936E+02  0.46846976951E+01 -0.26757992956E+01  0.11650585484E+02  0.51100000000E-03 0.  1.
        -12    1    3    3    0    0  0.16476521777E+02  0.12367598371E+02 -0.10712200019E+02  0.23220346435E+02  0.00000000000E+00 0.  1.
</event>
<event>
 7    1  0.2031146E-008  0.4614232E+02  0.7816164E-02  0.1320468E+00
        -11   -1    0    0    0    0  0.00000000000E+00  0.00000000000E+00  0.45593999997E+02  0.45594000000E+02  0.51100000000E-03 0.  1.
         11   -1    0    0    0    0 -0.00000000000E+00 -0.00000000000E+00 -0.45593999997E+02  0.45594000000E+02  0.51100000000E-03 0. -1.
    9900012    2    1    2    0    0  0.37843220297E+02  0.18711559785E+02 -0.15712455634E+02  0.46142322582E+02  0.10000043956E+02 0.  0.
        -12    1    1    2    0    0 -0.37843220297E+02 -0.18711559785E+02  0.15712455634E+02  0.45045677418E+02  0.00000000000E+00 0.  1.
         11    1    3    3    0    0  0.22714010481E+02  0.12740698188E+02 -0.10934276820E+02  0.28245531900E+02  0.51100000000E-03 0. -1.
        -11    1    3    3    0    0  0.10089431028E+02  0.13209333752E+01 -0.42233642276E+01  0.11017181541E+02  0.51100000000E-03 0.  1.
        -12    1    3    3    0    0  0.50397787875E+01  0.46499282224E+01 -0.55481458571E+00  0.68796091404E+01  0.00000000000E+00 0.  1.
</event>
<event>
 7    1  0.2031146E-008  0.4614232E+02  0.7816164E-02  0.1320468E+00
        -11   -1    0    0    0    0  0.00000000000E+00  0.00000000000E+00  0.45593999997E+02  0.45594000000E+02  0.51100000000E-03 0.  1.
         11   -1    0    0    0    0 -0.00000000000E+00 -0.00000000000E+00 -0.45593999997E+02  0.45594000000E+02  0.51100000000E-03 0. -1.
    9900012    2    1    2    0    0 -0.17856260383E+02 -0.36150742545E+02 -0.20084604195E+02  0.46142317110E+02  0.99999940624E+01 0.  0.
        -12    1    1    2    0    0  0.17856260383E+02  0.36150742545E+02  0.20084604195E+02  0.45045682890E+02  0.00000000000E+00 0.  1.
         11    1    3    3    0    0 -0.47010769201E+00 -0.23452118831E+01 -0.19066614032E+01  0.30588197047E+01  0.51100000000E-03 0.  1.
        -11    1    3    3    0    0 -0.11428917096E+02 -0.14749848664E+02 -0.11996957155E+02  0.22183443440E+02  0.51100000000E-03 0. -1.
         12    1    3    3    0    0 -0.59572355942E+01 -0.19055681998E+02 -0.61809856363E+01  0.20900053966E+02  0.00000000000E+00 0. -1.
</event>
<event>
 7    1  0.2031146E-008  0.4614232E+02  0.7816164E-02  0.1320468E+00
        -11   -1    0    0    0    0  0.00000000000E+00  0.00000000000E+00  0.45593999997E+02  0.45594000000E+02  0.51100000000E-03 0. -1.
         11   -1    0    0    0    0 -0.00000000000E+00 -0.00000000000E+00 -0.45593999997E+02  0.45594000000E+02  0.51100000000E-03 0.  1.
    9900012    2    1    2    0    0  0.41770164648E+02  0.32520303523E+01  0.16546638818E+02  0.46142316385E+02  0.99999874546E+01 0.  0.
        -12    1    1    2    0    0 -0.41770164648E+02 -0.32520303523E+01 -0.16546638818E+02  0.45045683615E+02  0.00000000000E+00 0.  1.
         11    1    3    3    0    0  0.16362514505E+02 -0.26804888484E+01  0.75275001199E+01  0.18209342649E+02  0.51100000000E-03 0. -1.
        -11    1    3    3    0    0  0.25445867582E+01  0.11146260661E+01 -0.26547771853E+00  0.27906615197E+01  0.51100000000E-03 0.  1.
        -12    1    3    3    0    0  0.22863063385E+02  0.48178931345E+01  0.92846164166E+01  0.25142312216E+02  0.00000000000E+00 0.  1.
</event>
<event>
 7    1  0.2031146E-008  0.4614232E+02  0.7816164E-02  0.1320468E+00
        -11   -1    0    0    0    0  0.00000000000E+00  0.00000000000E+00  0.45593999997E+02  0.45594000000E+02  0.51100000000E-03 0.  1.
         11   -1    0    0    0    0 -0.00000000000E+00 -0.00000000000E+00 -0.45593999997E+02  0.45594000000E+02  0.51100000000E-03 0. -1.
    9900012    2    1    2    0    0  0.64844987244E+00 -0.30658967192E+02 -0.32995765978E+02  0.46142319530E+02  0.10000016133E+02 0.  0.
        -12    1    1    2    0    0 -0.64844987244E+00  0.30658967192E+02  0.32995765978E+02  0.45045680470E+02  0.00000000000E+00 0.  1.
         11    1    3    3    0    0 -0.10433276181E+01 -0.74865605862E+01 -0.99569108249E+01  0.12501087767E+02  0.51100000000E-03 0.  1.
        -11    1    3    3    0    0  0.31042790214E+00 -0.20759960581E+02 -0.22821574136E+02  0.30852821185E+02  0.51100000000E-03 0. -1.
        -12    1    3    3    0    0  0.13813495884E+01 -0.24124460250E+01 -0.21728101713E+00  0.27884105777E+01  0.00000000000E+00 0.  1.
</event>
<event>
 7    1  0.2031146E-008  0.4614232E+02  0.7816164E-02  0.1320468E+00
        -11   -1    0    0    0    0  0.00000000000E+00  0.00000000000E+00  0.45593999997E+02  0.45594000000E+02  0.51100000000E-03 0. -1.
         11   -1    0    0    0    0 -0.00000000000E+00 -0.00000000000E+00 -0.45593999997E+02  0.45594000000E+02  0.51100000000E-03 0.  1.
    9900012    2    1    2    0    0  0.14632193519E+02  0.38516095736E+02  0.18207767158E+02  0.46142317601E+02  0.99999985392E+01 0.  0.
        -12    1    1    2    0    0 -0.14632193519E+02 -0.38516095736E+02 -0.18207767158E+02  0.45045682399E+02  0.00000000000E+00 0.  1.
         11    1    3    3    0    0  0.74368932575E+01  0.21711001424E+02  0.12594932853E+02  0.26178374624E+02  0.51100000000E-03 0. -1.
        -11    1    3    3    0    0  0.22636442867E+01  0.13136323562E+01  0.20403493247E+01  0.33185450203E+01  0.51100000000E-03 0.  1.
         12    1    3    3    0    0  0.49316559745E+01  0.15491461956E+02  0.35724849808E+01  0.16645397956E+02  0.00000000000E+00 0. -1.
</event>
<event>
 7    1  0.2031146E-008  0.4614232E+02  0.7816164E-02  0.1320468E+00
        -11   -1    0    0    0    0  0.00000000000E+00  0.00000000000E+00  0.45593999997E+02  0.45594000000E+02  0.51100000000E-03 0.  1.
         11   -1    0    0    0    0 -0.00000000000E+00 -0.00000000000E+00 -0.45593999997E+02  0.45594000000E+02  0.51100000000E-03 0. -1.
    9900012    2    1    2    0    0  0.12332414943E+02 -0.54255950981E+01 -0.42983576930E+02  0.46142318451E+02  0.10000006290E+02 0.  0.
        -12    1    1    2    0    0 -0.12332414943E+02  0.54255950981E+01  0.42983576930E+02  0.45045681549E+02  0.00000000000E+00 0.  1.
         11    1    3    3    0    0  0.33867856162E+01 -0.48196165787E+01 -0.18652710310E+02  0.19560741881E+02  0.51100000000E-03 0. -1.
        -11    1    3    3    0    0 -0.37255225317E+00  0.16525826949E+00  0.10253520123E+00  0.42026087801E+00  0.51100000000E-03 0.  1.
         12    1    3    3    0    0  0.93181815801E+01 -0.77123678889E+00 -0.24433401822E+02  0.26161315692E+02  0.00000000000E+00 0. -1.
</event>
<event>
 7    1  0.2031146E-008  0.4614232E+02  0.7816164E-02  0.1320468E+00
        -11   -1    0    0    0    0  0.00000000000E+00  0.00000000000E+00  0.45593999997E+02  0.45594000000E+02  0.51100000000E-03 0.  1.
         11   -1    0    0    0    0 -0.00000000000E+00 -0.00000000000E+00 -0.45593999997E+02  0.45594000000E+02  0.51100000000E-03 0. -1.
    9900012    2    1    2    0    0  0.70141694917E+01 -0.42684223050E+02 -0.12568688959E+02  0.46142318596E+02  0.10000007610E+02 0.  0.
        -12    1    1    2    0    0 -0.70141694917E+01  0.42684223050E+02  0.12568688959E+02  0.45045681404E+02  0.00000000000E+00 0.  1.
         11    1    3    3    0    0 -0.57728061081E+00 -0.14239312559E+02 -0.17796458028E+01  0.14361699569E+02  0.51100000000E-03 0. -1.
        -11    1    3    3    0    0  0.42982265426E+01 -0.85041171189E+01 -0.49796827967E+01  0.10751372024E+02  0.51100000000E-03 0.  1.
        -12    1    3    3    0    0  0.32932235600E+01 -0.19940793372E+02 -0.58093603596E+01  0.21029247003E+02  0.00000000000E+00 0.  1.
</event>
<event>
 7    1  0.2031146E-008  0.4614232E+02  0.7816164E-02  0.1320468E+00
        -11   -1    0    0    0    0  0.00000000000E+00  0.00000000000E+00  0.45593999997E+02  0.45594000000E+02  0.51100000000E-03 0.  1.
         11   -1    0    0    0    0 -0.00000000000E+00 -0.00000000000E+00 -0.45593999997E+02  0.45594000000E+02  0.51100000000E-03 0. -1.
    9900012    2    1    2    0    0 -0.17994111727E+02 -0.20219584346E+02 -0.36006855126E+02  0.46142320251E+02  0.10000022708E+02 0.  0.
        -12    1    1    2    0    0  0.17994111727E+02  0.20219584346E+02  0.36006855126E+02  0.45045679749E+02  0.00000000000E+00 0.  1.
         11    1    3    3    0    0 -0.68912102510E+00 -0.50048445685E+01 -0.57681713223E+01  0.76678000500E+01  0.51100000000E-03 0. -1.
        -11    1    3    3    0    0 -0.95438833374E+01 -0.11796387576E+02 -0.17387909297E+02  0.23077691804E+02  0.51100000000E-03 0.  1.
        -12    1    3    3    0    0 -0.77611073642E+01 -0.34183522015E+01 -0.12850774506E+02  0.15396828397E+02  0.00000000000E+00 0.  1.
</event>
<event>
 7    1  0.2031146E-008  0.4614232E+02  0.7816164E-02  0.1320468E+00
        -11   -1    0    0    0    0  0.00000000000E+00  0.00000000000E+00  0.45593999997E+02  0.45594000000E+02  0.51100000000E-03 0.  1.
         11   -1    0    0    0    0 -0.00000000000E+00 -0.00000000000E+00 -0.45593999997E+02  0.45594000000E+02  0.51100000000E-03 0. -1.
    9900012    2    1    2    0    0 -0.41312359692E+02  0.14937146944E+01 -0.17893328693E+02  0.46142318091E+02  0.10000003011E+02 0.  0.
        -12    1    1    2    0    0  0.41312359692E+02 -0.14937146944E+01  0.17893328693E+02  0.45045681909E+02  0.00000000000E+00 0.  1.
         11    1    3    3    0    0 -0.72737347208E+01  0.89122367236E+00 -0.75784280646E+01  0.10542014448E+02  0.51100000000E-03 0.  1.
        -11    1    3    3    0    0 -0.67803688464E+01 -0.44385622452E+00 -0.20674098132E+01  0.71024357539E+01  0.51100000000E-03 0. -1.
        -12    1    3    3    0    0 -0.27258256125E+02  0.10463472465E+01 -0.82474908151E+01  0.28497867890E+02  0.00000000000E+00 0.  1.
</event>
<event>
 7    1  0.2031146E-008  0.4614232E+02  0.7816164E-02  0.1320468E+00
        -11   -1    0    0    0    0  0.00000000000E+00  0.00000000000E+00  0.45593999997E+02  0.45594000000E+02  0.51100000000E-03 0.  1.
         11   -1    0    0    0    0 -0.00000000000E+00 -0.00000000000E+00 -0.45593999997E+02  0.45594000000E+02  0.51100000000E-03 0. -1.
    9900012    2    1    2    0    0 -0.25002853851E+02  0.80014088028E+01 -0.36605300882E+02  0.46142319894E+02  0.10000019451E+02 0.  0.
        -12    1    1    2    0    0  0.25002853851E+02 -0.80014088028E+01  0.36605300882E+02  0.45045680106E+02  0.00000000000E+00 0.  1.
         11    1    3    3    0    0 -0.44140544740E+00  0.49406004575E+00  0.39015159099E+00  0.76886450229E+00  0.51100000000E-03 0.  1.
        -11    1    3    3    0    0 -0.15679075328E+02  0.65787458067E+01 -0.20670649343E+02  0.26765444962E+02  0.51100000000E-03 0. -1.
         12    1    3    3    0    0 -0.88823730758E+01  0.92860295042E+00 -0.16324803130E+02  0.18608010429E+02  0.00000000000E+00 0. -1.
</event>
<event>
 7    1  0.2031146E-008  0.4614232E+02  0.7816164E-02  0.1320468E+00
        -11   -1    0    0    0    0  0.00000000000E+00  0.00000000000E+00  0.45593999997E+02  0.45594000000E+02  0.51100000000E-03 0. -1.
         11   -1    0    0    0    0 -0.00000000000E+00 -0.00000000000E+00 -0.45593999997E+02  0.45594000000E+02  0.51100000000E-03 0.  1.
    9900012    2    1    2    0    0 -0.13700644303E+02  0.37148165708E+02 -0.21480680082E+02  0.46142317781E+02  0.10000000180E+02 0.  0.
        -12    1    1    2    0    0  0.13700644303E+02 -0.37148165708E+02  0.21480680082E+02  0.45045682219E+02  0.00000000000E+00 0.  1.
         11    1    3    3    0    0 -0.42250712712E+01  0.18959390534E+02 -0.14735920720E+02  0.24381490447E+02  0.51100000000E-03 0. -1.
        -11    1    3    3    0    0 -0.11070336343E+01  0.75508216031E+00 -0.26570184028E+00  0.13661150264E+01  0.51100000000E-03 0.  1.
         12    1    3    3    0    0 -0.83685393973E+01  0.17433693014E+02 -0.64790575217E+01  0.20394712308E+02  0.00000000000E+00 0. -1.
</event>
<event>
 7    1  0.2031146E-008  0.4614232E+02  0.7816164E-02  0.1320468E+00
        -11   -1    0    0    0    0  0.00000000000E+00  0.00000000000E+00  0.45593999997E+02  0.45594000000E+02  0.51100000000E-03 0. -1.
         11   -1    0    0    0    0 -0.00000000000E+00 -0.00000000000E+00 -0.45593999997E+02  0.45594000000E+02  0.51100000000E-03 0.  1.
    9900012    2    1    2    0    0  0.32662214047E+01 -0.55374207534E+01  0.44584551953E+02  0.46142317590E+02  0.99999984425E+01 0.  0.
        -12    1    1    2    0    0 -0.32662214047E+01  0.55374207534E+01 -0.44584551953E+02  0.45045682410E+02  0.00000000000E+00 0.  1.
         11    1    3    3    0    0 -0.14813832620E+01 -0.15562158106E+01  0.66579197551E+01  0.69960131321E+01  0.51100000000E-03 0. -1.
        -11    1    3    3    0    0  0.48155026362E+00 -0.35702565487E+01  0.65243145686E+01  0.74528721531E+01  0.51100000000E-03 0.  1.
         12    1    3    3    0    0  0.42660544031E+01 -0.41094839398E+00  0.31402317630E+02  0.31693432305E+02  0.00000000000E+00 0. -1.
</event>
<event>
 7    1  0.2031146E-008  0.4614232E+02  0.7816164E-02  0.1320468E+00
        -11   -1    0    0    0    0  0.00000000000E+00  0.00000000000E+00  0.45593999997E+02  0.45594000000E+02  0.51100000000E-03 0.  1.
         11   -1    0    0    0    0 -0.00000000000E+00 -0.00000000000E+00 -0.45593999997E+02  0.45594000000E+02  0.51100000000E-03 0. -1.
    9900012    2    1    2    0    0  0.14118720183E+02 -0.25119050316E+02 -0.34623814674E+02  0.46142317732E+02  0.99999997370E+01 0.  0.
        -12    1    1    2    0    0 -0.14118720183E+02  0.25119050316E+02  0.34623814674E+02  0.45045682268E+02  0.00000000000E+00 0.  1.
         11    1    3    3    0    0  0.71734571590E+01 -0.61980957620E+01 -0.13238016567E+02  0.16282504769E+02  0.51100000000E-03 0. -1.
        -11    1    3    3    0    0  0.54846524522E+01 -0.86115501262E+01 -0.84429247530E+01  0.13248516398E+02  0.51100000000E-03 0.  1.
        -12    1    3    3    0    0  0.14606105713E+01 -0.10309404428E+02 -0.12942873354E+02  0.16611296565E+02  0.00000000000E+00 0.  1.
</event>
<event>
 7    1  0.2031146E-008  0.4614232E+02  0.7816164E-02  0.1320468E+00
        -11   -1    0    0    0    0  0.00000000000E+00  0.00000000000E+00  0.45593999997E+02  0.45594000000E+02  0.51100000000E-03 0.  1.
         11   -1    0    0    0    0 -0.00000000000E+00 -0.00000000000E+00 -0.45593999997E+02  0.45594000000E+02  0.51100000000E-03 0. -1.
    9900012    2    1    2    0    0 -0.33749420424E+02  0.42107229419E+00 -0.29831405120E+02  0.46142318606E+02  0.10000007703E+02 0.  0.
        -12    1    1    2    0    0  0.33749420424E+02 -0.42107229419E+00  0.29831405120E+02  0.45045681394E+02  0.00000000000E+00 0.  1.
         11    1    3    3    0    0 -0.31517475091E+02  0.32868582942E+00 -0.24269285967E+02  0.39780114531E+02  0.51100000000E-03 0. -1.
        -11    1    3    3    0    0 -0.26088555614E+00  0.91360311876E+00 -0.15783195900E+01  0.18422336772E+01  0.51100000000E-03 0.  1.
         12    1    3    3    0    0 -0.19710597765E+01 -0.82121665399E+00 -0.39837995631E+01  0.45199703975E+01  0.00000000000E+00 0. -1.
</event>
<event>
 7    1  0.2031146E-008  0.4614232E+02  0.7816164E-02  0.1320468E+00
        -11   -1    0    0    0    0  0.00000000000E+00  0.00000000000E+00  0.45593999997E+02  0.45594000000E+02  0.51100000000E-03 0.  1.
         11   -1    0    0    0    0 -0.00000000000E+00 -0.00000000000E+00 -0.45593999997E+02  0.45594000000E+02  0.51100000000E-03 0. -1.
    9900012    2    1    2    0    0 -0.20857427936E+02  0.39271807111E+02 -0.71976647006E+01  0.46142317509E+02  0.99999977038E+01 0.  0.
        -12    1    1    2    0    0  0.20857427936E+02 -0.39271807111E+02  0.71976647006E+01  0.45045682491E+02  0.00000000000E+00 0.  1.
         11    1    3    3    0    0 -0.18526708831E+02  0.33730527384E+02 -0.29655641380E+01  0.38597694084E+02  0.51100000000E-03 0. -1.
        -11    1    3    3    0    0 -0.22669896384E+00  0.18075301694E+01 -0.57407899317E+00  0.19100064620E+01  0.51100000000E-03 0.  1.
         12    1    3    3    0    0 -0.21040201419E+01  0.37337495582E+01 -0.36580215694E+01  0.56346169633E+01  0.00000000000E+00 0. -1.
</event>
<event>
 7    1  0.2031146E-008  0.4614232E+02  0.7816164E-02  0.1320468E+00
        -11   -1    0    0    0    0  0.00000000000E+00  0.00000000000E+00  0.45593999997E+02  0.45594000000E+02  0.51100000000E-03 0.  1.
         11   -1    0    0    0    0 -0.00000000000E+00 -0.00000000000E+00 -0.45593999997E+02  0.45594000000E+02  0.51100000000E-03 0. -1.
    9900012    2    1    2    0    0  0.22150234924E+02  0.38216392868E+02 -0.88310774608E+01  0.46142317408E+02  0.99999967813E+01 0.  0.
        -12    1    1    2    0    0 -0.22150234924E+02 -0.38216392868E+02  0.88310774608E+01  0.45045682592E+02  0.00000000000E+00 0.  1.
         11    1    3    3    0    0  0.60196513073E+01  0.15152937303E+02 -0.61343377808E+01  0.17420614543E+02  0.51100000000E-03 0. -1.
        -11    1    3    3    0    0  0.52202330767E+01  0.43584119348E+01  0.56102983406E+00  0.68235872314E+01  0.51100000000E-03 0.  1.
         12    1    3    3    0    0  0.10910350540E+02  0.18705043630E+02 -0.32577695140E+01  0.21898115634E+02  0.00000000000E+00 0. -1.
</event>
<event>
 7    1  0.2031146E-008  0.4614232E+02  0.7816164E-02  0.1320468E+00
        -11   -1    0    0    0    0  0.00000000000E+00  0.00000000000E+00  0.45593999997E+02  0.45594000000E+02  0.51100000000E-03 0.  1.
         11   -1    0    0    0    0 -0.00000000000E+00 -0.00000000000E+00 -0.45593999997E+02  0.45594000000E+02  0.51100000000E-03 0. -1.
    9900012    2    1    2    0    0  0.39035227487E+02  0.10151620862E+02 -0.20057643010E+02  0.46142318363E+02  0.10000005484E+02 0.  0.
        -12    1    1    2    0    0 -0.39035227487E+02 -0.10151620862E+02  0.20057643010E+02  0.45045681637E+02  0.00000000000E+00 0.  1.
         11    1    3    3    0    0  0.23849060707E+02  0.32781795102E+01 -0.10259714822E+02  0.26168414281E+02  0.51100000000E-03 0. -1.
        -11    1    3    3    0    0  0.13877668580E+01  0.38023349012E+00  0.55457561522E+00  0.15420858385E+01  0.51100000000E-03 0.  1.
         12    1    3    3    0    0  0.13798399921E+02  0.64932078618E+01 -0.10352503803E+02  0.18431818243E+02  0.00000000000E+00 0. -1.
</event>
<event>
 7    1  0.2031146E-008  0.4614232E+02  0.7816164E-02  0.1320468E+00
        -11   -1    0    0    0    0  0.00000000000E+00  0.00000000000E+00  0.45593999997E+02  0.45594000000E+02  0.51100000000E-03 0.  1.
         11   -1    0    0    0    0 -0.00000000000E+00 -0.00000000000E+00 -0.45593999997E+02  0.45594000000E+02  0.51100000000E-03 0. -1.
    9900012    2    1    2    0    0  0.24513926118E+02  0.37681770035E+02 -0.28749333256E+01  0.46142316429E+02  0.99999878571E+01 0.  0.
        -12    1    1    2    0    0 -0.24513926118E+02 -0.37681770035E+02  0.28749333256E+01  0.45045683571E+02  0.00000000000E+00 0.  1.
         11    1    3    3    0    0  0.93811796427E+01  0.14539344434E+02  0.34575952005E+01  0.17645226916E+02  0.51100000000E-03 0. -1.
        -11    1    3    3    0    0  0.10548620231E+02  0.17987030610E+02 -0.41463898343E+01  0.21260272996E+02  0.51100000000E-03 0.  1.
         12    1    3    3    0    0  0.45841262442E+01  0.51553949912E+01 -0.21861386918E+01  0.72368165181E+01  0.00000000000E+00 0. -1.
</event>
<event>
 7    1  0.2031146E-008  0.4614232E+02  0.7816164E-02  0.1320468E+00
        -11   -1    0    0    0    0  0.00000000000E+00  0.00000000000E+00  0.45593999997E+02  0.45594000000E+02  0.51100000000E-03 0. -1.
         11   -1    0    0    0    0 -0.00000000000E+00 -0.00000000000E+00 -0.45593999997E+02  0.45594000000E+02  0.51100000000E-03 0.  1.
    9900012    2    1    2    0    0 -0.43362718083E+02 -0.17604709521E+01  0.12070164542E+02  0.46142318191E+02  0.10000003922E+02 0.  0.
        -12    1    1    2    0    0  0.43362718083E+02  0.17604709521E+01 -0.12070164542E+02  0.45045681809E+02  0.00000000000E+00 0.  1.
         11    1    3    3    0    0 -0.10335854489E+01  0.42370104535E-01  0.13618302116E+01  0.17101683813E+01  0.51100000000E-03 0. -1.
        -11    1    3    3    0    0 -0.20188069777E+02 -0.42814071811E+01  0.29836649747E+01  0.20851639401E+02  0.51100000000E-03 0.  1.
         12    1    3    3    0    0 -0.22141062858E+02  0.24785661244E+01  0.77246693553E+01  0.23580510409E+02  0.00000000000E+00 0. -1.
</event>
<event>
 7    1  0.2031146E-008  0.4614232E+02  0.7816164E-02  0.1320468E+00
        -11   -1    0    0    0    0  0.00000000000E+00  0.00000000000E+00  0.45593999997E+02  0.45594000000E+02  0.51100000000E-03 0.  1.
         11   -1    0    0    0    0 -0.00000000000E+00 -0.00000000000E+00 -0.45593999997E+02  0.45594000000E+02  0.51100000000E-03 0. -1.
    9900012    2    1    2    0    0 -0.19814510286E+02 -0.40241391410E+02 -0.41387085530E+01  0.46142319753E+02  0.10000018159E+02 0.  0.
        -12    1    1    2    0    0  0.19814510286E+02  0.40241391410E+02  0.41387085530E+01  0.45045680247E+02  0.00000000000E+00 0.  1.
         11    1    3    3    0    0 -0.15589245112E+01 -0.11021031373E+00 -0.57019044328E+00  0.16635832854E+01  0.51100000000E-03 0. -1.
        -11    1    3    3    0    0 -0.63940444482E+01 -0.17702299205E+02  0.23405521499E+00  0.18823123642E+02  0.51100000000E-03 0.  1.
         12    1    3    3    0    0 -0.11861541327E+02 -0.22428881891E+02 -0.38025733247E+01  0.25655612825E+02  0.00000000000E+00 0. -1.
</event>
<event>
 7    1  0.2031146E-008  0.4614233E+02  0.7816164E-02  0.1320468E+00
        -11   -1    0    0    0    0  0.00000000000E+00  0.00000000000E+00  0.45593999997E+02  0.45594000000E+02  0.51100000000E-03 0.  1.
         11   -1    0    0    0    0 -0.00000000000E+00 -0.00000000000E+00 -0.45593999997E+02  0.45594000000E+02  0.51100000000E-03 0. -1.
    9900012    2    1    2    0    0  0.13619940696E+02  0.14015556929E+02 -0.40585389920E+02  0.46142328781E+02  0.10000100487E+02 0.  0.
        -12    1    1    2    0    0 -0.13619940696E+02 -0.14015556929E+02  0.40585389920E+02  0.45045671219E+02  0.00000000000E+00 0.  1.
         11    1    3    3    0    0  0.44901310308E+01  0.68876579097E+01 -0.15192199492E+02  0.17274375063E+02  0.51100000000E-03 0. -1.
        -11    1    3    3    0    0  0.61058412613E+01  0.40918223368E+01 -0.76267573957E+01  0.10592060054E+02  0.51100000000E-03 0.  1.
        -12    1    3    3    0    0  0.30239684043E+01  0.30360766826E+01 -0.17766433032E+02  0.18275893664E+02  0.00000000000E+00 0.  1.
</event>
<event>
 7    1  0.2031146E-008  0.4614232E+02  0.7816164E-02  0.1320468E+00
        -11   -1    0    0    0    0  0.00000000000E+00  0.00000000000E+00  0.45593999997E+02  0.45594000000E+02  0.51100000000E-03 0.  1.
         11   -1    0    0    0    0 -0.00000000000E+00 -0.00000000000E+00 -0.45593999997E+02  0.45594000000E+02  0.51100000000E-03 0. -1.
    9900012    2    1    2    0    0  0.11515623131E+02  0.33617212787E+02 -0.27683695193E+02  0.46142317064E+02  0.99999936396E+01 0.  0.
        -12    1    1    2    0    0 -0.11515623131E+02 -0.33617212787E+02  0.27683695193E+02  0.45045682936E+02  0.00000000000E+00 0.  1.
         11    1    3    3    0    0  0.46180295697E+01  0.85555489718E+01 -0.41953402437E+01  0.10588885462E+02  0.51100000000E-03 0. -1.
        -11    1    3    3    0    0  0.63320520285E+01  0.20864225560E+02 -0.22222871247E+02  0.31133049928E+02  0.51100000000E-03 0.  1.
        -12    1    3    3    0    0  0.56554153292E+00  0.41974382553E+01 -0.12654837018E+01  0.44203816727E+01  0.00000000000E+00 0.  1.
</event>
<event>
 7    1  0.2031146E-008  0.4614232E+02  0.7816164E-02  0.1320468E+00
        -11   -1    0    0    0    0  0.00000000000E+00  0.00000000000E+00  0.45593999997E+02  0.45594000000E+02  0.51100000000E-03 0.  1.
         11   -1    0    0    0    0 -0.00000000000E+00 -0.00000000000E+00 -0.45593999997E+02  0.45594000000E+02  0.51100000000E-03 0. -1.
    9900012    2    1    2    0    0  0.92950733394E+01  0.42584045940E+02 -0.11371637348E+02  0.46142317710E+02  0.99999995337E+01 0.  0.
        -12    1    1    2    0    0 -0.92950733394E+01 -0.42584045940E+02  0.11371637348E+02  0.45045682290E+02  0.00000000000E+00 0.  1.
         11    1    3    3    0    0  0.14755092184E+01  0.65935871365E+01 -0.41455622481E+01  0.79270552789E+01  0.51100000000E-03 0. -1.
        -11    1    3    3    0    0  0.35425357578E+01  0.14206870778E+02  0.65975532205E+00  0.14656739551E+02  0.51100000000E-03 0.  1.
         12    1    3    3    0    0  0.42770283632E+01  0.21783588025E+02 -0.78858304222E+01  0.23558522880E+02  0.00000000000E+00 0. -1.
</event>
<event>
 7    1  0.2031146E-008  0.4614232E+02  0.7816164E-02  0.1320468E+00
        -11   -1    0    0    0    0  0.00000000000E+00  0.00000000000E+00  0.45593999997E+02  0.45594000000E+02  0.51100000000E-03 0.  1.
         11   -1    0    0    0    0 -0.00000000000E+00 -0.00000000000E+00 -0.45593999997E+02  0.45594000000E+02  0.51100000000E-03 0. -1.
    9900012    2    1    2    0    0 -0.11169353600E+02 -0.16766071013E+02 -0.40289674917E+02  0.46142317610E+02  0.99999986230E+01 0.  0.
        -12    1    1    2    0    0  0.11169353600E+02  0.16766071013E+02  0.40289674917E+02  0.45045682390E+02  0.00000000000E+00 0.  1.
         11    1    3    3    0    0 -0.33472750031E+01 -0.21392650461E+01 -0.49136360996E+01  0.63185856696E+01  0.51100000000E-03 0. -1.
        -11    1    3    3    0    0 -0.10051769217E+01 -0.58800142910E+01 -0.19967562324E+02  0.20839589586E+02  0.51100000000E-03 0.  1.
         12    1    3    3    0    0 -0.68169016756E+01 -0.87467916757E+01 -0.15408476493E+02  0.18984142354E+02  0.00000000000E+00 0. -1.
</event>
<event>
 7    1  0.2031146E-008  0.4614232E+02  0.7816164E-02  0.1320468E+00
        -11   -1    0    0    0    0  0.00000000000E+00  0.00000000000E+00  0.45593999997E+02  0.45594000000E+02  0.51100000000E-03 0.  1.
         11   -1    0    0    0    0 -0.00000000000E+00 -0.00000000000E+00 -0.45593999997E+02  0.45594000000E+02  0.51100000000E-03 0. -1.
    9900012    2    1    2    0    0  0.62186987626E+01  0.23931333839E+02 -0.37652790247E+02  0.46142316888E+02  0.99999920407E+01 0.  0.
        -12    1    1    2    0    0 -0.62186987626E+01 -0.23931333839E+02  0.37652790247E+02  0.45045683112E+02  0.00000000000E+00 0.  1.
         11    1    3    3    0    0  0.52187053009E+01  0.13523171833E+02 -0.22875026962E+02  0.27080951243E+02  0.51100000000E-03 0. -1.
        -11    1    3    3    0    0  0.16880668742E+01  0.11978898947E+01 -0.62616982777E+00  0.21625445397E+01  0.51100000000E-03 0.  1.
         12    1    3    3    0    0 -0.68807341252E+00  0.92102721117E+01 -0.14151593457E+02  0.16898821106E+02  0.00000000000E+00 0. -1.
</event>
<event>
 7    1  0.2031146E-008  0.4614232E+02  0.7816164E-02  0.1320468E+00
        -11   -1    0    0    0    0  0.00000000000E+00  0.00000000000E+00  0.45593999997E+02  0.45594000000E+02  0.51100000000E-03 0. -1.
         11   -1    0    0    0    0 -0.00000000000E+00 -0.00000000000E+00 -0.45593999997E+02  0.45594000000E+02  0.51100000000E-03 0.  1.
    9900012    2    1    2    0    0  0.24925453901E+02  0.43576772366E+01  0.37267223397E+02  0.46142317157E+02  0.99999944915E+01 0.  0.
        -12    1    1    2    0    0 -0.24925453901E+02 -0.43576772366E+01 -0.37267223397E+02  0.45045682843E+02  0.00000000000E+00 0.  1.
         11    1    3    3    0    0  0.54121303049E+01  0.15218472408E+01  0.42852987586E+01  0.70690140170E+01  0.51100000000E-03 0. -1.
        -11    1    3    3    0    0  0.49028910878E+01  0.41439942831E+00  0.33679493766E+01  0.59626463227E+01  0.51100000000E-03 0.  1.
         12    1    3    3    0    0  0.14610432509E+02  0.24214305675E+01  0.29613975262E+02  0.33110656817E+02  0.00000000000E+00 0. -1.
</event>
<event>
 7    1  0.2031146E-008  0.4614232E+02  0.7816164E-02  0.1320468E+00
        -11   -1    0    0    0    0  0.00000000000E+00  0.00000000000E+00  0.45593999997E+02  0.45594000000E+02  0.51100000000E-03 0.  1.
         11   -1    0    0    0    0 -0.00000000000E+00 -0.00000000000E+00 -0.45593999997E+02  0.45594000000E+02  0.51100000000E-03 0. -1.
    9900012    2    1    2    0    0 -0.19613961230E+02 -0.11458477334E+02 -0.38898706052E+02  0.46142317516E+02  0.99999977671E+01 0.  0.
        -12    1    1    2    0    0  0.19613961230E+02  0.11458477334E+02  0.38898706052E+02  0.45045682484E+02  0.00000000000E+00 0.  1.
         11    1    3    3    0    0 -0.26565937237E+01 -0.23476144168E+01 -0.17868996736E+01  0.39701126392E+01  0.51100000000E-03 0. -1.
        -11    1    3    3    0    0 -0.36610227064E+01  0.36982690160E+00 -0.75844433006E+01  0.84299252449E+01  0.51100000000E-03 0.  1.
        -12    1    3    3    0    0 -0.13296344800E+02 -0.94806898185E+01 -0.29527363077E+02  0.33742279632E+02  0.00000000000E+00 0.  1.
</event>
<event>
 7    1  0.2031146E-008  0.4614232E+02  0.7816164E-02  0.1320468E+00
        -11   -1    0    0    0    0  0.00000000000E+00  0.00000000000E+00  0.45593999997E+02  0.45594000000E+02  0.51100000000E-03 0.  1.
         11   -1    0    0    0    0 -0.00000000000E+00 -0.00000000000E+00 -0.45593999997E+02  0.45594000000E+02  0.51100000000E-03 0. -1.
    9900012    2    1    2    0    0  0.35156107979E+02 -0.28621986682E+01 -0.28017304765E+02  0.46142317902E+02  0.10000001283E+02 0.  0.
        -12    1    1    2    0    0 -0.35156107979E+02  0.28621986682E+01  0.28017304765E+02  0.45045682098E+02  0.00000000000E+00 0.  1.
         11    1    3    3    0    0  0.43317034784E+01  0.30468380594E+00 -0.51531192230E+01  0.67387777255E+01  0.51100000000E-03 0. -1.
        -11    1    3    3    0    0  0.28342172799E+01 -0.25522310726E+01 -0.11836502731E+01  0.39934570572E+01  0.51100000000E-03 0.  1.
        -12    1    3    3    0    0  0.27990187220E+02 -0.61465140153E+00 -0.21680535268E+02  0.35410083119E+02  0.00000000000E+00 0.  1.
</event>
<event>
 7    1  0.2031146E-008  0.4614232E+02  0.7816164E-02  0.1320468E+00
        -11   -1    0    0    0    0  0.00000000000E+00  0.00000000000E+00  0.45593999997E+02  0.45594000000E+02  0.51100000000E-03 0. -1.
         11   -1    0    0    0    0 -0.00000000000E+00 -0.00000000000E+00 -0.45593999997E+02  0.45594000000E+02  0.51100000000E-03 0.  1.
    9900012    2    1    2    0    0 -0.21122283092E+02  0.13781214710E+02  0.37323458332E+02  0.46142320254E+02  0.10000022731E+02 0.  0.
        -12    1    1    2    0    0  0.21122283092E+02 -0.13781214710E+02 -0.37323458332E+02  0.45045679746E+02  0.00000000000E+00 0.  1.
         11    1    3    3    0    0 -0.10410346008E+02  0.44793500571E+01  0.22964690408E+02  0.25608922014E+02  0.51100000000E-03 0. -1.
        -11    1    3    3    0    0 -0.30867975835E+01  0.11468929317E+01  0.48838202714E+01  0.58902787220E+01  0.51100000000E-03 0.  1.
        -12    1    3    3    0    0 -0.76251395006E+01  0.81549717214E+01  0.94749476527E+01  0.14643119517E+02  0.00000000000E+00 0.  1.
</event>
<event>
 7    1  0.2031146E-008  0.4614232E+02  0.7816164E-02  0.1320468E+00
        -11   -1    0    0    0    0  0.00000000000E+00  0.00000000000E+00  0.45593999997E+02  0.45594000000E+02  0.51100000000E-03 0.  1.
         11   -1    0    0    0    0 -0.00000000000E+00 -0.00000000000E+00 -0.45593999997E+02  0.45594000000E+02  0.51100000000E-03 0. -1.
    9900012    2    1    2    0    0 -0.14192292456E+02 -0.37548032054E+00 -0.42749866836E+02  0.46142320239E+02  0.10000022598E+02 0.  0.
        -12    1    1    2    0    0  0.14192292456E+02  0.37548032054E+00  0.42749866836E+02  0.45045679761E+02  0.00000000000E+00 0.  1.
         11    1    3    3    0    0 -0.67813139681E+01  0.12261931744E+01 -0.20734217873E+02  0.21849429280E+02  0.51100000000E-03 0. -1.
        -11    1    3    3    0    0 -0.74214168994E+01 -0.30483238766E+01 -0.21117121341E+02  0.22589876521E+02  0.51100000000E-03 0.  1.
        -12    1    3    3    0    0  0.10438411169E-01  0.14466503816E+01 -0.89852762198E+00  0.17030144376E+01  0.00000000000E+00 0.  1.
</event>
<event>
 7    1  0.2031146E-008  0.4614232E+02  0.7816164E-02  0.1320468E+00
        -11   -1    0    0    0    0  0.00000000000E+00  0.00000000000E+00  0.45593999997E+02  0.45594000000E+02  0.51100000000E-03 0.  1.
         11   -1    0    0    0    0 -0.00000000000E+00 -0.00000000000E+00 -0.45593999997E+02  0.45594000000E+02  0.51100000000E-03 0. -1.
    9900012    2    1    2    0    0 -0.26832964730E+02 -0.25654544358E+02 -0.25513713447E+02  0.46142320782E+02  0.10000027543E+02 0.  0.
        -12    1    1    2    0    0  0.26832964730E+02  0.25654544358E+02  0.25513713447E+02  0.45045679218E+02  0.00000000000E+00 0.  1.
         11    1    3    3    0    0 -0.16941387760E+02 -0.19126753949E+02 -0.15355873882E+02  0.29810169386E+02  0.51100000000E-03 0. -1.
        -11    1    3    3    0    0 -0.97547016250E+00 -0.11318440034E+01  0.34778388382E+00  0.15341338849E+01  0.51100000000E-03 0.  1.
        -12    1    3    3    0    0 -0.89161068069E+01 -0.53959464051E+01 -0.10505623448E+02  0.14798017510E+02  0.00000000000E+00 0.  1.
</event>
<event>
 7    1  0.2031146E-008  0.4614232E+02  0.7816164E-02  0.1320468E+00
        -11   -1    0    0    0    0  0.00000000000E+00  0.00000000000E+00  0.45593999997E+02  0.45594000000E+02  0.51100000000E-03 0.  1.
         11   -1    0    0    0    0 -0.00000000000E+00 -0.00000000000E+00 -0.45593999997E+02  0.45594000000E+02  0.51100000000E-03 0. -1.
    9900012    2    1    2    0    0  0.92765912264E+01  0.18286554928E+02 -0.40108110052E+02  0.46142315103E+02  0.99999757643E+01 0.  0.
        -12    1    1    2    0    0 -0.92765912264E+01 -0.18286554928E+02  0.40108110052E+02  0.45045684897E+02  0.00000000000E+00 0.  1.
         11    1    3    3    0    0 -0.27586983278E+00  0.17284753117E+01 -0.12939887044E+01  0.21767264633E+01  0.51100000000E-03 0. -1.
        -11    1    3    3    0    0  0.38235938049E+01  0.50903502077E+01 -0.21497698128E+02  0.22420583397E+02  0.51100000000E-03 0.  1.
        -12    1    3    3    0    0  0.57288672543E+01  0.11467729408E+02 -0.17316423219E+02  0.21545005243E+02  0.00000000000E+00 0.  1.
</event>
<event>
 7    1  0.2031146E-008  0.4614232E+02  0.7816164E-02  0.1320468E+00
        -11   -1    0    0    0    0  0.00000000000E+00  0.00000000000E+00  0.45593999997E+02  0.45594000000E+02  0.51100000000E-03 0.  1.
         11   -1    0    0    0    0 -0.00000000000E+00 -0.00000000000E+00 -0.45593999997E+02  0.45594000000E+02  0.51100000000E-03 0. -1.
    9900012    2    1    2    0    0 -0.15500513540E+02  0.42226408729E+02 -0.24037908772E+01  0.46142315138E+02  0.99999760791E+01 0.  0.
        -12    1    1    2    0    0  0.15500513540E+02 -0.42226408729E+02  0.24037908772E+01  0.45045684862E+02  0.00000000000E+00 0.  1.
         11    1    3    3    0    0 -0.36037398162E+01  0.10234392372E+02 -0.43440601567E+01  0.11687625370E+02  0.51100000000E-03 0.  1.
        -11    1    3    3    0    0 -0.11845606394E+02  0.30580641662E+02  0.11038670492E+01  0.32813298493E+02  0.51100000000E-03 0. -1.
        -12    1    3    3    0    0 -0.51167329664E-01  0.14113746953E+01  0.83640223029E+00  0.16413912748E+01  0.00000000000E+00 0.  1.
</event>
<event>
 7    1  0.2031146E-008  0.4614232E+02  0.7816164E-02  0.1320468E+00
        -11   -1    0    0    0    0  0.00000000000E+00  0.00000000000E+00  0.45593999997E+02  0.45594000000E+02  0.51100000000E-03 0.  1.
         11   -1    0    0    0    0 -0.00000000000E+00 -0.00000000000E+00 -0.45593999997E+02  0.45594000000E+02  0.51100000000E-03 0. -1.
    9900012    2    1    2    0    0  0.34631496877E+02  0.14960496009E+02 -0.24616174761E+02  0.46142322331E+02  0.10000041673E+02 0.  0.
        -12    1    1    2    0    0 -0.34631496877E+02 -0.14960496009E+02  0.24616174761E+02  0.45045677669E+02  0.00000000000E+00 0.  1.
         11    1    3    3    0    0  0.11074381345E+01  0.25327473447E+01 -0.13145436084E+01  0.30609236340E+01  0.51100000000E-03 0. -1.
        -11    1    3    3    0    0  0.32533781983E+02  0.12165672046E+02 -0.21067864765E+02  0.40623951955E+02  0.51100000000E-03 0.  1.
        -12    1    3    3    0    0  0.99027675980E+00  0.26207661833E+00 -0.22337663876E+01  0.24574467419E+01  0.00000000000E+00 0.  1.
</event>
<event>
 7    1  0.2031146E-008  0.4614232E+02  0.7816164E-02  0.1320468E+00
        -11   -1    0    0    0    0  0.00000000000E+00  0.00000000000E+00  0.45593999997E+02  0.45594000000E+02  0.51100000000E-03 0.  1.
         11   -1    0    0    0    0 -0.00000000000E+00 -0.00000000000E+00 -0.45593999997E+02  0.45594000000E+02  0.51100000000E-03 0. -1.
    9900012    2    1    2    0    0  0.38613288737E+02 -0.23009208719E+02  0.29502117089E+01  0.46142317609E+02  0.99999986121E+01 0.  0.
        -12    1    1    2    0    0 -0.38613288737E+02  0.23009208719E+02 -0.29502117089E+01  0.45045682391E+02  0.00000000000E+00 0.  1.
         11    1    3    3    0    0  0.84427915201E+01 -0.16012298511E+01  0.97348732192E+00  0.86482566749E+01  0.51100000000E-03 0. -1.
        -11    1    3    3    0    0  0.87591358668E+01 -0.84014468042E+01  0.26904530906E+01  0.12431625301E+02  0.51100000000E-03 0.  1.
        -12    1    3    3    0    0  0.21411361350E+02 -0.13006532064E+02 -0.71372870361E+00  0.25062435633E+02  0.00000000000E+00 0.  1.
</event>
<event>
 7    1  0.2031146E-008  0.4614232E+02  0.7816164E-02  0.1320468E+00
        -11   -1    0    0    0    0  0.00000000000E+00  0.00000000000E+00  0.45593999997E+02  0.45594000000E+02  0.51100000000E-03 0.  1.
         11   -1    0    0    0    0 -0.00000000000E+00 -0.00000000000E+00 -0.45593999997E+02  0.45594000000E+02  0.51100000000E-03 0. -1.
    9900012    2    1    2    0    0 -0.27249439757E+02 -0.21443938297E+02 -0.28753065001E+02  0.46142320920E+02  0.10000028808E+02 0.  0.
        -12    1    1    2    0    0  0.27249439757E+02  0.21443938297E+02  0.28753065001E+02  0.45045679080E+02  0.00000000000E+00 0.  1.
         11    1    3    3    0    0 -0.10677694086E+02 -0.10269802645E+02 -0.12161520195E+02  0.19167278656E+02  0.51100000000E-03 0. -1.
        -11    1    3    3    0    0 -0.36640999494E+00 -0.30856793760E+01 -0.18024402946E+01  0.35922784932E+01  0.51100000000E-03 0.  1.
         12    1    3    3    0    0 -0.16205335676E+02 -0.80884562761E+01 -0.14789104512E+02  0.23382763771E+02  0.00000000000E+00 0. -1.
</event>
<event>
 7    1  0.2031146E-008  0.4614232E+02  0.7816164E-02  0.1320468E+00
        -11   -1    0    0    0    0  0.00000000000E+00  0.00000000000E+00  0.45593999997E+02  0.45594000000E+02  0.51100000000E-03 0.  1.
         11   -1    0    0    0    0 -0.00000000000E+00 -0.00000000000E+00 -0.45593999997E+02  0.45594000000E+02  0.51100000000E-03 0. -1.
    9900012    2    1    2    0    0  0.22762350674E+01  0.77517922013E+01 -0.44315256680E+02  0.46142317598E+02  0.99999985135E+01 0.  0.
        -12    1    1    2    0    0 -0.22762350674E+01 -0.77517922013E+01  0.44315256680E+02  0.45045682402E+02  0.00000000000E+00 0.  1.
         11    1    3    3    0    0  0.14891193825E+01  0.32393920890E+01 -0.14920473950E+02  0.15340524137E+02  0.51100000000E-03 0. -1.
        -11    1    3    3    0    0  0.18085266189E+01  0.65939361337E+01 -0.20522584496E+02  0.21631625850E+02  0.51100000000E-03 0.  1.
        -12    1    3    3    0    0 -0.10214109340E+01 -0.20815360215E+01 -0.88721982340E+01  0.91701676107E+01  0.00000000000E+00 0.  1.
</event>
<event>
 7    1  0.2031146E-008  0.4614231E+02  0.7816164E-02  0.1320468E+00
        -11   -1    0    0    0    0  0.00000000000E+00  0.00000000000E+00  0.45593999997E+02  0.45594000000E+02  0.51100000000E-03 0.  1.
         11   -1    0    0    0    0 -0.00000000000E+00 -0.00000000000E+00 -0.45593999997E+02  0.45594000000E+02  0.51100000000E-03 0. -1.
    9900012    2    1    2    0    0  0.90857015740E+01  0.30051143784E+02 -0.32303137663E+02  0.46142312984E+02  0.99999564400E+01 0.  0.
        -12    1    1    2    0    0 -0.90857015740E+01 -0.30051143784E+02  0.32303137663E+02  0.45045687016E+02  0.00000000000E+00 0.  1.
         11    1    3    3    0    0  0.63826215848E+01  0.15339410894E+02 -0.16334414077E+02  0.23299108746E+02  0.51100000000E-03 0. -1.
        -11    1    3    3    0    0  0.25158799570E+01  0.87441789812E+01 -0.50695973283E+01  0.10415907802E+02  0.51100000000E-03 0.  1.
        -12    1    3    3    0    0  0.18720003225E+00  0.59675539090E+01 -0.10899126258E+02  0.12427296436E+02  0.00000000000E+00 0.  1.
</event>
<event>
 7    1  0.2031146E-008  0.4614232E+02  0.7816164E-02  0.1320468E+00
        -11   -1    0    0    0    0  0.00000000000E+00  0.00000000000E+00  0.45593999997E+02  0.45594000000E+02  0.51100000000E-03 0.  1.
         11   -1    0    0    0    0 -0.00000000000E+00 -0.00000000000E+00 -0.45593999997E+02  0.45594000000E+02  0.51100000000E-03 0. -1.
    9900012    2    1    2    0    0  0.34794691134E+02 -0.27585413365E+02  0.75820755204E+01  0.46142318400E+02  0.10000005823E+02 0.  0.
        -12    1    1    2    0    0 -0.34794691134E+02  0.27585413365E+02 -0.75820755204E+01  0.45045681600E+02  0.00000000000E+00 0.  1.
         11    1    3    3    0    0  0.85069034417E+01 -0.12261826072E+02  0.40093770665E+01  0.15452989662E+02  0.51100000000E-03 0. -1.
        -11    1    3    3    0    0  0.12575351872E+02 -0.62967152755E+01  0.16677250643E+01  0.14162252826E+02  0.51100000000E-03 0.  1.
         12    1    3    3    0    0  0.13712435821E+02 -0.90268720178E+01  0.19049733896E+01  0.16527075911E+02  0.00000000000E+00 0. -1.
</event>
<event>
 7    1  0.2031146E-008  0.4614232E+02  0.7816164E-02  0.1320468E+00
        -11   -1    0    0    0    0  0.00000000000E+00  0.00000000000E+00  0.45593999997E+02  0.45594000000E+02  0.51100000000E-03 0. -1.
         11   -1    0    0    0    0 -0.00000000000E+00 -0.00000000000E+00 -0.45593999997E+02  0.45594000000E+02  0.51100000000E-03 0.  1.
    9900012    2    1    2    0    0 -0.72989258388E+01  0.42707020698E+02  0.12326781124E+02  0.46142317985E+02  0.10000002041E+02 0.  0.
        -12    1    1    2    0    0  0.72989258388E+01 -0.42707020698E+02 -0.12326781124E+02  0.45045682015E+02  0.00000000000E+00 0.  1.
         11    1    3    3    0    0 -0.18016525873E+00  0.39880777707E+01 -0.32335448704E-01  0.39922762514E+01  0.51100000000E-03 0. -1.
        -11    1    3    3    0    0 -0.49387456530E+01  0.36883839106E+02  0.12604993294E+02  0.39289879766E+02  0.51100000000E-03 0.  1.
        -12    1    3    3    0    0 -0.21800149271E+01  0.18351038219E+01 -0.24587672120E+00  0.28601619677E+01  0.00000000000E+00 0.  1.
</event>
<event>
 7    1  0.2031146E-008  0.4614232E+02  0.7816164E-02  0.1320468E+00
        -11   -1    0    0    0    0  0.00000000000E+00  0.00000000000E+00  0.45593999997E+02  0.45594000000E+02  0.51100000000E-03 0. -1.
         11   -1    0    0    0    0 -0.00000000000E+00 -0.00000000000E+00 -0.45593999997E+02  0.45594000000E+02  0.51100000000E-03 0.  1.
    9900012    2    1    2    0    0 -0.23110213892E+02  0.36515712218E+01  0.38492822284E+02  0.46142319564E+02  0.10000016443E+02 0.  0.
        -12    1    1    2    0    0  0.23110213892E+02 -0.36515712218E+01 -0.38492822284E+02  0.45045680436E+02  0.00000000000E+00 0.  1.
         11    1    3    3    0    0 -0.38328859950E+01  0.12188701246E+01  0.12915383245E+02  0.13527149886E+02  0.51100000000E-03 0. -1.
        -11    1    3    3    0    0 -0.10886573198E+02  0.97207312037E-01  0.18167628915E+02  0.21179935456E+02  0.51100000000E-03 0.  1.
        -12    1    3    3    0    0 -0.83907546981E+01  0.23354937852E+01  0.74098101247E+01  0.11435234222E+02  0.00000000000E+00 0.  1.
</event>
<event>
 7    1  0.2031146E-008  0.4614232E+02  0.7816164E-02  0.1320468E+00
        -11   -1    0    0    0    0  0.00000000000E+00  0.00000000000E+00  0.45593999997E+02  0.45594000000E+02  0.51100000000E-03 0.  1.
         11   -1    0    0    0    0 -0.00000000000E+00 -0.00000000000E+00 -0.45593999997E+02  0.45594000000E+02  0.51100000000E-03 0. -1.
    9900012    2    1    2    0    0 -0.31256778959E+02  0.30597096477E+02 -0.10767780818E+02  0.46142315995E+02  0.99999838913E+01 0.  0.
        -12    1    1    2    0    0  0.31256778959E+02 -0.30597096477E+02  0.10767780818E+02  0.45045684005E+02  0.00000000000E+00 0.  1.
         11    1    3    3    0    0 -0.17136644839E+01  0.15638845638E+01  0.52240927816E+00  0.23780859125E+01  0.51100000000E-03 0.  1.
        -11    1    3    3    0    0 -0.84084572454E+01  0.75857954087E+01 -0.70922382637E+01  0.13362121429E+02  0.51100000000E-03 0. -1.
         12    1    3    3    0    0 -0.21134657230E+02  0.21447416505E+02 -0.41979518329E+01  0.30402108653E+02  0.00000000000E+00 0. -1.
</event>
<event>
 7    1  0.2031146E-008  0.4614232E+02  0.7816164E-02  0.1320468E+00
        -11   -1    0    0    0    0  0.00000000000E+00  0.00000000000E+00  0.45593999997E+02  0.45594000000E+02  0.51100000000E-03 0.  1.
         11   -1    0    0    0    0 -0.00000000000E+00 -0.00000000000E+00 -0.45593999997E+02  0.45594000000E+02  0.51100000000E-03 0. -1.
    9900012    2    1    2    0    0 -0.85233877039E+01 -0.11870324699E+02 -0.42609398264E+02  0.46142316890E+02  0.99999920565E+01 0.  0.
        -12    1    1    2    0    0  0.85233877039E+01  0.11870324699E+02  0.42609398264E+02  0.45045683110E+02  0.00000000000E+00 0.  1.
         11    1    3    3    0    0 -0.17602819794E+00 -0.76320787832E+01 -0.18687797265E+02  0.20186960627E+02  0.51100000000E-03 0. -1.
        -11    1    3    3    0    0 -0.13000579737E+01  0.19182667091E+00 -0.12900292521E+01  0.18415004586E+01  0.51100000000E-03 0.  1.
         12    1    3    3    0    0 -0.70473015322E+01 -0.44300725869E+01 -0.22631571747E+02  0.24113855805E+02  0.00000000000E+00 0. -1.
</event>
<event>
 7    1  0.2031146E-008  0.4614232E+02  0.7816164E-02  0.1320468E+00
        -11   -1    0    0    0    0  0.00000000000E+00  0.00000000000E+00  0.45593999997E+02  0.45594000000E+02  0.51100000000E-03 0.  1.
         11   -1    0    0    0    0 -0.00000000000E+00 -0.00000000000E+00 -0.45593999997E+02  0.45594000000E+02  0.51100000000E-03 0. -1.
    9900012    2    1    2    0    0 -0.15012581222E+02 -0.25281049369E+02 -0.34126301463E+02  0.46142317591E+02  0.99999984488E+01 0.  0.
        -12    1    1    2    0    0  0.15012581222E+02  0.25281049369E+02  0.34126301463E+02  0.45045682409E+02  0.00000000000E+00 0.  1.
         11    1    3    3    0    0 -0.83345476404E+00 -0.22156719496E+01 -0.13154772224E+01  0.27081967462E+01  0.51100000000E-03 0. -1.
        -11    1    3    3    0    0 -0.48670129715E+01 -0.32872886162E+01 -0.33920147837E+01  0.67823186496E+01  0.51100000000E-03 0.  1.
         12    1    3    3    0    0 -0.93121134863E+01 -0.19778088803E+02 -0.29418809457E+02  0.36651802195E+02  0.00000000000E+00 0. -1.
</event>
<event>
 7    1  0.2031146E-008  0.4614232E+02  0.7816164E-02  0.1320468E+00
        -11   -1    0    0    0    0  0.00000000000E+00  0.00000000000E+00  0.45593999997E+02  0.45594000000E+02  0.51100000000E-03 0.  1.
         11   -1    0    0    0    0 -0.00000000000E+00 -0.00000000000E+00 -0.45593999997E+02  0.45594000000E+02  0.51100000000E-03 0. -1.
    9900012    2    1    2    0    0  0.38528688173E+02  0.23291964483E+02  0.14622210203E+01  0.46142317498E+02  0.99999975979E+01 0.  0.
        -12    1    1    2    0    0 -0.38528688173E+02 -0.23291964483E+02 -0.14622210203E+01  0.45045682502E+02  0.00000000000E+00 0.  1.
         11    1    3    3    0    0  0.40521576029E+01  0.46763598214E+01 -0.17839160123E+01  0.64397732117E+01  0.51100000000E-03 0. -1.
        -11    1    3    3    0    0  0.21376752565E+01  0.20556297724E+01  0.15120744814E+01  0.33289095454E+01  0.51100000000E-03 0.  1.
         12    1    3    3    0    0  0.32338855313E+02  0.16559974890E+02  0.17340625512E+01  0.36373634741E+02  0.00000000000E+00 0. -1.
</event>
<event>
 7    1  0.2031146E-008  0.4614232E+02  0.7816164E-02  0.1320468E+00
        -11   -1    0    0    0    0  0.00000000000E+00  0.00000000000E+00  0.45593999997E+02  0.45594000000E+02  0.51100000000E-03 0.  1.
         11   -1    0    0    0    0 -0.00000000000E+00 -0.00000000000E+00 -0.45593999997E+02  0.45594000000E+02  0.51100000000E-03 0. -1.
    9900012    2    1    2    0    0  0.40313209096E+02 -0.14628571722E+02 -0.13782725970E+02  0.46142317927E+02  0.10000001515E+02 0.  0.
        -12    1    1    2    0    0 -0.40313209096E+02  0.14628571722E+02  0.13782725970E+02  0.45045682073E+02  0.00000000000E+00 0.  1.
         11    1    3    3    0    0  0.34794902034E+02 -0.96940117334E+01 -0.10129408940E+02  0.37513517520E+02  0.51100000000E-03 0. -1.
        -11    1    3    3    0    0  0.20789716157E+01 -0.27616767194E+01 -0.28542906529E+01  0.44828513999E+01  0.51100000000E-03 0.  1.
         12    1    3    3    0    0  0.34393354465E+01 -0.21728832696E+01 -0.79902637728E+00  0.41459490070E+01  0.00000000000E+00 0. -1.
</event>
<event>
 7    1  0.2031146E-008  0.4614232E+02  0.7816164E-02  0.1320468E+00
        -11   -1    0    0    0    0  0.00000000000E+00  0.00000000000E+00  0.45593999997E+02  0.45594000000E+02  0.51100000000E-03 0.  1.
         11   -1    0    0    0    0 -0.00000000000E+00 -0.00000000000E+00 -0.45593999997E+02  0.45594000000E+02  0.51100000000E-03 0. -1.
    9900012    2    1    2    0    0  0.32329213777E+02 -0.71278096696E+01 -0.30547172398E+02  0.46142317902E+02  0.10000001285E+02 0.  0.
        -12    1    1    2    0    0 -0.32329213777E+02  0.71278096696E+01  0.30547172398E+02  0.45045682098E+02  0.00000000000E+00 0.  1.
         11    1    3    3    0    0  0.14671131971E+00 -0.10077446490E+01 -0.19908517767E+01  0.22361942105E+01  0.51100000000E-03 0.  1.
        -11    1    3    3    0    0  0.18971686925E+02 -0.16383166900E+01 -0.19606381144E+02  0.27331651398E+02  0.51100000000E-03 0. -1.
         12    1    3    3    0    0  0.13210815533E+02 -0.44817483307E+01 -0.89499394778E+01  0.16574472293E+02  0.00000000000E+00 0. -1.
</event>
<event>
 7    1  0.2031146E-008  0.4614232E+02  0.7816164E-02  0.1320468E+00
        -11   -1    0    0    0    0  0.00000000000E+00  0.00000000000E+00  0.45593999997E+02  0.45594000000E+02  0.51100000000E-03 0.  1.
         11   -1    0    0    0    0 -0.00000000000E+00 -0.00000000000E+00 -0.45593999997E+02  0.45594000000E+02  0.51100000000E-03 0. -1.
    9900012    2    1    2    0    0 -0.20282523920E+02 -0.30168832873E+01 -0.40107743495E+02  0.46142318191E+02  0.10000003920E+02 0.  0.
        -12    1    1    2    0    0  0.20282523920E+02  0.30168832873E+01  0.40107743495E+02  0.45045681809E+02  0.00000000000E+00 0.  1.
         11    1    3    3    0    0 -0.45365183420E+01 -0.31287344153E+00 -0.53972325311E+01  0.70574788497E+01  0.51100000000E-03 0. -1.
        -11    1    3    3    0    0 -0.12019774308E+02 -0.20045838161E+01 -0.16662843942E+02  0.20643248271E+02  0.51100000000E-03 0.  1.
         12    1    3    3    0    0 -0.37262312703E+01 -0.69942602972E+00 -0.18047667022E+02  0.18441591070E+02  0.00000000000E+00 0. -1.
</event>
<event>
 7    1  0.2031146E-008  0.4614232E+02  0.7816164E-02  0.1320468E+00
        -11   -1    0    0    0    0  0.00000000000E+00  0.00000000000E+00  0.45593999997E+02  0.45594000000E+02  0.51100000000E-03 0. -1.
         11   -1    0    0    0    0 -0.00000000000E+00 -0.00000000000E+00 -0.45593999997E+02  0.45594000000E+02  0.51100000000E-03 0.  1.
    9900012    2    1    2    0    0  0.39587252728E+01 -0.23912017707E+02  0.37969162126E+02  0.46142319084E+02  0.10000012062E+02 0.  0.
        -12    1    1    2    0    0 -0.39587252728E+01  0.23912017707E+02 -0.37969162126E+02  0.45045680916E+02  0.00000000000E+00 0.  1.
         11    1    3    3    0    0 -0.10048386726E+01 -0.29625160058E+01  0.60126543356E+01  0.67777735476E+01  0.51100000000E-03 0. -1.
        -11    1    3    3    0    0  0.46896854885E+01 -0.44070274727E+01  0.85607104061E+01  0.10709846126E+02  0.51100000000E-03 0.  1.
         12    1    3    3    0    0  0.27387845686E+00 -0.16542474229E+02  0.23395797385E+02  0.28654699410E+02  0.00000000000E+00 0. -1.
</event>
<event>
 7    1  0.2031146E-008  0.4614232E+02  0.7816164E-02  0.1320468E+00
        -11   -1    0    0    0    0  0.00000000000E+00  0.00000000000E+00  0.45593999997E+02  0.45594000000E+02  0.51100000000E-03 0.  1.
         11   -1    0    0    0    0 -0.00000000000E+00 -0.00000000000E+00 -0.45593999997E+02  0.45594000000E+02  0.51100000000E-03 0. -1.
    9900012    2    1    2    0    0  0.22852977516E+01 -0.43435665892E+02 -0.11714686642E+02  0.46142317183E+02  0.99999947311E+01 0.  0.
        -12    1    1    2    0    0 -0.22852977516E+01  0.43435665892E+02  0.11714686642E+02  0.45045682817E+02  0.00000000000E+00 0.  1.
         11    1    3    3    0    0 -0.46308045178E+00 -0.10458087850E+02 -0.66804767383E+01  0.12418325761E+02  0.51100000000E-03 0. -1.
        -11    1    3    3    0    0  0.23389006120E+01 -0.10102727521E+02 -0.27711788216E+01  0.10733824657E+02  0.51100000000E-03 0.  1.
        -12    1    3    3    0    0  0.40947759140E+00 -0.22874850521E+02 -0.22630310823E+01  0.22990166766E+02  0.00000000000E+00 0.  1.
</event>
<event>
 7    1  0.2031146E-008  0.4614232E+02  0.7816164E-02  0.1320468E+00
        -11   -1    0    0    0    0  0.00000000000E+00  0.00000000000E+00  0.45593999997E+02  0.45594000000E+02  0.51100000000E-03 0. -1.
         11   -1    0    0    0    0 -0.00000000000E+00 -0.00000000000E+00 -0.45593999997E+02  0.45594000000E+02  0.51100000000E-03 0.  1.
    9900012    2    1    2    0    0 -0.31206159656E+02  0.31968919130E+02 -0.57686456154E+01  0.46142318042E+02  0.10000002561E+02 0.  0.
        -12    1    1    2    0    0  0.31206159656E+02 -0.31968919130E+02  0.57686456154E+01  0.45045681958E+02  0.00000000000E+00 0.  1.
         11    1    3    3    0    0 -0.11893561761E+02  0.12267073842E+02 -0.43506507981E+01  0.17631394574E+02  0.51100000000E-03 0. -1.
        -11    1    3    3    0    0 -0.18078231506E+02  0.14644769357E+02 -0.96441924893E+00  0.23285657145E+02  0.51100000000E-03 0.  1.
         12    1    3    3    0    0 -0.12343663897E+01  0.50570759308E+01 -0.45357556833E+00  0.52252663233E+01  0.00000000000E+00 0. -1.
</event>
<event>
 7    1  0.2031146E-008  0.4614232E+02  0.7816164E-02  0.1320468E+00
        -11   -1    0    0    0    0  0.00000000000E+00  0.00000000000E+00  0.45593999997E+02  0.45594000000E+02  0.51100000000E-03 0. -1.
         11   -1    0    0    0    0 -0.00000000000E+00 -0.00000000000E+00 -0.45593999997E+02  0.45594000000E+02  0.51100000000E-03 0.  1.
    9900012    2    1    2    0    0  0.39185220358E+02  0.19397342396E+02 -0.10833982392E+02  0.46142316955E+02  0.99999926523E+01 0.  0.
        -12    1    1    2    0    0 -0.39185220358E+02 -0.19397342396E+02  0.10833982392E+02  0.45045683045E+02  0.00000000000E+00 0.  1.
         11    1    3    3    0    0  0.15285898353E+02  0.59208476922E+01 -0.13942817400E+01  0.16451721724E+02  0.51100000000E-03 0. -1.
        -11    1    3    3    0    0  0.23014681459E+01  0.25376153569E+01 -0.32034790411E+01  0.46902585808E+01  0.51100000000E-03 0.  1.
         12    1    3    3    0    0  0.21597853859E+02  0.10938879347E+02 -0.62362216108E+01  0.25000336651E+02  0.00000000000E+00 0. -1.
</event>
<event>
 7    1  0.2031146E-008  0.4614232E+02  0.7816164E-02  0.1320468E+00
        -11   -1    0    0    0    0  0.00000000000E+00  0.00000000000E+00  0.45593999997E+02  0.45594000000E+02  0.51100000000E-03 0.  1.
         11   -1    0    0    0    0 -0.00000000000E+00 -0.00000000000E+00 -0.45593999997E+02  0.45594000000E+02  0.51100000000E-03 0. -1.
    9900012    2    1    2    0    0 -0.21392992292E+02  0.28607841453E+02 -0.27441659305E+02  0.46142318995E+02  0.10000011250E+02 0.  0.
        -12    1    1    2    0    0  0.21392992292E+02 -0.28607841453E+02  0.27441659305E+02  0.45045681005E+02  0.00000000000E+00 0.  1.
         11    1    3    3    0    0 -0.42183687951E+01  0.38441559018E+01 -0.69655219633E+01  0.90050356119E+01  0.51100000000E-03 0. -1.
        -11    1    3    3    0    0 -0.53286112840E+01  0.49587497195E+01 -0.19281829000E+01  0.75300190275E+01  0.51100000000E-03 0.  1.
        -12    1    3    3    0    0 -0.11846012213E+02  0.19804935832E+02 -0.18547954441E+02  0.29607264356E+02  0.00000000000E+00 0.  1.
</event>
<event>
 7    1  0.2031146E-008  0.4614232E+02  0.7816164E-02  0.1320468E+00
        -11   -1    0    0    0    0  0.00000000000E+00  0.00000000000E+00  0.45593999997E+02  0.45594000000E+02  0.51100000000E-03 0.  1.
         11   -1    0    0    0    0 -0.00000000000E+00 -0.00000000000E+00 -0.45593999997E+02  0.45594000000E+02  0.51100000000E-03 0. -1.
    9900012    2    1    2    0    0 -0.22931365008E+02 -0.10014506601E+02 -0.37456316017E+02  0.46142318152E+02  0.10000003562E+02 0.  0.
        -12    1    1    2    0    0  0.22931365008E+02  0.10014506601E+02  0.37456316017E+02  0.45045681848E+02  0.00000000000E+00 0.  1.
         11    1    3    3    0    0 -0.34447132812E+01 -0.76195700954E-01 -0.25141442167E+01  0.42652991429E+01  0.51100000000E-03 0. -1.
        -11    1    3    3    0    0 -0.87146933495E+01 -0.76484567668E+01 -0.22119857797E+02  0.24974644748E+02  0.51100000000E-03 0.  1.
        -12    1    3    3    0    0 -0.10771958378E+02 -0.22898541335E+01 -0.12822314004E+02  0.16902374261E+02  0.00000000000E+00 0.  1.
</event>
<event>
 7    1  0.2031146E-008  0.4614233E+02  0.7816164E-02  0.1320468E+00
        -11   -1    0    0    0    0  0.00000000000E+00  0.00000000000E+00  0.45593999997E+02  0.45594000000E+02  0.51100000000E-03 0.  1.
         11   -1    0    0    0    0 -0.00000000000E+00 -0.00000000000E+00 -0.45593999997E+02  0.45594000000E+02  0.51100000000E-03 0. -1.
    9900012    2    1    2    0    0  0.29561077143E+02 -0.33261821246E+02 -0.69933182700E+01  0.46142328345E+02  0.10000096508E+02 0.  0.
        -12    1    1    2    0    0 -0.29561077143E+02  0.33261821246E+02  0.69933182700E+01  0.45045671655E+02  0.00000000000E+00 0.  1.
         11    1    3    3    0    0  0.22496044709E+01 -0.40488367959E+01 -0.18560998185E+01  0.49898804067E+01  0.51100000000E-03 0. -1.
        -11    1    3    3    0    0  0.92703103156E+01 -0.12828246034E+02  0.14878679824E+01  0.15897053219E+02  0.51100000000E-03 0.  1.
         12    1    3    3    0    0  0.18041162357E+02 -0.16384738416E+02 -0.66250864339E+01  0.25255394719E+02  0.00000000000E+00 0. -1.
</event>
<event>
 7    1  0.2031146E-008  0.4614232E+02  0.7816164E-02  0.1320468E+00
        -11   -1    0    0    0    0  0.00000000000E+00  0.00000000000E+00  0.45593999997E+02  0.45594000000E+02  0.51100000000E-03 0. -1.
         11   -1    0    0    0    0 -0.00000000000E+00 -0.00000000000E+00 -0.45593999997E+02  0.45594000000E+02  0.51100000000E-03 0.  1.
    9900012    2    1    2    0    0 -0.19513628649E+02  0.27436213765E+02  0.29926340572E+02  0.46142318866E+02  0.10000010074E+02 0.  0.
        -12    1    1    2    0    0  0.19513628649E+02 -0.27436213765E+02 -0.29926340572E+02  0.45045681134E+02  0.00000000000E+00 0.  1.
         11    1    3    3    0    0 -0.61728303721E+01  0.11446976542E+02  0.15860844004E+02  0.20511057494E+02  0.51100000000E-03 0. -1.
        -11    1    3    3    0    0 -0.97074923595E+01  0.14419922151E+02  0.12317469333E+02  0.21304685254E+02  0.51100000000E-03 0.  1.
         12    1    3    3    0    0 -0.36333059173E+01  0.15693150722E+01  0.17480272352E+01  0.43265761174E+01  0.00000000000E+00 0. -1.
</event>
<event>
 7    1  0.2031146E-008  0.4614232E+02  0.7816164E-02  0.1320468E+00
        -11   -1    0    0    0    0  0.00000000000E+00  0.00000000000E+00  0.45593999997E+02  0.45594000000E+02  0.51100000000E-03 0.  1.
         11   -1    0    0    0    0 -0.00000000000E+00 -0.00000000000E+00 -0.45593999997E+02  0.45594000000E+02  0.51100000000E-03 0. -1.
    9900012    2    1    2    0    0 -0.30998812832E+02 -0.29590733637E+02  0.13877158737E+02  0.46142318201E+02  0.10000004007E+02 0.  0.
        -12    1    1    2    0    0  0.30998812832E+02  0.29590733637E+02 -0.13877158737E+02  0.45045681799E+02  0.00000000000E+00 0.  1.
         11    1    3    3    0    0 -0.29238286632E+01 -0.10721575420E+01  0.13896805620E+01  0.34102064706E+01  0.51100000000E-03 0.  1.
        -11    1    3    3    0    0 -0.72408775946E+01 -0.12176330646E+02  0.64903958834E+01  0.15582636982E+02  0.51100000000E-03 0. -1.
         12    1    3    3    0    0 -0.20834106574E+02 -0.16342245449E+02  0.59970822921E+01  0.27149474748E+02  0.00000000000E+00 0. -1.
</event>
<event>
 7    1  0.2031146E-008  0.4614232E+02  0.7816164E-02  0.1320468E+00
        -11   -1    0    0    0    0  0.00000000000E+00  0.00000000000E+00  0.45593999997E+02  0.45594000000E+02  0.51100000000E-03 0. -1.
         11   -1    0    0    0    0 -0.00000000000E+00 -0.00000000000E+00 -0.45593999997E+02  0.45594000000E+02  0.51100000000E-03 0.  1.
    9900012    2    1    2    0    0  0.26306466441E+02  0.30949760704E+02 -0.19472944484E+02  0.46142318397E+02  0.10000005799E+02 0.  0.
        -12    1    1    2    0    0 -0.26306466441E+02 -0.30949760704E+02  0.19472944484E+02  0.45045681603E+02  0.00000000000E+00 0.  1.
         11    1    3    3    0    0  0.16879028426E+02  0.20310997962E+02 -0.98663695355E+01  0.28191904634E+02  0.51100000000E-03 0. -1.
        -11    1    3    3    0    0  0.49886280949E+01  0.35176036917E+01 -0.15060967108E+01  0.62871514666E+01  0.51100000000E-03 0.  1.
        -12    1    3    3    0    0  0.44388099200E+01  0.71211590500E+01 -0.81004782376E+01  0.11663262297E+02  0.00000000000E+00 0.  1.
</event>
<event>
 7    1  0.2031146E-008  0.4614232E+02  0.7816164E-02  0.1320468E+00
        -11   -1    0    0    0    0  0.00000000000E+00  0.00000000000E+00  0.45593999997E+02  0.45594000000E+02  0.51100000000E-03 0.  1.
         11   -1    0    0    0    0 -0.00000000000E+00 -0.00000000000E+00 -0.45593999997E+02  0.45594000000E+02  0.51100000000E-03 0. -1.
    9900012    2    1    2    0    0 -0.27610585012E+02  0.27284193770E+02 -0.22854803125E+02  0.46142315853E+02  0.99999825996E+01 0.  0.
        -12    1    1    2    0    0  0.27610585012E+02 -0.27284193770E+02  0.22854803125E+02  0.45045684147E+02  0.00000000000E+00 0.  1.
         11    1    3    3    0    0 -0.22860377736E+00  0.47223253041E+00 -0.12316955612E-01  0.52480016989E+00  0.51100000000E-03 0. -1.
        -11    1    3    3    0    0 -0.70969330801E+01  0.18768901618E+01 -0.40955031100E+01  0.84060883773E+01  0.51100000000E-03 0.  1.
        -12    1    3    3    0    0 -0.20285048154E+02  0.24935071078E+02 -0.18746983060E+02  0.37211427306E+02  0.00000000000E+00 0.  1.
</event>
<event>
 7    1  0.2031146E-008  0.4614232E+02  0.7816164E-02  0.1320468E+00
        -11   -1    0    0    0    0  0.00000000000E+00  0.00000000000E+00  0.45593999997E+02  0.45594000000E+02  0.51100000000E-03 0.  1.
         11   -1    0    0    0    0 -0.00000000000E+00 -0.00000000000E+00 -0.45593999997E+02  0.45594000000E+02  0.51100000000E-03 0. -1.
    9900012    2    1    2    0    0  0.36890395530E+02 -0.88776491719E+01 -0.24277552666E+02  0.46142317625E+02  0.99999987586E+01 0.  0.
        -12    1    1    2    0    0 -0.36890395530E+02  0.88776491719E+01  0.24277552666E+02  0.45045682375E+02  0.00000000000E+00 0.  1.
         11    1    3    3    0    0  0.40472954244E+01  0.86985631801E+00 -0.16989511505E+01  0.44747832953E+01  0.51100000000E-03 0. -1.
        -11    1    3    3    0    0  0.78006018782E+00 -0.55203116353E+00 -0.26384462321E+01  0.28061773078E+01  0.51100000000E-03 0.  1.
         12    1    3    3    0    0  0.32063039918E+02 -0.91954743263E+01 -0.19940155283E+02  0.38861357022E+02  0.00000000000E+00 0. -1.
</event>
<event>
 7    1  0.2031146E-008  0.4614232E+02  0.7816164E-02  0.1320468E+00
        -11   -1    0    0    0    0  0.00000000000E+00  0.00000000000E+00  0.45593999997E+02  0.45594000000E+02  0.51100000000E-03 0.  1.
         11   -1    0    0    0    0 -0.00000000000E+00 -0.00000000000E+00 -0.45593999997E+02  0.45594000000E+02  0.51100000000E-03 0. -1.
    9900012    2    1    2    0    0  0.18037085426E+02 -0.21650670300E+02 -0.35142929043E+02  0.46142318333E+02  0.10000005215E+02 0.  0.
        -12    1    1    2    0    0 -0.18037085426E+02  0.21650670300E+02  0.35142929043E+02  0.45045681667E+02  0.00000000000E+00 0.  1.
         11    1    3    3    0    0  0.19743577440E+01 -0.18308314450E+01 -0.33734371828E+01  0.43162612257E+01  0.51100000000E-03 0. -1.
        -11    1    3    3    0    0  0.76944135281E+01 -0.29487274208E+01 -0.11629154202E+02  0.14252586455E+02  0.51100000000E-03 0.  1.
         12    1    3    3    0    0  0.83683141537E+01 -0.16871111435E+02 -0.20140337658E+02  0.27573470652E+02  0.00000000000E+00 0. -1.
</event>
<event>
 7    1  0.2031146E-008  0.4614232E+02  0.7816164E-02  0.1320468E+00
        -11   -1    0    0    0    0  0.00000000000E+00  0.00000000000E+00  0.45593999997E+02  0.45594000000E+02  0.51100000000E-03 0. -1.
         11   -1    0    0    0    0 -0.00000000000E+00 -0.00000000000E+00 -0.45593999997E+02  0.45594000000E+02  0.51100000000E-03 0.  1.
    9900012    2    1    2    0    0 -0.14715854151E+02  0.34297983517E+02  0.25223112611E+02  0.46142318226E+02  0.10000004237E+02 0.  0.
        -12    1    1    2    0    0  0.14715854151E+02 -0.34297983517E+02 -0.25223112611E+02  0.45045681774E+02  0.00000000000E+00 0.  1.
         11    1    3    3    0    0 -0.40662362787E+01  0.12529198147E+02  0.70979874572E+01  0.14963171785E+02  0.51100000000E-03 0. -1.
        -11    1    3    3    0    0 -0.36080172595E+01  0.32327497100E+01  0.92897443551E+00  0.49326922664E+01  0.51100000000E-03 0.  1.
        -12    1    3    3    0    0 -0.70416006129E+01  0.18536035660E+02  0.17196150718E+02  0.26246454174E+02  0.00000000000E+00 0.  1.
</event>
<event>
 7    1  0.2031146E-008  0.4614232E+02  0.7816164E-02  0.1320468E+00
        -11   -1    0    0    0    0  0.00000000000E+00  0.00000000000E+00  0.45593999997E+02  0.45594000000E+02  0.51100000000E-03 0.  1.
         11   -1    0    0    0    0 -0.00000000000E+00 -0.00000000000E+00 -0.45593999997E+02  0.45594000000E+02  0.51100000000E-03 0. -1.
    9900012    2    1    2    0    0  0.41915646030E+02 -0.16463195748E+02  0.10748817714E+01  0.46142316886E+02  0.99999920190E+01 0.  0.
        -12    1    1    2    0    0 -0.41915646030E+02  0.16463195748E+02 -0.10748817714E+01  0.45045683114E+02  0.00000000000E+00 0.  1.
         11    1    3    3    0    0  0.11164846102E+02 -0.84524006838E+01 -0.19518222441E+01  0.14138828669E+02  0.51100000000E-03 0. -1.
        -11    1    3    3    0    0  0.17063864242E+01 -0.91838685257E+00  0.48633900340E+00  0.19979276581E+01  0.51100000000E-03 0.  1.
         12    1    3    3    0    0  0.29044413504E+02 -0.70924082118E+01  0.25403650121E+01  0.30005560558E+02  0.00000000000E+00 0. -1.
</event>
<event>
 7    1  0.2031146E-008  0.4614232E+02  0.7816164E-02  0.1320468E+00
        -11   -1    0    0    0    0  0.00000000000E+00  0.00000000000E+00  0.45593999997E+02  0.45594000000E+02  0.51100000000E-03 0.  1.
         11   -1    0    0    0    0 -0.00000000000E+00 -0.00000000000E+00 -0.45593999997E+02  0.45594000000E+02  0.51100000000E-03 0. -1.
    9900012    2    1    2    0    0  0.46106226183E+01  0.24788420792E+02 -0.37328137360E+02  0.46142317798E+02  0.10000000334E+02 0.  0.
        -12    1    1    2    0    0 -0.46106226183E+01 -0.24788420792E+02  0.37328137360E+02  0.45045682202E+02  0.00000000000E+00 0.  1.
         11    1    3    3    0    0  0.19543804254E+01  0.17990213550E+02 -0.26246534618E+02  0.31880212768E+02  0.51100000000E-03 0. -1.
        -11    1    3    3    0    0 -0.13598749104E+01  0.27223065319E+01 -0.54001862435E+01  0.61985663142E+01  0.51100000000E-03 0.  1.
         12    1    3    3    0    0  0.40161171033E+01  0.40759007108E+01 -0.56814164981E+01  0.80635387155E+01  0.00000000000E+00 0. -1.
</event>
<event>
 7    1  0.2281091E-008  0.4614232E+02  0.7816164E-02  0.1320468E+00
        -11   -1    0    0    0    0  0.00000000000E+00  0.00000000000E+00  0.45593999997E+02  0.45594000000E+02  0.51100000000E-03 0.  1.
         11   -1    0    0    0    0 -0.00000000000E+00 -0.00000000000E+00 -0.45593999997E+02  0.45594000000E+02  0.51100000000E-03 0. -1.
    9900012    2    1    2    0    0  0.19186615546E+02 -0.33643788835E+02 -0.23001799044E+02  0.46142317603E+02  0.99999985616E+01 0.  0.
        -12    1    1    2    0    0 -0.19186615546E+02  0.33643788835E+02  0.23001799044E+02  0.45045682397E+02  0.00000000000E+00 0.  1.
         11    1    3    3    0    0  0.94535979124E+01 -0.17949735308E+02 -0.12780820421E+02  0.23977341012E+02  0.51100000000E-03 0. -1.
        -11    1    3    3    0    0  0.76890258754E+01 -0.98321262629E+01 -0.99304780874E+01  0.15950116647E+02  0.51100000000E-03 0.  1.
        -12    1    3    3    0    0  0.20439917578E+01 -0.58619272648E+01 -0.29050053631E+00  0.62148599442E+01  0.00000000000E+00 0.  1.
</event>
<event>
 7    1  0.2031146E-008  0.4614232E+02  0.7816164E-02  0.1320468E+00
        -11   -1    0    0    0    0  0.00000000000E+00  0.00000000000E+00  0.45593999997E+02  0.45594000000E+02  0.51100000000E-03 0.  1.
         11   -1    0    0    0    0 -0.00000000000E+00 -0.00000000000E+00 -0.45593999997E+02  0.45594000000E+02  0.51100000000E-03 0. -1.
    9900012    2    1    2    0    0  0.14916372979E+02 -0.12359540610E+02 -0.40667641932E+02  0.46142317330E+02  0.99999960654E+01 0.  0.
        -12    1    1    2    0    0 -0.14916372979E+02  0.12359540610E+02  0.40667641932E+02  0.45045682670E+02  0.00000000000E+00 0.  1.
         11    1    3    3    0    0  0.60221688222E+01 -0.19488774956E+01 -0.83894101106E+01  0.10509369300E+02  0.51100000000E-03 0. -1.
        -11    1    3    3    0    0 -0.86834640992E+00 -0.47127443459E+00 -0.38451666021E+01  0.39700669440E+01  0.51100000000E-03 0.  1.
         12    1    3    3    0    0  0.97625505666E+01 -0.99393886801E+01 -0.28433065219E+02  0.31662881086E+02  0.00000000000E+00 0. -1.
</event>
<event>
 7    1  0.2031146E-008  0.4614232E+02  0.7816164E-02  0.1320468E+00
        -11   -1    0    0    0    0  0.00000000000E+00  0.00000000000E+00  0.45593999997E+02  0.45594000000E+02  0.51100000000E-03 0. -1.
         11   -1    0    0    0    0 -0.00000000000E+00 -0.00000000000E+00 -0.45593999997E+02  0.45594000000E+02  0.51100000000E-03 0.  1.
    9900012    2    1    2    0    0  0.21961539198E+02 -0.17894175484E+02  0.35022891372E+02  0.46142316075E+02  0.99999846287E+01 0.  0.
        -12    1    1    2    0    0 -0.21961539198E+02  0.17894175484E+02 -0.35022891372E+02  0.45045683925E+02  0.00000000000E+00 0.  1.
         11    1    3    3    0    0  0.33838828048E+01 -0.24123864156E+01  0.20982543862E+01  0.46554207957E+01  0.51100000000E-03 0. -1.
        -11    1    3    3    0    0  0.12908215049E+02 -0.14626327027E+02  0.25396105415E+02  0.32023641713E+02  0.51100000000E-03 0.  1.
         12    1    3    3    0    0  0.56694413441E+01 -0.85546204135E+00  0.75285315704E+01  0.94632535665E+01  0.00000000000E+00 0. -1.
</event>
<event>
 7    1  0.2031146E-008  0.4614231E+02  0.7816164E-02  0.1320468E+00
        -11   -1    0    0    0    0  0.00000000000E+00  0.00000000000E+00  0.45593999997E+02  0.45594000000E+02  0.51100000000E-03 0. -1.
         11   -1    0    0    0    0 -0.00000000000E+00 -0.00000000000E+00 -0.45593999997E+02  0.45594000000E+02  0.51100000000E-03 0.  1.
    9900012    2    1    2    0    0  0.10392400783E+02 -0.43817490353E+02 -0.10674791436E+01  0.46142312453E+02  0.99999515950E+01 0.  0.
        -12    1    1    2    0    0 -0.10392400783E+02  0.43817490353E+02  0.10674791436E+01  0.45045687547E+02  0.00000000000E+00 0.  1.
         11    1    3    3    0    0  0.15260137188E+01 -0.69938958763E+01  0.16524093189E+01  0.73466832120E+01  0.51100000000E-03 0. -1.
        -11    1    3    3    0    0  0.74242562565E+01 -0.23622214502E+02 -0.51600848529E+01  0.25293380061E+02  0.51100000000E-03 0.  1.
        -12    1    3    3    0    0  0.14421308077E+01 -0.13201379974E+02  0.24401963904E+01  0.13502249180E+02  0.00000000000E+00 0.  1.
</event>
<event>
 7    1  0.2031146E-008  0.4614232E+02  0.7816164E-02  0.1320468E+00
        -11   -1    0    0    0    0  0.00000000000E+00  0.00000000000E+00  0.45593999997E+02  0.45594000000E+02  0.51100000000E-03 0.  1.
         11   -1    0    0    0    0 -0.00000000000E+00 -0.00000000000E+00 -0.45593999997E+02  0.45594000000E+02  0.51100000000E-03 0. -1.
    9900012    2    1    2    0    0 -0.33346184248E+02  0.14587648751E+02 -0.26539515598E+02  0.46142318874E+02  0.10000010144E+02 0.  0.
        -12    1    1    2    0    0  0.33346184248E+02 -0.14587648751E+02  0.26539515598E+02  0.45045681126E+02  0.00000000000E+00 0.  1.
         11    1    3    3    0    0 -0.16693225063E+02  0.74082206073E+01 -0.10116715891E+02  0.20878061123E+02  0.51100000000E-03 0. -1.
        -11    1    3    3    0    0 -0.13264125587E+02  0.75626319422E+01 -0.10851279178E+02  0.18731809564E+02  0.51100000000E-03 0.  1.
        -12    1    3    3    0    0 -0.33888335981E+01 -0.38320379877E+00 -0.55715205295E+01  0.65324481871E+01  0.00000000000E+00 0.  1.
</event>
<event>
 7    1  0.2031146E-008  0.4614232E+02  0.7816164E-02  0.1320468E+00
        -11   -1    0    0    0    0  0.00000000000E+00  0.00000000000E+00  0.45593999997E+02  0.45594000000E+02  0.51100000000E-03 0. -1.
         11   -1    0    0    0    0 -0.00000000000E+00 -0.00000000000E+00 -0.45593999997E+02  0.45594000000E+02  0.51100000000E-03 0.  1.
    9900012    2    1    2    0    0 -0.11204859626E+02  0.11165265780E+02  0.42177023043E+02  0.46142319719E+02  0.10000017858E+02 0.  0.
        -12    1    1    2    0    0  0.11204859626E+02 -0.11165265780E+02 -0.42177023043E+02  0.45045680281E+02  0.00000000000E+00 0.  1.
         11    1    3    3    0    0 -0.10447000212E+01  0.11515522035E+01  0.15731264978E+01  0.22118313342E+01  0.51100000000E-03 0. -1.
        -11    1    3    3    0    0 -0.64576850192E+01  0.42037593508E+00  0.14787277192E+02  0.16141312795E+02  0.51100000000E-03 0.  1.
         12    1    3    3    0    0 -0.37024745853E+01  0.95933376412E+01  0.25816619354E+02  0.27789175590E+02  0.00000000000E+00 0. -1.
</event>
<event>
 7    1  0.2031146E-008  0.4614232E+02  0.7816164E-02  0.1320468E+00
        -11   -1    0    0    0    0  0.00000000000E+00  0.00000000000E+00  0.45593999997E+02  0.45594000000E+02  0.51100000000E-03 0.  1.
         11   -1    0    0    0    0 -0.00000000000E+00 -0.00000000000E+00 -0.45593999997E+02  0.45594000000E+02  0.51100000000E-03 0. -1.
    9900012    2    1    2    0    0 -0.16080274939E+02  0.35448265319E+02 -0.22670658560E+02  0.46142317457E+02  0.99999972247E+01 0.  0.
        -12    1    1    2    0    0  0.16080274939E+02 -0.35448265319E+02  0.22670658560E+02  0.45045682543E+02  0.00000000000E+00 0.  1.
         11    1    3    3    0    0 -0.12205028252E+02  0.25164058583E+02 -0.15774750641E+02  0.32109738664E+02  0.51100000000E-03 0. -1.
        -11    1    3    3    0    0  0.36755094899E+00  0.63484306193E+01 -0.28329239874E+01  0.69615460645E+01  0.51100000000E-03 0.  1.
         12    1    3    3    0    0 -0.42427976360E+01  0.39357761166E+01 -0.40629839311E+01  0.70710327283E+01  0.00000000000E+00 0. -1.
</event>
<event>
 7    1  0.2031146E-008  0.4614232E+02  0.7816164E-02  0.1320468E+00
        -11   -1    0    0    0    0  0.00000000000E+00  0.00000000000E+00  0.45593999997E+02  0.45594000000E+02  0.51100000000E-03 0.  1.
         11   -1    0    0    0    0 -0.00000000000E+00 -0.00000000000E+00 -0.45593999997E+02  0.45594000000E+02  0.51100000000E-03 0. -1.
    9900012    2    1    2    0    0  0.42095975611E+02 -0.17144213876E+01 -0.15940610520E+02  0.46142317997E+02  0.10000002151E+02 0.  0.
        -12    1    1    2    0    0 -0.42095975611E+02  0.17144213876E+01  0.15940610520E+02  0.45045682003E+02  0.00000000000E+00 0.  1.
         11    1    3    3    0    0  0.17952575942E+02 -0.91387961379E-01 -0.24844387385E+01  0.18123900541E+02  0.51100000000E-03 0. -1.
        -11    1    3    3    0    0  0.75328211466E+00 -0.80006430729E+00 -0.10897866722E+01  0.15476343535E+01  0.51100000000E-03 0.  1.
         12    1    3    3    0    0  0.23390117555E+02 -0.82296911892E+00 -0.12366385109E+02  0.26470783103E+02  0.00000000000E+00 0. -1.
</event>
<event>
 7    1  0.2031146E-008  0.4614232E+02  0.7816164E-02  0.1320468E+00
        -11   -1    0    0    0    0  0.00000000000E+00  0.00000000000E+00  0.45593999997E+02  0.45594000000E+02  0.51100000000E-03 0.  1.
         11   -1    0    0    0    0 -0.00000000000E+00 -0.00000000000E+00 -0.45593999997E+02  0.45594000000E+02  0.51100000000E-03 0. -1.
    9900012    2    1    2    0    0  0.23822779151E+02  0.11987245584E+02 -0.36302819291E+02  0.46142317059E+02  0.99999935976E+01 0.  0.
        -12    1    1    2    0    0 -0.23822779151E+02 -0.11987245584E+02  0.36302819291E+02  0.45045682941E+02  0.00000000000E+00 0.  1.
         11    1    3    3    0    0  0.10169208334E+02  0.75098880490E+01 -0.20372900642E+02  0.23976369564E+02  0.51100000000E-03 0. -1.
        -11    1    3    3    0    0  0.12402071506E+02  0.42320747275E+01 -0.16225948226E+02  0.20856731053E+02  0.51100000000E-03 0.  1.
        -12    1    3    3    0    0  0.12514993104E+01  0.24528280719E+00  0.29602957707E+00  0.13092164412E+01  0.00000000000E+00 0.  1.
</event>
<event>
 7    1  0.2031146E-008  0.4614232E+02  0.7816164E-02  0.1320468E+00
        -11   -1    0    0    0    0  0.00000000000E+00  0.00000000000E+00  0.45593999997E+02  0.45594000000E+02  0.51100000000E-03 0.  1.
         11   -1    0    0    0    0 -0.00000000000E+00 -0.00000000000E+00 -0.45593999997E+02  0.45594000000E+02  0.51100000000E-03 0. -1.
    9900012    2    1    2    0    0  0.67252574298E+01 -0.19357286730E+02 -0.40114583429E+02  0.46142318290E+02  0.10000004821E+02 0.  0.
        -12    1    1    2    0    0 -0.67252574298E+01  0.19357286730E+02  0.40114583429E+02  0.45045681710E+02  0.00000000000E+00 0.  1.
         11    1    3    3    0    0  0.12653283639E+01 -0.62020762642E+01 -0.11381551444E+02  0.13023306776E+02  0.51100000000E-03 0. -1.
        -11    1    3    3    0    0  0.40795466867E+01 -0.10400006583E+01 -0.87364352468E+01  0.96979174889E+01  0.51100000000E-03 0.  1.
        -12    1    3    3    0    0  0.13803823792E+01 -0.12115209807E+02 -0.19996596738E+02  0.23421094024E+02  0.00000000000E+00 0.  1.
</event>
<event>
 7    1  0.2031146E-008  0.4614232E+02  0.7816164E-02  0.1320468E+00
        -11   -1    0    0    0    0  0.00000000000E+00  0.00000000000E+00  0.45593999997E+02  0.45594000000E+02  0.51100000000E-03 0.  1.
         11   -1    0    0    0    0 -0.00000000000E+00 -0.00000000000E+00 -0.45593999997E+02  0.45594000000E+02  0.51100000000E-03 0. -1.
    9900012    2    1    2    0    0 -0.25037083341E+02 -0.10264327730E+02 -0.36012518996E+02  0.46142317738E+02  0.99999997936E+01 0.  0.
        -12    1    1    2    0    0  0.25037083341E+02  0.10264327730E+02  0.36012518996E+02  0.45045682262E+02  0.00000000000E+00 0.  1.
         11    1    3    3    0    0 -0.43180953662E+01 -0.19534290196E+01 -0.52542626337E+01  0.70759528413E+01  0.51100000000E-03 0. -1.
        -11    1    3    3    0    0 -0.21406046050E+02 -0.68656360204E+01 -0.28909009722E+02  0.36620849373E+02  0.51100000000E-03 0.  1.
        -12    1    3    3    0    0  0.68705807496E+00 -0.14452626902E+01 -0.18492466403E+01  0.24455155241E+01  0.00000000000E+00 0.  1.
</event>
<event>
 7    1  0.2031146E-008  0.4614232E+02  0.7816164E-02  0.1320468E+00
        -11   -1    0    0    0    0  0.00000000000E+00  0.00000000000E+00  0.45593999997E+02  0.45594000000E+02  0.51100000000E-03 0. -1.
         11   -1    0    0    0    0 -0.00000000000E+00 -0.00000000000E+00 -0.45593999997E+02  0.45594000000E+02  0.51100000000E-03 0.  1.
    9900012    2    1    2    0    0 -0.20096645041E+02  0.27125464353E+02  0.29823608125E+02  0.46142316967E+02  0.99999927618E+01 0.  0.
        -12    1    1    2    0    0  0.20096645041E+02 -0.27125464353E+02 -0.29823608125E+02  0.45045683033E+02  0.00000000000E+00 0.  1.
         11    1    3    3    0    0 -0.82925360204E+01  0.72963194565E+01  0.97885301438E+01  0.14758650138E+02  0.51100000000E-03 0. -1.
        -11    1    3    3    0    0 -0.10488032449E+02  0.20049504343E+02  0.19715886496E+02  0.30011624908E+02  0.51100000000E-03 0.  1.
         12    1    3    3    0    0 -0.13160765720E+01 -0.22035944639E+00  0.31919148539E+00  0.13720419211E+01  0.00000000000E+00 0. -1.
</event>
<event>
 7    1  0.2031146E-008  0.4614232E+02  0.7816164E-02  0.1320468E+00
        -11   -1    0    0    0    0  0.00000000000E+00  0.00000000000E+00  0.45593999997E+02  0.45594000000E+02  0.51100000000E-03 0. -1.
         11   -1    0    0    0    0 -0.00000000000E+00 -0.00000000000E+00 -0.45593999997E+02  0.45594000000E+02  0.51100000000E-03 0.  1.
    9900012    2    1    2    0    0  0.22465095071E+02 -0.15556010033E+02  0.35811220653E+02  0.46142317972E+02  0.10000001927E+02 0.  0.
        -12    1    1    2    0    0 -0.22465095071E+02  0.15556010033E+02 -0.35811220653E+02  0.45045682028E+02  0.00000000000E+00 0.  1.
         11    1    3    3    0    0  0.20828906418E+01  0.52363835607E+00  0.21578934713E+01  0.30445254225E+01  0.51100000000E-03 0. -1.
        -11    1    3    3    0    0  0.19667547010E+02 -0.13986636953E+02  0.27655065185E+02  0.36704782376E+02  0.51100000000E-03 0.  1.
        -12    1    3    3    0    0  0.71465741859E+00 -0.20930114362E+01  0.59982619968E+01  0.63930101737E+01  0.00000000000E+00 0.  1.
</event>
<event>
 7    1  0.2031146E-008  0.4614232E+02  0.7816164E-02  0.1320468E+00
        -11   -1    0    0    0    0  0.00000000000E+00  0.00000000000E+00  0.45593999997E+02  0.45594000000E+02  0.51100000000E-03 0.  1.
         11   -1    0    0    0    0 -0.00000000000E+00 -0.00000000000E+00 -0.45593999997E+02  0.45594000000E+02  0.51100000000E-03 0. -1.
    9900012    2    1    2    0    0  0.39108916274E+02  0.11280244181E+02 -0.19296689742E+02  0.46142317899E+02  0.10000001257E+02 0.  0.
        -12    1    1    2    0    0 -0.39108916274E+02 -0.11280244181E+02  0.19296689742E+02  0.45045682101E+02  0.00000000000E+00 0.  1.
         11    1    3    3    0    0  0.16726968122E+02  0.92213505871E+01 -0.81447444212E+01  0.20764431877E+02  0.51100000000E-03 0. -1.
        -11    1    3    3    0    0  0.18809195051E+02  0.25034441734E+01 -0.10601351288E+02  0.21735724065E+02  0.51100000000E-03 0.  1.
        -12    1    3    3    0    0  0.35727531008E+01 -0.44455057963E+00 -0.55059403252E+00  0.36421619576E+01  0.00000000000E+00 0.  1.
</event>
<event>
 7    1  0.2031146E-008  0.4614232E+02  0.7816164E-02  0.1320468E+00
        -11   -1    0    0    0    0  0.00000000000E+00  0.00000000000E+00  0.45593999997E+02  0.45594000000E+02  0.51100000000E-03 0.  1.
         11   -1    0    0    0    0 -0.00000000000E+00 -0.00000000000E+00 -0.45593999997E+02  0.45594000000E+02  0.51100000000E-03 0. -1.
    9900012    2    1    2    0    0  0.13642241849E+02  0.12374861787E+02 -0.41107972854E+02  0.46142318752E+02  0.10000009034E+02 0.  0.
        -12    1    1    2    0    0 -0.13642241849E+02 -0.12374861787E+02  0.41107972854E+02  0.45045681248E+02  0.00000000000E+00 0.  1.
         11    1    3    3    0    0 -0.70663528746E+00  0.12557155274E+01 -0.71484330738E+01  0.72922047823E+01  0.51100000000E-03 0. -1.
        -11    1    3    3    0    0  0.17037365967E+01 -0.93720464557E-01 -0.15809508085E+01  0.23261357734E+01  0.51100000000E-03 0.  1.
         12    1    3    3    0    0  0.12645140540E+02  0.11212866724E+02 -0.32378588972E+02  0.36523978196E+02  0.00000000000E+00 0. -1.
</event>
<event>
 7    1  0.2031146E-008  0.4614231E+02  0.7816164E-02  0.1320468E+00
        -11   -1    0    0    0    0  0.00000000000E+00  0.00000000000E+00  0.45593999997E+02  0.45594000000E+02  0.51100000000E-03 0.  1.
         11   -1    0    0    0    0 -0.00000000000E+00 -0.00000000000E+00 -0.45593999997E+02  0.45594000000E+02  0.51100000000E-03 0. -1.
    9900012    2    1    2    0    0  0.73862383534E+01  0.41123114894E+02 -0.16835877429E+02  0.46142313587E+02  0.99999619396E+01 0.  0.
        -12    1    1    2    0    0 -0.73862383534E+01 -0.41123114894E+02  0.16835877429E+02  0.45045686413E+02  0.00000000000E+00 0.  1.
         11    1    3    3    0    0 -0.10812811218E+01  0.62638397573E+01 -0.17140824360E+01  0.65835352378E+01  0.51100000000E-03 0. -1.
        -11    1    3    3    0    0  0.88460596459E+01  0.33107778458E+02 -0.12701470702E+02  0.36547299817E+02  0.51100000000E-03 0.  1.
        -12    1    3    3    0    0 -0.37854017070E+00  0.17514966786E+01 -0.24203242909E+01  0.30114785321E+01  0.00000000000E+00 0.  1.
</event>
<event>
 7    1  0.2031146E-008  0.4614232E+02  0.7816164E-02  0.1320468E+00
        -11   -1    0    0    0    0  0.00000000000E+00  0.00000000000E+00  0.45593999997E+02  0.45594000000E+02  0.51100000000E-03 0.  1.
         11   -1    0    0    0    0 -0.00000000000E+00 -0.00000000000E+00 -0.45593999997E+02  0.45594000000E+02  0.51100000000E-03 0. -1.
    9900012    2    1    2    0    0 -0.10174607352E+02 -0.15629818311E+02 -0.41003653929E+02  0.46142317735E+02  0.99999997588E+01 0.  0.
        -12    1    1    2    0    0  0.10174607352E+02  0.15629818311E+02  0.41003653929E+02  0.45045682265E+02  0.00000000000E+00 0.  1.
         11    1    3    3    0    0 -0.40968669381E+01 -0.11273874374E+02 -0.26737538081E+02  0.29304957003E+02  0.51100000000E-03 0.  1.
        -11    1    3    3    0    0 -0.31812248701E+00 -0.18185527064E+01 -0.69287296105E+01  0.71704693109E+01  0.51100000000E-03 0. -1.
         12    1    3    3    0    0 -0.57596179270E+01 -0.25373912311E+01 -0.73373862380E+01  0.96668914202E+01  0.00000000000E+00 0. -1.
</event>
<event>
 7    1  0.2031146E-008  0.4614232E+02  0.7816164E-02  0.1320468E+00
        -11   -1    0    0    0    0  0.00000000000E+00  0.00000000000E+00  0.45593999997E+02  0.45594000000E+02  0.51100000000E-03 0.  1.
         11   -1    0    0    0    0 -0.00000000000E+00 -0.00000000000E+00 -0.45593999997E+02  0.45594000000E+02  0.51100000000E-03 0. -1.
    9900012    2    1    2    0    0  0.17269201523E+02  0.39472995739E+02 -0.13144216763E+02  0.46142321538E+02  0.10000034437E+02 0.  0.
        -12    1    1    2    0    0 -0.17269201523E+02 -0.39472995739E+02  0.13144216763E+02  0.45045678462E+02  0.00000000000E+00 0.  1.
         11    1    3    3    0    0  0.77429197144E+01  0.21331827837E+02 -0.56515460700E+01  0.23386741069E+02  0.51100000000E-03 0. -1.
        -11    1    3    3    0    0 -0.49948372156E-02  0.58575010929E+01 -0.11802646349E+01  0.59752296082E+01  0.51100000000E-03 0.  1.
         12    1    3    3    0    0  0.95312766453E+01  0.12283666808E+02 -0.63124060584E+01  0.16780350860E+02  0.00000000000E+00 0. -1.
</event>
<event>
 7    1  0.2031146E-008  0.4614232E+02  0.7816164E-02  0.1320468E+00
        -11   -1    0    0    0    0  0.00000000000E+00  0.00000000000E+00  0.45593999997E+02  0.45594000000E+02  0.51100000000E-03 0.  1.
         11   -1    0    0    0    0 -0.00000000000E+00 -0.00000000000E+00 -0.45593999997E+02  0.45594000000E+02  0.51100000000E-03 0. -1.
    9900012    2    1    2    0    0 -0.42394598435E+02 -0.85922377214E+01  0.12569207319E+02  0.46142317652E+02  0.99999990074E+01 0.  0.
        -12    1    1    2    0    0  0.42394598435E+02  0.85922377214E+01 -0.12569207319E+02  0.45045682348E+02  0.00000000000E+00 0.  1.
         11    1    3    3    0    0 -0.14462123958E+02  0.81603095097E+00  0.21989774436E+01  0.14651089992E+02  0.51100000000E-03 0. -1.
        -11    1    3    3    0    0 -0.82256891319E+01 -0.43794538187E+01  0.43242789100E+01  0.10273313282E+02  0.51100000000E-03 0.  1.
         12    1    3    3    0    0 -0.19706785345E+02 -0.50288148537E+01  0.60459509655E+01  0.21217914378E+02  0.00000000000E+00 0. -1.
</event>
<event>
 7    1  0.2031146E-008  0.4614232E+02  0.7816164E-02  0.1320468E+00
        -11   -1    0    0    0    0  0.00000000000E+00  0.00000000000E+00  0.45593999997E+02  0.45594000000E+02  0.51100000000E-03 0.  1.
         11   -1    0    0    0    0 -0.00000000000E+00 -0.00000000000E+00 -0.45593999997E+02  0.45594000000E+02  0.51100000000E-03 0. -1.
    9900012    2    1    2    0    0  0.10701826211E+01  0.16198076297E+02 -0.42018929565E+02  0.46142318649E+02  0.10000008096E+02 0.  0.
        -12    1    1    2    0    0 -0.10701826211E+01 -0.16198076297E+02  0.42018929565E+02  0.45045681351E+02  0.00000000000E+00 0.  1.
         11    1    3    3    0    0  0.27567637448E+01  0.15999848222E+02 -0.35654388874E+02  0.39176910748E+02  0.51100000000E-03 0. -1.
        -11    1    3    3    0    0 -0.60083257121E+00  0.14581249261E+00 -0.56057753940E+01  0.56397676451E+01  0.51100000000E-03 0.  1.
         12    1    3    3    0    0 -0.10857485525E+01  0.52415582624E-01 -0.75876529676E+00  0.13256402560E+01  0.00000000000E+00 0. -1.
</event>
<event>
 7    1  0.2031146E-008  0.4614232E+02  0.7816164E-02  0.1320468E+00
        -11   -1    0    0    0    0  0.00000000000E+00  0.00000000000E+00  0.45593999997E+02  0.45594000000E+02  0.51100000000E-03 0.  1.
         11   -1    0    0    0    0 -0.00000000000E+00 -0.00000000000E+00 -0.45593999997E+02  0.45594000000E+02  0.51100000000E-03 0. -1.
    9900012    2    1    2    0    0  0.17206156975E+02 -0.18259023948E+02 -0.37412158995E+02  0.46142318364E+02  0.10000005497E+02 0.  0.
        -12    1    1    2    0    0 -0.17206156975E+02  0.18259023948E+02  0.37412158995E+02  0.45045681636E+02  0.00000000000E+00 0.  1.
         11    1    3    3    0    0  0.12535546017E+01 -0.27174038596E+00 -0.10261043710E+01  0.16425992871E+01  0.51100000000E-03 0.  1.
        -11    1    3    3    0    0  0.89227411812E+01 -0.91612925707E+01 -0.26796609679E+02  0.29691798233E+02  0.51100000000E-03 0. -1.
         12    1    3    3    0    0  0.70298611924E+01 -0.88259909916E+01 -0.95894449447E+01  0.14807920844E+02  0.00000000000E+00 0. -1.
</event>
<event>
 7    1  0.2031146E-008  0.4614232E+02  0.7816164E-02  0.1320468E+00
        -11   -1    0    0    0    0  0.00000000000E+00  0.00000000000E+00  0.45593999997E+02  0.45594000000E+02  0.51100000000E-03 0.  1.
         11   -1    0    0    0    0 -0.00000000000E+00 -0.00000000000E+00 -0.45593999997E+02  0.45594000000E+02  0.51100000000E-03 0. -1.
    9900012    2    1    2    0    0 -0.29560779320E+02 -0.98781911242E+01 -0.32522225184E+02  0.46142318023E+02  0.10000002385E+02 0.  0.
        -12    1    1    2    0    0  0.29560779320E+02  0.98781911242E+01  0.32522225184E+02  0.45045681977E+02  0.00000000000E+00 0.  1.
         11    1    3    3    0    0 -0.70211526949E+00  0.30392529648E-01 -0.44872643189E+00  0.83381366582E+00  0.51100000000E-03 0.  1.
        -11    1    3    3    0    0 -0.25471465484E+02 -0.74917245872E+01 -0.31354835033E+02  0.41085851232E+02  0.51100000000E-03 0. -1.
         12    1    3    3    0    0 -0.33871985661E+01 -0.24168590666E+01 -0.71866371892E+00  0.42226531251E+01  0.00000000000E+00 0. -1.
</event>
<event>
 7    1  0.2031146E-008  0.4614232E+02  0.7816164E-02  0.1320468E+00
        -11   -1    0    0    0    0  0.00000000000E+00  0.00000000000E+00  0.45593999997E+02  0.45594000000E+02  0.51100000000E-03 0. -1.
         11   -1    0    0    0    0 -0.00000000000E+00 -0.00000000000E+00 -0.45593999997E+02  0.45594000000E+02  0.51100000000E-03 0.  1.
    9900012    2    1    2    0    0 -0.27082590969E+02  0.98621524837E+01  0.34617693796E+02  0.46142317533E+02  0.99999979184E+01 0.  0.
        -12    1    1    2    0    0  0.27082590969E+02 -0.98621524837E+01 -0.34617693796E+02  0.45045682467E+02  0.00000000000E+00 0.  1.
         11    1    3    3    0    0 -0.18371275242E+02  0.25937353521E+01  0.22708489376E+02  0.29324165923E+02  0.51100000000E-03 0. -1.
        -11    1    3    3    0    0 -0.10018193216E+01  0.27005053030E+01  0.23700669807E+01  0.37300923043E+01  0.51100000000E-03 0.  1.
        -12    1    3    3    0    0 -0.77094964050E+01  0.45679118286E+01  0.95391374394E+01  0.13088059305E+02  0.00000000000E+00 0.  1.
</event>
<event>
 7    1  0.2031146E-008  0.4614231E+02  0.7816164E-02  0.1320468E+00
        -11   -1    0    0    0    0  0.00000000000E+00  0.00000000000E+00  0.45593999997E+02  0.45594000000E+02  0.51100000000E-03 0.  1.
         11   -1    0    0    0    0 -0.00000000000E+00 -0.00000000000E+00 -0.45593999997E+02  0.45594000000E+02  0.51100000000E-03 0. -1.
    9900012    2    1    2    0    0  0.21672769540E+02 -0.38507454337E+02 -0.87510441296E+01  0.46142314831E+02  0.99999732763E+01 0.  0.
        -12    1    1    2    0    0 -0.21672769540E+02  0.38507454337E+02  0.87510441296E+01  0.45045685169E+02  0.00000000000E+00 0.  1.
         11    1    3    3    0    0  0.20677405104E+01 -0.46392796205E+01 -0.31122861947E+01  0.59569112663E+01  0.51100000000E-03 0. -1.
        -11    1    3    3    0    0  0.14490580331E+02 -0.30160966916E+02 -0.44168462950E+01  0.33751583298E+02  0.51100000000E-03 0.  1.
         12    1    3    3    0    0  0.51144486988E+01 -0.37072077997E+01 -0.12219116399E+01  0.64338202662E+01  0.00000000000E+00 0. -1.
</event>
<event>
 7    1  0.2031146E-008  0.4614233E+02  0.7816164E-02  0.1320468E+00
        -11   -1    0    0    0    0  0.00000000000E+00  0.00000000000E+00  0.45593999997E+02  0.45594000000E+02  0.51100000000E-03 0. -1.
         11   -1    0    0    0    0 -0.00000000000E+00 -0.00000000000E+00 -0.45593999997E+02  0.45594000000E+02  0.51100000000E-03 0.  1.
    9900012    2    1    2    0    0  0.37337077664E+02  0.10125735336E+02  0.23076499960E+02  0.46142326123E+02  0.10000076250E+02 0.  0.
        -12    1    1    2    0    0 -0.37337077664E+02 -0.10125735336E+02 -0.23076499960E+02  0.45045673877E+02  0.00000000000E+00 0.  1.
         11    1    3    3    0    0  0.90112555935E+01  0.12415575073E+01  0.71102686144E+01  0.11545566788E+02  0.51100000000E-03 0. -1.
        -11    1    3    3    0    0  0.18789099012E+02  0.20454844925E+01  0.10866755015E+02  0.21801390170E+02  0.51100000000E-03 0.  1.
        -12    1    3    3    0    0  0.95367230587E+01  0.68386933365E+01  0.50994763303E+01  0.12795369166E+02  0.00000000000E+00 0.  1.
</event>
<event>
 7    1  0.2031146E-008  0.4614232E+02  0.7816164E-02  0.1320468E+00
        -11   -1    0    0    0    0  0.00000000000E+00  0.00000000000E+00  0.45593999997E+02  0.45594000000E+02  0.51100000000E-03 0.  1.
         11   -1    0    0    0    0 -0.00000000000E+00 -0.00000000000E+00 -0.45593999997E+02  0.45594000000E+02  0.51100000000E-03 0. -1.
    9900012    2    1    2    0    0 -0.13818320060E+01 -0.23711209388E+02 -0.38275090680E+02  0.46142317889E+02  0.10000001162E+02 0.  0.
        -12    1    1    2    0    0  0.13818320060E+01  0.23711209388E+02  0.38275090680E+02  0.45045682111E+02  0.00000000000E+00 0.  1.
         11    1    3    3    0    0 -0.20074479025E+01 -0.58038524693E+01 -0.43318090224E+01  0.75152591595E+01  0.51100000000E-03 0. -1.
        -11    1    3    3    0    0 -0.13535028500E+01 -0.42342728390E+01 -0.61381384516E+01  0.75787716915E+01  0.51100000000E-03 0.  1.
         12    1    3    3    0    0  0.19791187465E+01 -0.13673084079E+02 -0.27805143206E+02  0.31048287038E+02  0.00000000000E+00 0. -1.
</event>
<event>
 7    1  0.2031146E-008  0.4614232E+02  0.7816164E-02  0.1320468E+00
        -11   -1    0    0    0    0  0.00000000000E+00  0.00000000000E+00  0.45593999997E+02  0.45594000000E+02  0.51100000000E-03 0.  1.
         11   -1    0    0    0    0 -0.00000000000E+00 -0.00000000000E+00 -0.45593999997E+02  0.45594000000E+02  0.51100000000E-03 0. -1.
    9900012    2    1    2    0    0  0.12914756574E+02 -0.22834527538E+02 -0.36618396442E+02  0.46142317152E+02  0.99999944433E+01 0.  0.
        -12    1    1    2    0    0 -0.12914756574E+02  0.22834527538E+02  0.36618396442E+02  0.45045682848E+02  0.00000000000E+00 0.  1.
         11    1    3    3    0    0  0.22286421235E+01 -0.43776771319E+01 -0.10105428966E+02  0.11236129121E+02  0.51100000000E-03 0. -1.
        -11    1    3    3    0    0  0.87675099341E+01 -0.18778144570E+02 -0.23656773064E+02  0.31450450808E+02  0.51100000000E-03 0.  1.
        -12    1    3    3    0    0  0.19186045166E+01  0.32129416399E+00 -0.28561944127E+01  0.34557372230E+01  0.00000000000E+00 0.  1.
</event>
<event>
 7    1  0.2031146E-008  0.4614232E+02  0.7816164E-02  0.1320468E+00
        -11   -1    0    0    0    0  0.00000000000E+00  0.00000000000E+00  0.45593999997E+02  0.45594000000E+02  0.51100000000E-03 0.  1.
         11   -1    0    0    0    0 -0.00000000000E+00 -0.00000000000E+00 -0.45593999997E+02  0.45594000000E+02  0.51100000000E-03 0. -1.
    9900012    2    1    2    0    0  0.24397780036E+02 -0.93583229788E-01 -0.37866251572E+02  0.46142318335E+02  0.10000005237E+02 0.  0.
        -12    1    1    2    0    0 -0.24397780036E+02  0.93583229788E-01  0.37866251572E+02  0.45045681665E+02  0.00000000000E+00 0.  1.
         11    1    3    3    0    0  0.17852614676E+02  0.20260526870E+01 -0.21017414933E+02  0.27650541965E+02  0.51100000000E-03 0. -1.
        -11    1    3    3    0    0 -0.30346615309E+00 -0.33628878206E+00 -0.48748456736E+00  0.66544970925E+00  0.51100000000E-03 0.  1.
         12    1    3    3    0    0  0.68486315139E+01 -0.17833471348E+01 -0.16361352071E+02  0.17826326661E+02  0.00000000000E+00 0. -1.
</event>
<event>
 7    1  0.2031146E-008  0.4614232E+02  0.7816164E-02  0.1320468E+00
        -11   -1    0    0    0    0  0.00000000000E+00  0.00000000000E+00  0.45593999997E+02  0.45594000000E+02  0.51100000000E-03 0.  1.
         11   -1    0    0    0    0 -0.00000000000E+00 -0.00000000000E+00 -0.45593999997E+02  0.45594000000E+02  0.51100000000E-03 0. -1.
    9900012    2    1    2    0    0 -0.54224321603E+01  0.68354042493E+01 -0.44192623399E+02  0.46142317802E+02  0.10000000375E+02 0.  0.
        -12    1    1    2    0    0  0.54224321603E+01 -0.68354042493E+01  0.44192623399E+02  0.45045682198E+02  0.00000000000E+00 0.  1.
         11    1    3    3    0    0 -0.17321358604E+01  0.75325088787E+01 -0.22978811376E+02  0.24243860195E+02  0.51100000000E-03 0. -1.
        -11    1    3    3    0    0 -0.19811307075E+01  0.62568148169E+00 -0.36313797088E+01  0.41836915574E+01  0.51100000000E-03 0.  1.
         12    1    3    3    0    0 -0.17091655923E+01 -0.13227861111E+01 -0.17582432314E+02  0.17714766050E+02  0.00000000000E+00 0. -1.
</event>
<event>
 7    1  0.2031146E-008  0.4614232E+02  0.7816164E-02  0.1320468E+00
        -11   -1    0    0    0    0  0.00000000000E+00  0.00000000000E+00  0.45593999997E+02  0.45594000000E+02  0.51100000000E-03 0.  1.
         11   -1    0    0    0    0 -0.00000000000E+00 -0.00000000000E+00 -0.45593999997E+02  0.45594000000E+02  0.51100000000E-03 0. -1.
    9900012    2    1    2    0    0 -0.13709625182E+02 -0.42877152426E+02  0.16460789662E+01  0.46142316535E+02  0.99999888222E+01 0.  0.
        -12    1    1    2    0    0  0.13709625182E+02  0.42877152426E+02 -0.16460789662E+01  0.45045683465E+02  0.00000000000E+00 0.  1.
         11    1    3    3    0    0 -0.39752468703E+01 -0.17612718598E+02  0.39742587778E+01  0.18487973853E+02  0.51100000000E-03 0. -1.
        -11    1    3    3    0    0  0.61977501808E-01 -0.54491080033E+01 -0.59495243120E+00  0.54818416521E+01  0.51100000000E-03 0.  1.
        -12    1    3    3    0    0 -0.97963558137E+01 -0.19815325825E+02 -0.17332273804E+01  0.22172501030E+02  0.00000000000E+00 0.  1.
</event>
<event>
 7    1  0.2031146E-008  0.4614232E+02  0.7816164E-02  0.1320468E+00
        -11   -1    0    0    0    0  0.00000000000E+00  0.00000000000E+00  0.45593999997E+02  0.45594000000E+02  0.51100000000E-03 0.  1.
         11   -1    0    0    0    0 -0.00000000000E+00 -0.00000000000E+00 -0.45593999997E+02  0.45594000000E+02  0.51100000000E-03 0. -1.
    9900012    2    1    2    0    0 -0.40851954472E+01  0.32718993133E+02 -0.30690261583E+02  0.46142317749E+02  0.99999998867E+01 0.  0.
        -12    1    1    2    0    0  0.40851954472E+01 -0.32718993133E+02  0.30690261583E+02  0.45045682251E+02  0.00000000000E+00 0.  1.
         11    1    3    3    0    0  0.67322630309E+00  0.62604825415E+01 -0.68947983853E+01  0.93372972719E+01  0.51100000000E-03 0. -1.
        -11    1    3    3    0    0 -0.61529185639E+01  0.24799584954E+02 -0.23304540919E+02  0.34582935798E+02  0.51100000000E-03 0.  1.
        -12    1    3    3    0    0  0.13944968137E+01  0.16589256376E+01 -0.49092227840E+00  0.22220846784E+01  0.00000000000E+00 0.  1.
</event>
<event>
 7    1  0.2031146E-008  0.4614232E+02  0.7816164E-02  0.1320468E+00
        -11   -1    0    0    0    0  0.00000000000E+00  0.00000000000E+00  0.45593999997E+02  0.45594000000E+02  0.51100000000E-03 0.  1.
         11   -1    0    0    0    0 -0.00000000000E+00 -0.00000000000E+00 -0.45593999997E+02  0.45594000000E+02  0.51100000000E-03 0. -1.
    9900012    2    1    2    0    0  0.18271120772E+02 -0.23979935366E+02 -0.33470024375E+02  0.46142315566E+02  0.99999799853E+01 0.  0.
        -12    1    1    2    0    0 -0.18271120772E+02  0.23979935366E+02  0.33470024375E+02  0.45045684434E+02  0.00000000000E+00 0.  1.
         11    1    3    3    0    0  0.11165852914E+02 -0.11837644096E+02 -0.18253132658E+02  0.24453689724E+02  0.51100000000E-03 0. -1.
        -11    1    3    3    0    0 -0.11113429640E+01 -0.19286627935E+01 -0.32508586639E+01  0.39399118859E+01  0.51100000000E-03 0.  1.
        -12    1    3    3    0    0  0.82166108224E+01 -0.10213628477E+02 -0.11966033053E+02  0.17748713956E+02  0.00000000000E+00 0.  1.
</event>
<event>
 7    1  0.2031146E-008  0.4614232E+02  0.7816164E-02  0.1320468E+00
        -11   -1    0    0    0    0  0.00000000000E+00  0.00000000000E+00  0.45593999997E+02  0.45594000000E+02  0.51100000000E-03 0. -1.
         11   -1    0    0    0    0 -0.00000000000E+00 -0.00000000000E+00 -0.45593999997E+02  0.45594000000E+02  0.51100000000E-03 0.  1.
    9900012    2    1    2    0    0  0.39303269905E+02  0.10803154507E+02  0.19174403188E+02  0.46142324179E+02  0.10000058521E+02 0.  0.
        -12    1    1    2    0    0 -0.39303269905E+02 -0.10803154507E+02 -0.19174403188E+02  0.45045675821E+02  0.00000000000E+00 0.  1.
         11    1    3    3    0    0  0.28995883740E+02  0.58911679527E+01  0.15045615980E+02  0.33193940625E+02  0.51100000000E-03 0. -1.
        -11    1    3    3    0    0  0.10197420632E+02  0.55524405890E+01  0.37800098206E+01  0.12210874602E+02  0.51100000000E-03 0.  1.
        -12    1    3    3    0    0  0.10996553331E+00 -0.64045403419E+00  0.34877738774E+00  0.73750895224E+00  0.00000000000E+00 0.  1.
</event>
<event>
 7    1  0.2031146E-008  0.4614232E+02  0.7816164E-02  0.1320468E+00
        -11   -1    0    0    0    0  0.00000000000E+00  0.00000000000E+00  0.45593999997E+02  0.45594000000E+02  0.51100000000E-03 0.  1.
         11   -1    0    0    0    0 -0.00000000000E+00 -0.00000000000E+00 -0.45593999997E+02  0.45594000000E+02  0.51100000000E-03 0. -1.
    9900012    2    1    2    0    0  0.26608536365E+02 -0.32192174819E+02 -0.16874927454E+02  0.46142317592E+02  0.99999984552E+01 0.  0.
        -12    1    1    2    0    0 -0.26608536365E+02  0.32192174819E+02  0.16874927454E+02  0.45045682408E+02  0.00000000000E+00 0.  1.
         11    1    3    3    0    0  0.75659517338E+01 -0.62465029446E+01 -0.37748653239E+01  0.10512470364E+02  0.51100000000E-03 0. -1.
        -11    1    3    3    0    0  0.13512133961E+02 -0.19555149914E+02 -0.58108397757E+01  0.24469317757E+02  0.51100000000E-03 0.  1.
         12    1    3    3    0    0  0.55304506707E+01 -0.63905219600E+01 -0.72892223540E+01  0.11160529471E+02  0.00000000000E+00 0. -1.
</event>
<event>
 7    1  0.2031146E-008  0.4614232E+02  0.7816164E-02  0.1320468E+00
        -11   -1    0    0    0    0  0.00000000000E+00  0.00000000000E+00  0.45593999997E+02  0.45594000000E+02  0.51100000000E-03 0. -1.
         11   -1    0    0    0    0 -0.00000000000E+00 -0.00000000000E+00 -0.45593999997E+02  0.45594000000E+02  0.51100000000E-03 0.  1.
    9900012    2    1    2    0    0 -0.31649749725E+02  0.35000725472E+01  0.31861516830E+02  0.46142318518E+02  0.10000006901E+02 0.  0.
        -12    1    1    2    0    0  0.31649749725E+02 -0.35000725472E+01 -0.31861516830E+02  0.45045681482E+02  0.00000000000E+00 0.  1.
         11    1    3    3    0    0 -0.19377983323E+01  0.30069042915E+01  0.40548935024E+01  0.54072818839E+01  0.51100000000E-03 0. -1.
        -11    1    3    3    0    0 -0.42255027905E+01 -0.45248335457E+00  0.44242179837E+01  0.61346002353E+01  0.51100000000E-03 0.  1.
         12    1    3    3    0    0 -0.25486448602E+02  0.94565161020E+00  0.23382405344E+02  0.34600436399E+02  0.00000000000E+00 0. -1.
</event>
<event>
 7    1  0.2031146E-008  0.4614232E+02  0.7816164E-02  0.1320468E+00
        -11   -1    0    0    0    0  0.00000000000E+00  0.00000000000E+00  0.45593999997E+02  0.45594000000E+02  0.51100000000E-03 0. -1.
         11   -1    0    0    0    0 -0.00000000000E+00 -0.00000000000E+00 -0.45593999997E+02  0.45594000000E+02  0.51100000000E-03 0.  1.
    9900012    2    1    2    0    0 -0.17413262827E+02  0.31404415377E+02  0.27196588331E+02  0.46142318250E+02  0.10000004459E+02 0.  0.
        -12    1    1    2    0    0  0.17413262827E+02 -0.31404415377E+02 -0.27196588331E+02  0.45045681750E+02  0.00000000000E+00 0.  1.
         11    1    3    3    0    0  0.23626382838E+00 -0.93094726220E-01 -0.95163898639E-01  0.27118933124E+00  0.51100000000E-03 0.  1.
        -11    1    3    3    0    0 -0.31225562931E+01  0.68144922934E+01  0.97020032293E+01  0.12260364185E+02  0.51100000000E-03 0. -1.
         12    1    3    3    0    0 -0.14526970363E+02  0.24683017810E+02  0.17589749001E+02  0.33610764734E+02  0.00000000000E+00 0. -1.
</event>
<event>
 7    1  0.2031146E-008  0.4614232E+02  0.7816164E-02  0.1320468E+00
        -11   -1    0    0    0    0  0.00000000000E+00  0.00000000000E+00  0.45593999997E+02  0.45594000000E+02  0.51100000000E-03 0.  1.
         11   -1    0    0    0    0 -0.00000000000E+00 -0.00000000000E+00 -0.45593999997E+02  0.45594000000E+02  0.51100000000E-03 0. -1.
    9900012    2    1    2    0    0 -0.51164695205E+01  0.40070181956E+02 -0.19932778418E+02  0.46142318766E+02  0.10000009165E+02 0.  0.
        -12    1    1    2    0    0  0.51164695205E+01 -0.40070181956E+02  0.19932778418E+02  0.45045681234E+02  0.00000000000E+00 0.  1.
         11    1    3    3    0    0 -0.58595909454E+00  0.12969481842E+02 -0.43722547801E+01  0.13699175867E+02  0.51100000000E-03 0. -1.
        -11    1    3    3    0    0 -0.19808225653E+01  0.21469803205E+02 -0.88136840282E+01  0.23292855860E+02  0.51100000000E-03 0.  1.
        -12    1    3    3    0    0 -0.25496878607E+01  0.56308969099E+01 -0.67468396096E+01  0.91502870400E+01  0.00000000000E+00 0.  1.
</event>
<event>
 7    1  0.2031146E-008  0.4614233E+02  0.7816164E-02  0.1320468E+00
        -11   -1    0    0    0    0  0.00000000000E+00  0.00000000000E+00  0.45593999997E+02  0.45594000000E+02  0.51100000000E-03 0. -1.
         11   -1    0    0    0    0 -0.00000000000E+00 -0.00000000000E+00 -0.45593999997E+02  0.45594000000E+02  0.51100000000E-03 0.  1.
    9900012    2    1    2    0    0  0.68879903967E+01 -0.42338276324E+02 -0.13752763980E+02  0.46142327945E+02  0.10000092865E+02 0.  0.
        -12    1    1    2    0    0 -0.68879903967E+01  0.42338276324E+02  0.13752763980E+02  0.45045672055E+02  0.00000000000E+00 0.  1.
         11    1    3    3    0    0  0.29533762986E+01 -0.73202612996E+01 -0.47297535309E+01  0.92021315889E+01  0.51100000000E-03 0.  1.
        -11    1    3    3    0    0  0.50482596038E+01 -0.21719207848E+02 -0.38541565449E+01  0.22628818738E+02  0.51100000000E-03 0. -1.
        -12    1    3    3    0    0 -0.11136455057E+01 -0.13298807177E+02 -0.51688539039E+01  0.14311377618E+02  0.00000000000E+00 0.  1.
</event>
<event>
 7    1  0.2031146E-008  0.4614232E+02  0.7816164E-02  0.1320468E+00
        -11   -1    0    0    0    0  0.00000000000E+00  0.00000000000E+00  0.45593999997E+02  0.45594000000E+02  0.51100000000E-03 0.  1.
         11   -1    0    0    0    0 -0.00000000000E+00 -0.00000000000E+00 -0.45593999997E+02  0.45594000000E+02  0.51100000000E-03 0. -1.
    9900012    2    1    2    0    0  0.17801226809E+01  0.43198476122E+02 -0.12642643791E+02  0.46142316322E+02  0.99999868760E+01 0.  0.
        -12    1    1    2    0    0 -0.17801226809E+01 -0.43198476122E+02  0.12642643791E+02  0.45045683678E+02  0.00000000000E+00 0.  1.
         11    1    3    3    0    0 -0.23074281454E+01  0.18771646404E+02 -0.31954458826E+01  0.19180975158E+02  0.51100000000E-03 0. -1.
        -11    1    3    3    0    0  0.13956877439E+01  0.15400139565E+02 -0.36074461607E+01  0.15878473194E+02  0.51100000000E-03 0.  1.
         12    1    3    3    0    0  0.26918630824E+01  0.90266901526E+01 -0.58397517477E+01  0.11082867970E+02  0.00000000000E+00 0. -1.
</event>
<event>
 7    1  0.2031146E-008  0.4614232E+02  0.7816164E-02  0.1320468E+00
        -11   -1    0    0    0    0  0.00000000000E+00  0.00000000000E+00  0.45593999997E+02  0.45594000000E+02  0.51100000000E-03 0.  1.
         11   -1    0    0    0    0 -0.00000000000E+00 -0.00000000000E+00 -0.45593999997E+02  0.45594000000E+02  0.51100000000E-03 0. -1.
    9900012    2    1    2    0    0 -0.28508790574E+02  0.11560030054E+02 -0.32904831639E+02  0.46142318964E+02  0.10000010967E+02 0.  0.
        -12    1    1    2    0    0  0.28508790574E+02 -0.11560030054E+02  0.32904831639E+02  0.45045681036E+02  0.00000000000E+00 0.  1.
         11    1    3    3    0    0 -0.58797075542E+01  0.49331751764E+01 -0.94911725733E+01  0.12206126958E+02  0.51100000000E-03 0. -1.
        -11    1    3    3    0    0  0.33022302436E+00 -0.38257300584E+00 -0.20299519816E+00  0.54462524933E+00  0.51100000000E-03 0.  1.
         12    1    3    3    0    0 -0.22959306044E+02  0.70094278838E+01 -0.23210663868E+02  0.33391566756E+02  0.00000000000E+00 0. -1.
</event>
<event>
 7    1  0.3072413E-008  0.4614232E+02  0.7816164E-02  0.1320468E+00
        -11   -1    0    0    0    0  0.00000000000E+00  0.00000000000E+00  0.45593999997E+02  0.45594000000E+02  0.51100000000E-03 0.  1.
         11   -1    0    0    0    0 -0.00000000000E+00 -0.00000000000E+00 -0.45593999997E+02  0.45594000000E+02  0.51100000000E-03 0. -1.
    9900012    2    1    2    0    0  0.33911640696E+02 -0.26161250434E+02 -0.13953603748E+02  0.46142318114E+02  0.10000003221E+02 0.  0.
        -12    1    1    2    0    0 -0.33911640696E+02  0.26161250434E+02  0.13953603748E+02  0.45045681886E+02  0.00000000000E+00 0.  1.
         11    1    3    3    0    0  0.17118148364E+02 -0.13174216006E+02 -0.60026300042E+01  0.22419244813E+02  0.51100000000E-03 0. -1.
        -11    1    3    3    0    0  0.16379338213E+02 -0.13798514484E+02 -0.78333592620E+01  0.22804456579E+02  0.51100000000E-03 0.  1.
        -12    1    3    3    0    0  0.41415411961E+00  0.81148005600E+00 -0.11761448234E+00  0.91861672232E+00  0.00000000000E+00 0.  1.
</event>
<event>
 7    1  0.2031146E-008  0.4614232E+02  0.7816164E-02  0.1320468E+00
        -11   -1    0    0    0    0  0.00000000000E+00  0.00000000000E+00  0.45593999997E+02  0.45594000000E+02  0.51100000000E-03 0.  1.
         11   -1    0    0    0    0 -0.00000000000E+00 -0.00000000000E+00 -0.45593999997E+02  0.45594000000E+02  0.51100000000E-03 0. -1.
    9900012    2    1    2    0    0 -0.25849670947E+02 -0.87240204574E+01 -0.35844099593E+02  0.46142317669E+02  0.99999991613E+01 0.  0.
        -12    1    1    2    0    0  0.25849670947E+02  0.87240204574E+01  0.35844099593E+02  0.45045682331E+02  0.00000000000E+00 0.  1.
         11    1    3    3    0    0 -0.54241009472E+01 -0.16543571039E+01 -0.11769048184E+02  0.13064006427E+02  0.51100000000E-03 0. -1.
        -11    1    3    3    0    0 -0.16136110854E+01 -0.29665683206E+01 -0.44373402325E+01  0.55762224611E+01  0.51100000000E-03 0.  1.
         12    1    3    3    0    0 -0.18811958915E+02 -0.41030950329E+01 -0.19637711177E+02  0.27502088781E+02  0.00000000000E+00 0. -1.
</event>
<event>
 7    1  0.2031146E-008  0.4614232E+02  0.7816164E-02  0.1320468E+00
        -11   -1    0    0    0    0  0.00000000000E+00  0.00000000000E+00  0.45593999997E+02  0.45594000000E+02  0.51100000000E-03 0.  1.
         11   -1    0    0    0    0 -0.00000000000E+00 -0.00000000000E+00 -0.45593999997E+02  0.45594000000E+02  0.51100000000E-03 0. -1.
    9900012    2    1    2    0    0  0.18327513387E+02  0.10712776000E+02 -0.39729738523E+02  0.46142318302E+02  0.10000004933E+02 0.  0.
        -12    1    1    2    0    0 -0.18327513387E+02 -0.10712776000E+02  0.39729738523E+02  0.45045681698E+02  0.00000000000E+00 0.  1.
         11    1    3    3    0    0  0.39278623253E+01  0.32838789590E+01 -0.12804875527E+02  0.13790460506E+02  0.51100000000E-03 0.  1.
        -11    1    3    3    0    0  0.58442985807E+01  0.19746170037E+01 -0.17299487817E+02  0.18366469916E+02  0.51100000000E-03 0. -1.
        -12    1    3    3    0    0  0.85553524806E+01  0.54542800371E+01 -0.96253751793E+01  0.13985387879E+02  0.00000000000E+00 0.  1.
</event>
<event>
 7    1  0.2031146E-008  0.4614232E+02  0.7816164E-02  0.1320468E+00
        -11   -1    0    0    0    0  0.00000000000E+00  0.00000000000E+00  0.45593999997E+02  0.45594000000E+02  0.51100000000E-03 0. -1.
         11   -1    0    0    0    0 -0.00000000000E+00 -0.00000000000E+00 -0.45593999997E+02  0.45594000000E+02  0.51100000000E-03 0.  1.
    9900012    2    1    2    0    0 -0.28918240872E+02  0.18022170102E+02  0.29462691899E+02  0.46142317807E+02  0.10000000417E+02 0.  0.
        -12    1    1    2    0    0  0.28918240872E+02 -0.18022170102E+02 -0.29462691899E+02  0.45045682193E+02  0.00000000000E+00 0.  1.
         11    1    3    3    0    0 -0.98993074724E+01  0.35335160862E+01  0.89046144484E+01  0.13775855077E+02  0.51100000000E-03 0. -1.
        -11    1    3    3    0    0 -0.77883861042E+01  0.19474213728E+01  0.50989368394E+01  0.95105502083E+01  0.51100000000E-03 0.  1.
         12    1    3    3    0    0 -0.11230547295E+02  0.12541232643E+02  0.15459140611E+02  0.22855912522E+02  0.00000000000E+00 0. -1.
</event>
<event>
 7    1  0.2031146E-008  0.4614232E+02  0.7816164E-02  0.1320468E+00
        -11   -1    0    0    0    0  0.00000000000E+00  0.00000000000E+00  0.45593999997E+02  0.45594000000E+02  0.51100000000E-03 0.  1.
         11   -1    0    0    0    0 -0.00000000000E+00 -0.00000000000E+00 -0.45593999997E+02  0.45594000000E+02  0.51100000000E-03 0. -1.
    9900012    2    1    2    0    0 -0.37722749707E+02  0.13360762671E+02 -0.20678433246E+02  0.46142318452E+02  0.10000006300E+02 0.  0.
        -12    1    1    2    0    0  0.37722749707E+02 -0.13360762671E+02  0.20678433246E+02  0.45045681548E+02  0.00000000000E+00 0.  1.
         11    1    3    3    0    0 -0.51682690398E+01  0.77018490247E+00 -0.58055733148E+01  0.78108175901E+01  0.51100000000E-03 0. -1.
        -11    1    3    3    0    0 -0.51670611831E+01  0.27090331340E+00 -0.10843547719E+01  0.52865617756E+01  0.51100000000E-03 0.  1.
         12    1    3    3    0    0 -0.27387419484E+02  0.12319674456E+02 -0.13788505159E+02  0.33044939086E+02  0.00000000000E+00 0. -1.
</event>
<event>
 7    1  0.2031146E-008  0.4614232E+02  0.7816164E-02  0.1320468E+00
        -11   -1    0    0    0    0  0.00000000000E+00  0.00000000000E+00  0.45593999997E+02  0.45594000000E+02  0.51100000000E-03 0.  1.
         11   -1    0    0    0    0 -0.00000000000E+00 -0.00000000000E+00 -0.45593999997E+02  0.45594000000E+02  0.51100000000E-03 0. -1.
    9900012    2    1    2    0    0  0.40906345123E+01  0.38220232161E+02 -0.23486040542E+02  0.46142317215E+02  0.99999950231E+01 0.  0.
        -12    1    1    2    0    0 -0.40906345123E+01 -0.38220232161E+02  0.23486040542E+02  0.45045682785E+02  0.00000000000E+00 0.  1.
         11    1    3    3    0    0 -0.34861682697E+00  0.22845536587E+02 -0.16974444916E+02  0.28463517986E+02  0.51100000000E-03 0. -1.
        -11    1    3    3    0    0  0.14821790423E+01  0.11211544375E+01 -0.46388905978E+00  0.19154726067E+01  0.51100000000E-03 0.  1.
         12    1    3    3    0    0  0.29570722969E+01  0.14253541137E+02 -0.60477065662E+01  0.15763326623E+02  0.00000000000E+00 0. -1.
</event>
<event>
 7    1  0.2031146E-008  0.4614232E+02  0.7816164E-02  0.1320468E+00
        -11   -1    0    0    0    0  0.00000000000E+00  0.00000000000E+00  0.45593999997E+02  0.45594000000E+02  0.51100000000E-03 0.  1.
         11   -1    0    0    0    0 -0.00000000000E+00 -0.00000000000E+00 -0.45593999997E+02  0.45594000000E+02  0.51100000000E-03 0. -1.
    9900012    2    1    2    0    0  0.25618256629E+02  0.14200490846E+02 -0.34222278391E+02  0.46142319283E+02  0.10000013878E+02 0.  0.
        -12    1    1    2    0    0 -0.25618256629E+02 -0.14200490846E+02  0.34222278391E+02  0.45045680717E+02  0.00000000000E+00 0.  1.
         11    1    3    3    0    0  0.67179016567E+01  0.19155804398E+01 -0.60383583036E+01  0.92337111907E+01  0.51100000000E-03 0. -1.
        -11    1    3    3    0    0  0.93153203332E+01  0.36390981331E+01 -0.73943832561E+01  0.12437649783E+02  0.51100000000E-03 0.  1.
         12    1    3    3    0    0  0.95850346389E+01  0.86458122729E+01 -0.20789536832E+02  0.24470958309E+02  0.00000000000E+00 0. -1.
</event>
<event>
 7    1  0.2031146E-008  0.4614232E+02  0.7816164E-02  0.1320468E+00
        -11   -1    0    0    0    0  0.00000000000E+00  0.00000000000E+00  0.45593999997E+02  0.45594000000E+02  0.51100000000E-03 0.  1.
         11   -1    0    0    0    0 -0.00000000000E+00 -0.00000000000E+00 -0.45593999997E+02  0.45594000000E+02  0.51100000000E-03 0. -1.
    9900012    2    1    2    0    0 -0.18343092428E+02 -0.36259196956E+02 -0.19440038763E+02  0.46142317512E+02  0.99999977300E+01 0.  0.
        -12    1    1    2    0    0  0.18343092428E+02  0.36259196956E+02  0.19440038763E+02  0.45045682488E+02  0.00000000000E+00 0.  1.
         11    1    3    3    0    0 -0.86633477212E+01 -0.16449442531E+02 -0.61088904051E+01  0.19569269163E+02  0.51100000000E-03 0. -1.
        -11    1    3    3    0    0 -0.75380917011E+01 -0.80809793202E+01 -0.59598535157E+01  0.12555672322E+02  0.51100000000E-03 0.  1.
         12    1    3    3    0    0 -0.21416530057E+01 -0.11728775105E+02 -0.73712948420E+01  0.14017376028E+02  0.00000000000E+00 0. -1.
</event>
<event>
 7    1  0.2031146E-008  0.4614232E+02  0.7816164E-02  0.1320468E+00
        -11   -1    0    0    0    0  0.00000000000E+00  0.00000000000E+00  0.45593999997E+02  0.45594000000E+02  0.51100000000E-03 0.  1.
         11   -1    0    0    0    0 -0.00000000000E+00 -0.00000000000E+00 -0.45593999997E+02  0.45594000000E+02  0.51100000000E-03 0. -1.
    9900012    2    1    2    0    0 -0.97107531955E+01 -0.23060038587E+02 -0.37457301444E+02  0.46142317202E+02  0.99999949041E+01 0.  0.
        -12    1    1    2    0    0  0.97107531955E+01  0.23060038587E+02  0.37457301444E+02  0.45045682798E+02  0.00000000000E+00 0.  1.
         11    1    3    3    0    0 -0.66397852420E+00 -0.42621945618E+01 -0.57710385022E+01  0.72050021248E+01  0.51100000000E-03 0. -1.
        -11    1    3    3    0    0 -0.74573184697E+01 -0.14406528858E+02 -0.16877465103E+02  0.23409581394E+02  0.51100000000E-03 0.  1.
        -12    1    3    3    0    0 -0.15894562016E+01 -0.43913151677E+01 -0.14808797838E+02  0.15527733683E+02  0.00000000000E+00 0.  1.
</event>
<event>
 7    1  0.2031146E-008  0.4614232E+02  0.7816164E-02  0.1320468E+00
        -11   -1    0    0    0    0  0.00000000000E+00  0.00000000000E+00  0.45593999997E+02  0.45594000000E+02  0.51100000000E-03 0.  1.
         11   -1    0    0    0    0 -0.00000000000E+00 -0.00000000000E+00 -0.45593999997E+02  0.45594000000E+02  0.51100000000E-03 0. -1.
    9900012    2    1    2    0    0 -0.20361641053E+02 -0.32386378609E+02 -0.23783177266E+02  0.46142318002E+02  0.10000002199E+02 0.  0.
        -12    1    1    2    0    0  0.20361641053E+02  0.32386378609E+02  0.23783177266E+02  0.45045681998E+02  0.00000000000E+00 0.  1.
         11    1    3    3    0    0 -0.84480828243E+01 -0.18949127069E+02 -0.11238085727E+02  0.23595213310E+02  0.51100000000E-03 0. -1.
        -11    1    3    3    0    0 -0.12572211357E+01 -0.32058547138E+01 -0.46817184891E+01  0.58117637342E+01  0.51100000000E-03 0.  1.
         12    1    3    3    0    0 -0.10656337093E+02 -0.10231396826E+02 -0.78633730506E+01  0.16735340959E+02  0.00000000000E+00 0. -1.
</event>
<event>
 7    1  0.2031146E-008  0.4614232E+02  0.7816164E-02  0.1320468E+00
        -11   -1    0    0    0    0  0.00000000000E+00  0.00000000000E+00  0.45593999997E+02  0.45594000000E+02  0.51100000000E-03 0.  1.
         11   -1    0    0    0    0 -0.00000000000E+00 -0.00000000000E+00 -0.45593999997E+02  0.45594000000E+02  0.51100000000E-03 0. -1.
    9900012    2    1    2    0    0 -0.14200076001E+02 -0.20520269984E+02 -0.37501864062E+02  0.46142318223E+02  0.10000004211E+02 0.  0.
        -12    1    1    2    0    0  0.14200076001E+02  0.20520269984E+02  0.37501864062E+02  0.45045681777E+02  0.00000000000E+00 0.  1.
         11    1    3    3    0    0 -0.43177520000E+01 -0.25079595087E+01 -0.53004705863E+01  0.72820211431E+01  0.51100000000E-03 0. -1.
        -11    1    3    3    0    0 -0.10361024831E+02 -0.15329623807E+02 -0.30418424203E+02  0.35603774138E+02  0.51100000000E-03 0.  1.
        -12    1    3    3    0    0  0.47870083041E+00 -0.26826866679E+01 -0.17829692733E+01  0.32565229421E+01  0.00000000000E+00 0.  1.
</event>
<event>
 7    1  0.2031146E-008  0.4614232E+02  0.7816164E-02  0.1320468E+00
        -11   -1    0    0    0    0  0.00000000000E+00  0.00000000000E+00  0.45593999997E+02  0.45594000000E+02  0.51100000000E-03 0. -1.
         11   -1    0    0    0    0 -0.00000000000E+00 -0.00000000000E+00 -0.45593999997E+02  0.45594000000E+02  0.51100000000E-03 0.  1.
    9900012    2    1    2    0    0 -0.42743464396E+02 -0.12627637826E+02  0.65308891150E+01  0.46142317651E+02  0.99999989943E+01 0.  0.
        -12    1    1    2    0    0  0.42743464396E+02  0.12627637826E+02 -0.65308891150E+01  0.45045682349E+02  0.00000000000E+00 0.  1.
         11    1    3    3    0    0 -0.35372231889E+01 -0.17805934540E+00  0.10718439270E+00  0.35433235491E+01  0.51100000000E-03 0.  1.
        -11    1    3    3    0    0 -0.17817080603E+00  0.70803457758E+00 -0.42849399298E+00  0.84656078477E+00  0.51100000000E-03 0. -1.
         12    1    3    3    0    0 -0.39028070402E+02 -0.13157613058E+02  0.68521987152E+01  0.41752433317E+02  0.00000000000E+00 0. -1.
</event>
<event>
 7    1  0.2031146E-008  0.4614232E+02  0.7816164E-02  0.1320468E+00
        -11   -1    0    0    0    0  0.00000000000E+00  0.00000000000E+00  0.45593999997E+02  0.45594000000E+02  0.51100000000E-03 0.  1.
         11   -1    0    0    0    0 -0.00000000000E+00 -0.00000000000E+00 -0.45593999997E+02  0.45594000000E+02  0.51100000000E-03 0. -1.
    9900012    2    1    2    0    0  0.12254606037E+02  0.77174568050E+01 -0.42654180360E+02  0.46142316401E+02  0.99999875987E+01 0.  0.
        -12    1    1    2    0    0 -0.12254606037E+02 -0.77174568050E+01  0.42654180360E+02  0.45045683599E+02  0.00000000000E+00 0.  1.
         11    1    3    3    0    0  0.15184399674E+01  0.31423979209E+01 -0.55356748952E+01  0.65440065277E+01  0.51100000000E-03 0. -1.
        -11    1    3    3    0    0  0.19089491702E+01  0.26200526891E+01 -0.34375501483E+01  0.47249882869E+01  0.51100000000E-03 0.  1.
        -12    1    3    3    0    0  0.88272168998E+01  0.19550061950E+01 -0.33680955317E+02  0.34873321587E+02  0.00000000000E+00 0.  1.
</event>
<event>
 7    1  0.2031146E-008  0.4614232E+02  0.7816164E-02  0.1320468E+00
        -11   -1    0    0    0    0  0.00000000000E+00  0.00000000000E+00  0.45593999997E+02  0.45594000000E+02  0.51100000000E-03 0. -1.
         11   -1    0    0    0    0 -0.00000000000E+00 -0.00000000000E+00 -0.45593999997E+02  0.45594000000E+02  0.51100000000E-03 0.  1.
    9900012    2    1    2    0    0 -0.30410267481E+02  0.31588839506E+02 -0.10318633396E+02  0.46142319355E+02  0.10000014534E+02 0.  0.
        -12    1    1    2    0    0  0.30410267481E+02 -0.31588839506E+02  0.10318633396E+02  0.45045680645E+02  0.00000000000E+00 0.  1.
         11    1    3    3    0    0 -0.64166348036E+01  0.69669968148E+01 -0.56228898994E+01  0.11014950654E+02  0.51100000000E-03 0. -1.
        -11    1    3    3    0    0 -0.62548107766E+00 -0.46443331766E-01 -0.65790410321E+00  0.90896734359E+00  0.51100000000E-03 0.  1.
         12    1    3    3    0    0 -0.23368151600E+02  0.24668286023E+02 -0.40378393938E+01  0.34218401358E+02  0.00000000000E+00 0. -1.
</event>
<event>
 7    1  0.2031146E-008  0.4614232E+02  0.7816164E-02  0.1320468E+00
        -11   -1    0    0    0    0  0.00000000000E+00  0.00000000000E+00  0.45593999997E+02  0.45594000000E+02  0.51100000000E-03 0.  1.
         11   -1    0    0    0    0 -0.00000000000E+00 -0.00000000000E+00 -0.45593999997E+02  0.45594000000E+02  0.51100000000E-03 0. -1.
    9900012    2    1    2    0    0  0.26515017253E+02  0.18125027453E+02 -0.31584027645E+02  0.46142316939E+02  0.99999925048E+01 0.  0.
        -12    1    1    2    0    0 -0.26515017253E+02 -0.18125027453E+02  0.31584027645E+02  0.45045683061E+02  0.00000000000E+00 0.  1.
         11    1    3    3    0    0  0.24417540877E+02  0.18839821293E+02 -0.28655931326E+02  0.42098902233E+02  0.51100000000E-03 0. -1.
        -11    1    3    3    0    0 -0.11037885392E+00 -0.18431731827E+00 -0.11210253420E+01  0.11414264951E+01  0.51100000000E-03 0.  1.
         12    1    3    3    0    0  0.22078552304E+01 -0.53047652168E+00 -0.18070709773E+01  0.29019882108E+01  0.00000000000E+00 0. -1.
</event>
<event>
 7    1  0.2031146E-008  0.4614232E+02  0.7816164E-02  0.1320468E+00
        -11   -1    0    0    0    0  0.00000000000E+00  0.00000000000E+00  0.45593999997E+02  0.45594000000E+02  0.51100000000E-03 0. -1.
         11   -1    0    0    0    0 -0.00000000000E+00 -0.00000000000E+00 -0.45593999997E+02  0.45594000000E+02  0.51100000000E-03 0.  1.
    9900012    2    1    2    0    0  0.73725319594E+01  0.37165082838E+02  0.24362181330E+02  0.46142317754E+02  0.99999999377E+01 0.  0.
        -12    1    1    2    0    0 -0.73725319594E+01 -0.37165082838E+02 -0.24362181330E+02  0.45045682246E+02  0.00000000000E+00 0.  1.
         11    1    3    3    0    0 -0.89988081681E+00  0.70299720601E+01  0.47105208700E+01  0.85099529833E+01  0.51100000000E-03 0. -1.
        -11    1    3    3    0    0  0.60009927106E+01  0.98163699258E+01  0.53965141473E+01  0.12708083933E+02  0.51100000000E-03 0.  1.
         12    1    3    3    0    0  0.22714200656E+01  0.20318740852E+02  0.14255146313E+02  0.24924280838E+02  0.00000000000E+00 0. -1.
</event>
<event>
 7    1  0.2031146E-008  0.4614232E+02  0.7816164E-02  0.1320468E+00
        -11   -1    0    0    0    0  0.00000000000E+00  0.00000000000E+00  0.45593999997E+02  0.45594000000E+02  0.51100000000E-03 0. -1.
         11   -1    0    0    0    0 -0.00000000000E+00 -0.00000000000E+00 -0.45593999997E+02  0.45594000000E+02  0.51100000000E-03 0.  1.
    9900012    2    1    2    0    0 -0.97714646998E+01  0.42613222019E+02  0.10851043036E+02  0.46142319317E+02  0.10000014190E+02 0.  0.
        -12    1    1    2    0    0  0.97714646998E+01 -0.42613222019E+02 -0.10851043036E+02  0.45045680683E+02  0.00000000000E+00 0.  1.
         11    1    3    3    0    0  0.62310140678E+00  0.12903704527E+02  0.51495927182E+01  0.13907269729E+02  0.51100000000E-03 0. -1.
        -11    1    3    3    0    0 -0.61666748673E+01  0.22087801278E+02  0.31118510206E+01  0.23142654586E+02  0.51100000000E-03 0.  1.
        -12    1    3    3    0    0 -0.42278912393E+01  0.76217162132E+01  0.25895992971E+01  0.90923950027E+01  0.00000000000E+00 0.  1.
</event>
<event>
 7    1  0.2031146E-008  0.4614232E+02  0.7816164E-02  0.1320468E+00
        -11   -1    0    0    0    0  0.00000000000E+00  0.00000000000E+00  0.45593999997E+02  0.45594000000E+02  0.51100000000E-03 0. -1.
         11   -1    0    0    0    0 -0.00000000000E+00 -0.00000000000E+00 -0.45593999997E+02  0.45594000000E+02  0.51100000000E-03 0.  1.
    9900012    2    1    2    0    0  0.30323134662E+02 -0.24821061035E+02  0.22215668374E+02  0.46142317766E+02  0.10000000042E+02 0.  0.
        -12    1    1    2    0    0 -0.30323134662E+02  0.24821061035E+02 -0.22215668374E+02  0.45045682234E+02  0.00000000000E+00 0.  1.
         11    1    3    3    0    0  0.21992416734E+02 -0.18488295314E+02  0.14189533574E+02  0.32044130831E+02  0.51100000000E-03 0. -1.
        -11    1    3    3    0    0  0.43099774705E+01 -0.53635231212E+01  0.70447673924E+01  0.98474379380E+01  0.51100000000E-03 0.  1.
        -12    1    3    3    0    0  0.40207404571E+01 -0.96924260032E+00  0.98136740765E+00  0.42507489964E+01  0.00000000000E+00 0.  1.
</event>
<event>
 7    1  0.2031146E-008  0.4614232E+02  0.7816164E-02  0.1320468E+00
        -11   -1    0    0    0    0  0.00000000000E+00  0.00000000000E+00  0.45593999997E+02  0.45594000000E+02  0.51100000000E-03 0. -1.
         11   -1    0    0    0    0 -0.00000000000E+00 -0.00000000000E+00 -0.45593999997E+02  0.45594000000E+02  0.51100000000E-03 0.  1.
    9900012    2    1    2    0    0 -0.18725258460E+02 -0.35758391681E+02  0.19995389422E+02  0.46142317875E+02  0.10000001038E+02 0.  0.
        -12    1    1    2    0    0  0.18725258460E+02  0.35758391681E+02 -0.19995389422E+02  0.45045682125E+02  0.00000000000E+00 0.  1.
         11    1    3    3    0    0 -0.26064806717E+01 -0.25993756096E+01  0.61627388143E+00  0.37323302117E+01  0.51100000000E-03 0. -1.
        -11    1    3    3    0    0 -0.48269697688E+01 -0.38476220470E+01  0.45845161851E+01  0.76890585560E+01  0.51100000000E-03 0.  1.
         12    1    3    3    0    0 -0.11291808019E+02 -0.29311394024E+02  0.14794599355E+02  0.34720929107E+02  0.00000000000E+00 0. -1.
</event>
<event>
 7    1  0.2031146E-008  0.4614232E+02  0.7816164E-02  0.1320468E+00
        -11   -1    0    0    0    0  0.00000000000E+00  0.00000000000E+00  0.45593999997E+02  0.45594000000E+02  0.51100000000E-03 0.  1.
         11   -1    0    0    0    0 -0.00000000000E+00 -0.00000000000E+00 -0.45593999997E+02  0.45594000000E+02  0.51100000000E-03 0. -1.
    9900012    2    1    2    0    0 -0.14959621009E+01 -0.19911901098E+02 -0.40378105109E+02  0.46142322292E+02  0.10000041317E+02 0.  0.
        -12    1    1    2    0    0  0.14959621009E+01  0.19911901098E+02  0.40378105109E+02  0.45045677708E+02  0.00000000000E+00 0.  1.
         11    1    3    3    0    0  0.21448297978E+01 -0.60217594107E+01 -0.11854068190E+02  0.13467769458E+02  0.51100000000E-03 0. -1.
        -11    1    3    3    0    0  0.18078147525E+01 -0.46673138756E+01 -0.66981643475E+01  0.83616636430E+01  0.51100000000E-03 0.  1.
         12    1    3    3    0    0 -0.54486066512E+01 -0.92228278119E+01 -0.21825872571E+02  0.24312889191E+02  0.00000000000E+00 0. -1.
</event>
<event>
 7    1  0.2031146E-008  0.4614232E+02  0.7816164E-02  0.1320468E+00
        -11   -1    0    0    0    0  0.00000000000E+00  0.00000000000E+00  0.45593999997E+02  0.45594000000E+02  0.51100000000E-03 0.  1.
         11   -1    0    0    0    0 -0.00000000000E+00 -0.00000000000E+00 -0.45593999997E+02  0.45594000000E+02  0.51100000000E-03 0. -1.
    9900012    2    1    2    0    0 -0.17685301607E+02 -0.74588641091E+01 -0.40751797935E+02  0.46142316726E+02  0.99999905595E+01 0.  0.
        -12    1    1    2    0    0  0.17685301607E+02  0.74588641091E+01  0.40751797935E+02  0.45045683274E+02  0.00000000000E+00 0.  1.
         11    1    3    3    0    0  0.16098243991E+00  0.10805707710E+00  0.37829817422E-02  0.19392330944E+00  0.51100000000E-03 0. -1.
        -11    1    3    3    0    0 -0.52245923602E-01 -0.12033347308E+01 -0.22031324477E+00  0.12244518356E+01  0.51100000000E-03 0.  1.
         12    1    3    3    0    0 -0.17794038123E+02 -0.63635864555E+01 -0.40535267672E+02  0.44723941581E+02  0.00000000000E+00 0. -1.
</event>
<event>
 7    1  0.2031146E-008  0.4614232E+02  0.7816164E-02  0.1320468E+00
        -11   -1    0    0    0    0  0.00000000000E+00  0.00000000000E+00  0.45593999997E+02  0.45594000000E+02  0.51100000000E-03 0.  1.
         11   -1    0    0    0    0 -0.00000000000E+00 -0.00000000000E+00 -0.45593999997E+02  0.45594000000E+02  0.51100000000E-03 0. -1.
    9900012    2    1    2    0    0  0.31222675395E+02 -0.22575561397E+01 -0.32390760804E+02  0.46142318698E+02  0.10000008539E+02 0.  0.
        -12    1    1    2    0    0 -0.31222675395E+02  0.22575561397E+01  0.32390760804E+02  0.45045681302E+02  0.00000000000E+00 0.  1.
         11    1    3    3    0    0  0.42724341676E+01 -0.12737052603E+01 -0.29016292120E+01  0.53193487526E+01  0.51100000000E-03 0. -1.
        -11    1    3    3    0    0  0.14041587585E+02  0.49411381419E+00 -0.94228456520E+01  0.16917456985E+02  0.51100000000E-03 0.  1.
         12    1    3    3    0    0  0.12908653642E+02 -0.14779646936E+01 -0.20066285940E+02  0.23905512960E+02  0.00000000000E+00 0. -1.
</event>
<event>
 7    1  0.2031146E-008  0.4614232E+02  0.7816164E-02  0.1320468E+00
        -11   -1    0    0    0    0  0.00000000000E+00  0.00000000000E+00  0.45593999997E+02  0.45594000000E+02  0.51100000000E-03 0. -1.
         11   -1    0    0    0    0 -0.00000000000E+00 -0.00000000000E+00 -0.45593999997E+02  0.45594000000E+02  0.51100000000E-03 0.  1.
    9900012    2    1    2    0    0  0.14142993113E+02 -0.27041024505E+02  0.33134154439E+02  0.46142318177E+02  0.10000003793E+02 0.  0.
        -12    1    1    2    0    0 -0.14142993113E+02  0.27041024505E+02 -0.33134154439E+02  0.45045681823E+02  0.00000000000E+00 0.  1.
         11    1    3    3    0    0  0.23038834616E+00 -0.31183229179E+01  0.83799330529E+00  0.32371669174E+01  0.51100000000E-03 0. -1.
        -11    1    3    3    0    0  0.13733315333E+01 -0.43179367739E+01  0.27715880648E+01  0.53115269129E+01  0.51100000000E-03 0.  1.
         12    1    3    3    0    0  0.12539273233E+02 -0.19604764813E+02  0.29524573069E+02  0.37593624347E+02  0.00000000000E+00 0. -1.
</event>
<event>
 7    1  0.2031146E-008  0.4614232E+02  0.7816164E-02  0.1320468E+00
        -11   -1    0    0    0    0  0.00000000000E+00  0.00000000000E+00  0.45593999997E+02  0.45594000000E+02  0.51100000000E-03 0.  1.
         11   -1    0    0    0    0 -0.00000000000E+00 -0.00000000000E+00 -0.45593999997E+02  0.45594000000E+02  0.51100000000E-03 0. -1.
    9900012    2    1    2    0    0  0.11525009921E+02 -0.27606790033E+02 -0.33677184772E+02  0.46142317812E+02  0.10000000467E+02 0.  0.
        -12    1    1    2    0    0 -0.11525009921E+02  0.27606790033E+02  0.33677184772E+02  0.45045682188E+02  0.00000000000E+00 0.  1.
         11    1    3    3    0    0  0.21197164118E+01 -0.29016711127E+01 -0.54830182116E+01  0.65556374124E+01  0.51100000000E-03 0. -1.
        -11    1    3    3    0    0  0.99426643022E+01 -0.15878051109E+02 -0.16802552495E+02  0.25165350207E+02  0.51100000000E-03 0.  1.
         12    1    3    3    0    0 -0.53737079318E+00 -0.88270678113E+01 -0.11391614065E+02  0.14421330193E+02  0.00000000000E+00 0. -1.
</event>
<event>
 7    1  0.2116176E-008  0.4614231E+02  0.7816164E-02  0.1320468E+00
        -11   -1    0    0    0    0  0.00000000000E+00  0.00000000000E+00  0.45593999997E+02  0.45594000000E+02  0.51100000000E-03 0.  1.
         11   -1    0    0    0    0 -0.00000000000E+00 -0.00000000000E+00 -0.45593999997E+02  0.45594000000E+02  0.51100000000E-03 0. -1.
    9900012    2    1    2    0    0  0.24557722442E+02 -0.27639157737E+02 -0.25731486800E+02  0.46142310030E+02  0.99999294985E+01 0.  0.
        -12    1    1    2    0    0 -0.24557722442E+02  0.27639157737E+02  0.25731486800E+02  0.45045689970E+02  0.00000000000E+00 0.  1.
         11    1    3    3    0    0  0.11035981081E+02 -0.12012096810E+02 -0.11189745737E+02  0.19781146532E+02  0.51100000000E-03 0. -1.
        -11    1    3    3    0    0  0.13767987930E+02 -0.12535382346E+02 -0.10891473768E+02  0.21571219328E+02  0.51100000000E-03 0.  1.
        -12    1    3    3    0    0 -0.24624656928E+00 -0.30916785811E+01 -0.36502672952E+01  0.47899441696E+01  0.00000000000E+00 0.  1.
</event>
<event>
 7    1  0.2031146E-008  0.4614232E+02  0.7816164E-02  0.1320468E+00
        -11   -1    0    0    0    0  0.00000000000E+00  0.00000000000E+00  0.45593999997E+02  0.45594000000E+02  0.51100000000E-03 0. -1.
         11   -1    0    0    0    0 -0.00000000000E+00 -0.00000000000E+00 -0.45593999997E+02  0.45594000000E+02  0.51100000000E-03 0.  1.
    9900012    2    1    2    0    0 -0.10088756519E+01  0.42929410866E+02  0.13607402545E+02  0.46142317061E+02  0.99999936192E+01 0.  0.
        -12    1    1    2    0    0  0.10088756519E+01 -0.42929410866E+02 -0.13607402545E+02  0.45045682939E+02  0.00000000000E+00 0.  1.
         11    1    3    3    0    0 -0.19592622578E+01  0.59515789372E+01  0.34412649070E+01  0.71485876131E+01  0.51100000000E-03 0.  1.
        -11    1    3    3    0    0 -0.29621011599E+01  0.18398206276E+02  0.43547328533E+01  0.19137182027E+02  0.51100000000E-03 0. -1.
        -12    1    3    3    0    0  0.39124877657E+01  0.18579625653E+02  0.58114047850E+01  0.19856547421E+02  0.00000000000E+00 0.  1.
</event>
<event>
 7    1  0.2031146E-008  0.4614232E+02  0.7816164E-02  0.1320468E+00
        -11   -1    0    0    0    0  0.00000000000E+00  0.00000000000E+00  0.45593999997E+02  0.45594000000E+02  0.51100000000E-03 0.  1.
         11   -1    0    0    0    0 -0.00000000000E+00 -0.00000000000E+00 -0.45593999997E+02  0.45594000000E+02  0.51100000000E-03 0. -1.
    9900012    2    1    2    0    0  0.24697609363E+02  0.36451789476E+02 -0.95083485677E+01  0.46142317002E+02  0.99999930821E+01 0.  0.
        -12    1    1    2    0    0 -0.24697609363E+02 -0.36451789476E+02  0.95083485677E+01  0.45045682998E+02  0.00000000000E+00 0.  1.
         11    1    3    3    0    0  0.20813264031E+02  0.25843945911E+02 -0.81915906223E+01  0.34178994383E+02  0.51100000000E-03 0. -1.
        -11    1    3    3    0    0  0.24114479752E+01  0.25087542148E+01  0.54840099615E+00  0.35227365728E+01  0.51100000000E-03 0.  1.
        -12    1    3    3    0    0  0.14728973561E+01  0.80990893506E+01 -0.18651589415E+01  0.84405860465E+01  0.00000000000E+00 0.  1.
</event>
<event>
 7    1  0.2031146E-008  0.4614232E+02  0.7816164E-02  0.1320468E+00
        -11   -1    0    0    0    0  0.00000000000E+00  0.00000000000E+00  0.45593999997E+02  0.45594000000E+02  0.51100000000E-03 0.  1.
         11   -1    0    0    0    0 -0.00000000000E+00 -0.00000000000E+00 -0.45593999997E+02  0.45594000000E+02  0.51100000000E-03 0. -1.
    9900012    2    1    2    0    0  0.14120864473E+02  0.35757076292E+02  0.23476502467E+02  0.46142317782E+02  0.10000000192E+02 0.  0.
        -12    1    1    2    0    0 -0.14120864473E+02 -0.35757076292E+02 -0.23476502467E+02  0.45045682218E+02  0.00000000000E+00 0.  1.
         11    1    3    3    0    0  0.11285752613E+02  0.23926795716E+02  0.11877838210E+02  0.28999013881E+02  0.51100000000E-03 0. -1.
        -11    1    3    3    0    0 -0.64766210222E+00  0.39561636655E+01  0.39144750346E+01  0.56030181335E+01  0.51100000000E-03 0.  1.
         12    1    3    3    0    0  0.34827739622E+01  0.78741169100E+01  0.76841892227E+01  0.11540285767E+02  0.00000000000E+00 0. -1.
</event>
<event>
 7    1  0.2031146E-008  0.4614232E+02  0.7816164E-02  0.1320468E+00
        -11   -1    0    0    0    0  0.00000000000E+00  0.00000000000E+00  0.45593999997E+02  0.45594000000E+02  0.51100000000E-03 0.  1.
         11   -1    0    0    0    0 -0.00000000000E+00 -0.00000000000E+00 -0.45593999997E+02  0.45594000000E+02  0.51100000000E-03 0. -1.
    9900012    2    1    2    0    0  0.18485585994E+02 -0.14744739387E+02 -0.38340438831E+02  0.46142317866E+02  0.10000000959E+02 0.  0.
        -12    1    1    2    0    0 -0.18485585994E+02  0.14744739387E+02  0.38340438831E+02  0.45045682134E+02  0.00000000000E+00 0.  1.
         11    1    3    3    0    0  0.12817236813E+02 -0.10479741496E+02 -0.19723711513E+02  0.25751336614E+02  0.51100000000E-03 0. -1.
        -11    1    3    3    0    0  0.22352424702E+01 -0.10075104350E+01 -0.21609701141E+01  0.32682071954E+01  0.51100000000E-03 0.  1.
         12    1    3    3    0    0  0.34331067112E+01 -0.32574874562E+01 -0.16455757204E+02  0.17122774056E+02  0.00000000000E+00 0. -1.
</event>
<event>
 7    1  0.2031146E-008  0.4614232E+02  0.7816164E-02  0.1320468E+00
        -11   -1    0    0    0    0  0.00000000000E+00  0.00000000000E+00  0.45593999997E+02  0.45594000000E+02  0.51100000000E-03 0.  1.
         11   -1    0    0    0    0 -0.00000000000E+00 -0.00000000000E+00 -0.45593999997E+02  0.45594000000E+02  0.51100000000E-03 0. -1.
    9900012    2    1    2    0    0  0.29031253261E+02  0.14194358575E+02 -0.31381841879E+02  0.46142317843E+02  0.10000000749E+02 0.  0.
        -12    1    1    2    0    0 -0.29031253261E+02 -0.14194358575E+02  0.31381841879E+02  0.45045682157E+02  0.00000000000E+00 0.  1.
         11    1    3    3    0    0  0.46249239916E+01  0.37664781103E+01 -0.42911578731E+01  0.73478102477E+01  0.51100000000E-03 0. -1.
        -11    1    3    3    0    0  0.39752566783E+01 -0.12513580817E+01 -0.31522216772E+01  0.52254248125E+01  0.51100000000E-03 0.  1.
         12    1    3    3    0    0  0.20431072591E+02  0.11679238547E+02 -0.23938462329E+02  0.33569082783E+02  0.00000000000E+00 0. -1.
</event>
<event>
 7    1  0.2031146E-008  0.4614232E+02  0.7816164E-02  0.1320468E+00
        -11   -1    0    0    0    0  0.00000000000E+00  0.00000000000E+00  0.45593999997E+02  0.45594000000E+02  0.51100000000E-03 0.  1.
         11   -1    0    0    0    0 -0.00000000000E+00 -0.00000000000E+00 -0.45593999997E+02  0.45594000000E+02  0.51100000000E-03 0. -1.
    9900012    2    1    2    0    0 -0.19580251313E+02  0.32965601265E+02 -0.23643102696E+02  0.46142318594E+02  0.10000007593E+02 0.  0.
        -12    1    1    2    0    0  0.19580251313E+02 -0.32965601265E+02  0.23643102696E+02  0.45045681406E+02  0.00000000000E+00 0.  1.
         11    1    3    3    0    0 -0.12175112390E+01  0.75119412126E+01 -0.55005003727E+01  0.93897337028E+01  0.51100000000E-03 0.  1.
        -11    1    3    3    0    0 -0.14725303329E+02  0.15594333884E+02 -0.11854662269E+02  0.24506138521E+02  0.51100000000E-03 0. -1.
         12    1    3    3    0    0 -0.36374367442E+01  0.98593261683E+01 -0.62879400546E+01  0.12246446370E+02  0.00000000000E+00 0. -1.
</event>
<event>
 7    1  0.2031146E-008  0.4614232E+02  0.7816164E-02  0.1320468E+00
        -11   -1    0    0    0    0  0.00000000000E+00  0.00000000000E+00  0.45593999997E+02  0.45594000000E+02  0.51100000000E-03 0.  1.
         11   -1    0    0    0    0 -0.00000000000E+00 -0.00000000000E+00 -0.45593999997E+02  0.45594000000E+02  0.51100000000E-03 0. -1.
    9900012    2    1    2    0    0  0.11910485604E+02 -0.14484513784E+02 -0.40956716630E+02  0.46142318254E+02  0.10000004492E+02 0.  0.
        -12    1    1    2    0    0 -0.11910485604E+02  0.14484513784E+02  0.40956716630E+02  0.45045681746E+02  0.00000000000E+00 0.  1.
         11    1    3    3    0    0  0.10284469420E+01  0.70715037272E+00 -0.35609350008E+01  0.37733305054E+01  0.51100000000E-03 0. -1.
        -11    1    3    3    0    0  0.38597146053E+01 -0.23977576637E+01 -0.45672785689E+01  0.64425672239E+01  0.51100000000E-03 0.  1.
         12    1    3    3    0    0  0.70223240568E+01 -0.12793906493E+02 -0.32828503060E+02  0.35926420524E+02  0.00000000000E+00 0. -1.
</event>
<event>
 7    1  0.2031146E-008  0.4614232E+02  0.7816164E-02  0.1320468E+00
        -11   -1    0    0    0    0  0.00000000000E+00  0.00000000000E+00  0.45593999997E+02  0.45594000000E+02  0.51100000000E-03 0.  1.
         11   -1    0    0    0    0 -0.00000000000E+00 -0.00000000000E+00 -0.45593999997E+02  0.45594000000E+02  0.51100000000E-03 0. -1.
    9900012    2    1    2    0    0  0.41649726822E+02  0.15899829821E+02  0.64505149174E+01  0.46142317905E+02  0.10000001310E+02 0.  0.
        -12    1    1    2    0    0 -0.41649726822E+02 -0.15899829821E+02 -0.64505149174E+01  0.45045682095E+02  0.00000000000E+00 0.  1.
         11    1    3    3    0    0  0.81134882518E+01  0.48849193727E+01  0.28831062017E+01  0.98996682026E+01  0.51100000000E-03 0. -1.
        -11    1    3    3    0    0  0.23990838905E+02  0.10800222271E+02  0.43329247298E+01  0.26664196771E+02  0.51100000000E-03 0.  1.
        -12    1    3    3    0    0  0.95453996657E+01  0.21468817782E+00 -0.76551601413E+00  0.95784529314E+01  0.00000000000E+00 0.  1.
</event>
<event>
 7    1  0.2031146E-008  0.4614232E+02  0.7816164E-02  0.1320468E+00
        -11   -1    0    0    0    0  0.00000000000E+00  0.00000000000E+00  0.45593999997E+02  0.45594000000E+02  0.51100000000E-03 0.  1.
         11   -1    0    0    0    0 -0.00000000000E+00 -0.00000000000E+00 -0.45593999997E+02  0.45594000000E+02  0.51100000000E-03 0. -1.
    9900012    2    1    2    0    0  0.33115866687E+02  0.10610555813E+02 -0.28633355916E+02  0.46142316609E+02  0.99999894967E+01 0.  0.
        -12    1    1    2    0    0 -0.33115866687E+02 -0.10610555813E+02  0.28633355916E+02  0.45045683391E+02  0.00000000000E+00 0.  1.
         11    1    3    3    0    0  0.16232844721E+02  0.19291807198E+01 -0.12608425536E+02  0.20644596890E+02  0.51100000000E-03 0. -1.
        -11    1    3    3    0    0  0.11762484678E+02  0.36014308425E+01 -0.12234095580E+02  0.17349335574E+02  0.51100000000E-03 0.  1.
        -12    1    3    3    0    0  0.51205372883E+01  0.50799442503E+01 -0.37908347998E+01  0.81483841457E+01  0.00000000000E+00 0.  1.
</event>
<event>
 7    1  0.2031146E-008  0.4614232E+02  0.7816164E-02  0.1320468E+00
        -11   -1    0    0    0    0  0.00000000000E+00  0.00000000000E+00  0.45593999997E+02  0.45594000000E+02  0.51100000000E-03 0.  1.
         11   -1    0    0    0    0 -0.00000000000E+00 -0.00000000000E+00 -0.45593999997E+02  0.45594000000E+02  0.51100000000E-03 0. -1.
    9900012    2    1    2    0    0  0.40876717543E+02  0.16979444530E+02 -0.83609749849E+01  0.46142317895E+02  0.10000001220E+02 0.  0.
        -12    1    1    2    0    0 -0.40876717543E+02 -0.16979444530E+02  0.83609749849E+01  0.45045682105E+02  0.00000000000E+00 0.  1.
         11    1    3    3    0    0  0.83793132577E+01  0.62167645655E+01 -0.44860215700E+01  0.11357175799E+02  0.51100000000E-03 0. -1.
        -11    1    3    3    0    0  0.10503028730E+01 -0.16862808302E+00 -0.83777769545E+00  0.13540470020E+01  0.51100000000E-03 0.  1.
         12    1    3    3    0    0  0.31447101412E+02  0.10931308047E+02 -0.30371757194E+01  0.33431095094E+02  0.00000000000E+00 0. -1.
</event>
<event>
 7    1  0.2031146E-008  0.4614232E+02  0.7816164E-02  0.1320468E+00
        -11   -1    0    0    0    0  0.00000000000E+00  0.00000000000E+00  0.45593999997E+02  0.45594000000E+02  0.51100000000E-03 0.  1.
         11   -1    0    0    0    0 -0.00000000000E+00 -0.00000000000E+00 -0.45593999997E+02  0.45594000000E+02  0.51100000000E-03 0. -1.
    9900012    2    1    2    0    0 -0.15475525567E+02 -0.60023245011E+01 -0.41875931893E+02  0.46142318044E+02  0.10000002583E+02 0.  0.
        -12    1    1    2    0    0  0.15475525567E+02  0.60023245011E+01  0.41875931893E+02  0.45045681956E+02  0.00000000000E+00 0.  1.
         11    1    3    3    0    0  0.33784221412E-01 -0.10546415741E+00 -0.11188252796E+02  0.11188800871E+02  0.51100000000E-03 0. -1.
        -11    1    3    3    0    0 -0.61863656409E-01 -0.10499213196E+00 -0.85009319008E+00  0.85878353076E+00  0.51100000000E-03 0.  1.
         12    1    3    3    0    0 -0.15447446132E+02 -0.57918682117E+01 -0.29837585907E+02  0.34094733642E+02  0.00000000000E+00 0. -1.
</event>
<event>
 7    1  0.2031146E-008  0.4614232E+02  0.7816164E-02  0.1320468E+00
        -11   -1    0    0    0    0  0.00000000000E+00  0.00000000000E+00  0.45593999997E+02  0.45594000000E+02  0.51100000000E-03 0.  1.
         11   -1    0    0    0    0 -0.00000000000E+00 -0.00000000000E+00 -0.45593999997E+02  0.45594000000E+02  0.51100000000E-03 0. -1.
    9900012    2    1    2    0    0  0.27657448972E+02 -0.20885548417E+02 -0.28774518202E+02  0.46142317476E+02  0.99999973992E+01 0.  0.
        -12    1    1    2    0    0 -0.27657448972E+02  0.20885548417E+02  0.28774518202E+02  0.45045682524E+02  0.00000000000E+00 0.  1.
         11    1    3    3    0    0  0.96605269058E-01 -0.12454320917E+01 -0.14390147847E+01  0.19055701207E+01  0.51100000000E-03 0.  1.
        -11    1    3    3    0    0  0.69164459221E+00 -0.25859323237E+01 -0.78027268490E+00  0.27882331231E+01  0.51100000000E-03 0. -1.
         12    1    3    3    0    0  0.26869199110E+02 -0.17054184001E+02 -0.26555230733E+02  0.41448514232E+02  0.00000000000E+00 0. -1.
</event>
<event>
 7    1  0.2031146E-008  0.4614232E+02  0.7816164E-02  0.1320468E+00
        -11   -1    0    0    0    0  0.00000000000E+00  0.00000000000E+00  0.45593999997E+02  0.45594000000E+02  0.51100000000E-03 0. -1.
         11   -1    0    0    0    0 -0.00000000000E+00 -0.00000000000E+00 -0.45593999997E+02  0.45594000000E+02  0.51100000000E-03 0.  1.
    9900012    2    1    2    0    0 -0.16386123312E+02  0.28718137053E+02  0.30592103505E+02  0.46142320631E+02  0.10000026168E+02 0.  0.
        -12    1    1    2    0    0  0.16386123312E+02 -0.28718137053E+02 -0.30592103505E+02  0.45045679369E+02  0.00000000000E+00 0.  1.
         11    1    3    3    0    0 -0.99848392356E+00  0.44044417862E+01  0.52047477956E+01  0.68909707205E+01  0.51100000000E-03 0. -1.
        -11    1    3    3    0    0  0.71234108703E+00  0.26083455573E+01  0.11081405273E+01  0.29221348463E+01  0.51100000000E-03 0.  1.
         12    1    3    3    0    0 -0.16099980475E+02  0.21705349709E+02  0.24279215182E+02  0.36329215064E+02  0.00000000000E+00 0. -1.
</event>
<event>
 7    1  0.2031146E-008  0.4614232E+02  0.7816164E-02  0.1320468E+00
        -11   -1    0    0    0    0  0.00000000000E+00  0.00000000000E+00  0.45593999997E+02  0.45594000000E+02  0.51100000000E-03 0. -1.
         11   -1    0    0    0    0 -0.00000000000E+00 -0.00000000000E+00 -0.45593999997E+02  0.45594000000E+02  0.51100000000E-03 0.  1.
    9900012    2    1    2    0    0 -0.40467996242E+02  0.65757722094E+01  0.18660493884E+02  0.46142317277E+02  0.99999955874E+01 0.  0.
        -12    1    1    2    0    0  0.40467996242E+02 -0.65757722094E+01 -0.18660493884E+02  0.45045682723E+02  0.00000000000E+00 0.  1.
         11    1    3    3    0    0 -0.21761605434E+02  0.47611254766E+00  0.75110464712E+01  0.23026288749E+02  0.51100000000E-03 0. -1.
        -11    1    3    3    0    0 -0.90627725105E+01  0.53186582689E+01  0.48711011988E+01  0.11582296772E+02  0.51100000000E-03 0.  1.
        -12    1    3    3    0    0 -0.96436182976E+01  0.78100139286E+00  0.62783462136E+01  0.11533731756E+02  0.00000000000E+00 0.  1.
</event>
<event>
 7    1  0.2031146E-008  0.4614232E+02  0.7816164E-02  0.1320468E+00
        -11   -1    0    0    0    0  0.00000000000E+00  0.00000000000E+00  0.45593999997E+02  0.45594000000E+02  0.51100000000E-03 0. -1.
         11   -1    0    0    0    0 -0.00000000000E+00 -0.00000000000E+00 -0.45593999997E+02  0.45594000000E+02  0.51100000000E-03 0.  1.
    9900012    2    1    2    0    0 -0.41366093298E+02 -0.17023926970E+02  0.53052539421E+01  0.46142317814E+02  0.10000000478E+02 0.  0.
        -12    1    1    2    0    0  0.41366093298E+02  0.17023926970E+02 -0.53052539421E+01  0.45045682186E+02  0.00000000000E+00 0.  1.
         11    1    3    3    0    0 -0.14102655636E+02 -0.88210433422E+01 -0.10123399257E+01  0.16664949265E+02  0.51100000000E-03 0. -1.
        -11    1    3    3    0    0 -0.24877242780E+01  0.46403195978E+00  0.29840787141E+00  0.25481650774E+01  0.51100000000E-03 0.  1.
         12    1    3    3    0    0 -0.24775713385E+02 -0.86669155876E+01  0.60191859963E+01  0.26929203471E+02  0.00000000000E+00 0. -1.
</event>
<event>
 7    1  0.2031146E-008  0.4614232E+02  0.7816164E-02  0.1320468E+00
        -11   -1    0    0    0    0  0.00000000000E+00  0.00000000000E+00  0.45593999997E+02  0.45594000000E+02  0.51100000000E-03 0.  1.
         11   -1    0    0    0    0 -0.00000000000E+00 -0.00000000000E+00 -0.45593999997E+02  0.45594000000E+02  0.51100000000E-03 0. -1.
    9900012    2    1    2    0    0  0.41430895528E+02 -0.14567836904E+02 -0.10018614971E+02  0.46142316275E+02  0.99999864486E+01 0.  0.
        -12    1    1    2    0    0 -0.41430895528E+02  0.14567836904E+02  0.10018614971E+02  0.45045683725E+02  0.00000000000E+00 0.  1.
         11    1    3    3    0    0  0.15101037824E+02 -0.37592309612E+01 -0.62941581494E+01  0.16786589524E+02  0.51100000000E-03 0. -1.
        -11    1    3    3    0    0  0.10112168346E+02 -0.14378601490E+01  0.21268954765E+00  0.10216096494E+02  0.51100000000E-03 0.  1.
        -12    1    3    3    0    0  0.16217689358E+02 -0.93707457938E+01 -0.39371463694E+01  0.19139630257E+02  0.00000000000E+00 0.  1.
</event>
<event>
 7    1  0.2031146E-008  0.4614232E+02  0.7816164E-02  0.1320468E+00
        -11   -1    0    0    0    0  0.00000000000E+00  0.00000000000E+00  0.45593999997E+02  0.45594000000E+02  0.51100000000E-03 0. -1.
         11   -1    0    0    0    0 -0.00000000000E+00 -0.00000000000E+00 -0.45593999997E+02  0.45594000000E+02  0.51100000000E-03 0.  1.
    9900012    2    1    2    0    0  0.23818169764E+02 -0.37842803290E+02  0.54525759460E+01  0.46142317008E+02  0.99999931350E+01 0.  0.
        -12    1    1    2    0    0 -0.23818169764E+02  0.37842803290E+02 -0.54525759460E+01  0.45045682992E+02  0.00000000000E+00 0.  1.
         11    1    3    3    0    0  0.74748573886E+01 -0.12942697631E+02  0.74783360176E-01  0.14946320877E+02  0.51100000000E-03 0. -1.
        -11    1    3    3    0    0  0.12288306990E+02 -0.16195203082E+02  0.29684405326E+00  0.20331630731E+02  0.51100000000E-03 0.  1.
        -12    1    3    3    0    0  0.40550053852E+01 -0.87049025779E+01  0.50809485326E+01  0.10864365401E+02  0.00000000000E+00 0.  1.
</event>
<event>
 7    1  0.2031146E-008  0.4614232E+02  0.7816164E-02  0.1320468E+00
        -11   -1    0    0    0    0  0.00000000000E+00  0.00000000000E+00  0.45593999997E+02  0.45594000000E+02  0.51100000000E-03 0.  1.
         11   -1    0    0    0    0 -0.00000000000E+00 -0.00000000000E+00 -0.45593999997E+02  0.45594000000E+02  0.51100000000E-03 0. -1.
    9900012    2    1    2    0    0 -0.38231243015E+01 -0.41386968182E+02 -0.17367092613E+02  0.46142319624E+02  0.10000016991E+02 0.  0.
        -12    1    1    2    0    0  0.38231243015E+01  0.41386968182E+02  0.17367092613E+02  0.45045680376E+02  0.00000000000E+00 0.  1.
         11    1    3    3    0    0  0.10623723398E+01 -0.40295274593E+01 -0.27000595540E+01  0.49654857155E+01  0.51100000000E-03 0. -1.
        -11    1    3    3    0    0 -0.26355538477E+01 -0.27995031836E+01 -0.14409936977E+01  0.41060717550E+01  0.51100000000E-03 0.  1.
         12    1    3    3    0    0 -0.22499427937E+01 -0.34557937539E+02 -0.13226039361E+02  0.37070762154E+02  0.00000000000E+00 0. -1.
</event>
<event>
 7    1  0.2031146E-008  0.4614232E+02  0.7816164E-02  0.1320468E+00
        -11   -1    0    0    0    0  0.00000000000E+00  0.00000000000E+00  0.45593999997E+02  0.45594000000E+02  0.51100000000E-03 0. -1.
         11   -1    0    0    0    0 -0.00000000000E+00 -0.00000000000E+00 -0.45593999997E+02  0.45594000000E+02  0.51100000000E-03 0.  1.
    9900012    2    1    2    0    0  0.24979852304E+02  0.31433120444E+02 -0.20422519603E+02  0.46142318865E+02  0.10000010066E+02 0.  0.
        -12    1    1    2    0    0 -0.24979852304E+02 -0.31433120444E+02  0.20422519603E+02  0.45045681135E+02  0.00000000000E+00 0.  1.
         11    1    3    3    0    0  0.14063490043E+01  0.27280311141E+01 -0.22975517295E+01  0.38338903860E+01  0.51100000000E-03 0. -1.
        -11    1    3    3    0    0  0.23480243883E+01  0.47787523643E+01 -0.62023779970E+01  0.81743003227E+01  0.51100000000E-03 0.  1.
         12    1    3    3    0    0  0.21225478912E+02  0.23926336966E+02 -0.11922589876E+02  0.34134128156E+02  0.00000000000E+00 0. -1.
</event>
<event>
 7    1  0.2031146E-008  0.4614232E+02  0.7816164E-02  0.1320468E+00
        -11   -1    0    0    0    0  0.00000000000E+00  0.00000000000E+00  0.45593999997E+02  0.45594000000E+02  0.51100000000E-03 0. -1.
         11   -1    0    0    0    0 -0.00000000000E+00 -0.00000000000E+00 -0.45593999997E+02  0.45594000000E+02  0.51100000000E-03 0.  1.
    9900012    2    1    2    0    0 -0.28486927416E+02  0.22056161590E+02  0.27039493778E+02  0.46142317393E+02  0.99999966457E+01 0.  0.
        -12    1    1    2    0    0  0.28486927416E+02 -0.22056161590E+02 -0.27039493778E+02  0.45045682607E+02  0.00000000000E+00 0.  1.
         11    1    3    3    0    0 -0.10843103031E+02  0.75284766652E+01  0.10941009112E+02  0.17145160393E+02  0.51100000000E-03 0. -1.
        -11    1    3    3    0    0 -0.20470805896E+01  0.49591839256E+01  0.14487303499E+01  0.55572352871E+01  0.51100000000E-03 0.  1.
        -12    1    3    3    0    0 -0.15596743795E+02  0.95685009996E+01  0.14649754317E+02  0.23439921713E+02  0.00000000000E+00 0.  1.
</event>
<event>
 7    1  0.2031146E-008  0.4614232E+02  0.7816164E-02  0.1320468E+00
        -11   -1    0    0    0    0  0.00000000000E+00  0.00000000000E+00  0.45593999997E+02  0.45594000000E+02  0.51100000000E-03 0.  1.
         11   -1    0    0    0    0 -0.00000000000E+00 -0.00000000000E+00 -0.45593999997E+02  0.45594000000E+02  0.51100000000E-03 0. -1.
    9900012    2    1    2    0    0  0.12604747678E+02 -0.12179074010E+02 -0.41495831187E+02  0.46142317480E+02  0.99999974359E+01 0.  0.
        -12    1    1    2    0    0 -0.12604747678E+02  0.12179074010E+02  0.41495831187E+02  0.45045682520E+02  0.00000000000E+00 0.  1.
         11    1    3    3    0    0 -0.87448473500E-02  0.48271004932E+00 -0.79886015729E+00  0.93341484673E+00  0.51100000000E-03 0. -1.
        -11    1    3    3    0    0  0.28514459679E+01 -0.57632559221E+01 -0.72528830092E+01  0.96927898531E+01  0.51100000000E-03 0.  1.
         12    1    3    3    0    0  0.97620465575E+01 -0.68985281369E+01 -0.33444088021E+02  0.35516112780E+02  0.00000000000E+00 0. -1.
</event>
<event>
 7    1  0.2031146E-008  0.4614232E+02  0.7816164E-02  0.1320468E+00
        -11   -1    0    0    0    0  0.00000000000E+00  0.00000000000E+00  0.45593999997E+02  0.45594000000E+02  0.51100000000E-03 0.  1.
         11   -1    0    0    0    0 -0.00000000000E+00 -0.00000000000E+00 -0.45593999997E+02  0.45594000000E+02  0.51100000000E-03 0. -1.
    9900012    2    1    2    0    0  0.27652640577E+02  0.34333040677E+02  0.92567440273E+01  0.46142317377E+02  0.99999964949E+01 0.  0.
        -12    1    1    2    0    0 -0.27652640577E+02 -0.34333040677E+02 -0.92567440273E+01  0.45045682623E+02  0.00000000000E+00 0.  1.
         11    1    3    3    0    0  0.53413783154E+01  0.69591571727E+01  0.41083333848E+00  0.87823103541E+01  0.51100000000E-03 0.  1.
        -11    1    3    3    0    0  0.78577350823E+01  0.43172817452E+01  0.89670727677E+00  0.90103832600E+01  0.51100000000E-03 0. -1.
         12    1    3    3    0    0  0.14453527180E+02  0.23056601759E+02  0.79492034121E+01  0.28349623763E+02  0.00000000000E+00 0. -1.
</event>
<event>
 7    1  0.2031146E-008  0.4614232E+02  0.7816164E-02  0.1320468E+00
        -11   -1    0    0    0    0  0.00000000000E+00  0.00000000000E+00  0.45593999997E+02  0.45594000000E+02  0.51100000000E-03 0. -1.
         11   -1    0    0    0    0 -0.00000000000E+00 -0.00000000000E+00 -0.45593999997E+02  0.45594000000E+02  0.51100000000E-03 0.  1.
    9900012    2    1    2    0    0 -0.12341968528E+02 -0.21943107401E+02  0.37353570168E+02  0.46142319255E+02  0.10000013620E+02 0.  0.
        -12    1    1    2    0    0  0.12341968528E+02  0.21943107401E+02 -0.37353570168E+02  0.45045680745E+02  0.00000000000E+00 0.  1.
         11    1    3    3    0    0 -0.30637976712E+01 -0.19082218871E+01  0.72394288155E+01  0.80893446445E+01  0.51100000000E-03 0.  1.
        -11    1    3    3    0    0 -0.58259059501E+01 -0.11253482993E+02  0.22911651190E+02  0.26182548007E+02  0.51100000000E-03 0. -1.
        -12    1    3    3    0    0 -0.34522649064E+01 -0.87814025208E+01  0.72024901620E+01  0.11870426604E+02  0.00000000000E+00 0.  1.
</event>
<event>
 7    1  0.2031146E-008  0.4614232E+02  0.7816164E-02  0.1320468E+00
        -11   -1    0    0    0    0  0.00000000000E+00  0.00000000000E+00  0.45593999997E+02  0.45594000000E+02  0.51100000000E-03 0.  1.
         11   -1    0    0    0    0 -0.00000000000E+00 -0.00000000000E+00 -0.45593999997E+02  0.45594000000E+02  0.51100000000E-03 0. -1.
    9900012    2    1    2    0    0  0.24870993371E+02 -0.41167692596E+01 -0.37330943772E+02  0.46142318039E+02  0.10000002536E+02 0.  0.
        -12    1    1    2    0    0 -0.24870993371E+02  0.41167692596E+01  0.37330943772E+02  0.45045681961E+02  0.00000000000E+00 0.  1.
         11    1    3    3    0    0  0.11953643361E+02 -0.30060785831E+01 -0.12635517989E+02  0.17651697175E+02  0.51100000000E-03 0. -1.
        -11    1    3    3    0    0  0.77428328373E+01  0.18454731659E+01 -0.11224105592E+02  0.13760006473E+02  0.51100000000E-03 0.  1.
        -12    1    3    3    0    0  0.51745171727E+01 -0.29561638423E+01 -0.13471320191E+02  0.14730614391E+02  0.00000000000E+00 0.  1.
</event>
<event>
 7    1  0.2031146E-008  0.4614232E+02  0.7816164E-02  0.1320468E+00
        -11   -1    0    0    0    0  0.00000000000E+00  0.00000000000E+00  0.45593999997E+02  0.45594000000E+02  0.51100000000E-03 0. -1.
         11   -1    0    0    0    0 -0.00000000000E+00 -0.00000000000E+00 -0.45593999997E+02  0.45594000000E+02  0.51100000000E-03 0.  1.
    9900012    2    1    2    0    0 -0.34233389175E+02 -0.13918827984E+02  0.25757619915E+02  0.46142315517E+02  0.99999795366E+01 0.  0.
        -12    1    1    2    0    0  0.34233389175E+02  0.13918827984E+02 -0.25757619915E+02  0.45045684483E+02  0.00000000000E+00 0.  1.
         11    1    3    3    0    0 -0.20421735878E+02 -0.84226637621E+01  0.11119474470E+02  0.24731180196E+02  0.51100000000E-03 0.  1.
        -11    1    3    3    0    0 -0.10598070930E+02 -0.61814384745E+01  0.12340619125E+02  0.17401728929E+02  0.51100000000E-03 0. -1.
         12    1    3    3    0    0 -0.32135823670E+01  0.68527425272E+00  0.22975263198E+01  0.40094063926E+01  0.00000000000E+00 0. -1.
</event>
<event>
 7    1  0.2031146E-008  0.4614232E+02  0.7816164E-02  0.1320468E+00
        -11   -1    0    0    0    0  0.00000000000E+00  0.00000000000E+00  0.45593999997E+02  0.45594000000E+02  0.51100000000E-03 0. -1.
         11   -1    0    0    0    0 -0.00000000000E+00 -0.00000000000E+00 -0.45593999997E+02  0.45594000000E+02  0.51100000000E-03 0.  1.
    9900012    2    1    2    0    0 -0.23485063590E+02  0.36300671168E+02 -0.12642251968E+02  0.46142317922E+02  0.10000001470E+02 0.  0.
        -12    1    1    2    0    0  0.23485063590E+02 -0.36300671168E+02  0.12642251968E+02  0.45045682078E+02  0.00000000000E+00 0.  1.
         11    1    3    3    0    0 -0.44672750657E+01  0.28573339773E+01 -0.21584026965E+01  0.57253477127E+01  0.51100000000E-03 0.  1.
        -11    1    3    3    0    0 -0.15940949222E+02  0.27257983533E+02 -0.58928472004E+01  0.32122222476E+02  0.51100000000E-03 0. -1.
         12    1    3    3    0    0 -0.30768393019E+01  0.61853536573E+01 -0.45910020706E+01  0.82947477338E+01  0.00000000000E+00 0. -1.
</event>
<event>
 7    1  0.2031146E-008  0.4614232E+02  0.7816164E-02  0.1320468E+00
        -11   -1    0    0    0    0  0.00000000000E+00  0.00000000000E+00  0.45593999997E+02  0.45594000000E+02  0.51100000000E-03 0.  1.
         11   -1    0    0    0    0 -0.00000000000E+00 -0.00000000000E+00 -0.45593999997E+02  0.45594000000E+02  0.51100000000E-03 0. -1.
    9900012    2    1    2    0    0  0.31169680335E+02 -0.17141875819E+02 -0.27635494230E+02  0.46142318519E+02  0.10000006910E+02 0.  0.
        -12    1    1    2    0    0 -0.31169680335E+02  0.17141875819E+02  0.27635494230E+02  0.45045681481E+02  0.00000000000E+00 0.  1.
         11    1    3    3    0    0  0.13099892235E+02 -0.51189323123E+01 -0.90662084487E+01  0.16733403135E+02  0.51100000000E-03 0. -1.
        -11    1    3    3    0    0  0.10952723261E+02 -0.10999593463E+02 -0.11434923112E+02  0.19279799533E+02  0.51100000000E-03 0.  1.
        -12    1    3    3    0    0  0.71170648386E+01 -0.10233500436E+01 -0.71343626692E+01  0.10129115851E+02  0.00000000000E+00 0.  1.
</event>
<event>
 7    1  0.2031146E-008  0.4614232E+02  0.7816164E-02  0.1320468E+00
        -11   -1    0    0    0    0  0.00000000000E+00  0.00000000000E+00  0.45593999997E+02  0.45594000000E+02  0.51100000000E-03 0.  1.
         11   -1    0    0    0    0 -0.00000000000E+00 -0.00000000000E+00 -0.45593999997E+02  0.45594000000E+02  0.51100000000E-03 0. -1.
    9900012    2    1    2    0    0  0.32165840660E+02  0.30490740814E+02 -0.80490309608E+01  0.46142317853E+02  0.10000000836E+02 0.  0.
        -12    1    1    2    0    0 -0.32165840660E+02 -0.30490740814E+02  0.80490309608E+01  0.45045682147E+02  0.00000000000E+00 0.  1.
         11    1    3    3    0    0  0.10700662489E+02  0.78231518684E+01 -0.52501460032E+01  0.14257275903E+02  0.51100000000E-03 0. -1.
        -11    1    3    3    0    0  0.11450756356E+02  0.14901205391E+02 -0.37981839724E+01  0.19172687474E+02  0.51100000000E-03 0.  1.
        -12    1    3    3    0    0  0.10014421815E+02  0.77663835544E+01  0.99929901478E+00  0.12712354476E+02  0.00000000000E+00 0.  1.
</event>
<event>
 7    1  0.2031146E-008  0.4614231E+02  0.7816164E-02  0.1320468E+00
        -11   -1    0    0    0    0  0.00000000000E+00  0.00000000000E+00  0.45593999997E+02  0.45594000000E+02  0.51100000000E-03 0.  1.
         11   -1    0    0    0    0 -0.00000000000E+00 -0.00000000000E+00 -0.45593999997E+02  0.45594000000E+02  0.51100000000E-03 0. -1.
    9900012    2    1    2    0    0  0.39808286901E+01  0.13340800810E+02 -0.42840282502E+02  0.46142314655E+02  0.99999716752E+01 0.  0.
        -12    1    1    2    0    0 -0.39808286901E+01 -0.13340800810E+02  0.42840282502E+02  0.45045685345E+02  0.00000000000E+00 0.  1.
         11    1    3    3    0    0  0.32946175278E+01  0.86916954048E+01 -0.13616495602E+02  0.16486631749E+02  0.51100000000E-03 0. -1.
        -11    1    3    3    0    0  0.38575226716E+00  0.33912753227E+01 -0.15512879984E+02  0.15883922651E+02  0.51100000000E-03 0.  1.
         12    1    3    3    0    0  0.30045889517E+00  0.12578300826E+01 -0.13710906916E+02  0.13771760255E+02  0.00000000000E+00 0. -1.
</event>
<event>
 7    1  0.2031146E-008  0.4614232E+02  0.7816164E-02  0.1320468E+00
        -11   -1    0    0    0    0  0.00000000000E+00  0.00000000000E+00  0.45593999997E+02  0.45594000000E+02  0.51100000000E-03 0.  1.
         11   -1    0    0    0    0 -0.00000000000E+00 -0.00000000000E+00 -0.45593999997E+02  0.45594000000E+02  0.51100000000E-03 0. -1.
    9900012    2    1    2    0    0 -0.37987348024E+02  0.23779876062E+02 -0.45378819329E+01  0.46142317767E+02  0.10000000050E+02 0.  0.
        -12    1    1    2    0    0  0.37987348024E+02 -0.23779876062E+02  0.45378819329E+01  0.45045682233E+02  0.00000000000E+00 0.  1.
         11    1    3    3    0    0 -0.29817136585E+02  0.22490680274E+02 -0.27196260962E+01  0.37447145414E+02  0.51100000000E-03 0. -1.
        -11    1    3    3    0    0 -0.16143874167E+01  0.46655155710E+00  0.39654686083E+00  0.17266055603E+01  0.51100000000E-03 0.  1.
        -12    1    3    3    0    0 -0.65558240226E+01  0.82264423081E+00 -0.22148026975E+01  0.69685667920E+01  0.00000000000E+00 0.  1.
</event>
<event>
 7    1  0.2031146E-008  0.4614232E+02  0.7816164E-02  0.1320468E+00
        -11   -1    0    0    0    0  0.00000000000E+00  0.00000000000E+00  0.45593999997E+02  0.45594000000E+02  0.51100000000E-03 0.  1.
         11   -1    0    0    0    0 -0.00000000000E+00 -0.00000000000E+00 -0.45593999997E+02  0.45594000000E+02  0.51100000000E-03 0. -1.
    9900012    2    1    2    0    0 -0.42317814857E+02  0.51929538298E+01 -0.14537858651E+02  0.46142316989E+02  0.99999929593E+01 0.  0.
        -12    1    1    2    0    0  0.42317814857E+02 -0.51929538298E+01  0.14537858651E+02  0.45045683011E+02  0.00000000000E+00 0.  1.
         11    1    3    3    0    0 -0.16938383034E+02  0.24624765320E+01 -0.30700393124E+01  0.17389587463E+02  0.51100000000E-03 0. -1.
        -11    1    3    3    0    0 -0.14448991098E+01 -0.72847015407E+00  0.59991191725E+00  0.17257742531E+01  0.51100000000E-03 0.  1.
        -12    1    3    3    0    0 -0.23934532713E+02  0.34589474518E+01 -0.12067731256E+02  0.27026955273E+02  0.00000000000E+00 0.  1.
</event>
<event>
 7    1  0.2031146E-008  0.4614232E+02  0.7816164E-02  0.1320468E+00
        -11   -1    0    0    0    0  0.00000000000E+00  0.00000000000E+00  0.45593999997E+02  0.45594000000E+02  0.51100000000E-03 0. -1.
         11   -1    0    0    0    0 -0.00000000000E+00 -0.00000000000E+00 -0.45593999997E+02  0.45594000000E+02  0.51100000000E-03 0.  1.
    9900012    2    1    2    0    0 -0.23799991378E+02  0.29309273477E+02  0.24569084400E+02  0.46142323075E+02  0.10000048459E+02 0.  0.
        -12    1    1    2    0    0  0.23799991378E+02 -0.29309273477E+02 -0.24569084400E+02  0.45045676925E+02  0.00000000000E+00 0.  1.
         11    1    3    3    0    0 -0.17201972413E+02  0.24806147802E+02  0.19835331139E+02  0.36120536891E+02  0.51100000000E-03 0. -1.
        -11    1    3    3    0    0 -0.60226645214E+01  0.40419801156E+01  0.53883994824E+01  0.90357589851E+01  0.51100000000E-03 0.  1.
         12    1    3    3    0    0 -0.57535444361E+00  0.46114555927E+00 -0.65464622087E+00  0.98602719897E+00  0.00000000000E+00 0. -1.
</event>
<event>
 7    1  0.2031146E-008  0.4614232E+02  0.7816164E-02  0.1320468E+00
        -11   -1    0    0    0    0  0.00000000000E+00  0.00000000000E+00  0.45593999997E+02  0.45594000000E+02  0.51100000000E-03 0.  1.
         11   -1    0    0    0    0 -0.00000000000E+00 -0.00000000000E+00 -0.45593999997E+02  0.45594000000E+02  0.51100000000E-03 0. -1.
    9900012    2    1    2    0    0  0.39436316158E+02  0.15735125881E+02 -0.15043147170E+02  0.46142317683E+02  0.99999992884E+01 0.  0.
        -12    1    1    2    0    0 -0.39436316158E+02 -0.15735125881E+02  0.15043147170E+02  0.45045682317E+02  0.00000000000E+00 0.  1.
         11    1    3    3    0    0  0.10299466463E+02  0.33516187882E+01 -0.67568795036E+01  0.12765883393E+02  0.51100000000E-03 0. -1.
        -11    1    3    3    0    0  0.90784724653E+00  0.18858310962E+01 -0.12838991235E+01  0.24553905528E+01  0.51100000000E-03 0.  1.
         12    1    3    3    0    0  0.28229002448E+02  0.10497675997E+02 -0.70023685432E+01  0.30921043737E+02  0.00000000000E+00 0. -1.
</event>
<event>
 7    1  0.3859088E-008  0.4614232E+02  0.7816164E-02  0.1320468E+00
        -11   -1    0    0    0    0  0.00000000000E+00  0.00000000000E+00  0.45593999997E+02  0.45594000000E+02  0.51100000000E-03 0. -1.
         11   -1    0    0    0    0 -0.00000000000E+00 -0.00000000000E+00 -0.45593999997E+02  0.45594000000E+02  0.51100000000E-03 0.  1.
    9900012    2    1    2    0    0 -0.43231713411E+02  0.19822780704E+01  0.12498122770E+02  0.46142317149E+02  0.99999944155E+01 0.  0.
        -12    1    1    2    0    0  0.43231713411E+02 -0.19822780704E+01 -0.12498122770E+02  0.45045682851E+02  0.00000000000E+00 0.  1.
         11    1    3    3    0    0 -0.16394628297E+02  0.12025861079E+01  0.62466322783E+01  0.17585518628E+02  0.51100000000E-03 0. -1.
        -11    1    3    3    0    0 -0.22617132948E+02 -0.19692298320E+01  0.61437719650E+01  0.23519321911E+02  0.51100000000E-03 0.  1.
        -12    1    3    3    0    0 -0.42199521664E+01  0.27489217945E+01  0.10771852625E+00  0.50374766103E+01  0.00000000000E+00 0.  1.
</event>
<event>
 7    1  0.2031146E-008  0.4614232E+02  0.7816164E-02  0.1320468E+00
        -11   -1    0    0    0    0  0.00000000000E+00  0.00000000000E+00  0.45593999997E+02  0.45594000000E+02  0.51100000000E-03 0.  1.
         11   -1    0    0    0    0 -0.00000000000E+00 -0.00000000000E+00 -0.45593999997E+02  0.45594000000E+02  0.51100000000E-03 0. -1.
    9900012    2    1    2    0    0 -0.17185654644E+02 -0.33540632136E+02 -0.24673730228E+02  0.46142315489E+02  0.99999792849E+01 0.  0.
        -12    1    1    2    0    0  0.17185654644E+02  0.33540632136E+02  0.24673730228E+02  0.45045684511E+02  0.00000000000E+00 0.  1.
         11    1    3    3    0    0 -0.15541057424E+01 -0.23918029788E+01 -0.17547485160E+01  0.33488966486E+01  0.51100000000E-03 0. -1.
        -11    1    3    3    0    0 -0.18599496031E+00 -0.22942732132E+01 -0.49444361297E+01  0.54539648517E+01  0.51100000000E-03 0.  1.
        -12    1    3    3    0    0 -0.15445553941E+02 -0.28854555944E+02 -0.17974545583E+02  0.37339453989E+02  0.00000000000E+00 0.  1.
</event>
<event>
 7    1  0.2031146E-008  0.4614232E+02  0.7816164E-02  0.1320468E+00
        -11   -1    0    0    0    0  0.00000000000E+00  0.00000000000E+00  0.45593999997E+02  0.45594000000E+02  0.51100000000E-03 0.  1.
         11   -1    0    0    0    0 -0.00000000000E+00 -0.00000000000E+00 -0.45593999997E+02  0.45594000000E+02  0.51100000000E-03 0. -1.
    9900012    2    1    2    0    0 -0.41083034019E+01  0.17258918801E+02 -0.41404890636E+02  0.46142318702E+02  0.10000008583E+02 0.  0.
        -12    1    1    2    0    0  0.41083034019E+01 -0.17258918801E+02  0.41404890636E+02  0.45045681298E+02  0.00000000000E+00 0.  1.
         11    1    3    3    0    0 -0.30636166043E+01  0.76644388167E+01 -0.97033979739E+01  0.12739124836E+02  0.51100000000E-03 0.  1.
        -11    1    3    3    0    0 -0.85115401620E-01  0.25171349735E+01 -0.35038548535E+01  0.43151143903E+01  0.51100000000E-03 0. -1.
         12    1    3    3    0    0 -0.95957139590E+00  0.70773450108E+01 -0.28197637808E+02  0.29088079476E+02  0.00000000000E+00 0. -1.
</event>
<event>
 7    1  0.2031146E-008  0.4614232E+02  0.7816164E-02  0.1320468E+00
        -11   -1    0    0    0    0  0.00000000000E+00  0.00000000000E+00  0.45593999997E+02  0.45594000000E+02  0.51100000000E-03 0.  1.
         11   -1    0    0    0    0 -0.00000000000E+00 -0.00000000000E+00 -0.45593999997E+02  0.45594000000E+02  0.51100000000E-03 0. -1.
    9900012    2    1    2    0    0  0.33608950978E+02  0.17118483139E+02 -0.24627406549E+02  0.46142320916E+02  0.10000028765E+02 0.  0.
        -12    1    1    2    0    0 -0.33608950978E+02 -0.17118483139E+02  0.24627406549E+02  0.45045679084E+02  0.00000000000E+00 0.  1.
         11    1    3    3    0    0  0.99754781075E+01  0.30710896733E+01 -0.47177001725E+01  0.11454189209E+02  0.51100000000E-03 0. -1.
        -11    1    3    3    0    0  0.64654483506E+00 -0.74524465452E+00 -0.25147800682E+00  0.10181607279E+01  0.51100000000E-03 0.  1.
         12    1    3    3    0    0  0.22986928036E+02  0.14792638121E+02 -0.19658228370E+02  0.33669970979E+02  0.00000000000E+00 0. -1.
</event>
<event>
 7    1  0.2660058E-008  0.4614232E+02  0.7816164E-02  0.1320468E+00
        -11   -1    0    0    0    0  0.00000000000E+00  0.00000000000E+00  0.45593999997E+02  0.45594000000E+02  0.51100000000E-03 0. -1.
         11   -1    0    0    0    0 -0.00000000000E+00 -0.00000000000E+00 -0.45593999997E+02  0.45594000000E+02  0.51100000000E-03 0.  1.
    9900012    2    1    2    0    0  0.14092400493E+02  0.17517114862E+02  0.39034195599E+02  0.46142317734E+02  0.99999997522E+01 0.  0.
        -12    1    1    2    0    0 -0.14092400493E+02 -0.17517114862E+02 -0.39034195599E+02  0.45045682266E+02  0.00000000000E+00 0.  1.
         11    1    3    3    0    0  0.56391319670E+01  0.95444722988E+01  0.21412845566E+02  0.24112376828E+02  0.51100000000E-03 0. -1.
        -11    1    3    3    0    0  0.10809861454E+01  0.45864893208E+01  0.91998751114E+01  0.10336446085E+02  0.51100000000E-03 0.  1.
        -12    1    3    3    0    0  0.73722823801E+01  0.33861532424E+01  0.84214749223E+01  0.11693494821E+02  0.00000000000E+00 0.  1.
</event>
<event>
 7    1  0.2031146E-008  0.4614232E+02  0.7816164E-02  0.1320468E+00
        -11   -1    0    0    0    0  0.00000000000E+00  0.00000000000E+00  0.45593999997E+02  0.45594000000E+02  0.51100000000E-03 0.  1.
         11   -1    0    0    0    0 -0.00000000000E+00 -0.00000000000E+00 -0.45593999997E+02  0.45594000000E+02  0.51100000000E-03 0. -1.
    9900012    2    1    2    0    0  0.42243632989E+01  0.18672942631E+02 -0.40774863672E+02  0.46142317196E+02  0.99999948467E+01 0.  0.
        -12    1    1    2    0    0 -0.42243632989E+01 -0.18672942631E+02  0.40774863672E+02  0.45045682804E+02  0.00000000000E+00 0.  1.
         11    1    3    3    0    0  0.53699390354E+01  0.85139773123E+01 -0.13349231009E+02  0.16719031781E+02  0.51100000000E-03 0. -1.
        -11    1    3    3    0    0  0.10229236409E+01  0.27790554379E+01 -0.79611656513E+01  0.84940968143E+01  0.51100000000E-03 0.  1.
         12    1    3    3    0    0 -0.21684993774E+01  0.73799098812E+01 -0.19464467012E+02  0.20929188601E+02  0.00000000000E+00 0. -1.
</event>
<event>
 7    1  0.2031146E-008  0.4614231E+02  0.7816164E-02  0.1320468E+00
        -11   -1    0    0    0    0  0.00000000000E+00  0.00000000000E+00  0.45593999997E+02  0.45594000000E+02  0.51100000000E-03 0. -1.
         11   -1    0    0    0    0 -0.00000000000E+00 -0.00000000000E+00 -0.45593999997E+02  0.45594000000E+02  0.51100000000E-03 0.  1.
    9900012    2    1    2    0    0  0.14867046345E+02  0.22585706996E+02  0.36027359427E+02  0.46142313694E+02  0.99999629114E+01 0.  0.
        -12    1    1    2    0    0 -0.14867046345E+02 -0.22585706996E+02 -0.36027359427E+02  0.45045686306E+02  0.00000000000E+00 0.  1.
         11    1    3    3    0    0  0.43698015605E+01  0.55294192816E+01  0.10289363683E+02  0.12471593665E+02  0.51100000000E-03 0. -1.
        -11    1    3    3    0    0  0.45214351626E+01  0.38999795181E+01  0.28821749860E+01  0.66302450243E+01  0.51100000000E-03 0.  1.
        -12    1    3    3    0    0  0.59758096221E+01  0.13156308196E+02  0.22855820757E+02  0.27040475005E+02  0.00000000000E+00 0.  1.
</event>
<event>
 7    1  0.2031146E-008  0.4614232E+02  0.7816164E-02  0.1320468E+00
        -11   -1    0    0    0    0  0.00000000000E+00  0.00000000000E+00  0.45593999997E+02  0.45594000000E+02  0.51100000000E-03 0. -1.
         11   -1    0    0    0    0 -0.00000000000E+00 -0.00000000000E+00 -0.45593999997E+02  0.45594000000E+02  0.51100000000E-03 0.  1.
    9900012    2    1    2    0    0  0.40786405413E+02  0.18336099610E+02 -0.54194132641E+01  0.46142318125E+02  0.10000003321E+02 0.  0.
        -12    1    1    2    0    0 -0.40786405413E+02 -0.18336099610E+02  0.54194132641E+01  0.45045681875E+02  0.00000000000E+00 0.  1.
         11    1    3    3    0    0  0.20917457486E+02  0.94180186192E+01 -0.23759769421E+01  0.23062618435E+02  0.51100000000E-03 0. -1.
        -11    1    3    3    0    0  0.40159812006E+01  0.52425846156E+01 -0.95966052969E+00  0.66733610009E+01  0.51100000000E-03 0.  1.
        -12    1    3    3    0    0  0.15852966727E+02  0.36754963748E+01 -0.20837757923E+01  0.16406338689E+02  0.00000000000E+00 0.  1.
</event>
<event>
 7    1  0.2031146E-008  0.4614232E+02  0.7816164E-02  0.1320468E+00
        -11   -1    0    0    0    0  0.00000000000E+00  0.00000000000E+00  0.45593999997E+02  0.45594000000E+02  0.51100000000E-03 0.  1.
         11   -1    0    0    0    0 -0.00000000000E+00 -0.00000000000E+00 -0.45593999997E+02  0.45594000000E+02  0.51100000000E-03 0. -1.
    9900012    2    1    2    0    0 -0.29088459024E+02  0.66554784596E+01 -0.33744327565E+02  0.46142317801E+02  0.10000000366E+02 0.  0.
        -12    1    1    2    0    0  0.29088459024E+02 -0.66554784596E+01  0.33744327565E+02  0.45045682199E+02  0.00000000000E+00 0.  1.
         11    1    3    3    0    0 -0.61647655847E+01  0.17206840420E+01 -0.55962024382E+01  0.85019156827E+01  0.51100000000E-03 0. -1.
        -11    1    3    3    0    0 -0.40616142749E+01 -0.10071806711E+01 -0.14773403233E+01  0.44377537240E+01  0.51100000000E-03 0.  1.
        -12    1    3    3    0    0 -0.18862079164E+02  0.59419750888E+01 -0.26670784804E+02  0.33202648395E+02  0.00000000000E+00 0.  1.
</event>
<event>
 7    1  0.2031146E-008  0.4614232E+02  0.7816164E-02  0.1320468E+00
        -11   -1    0    0    0    0  0.00000000000E+00  0.00000000000E+00  0.45593999997E+02  0.45594000000E+02  0.51100000000E-03 0.  1.
         11   -1    0    0    0    0 -0.00000000000E+00 -0.00000000000E+00 -0.45593999997E+02  0.45594000000E+02  0.51100000000E-03 0. -1.
    9900012    2    1    2    0    0 -0.41484098966E+02 -0.99666445984E+01  0.14451611177E+02  0.46142317220E+02  0.99999950616E+01 0.  0.
        -12    1    1    2    0    0  0.41484098966E+02  0.99666445984E+01 -0.14451611177E+02  0.45045682780E+02  0.00000000000E+00 0.  1.
         11    1    3    3    0    0 -0.31568263082E+01  0.57219881170E+00  0.53813365143E+00  0.32530834462E+01  0.51100000000E-03 0. -1.
        -11    1    3    3    0    0 -0.29651910090E+02 -0.66296720254E+01  0.13805100888E+02  0.33373179860E+02  0.51100000000E-03 0.  1.
         12    1    3    3    0    0 -0.86753625675E+01 -0.39091713846E+01  0.10837663742E+00  0.95160539137E+01  0.00000000000E+00 0. -1.
</event>
<event>
 7    1  0.2031146E-008  0.4614232E+02  0.7816164E-02  0.1320468E+00
        -11   -1    0    0    0    0  0.00000000000E+00  0.00000000000E+00  0.45593999997E+02  0.45594000000E+02  0.51100000000E-03 0.  1.
         11   -1    0    0    0    0 -0.00000000000E+00 -0.00000000000E+00 -0.45593999997E+02  0.45594000000E+02  0.51100000000E-03 0. -1.
    9900012    2    1    2    0    0 -0.15939174399E+02 -0.14661116396E+01 -0.42105893726E+02  0.46142322623E+02  0.10000044336E+02 0.  0.
        -12    1    1    2    0    0  0.15939174399E+02  0.14661116396E+01  0.42105893726E+02  0.45045677377E+02  0.00000000000E+00 0.  1.
         11    1    3    3    0    0 -0.10316267730E+01 -0.33306784392E+01 -0.99147393031E+01  0.10509982320E+02  0.51100000000E-03 0. -1.
        -11    1    3    3    0    0  0.80267068299E-02  0.27726813659E+00 -0.59443098878E+00  0.65596532617E+00  0.51100000000E-03 0.  1.
         12    1    3    3    0    0 -0.14915574333E+02  0.15872986630E+01 -0.31596723434E+02  0.34976374977E+02  0.00000000000E+00 0. -1.
</event>
<event>
 7    1  0.2031146E-008  0.4614232E+02  0.7816164E-02  0.1320468E+00
        -11   -1    0    0    0    0  0.00000000000E+00  0.00000000000E+00  0.45593999997E+02  0.45594000000E+02  0.51100000000E-03 0.  1.
         11   -1    0    0    0    0 -0.00000000000E+00 -0.00000000000E+00 -0.45593999997E+02  0.45594000000E+02  0.51100000000E-03 0. -1.
    9900012    2    1    2    0    0 -0.31994281594E+01  0.41549802517E+02 -0.17102373172E+02  0.46142316546E+02  0.99999889182E+01 0.  0.
        -12    1    1    2    0    0  0.31994281594E+01 -0.41549802517E+02  0.17102373172E+02  0.45045683454E+02  0.00000000000E+00 0.  1.
         11    1    3    3    0    0 -0.29103825295E+01  0.10803629222E+02 -0.53359527398E+01  0.12396012373E+02  0.51100000000E-03 0. -1.
        -11    1    3    3    0    0 -0.33231838477E+01  0.21115909106E+02 -0.95335919597E+01  0.23405438346E+02  0.51100000000E-03 0.  1.
        -12    1    3    3    0    0  0.30341382179E+01  0.96302641881E+01 -0.22328284728E+01  0.10340865827E+02  0.00000000000E+00 0.  1.
</event>
<event>
 7    1  0.2031146E-008  0.4614232E+02  0.7816164E-02  0.1320468E+00
        -11   -1    0    0    0    0  0.00000000000E+00  0.00000000000E+00  0.45593999997E+02  0.45594000000E+02  0.51100000000E-03 0.  1.
         11   -1    0    0    0    0 -0.00000000000E+00 -0.00000000000E+00 -0.45593999997E+02  0.45594000000E+02  0.51100000000E-03 0. -1.
    9900012    2    1    2    0    0  0.68383255391E+00  0.26722571600E+02 -0.36256724131E+02  0.46142317581E+02  0.99999983574E+01 0.  0.
        -12    1    1    2    0    0 -0.68383255391E+00 -0.26722571600E+02  0.36256724131E+02  0.45045682419E+02  0.00000000000E+00 0.  1.
         11    1    3    3    0    0  0.36017471736E+01  0.17287399530E+02 -0.19039482439E+02  0.25967838897E+02  0.51100000000E-03 0. -1.
        -11    1    3    3    0    0 -0.10561128521E+01  0.34423205446E+00 -0.10238309722E+01  0.15106621675E+01  0.51100000000E-03 0.  1.
         12    1    3    3    0    0 -0.18618017676E+01  0.90909400155E+01 -0.16193410720E+02  0.18663816516E+02  0.00000000000E+00 0. -1.
</event>
<event>
 7    1  0.2031146E-008  0.4614232E+02  0.7816164E-02  0.1320468E+00
        -11   -1    0    0    0    0  0.00000000000E+00  0.00000000000E+00  0.45593999997E+02  0.45594000000E+02  0.51100000000E-03 0. -1.
         11   -1    0    0    0    0 -0.00000000000E+00 -0.00000000000E+00 -0.45593999997E+02  0.45594000000E+02  0.51100000000E-03 0.  1.
    9900012    2    1    2    0    0 -0.11660257268E+02  0.20498902783E+02  0.38378991012E+02  0.46142316900E+02  0.99999921487E+01 0.  0.
        -12    1    1    2    0    0  0.11660257268E+02 -0.20498902783E+02 -0.38378991012E+02  0.45045683100E+02  0.00000000000E+00 0.  1.
         11    1    3    3    0    0 -0.21584900260E+01  0.63653036867E+01  0.15458227315E+02  0.16856244012E+02  0.51100000000E-03 0. -1.
        -11    1    3    3    0    0  0.94956970834E+00  0.14289281699E+01  0.15142529975E+01  0.22883358030E+01  0.51100000000E-03 0.  1.
         12    1    3    3    0    0 -0.10451336950E+02  0.12704670926E+02  0.21406510700E+02  0.26997737085E+02  0.00000000000E+00 0. -1.
</event>
<event>
 7    1  0.2031146E-008  0.4614232E+02  0.7816164E-02  0.1320468E+00
        -11   -1    0    0    0    0  0.00000000000E+00  0.00000000000E+00  0.45593999997E+02  0.45594000000E+02  0.51100000000E-03 0. -1.
         11   -1    0    0    0    0 -0.00000000000E+00 -0.00000000000E+00 -0.45593999997E+02  0.45594000000E+02  0.51100000000E-03 0.  1.
    9900012    2    1    2    0    0 -0.29694021545E+01  0.44321315777E+02 -0.74777735717E+01  0.46142317866E+02  0.10000000956E+02 0.  0.
        -12    1    1    2    0    0  0.29694021545E+01 -0.44321315777E+02  0.74777735717E+01  0.45045682134E+02  0.00000000000E+00 0.  1.
         11    1    3    3    0    0 -0.18842301355E+01  0.11233670723E+01 -0.23765856489E+00  0.22065263736E+01  0.51100000000E-03 0.  1.
        -11    1    3    3    0    0  0.50237074490E+00  0.12459279637E+02 -0.33480187086E+01  0.12911051661E+02  0.51100000000E-03 0. -1.
         12    1    3    3    0    0 -0.15875427639E+01  0.30738669067E+02 -0.38920962982E+01  0.31024739832E+02  0.00000000000E+00 0. -1.
</event>
<event>
 7    1  0.2031146E-008  0.4614232E+02  0.7816164E-02  0.1320468E+00
        -11   -1    0    0    0    0  0.00000000000E+00  0.00000000000E+00  0.45593999997E+02  0.45594000000E+02  0.51100000000E-03 0. -1.
         11   -1    0    0    0    0 -0.00000000000E+00 -0.00000000000E+00 -0.45593999997E+02  0.45594000000E+02  0.51100000000E-03 0.  1.
    9900012    2    1    2    0    0 -0.13188672183E+02 -0.29203838717E+02  0.31659250019E+02  0.46142318948E+02  0.10000010819E+02 0.  0.
        -12    1    1    2    0    0  0.13188672183E+02  0.29203838717E+02 -0.31659250019E+02  0.45045681052E+02  0.00000000000E+00 0.  1.
         11    1    3    3    0    0 -0.54992909034E+01 -0.67775843525E+01  0.48411109506E+01  0.99806916390E+01  0.51100000000E-03 0. -1.
        -11    1    3    3    0    0 -0.54938802101E+01 -0.10226679980E+02  0.10373095514E+02  0.15568198803E+02  0.51100000000E-03 0.  1.
         12    1    3    3    0    0 -0.21955010690E+01 -0.12199574384E+02  0.16445043554E+02  0.20593428505E+02  0.00000000000E+00 0. -1.
</event>
<event>
 7    1  0.2031146E-008  0.4614232E+02  0.7816164E-02  0.1320468E+00
        -11   -1    0    0    0    0  0.00000000000E+00  0.00000000000E+00  0.45593999997E+02  0.45594000000E+02  0.51100000000E-03 0. -1.
         11   -1    0    0    0    0 -0.00000000000E+00 -0.00000000000E+00 -0.45593999997E+02  0.45594000000E+02  0.51100000000E-03 0.  1.
    9900012    2    1    2    0    0 -0.93765937627E+01 -0.39057276097E+02  0.20389265276E+02  0.46142318019E+02  0.10000002347E+02 0.  0.
        -12    1    1    2    0    0  0.93765937627E+01  0.39057276097E+02 -0.20389265276E+02  0.45045681981E+02  0.00000000000E+00 0.  1.
         11    1    3    3    0    0 -0.51027291349E+00 -0.68665197338E+01  0.72971162321E+01  0.10032815022E+02  0.51100000000E-03 0. -1.
        -11    1    3    3    0    0 -0.18959028292E+00 -0.57722244746E+01  0.31509194267E+01  0.65789674992E+01  0.51100000000E-03 0.  1.
         12    1    3    3    0    0 -0.86767305663E+01 -0.26418531888E+02  0.99412296171E+01  0.29530535497E+02  0.00000000000E+00 0. -1.
</event>
<event>
 7    1  0.2031146E-008  0.4614232E+02  0.7816164E-02  0.1320468E+00
        -11   -1    0    0    0    0  0.00000000000E+00  0.00000000000E+00  0.45593999997E+02  0.45594000000E+02  0.51100000000E-03 0.  1.
         11   -1    0    0    0    0 -0.00000000000E+00 -0.00000000000E+00 -0.45593999997E+02  0.45594000000E+02  0.51100000000E-03 0. -1.
    9900012    2    1    2    0    0  0.11158283334E+02  0.31105849405E+02 -0.30610983859E+02  0.46142317776E+02  0.10000000138E+02 0.  0.
        -12    1    1    2    0    0 -0.11158283334E+02 -0.31105849405E+02  0.30610983859E+02  0.45045682224E+02  0.00000000000E+00 0.  1.
         11    1    3    3    0    0  0.63268884707E+01  0.11171547262E+02 -0.75704304853E+01  0.14904509517E+02  0.51100000000E-03 0. -1.
        -11    1    3    3    0    0 -0.79156606814E+00  0.61932913835E+01 -0.65902927361E+01  0.90782924391E+01  0.51100000000E-03 0.  1.
         12    1    3    3    0    0  0.56229609319E+01  0.13741010760E+02 -0.16450260637E+02  0.22159515820E+02  0.00000000000E+00 0. -1.
</event>
<event>
 7    1  0.2031146E-008  0.4614232E+02  0.7816164E-02  0.1320468E+00
        -11   -1    0    0    0    0  0.00000000000E+00  0.00000000000E+00  0.45593999997E+02  0.45594000000E+02  0.51100000000E-03 0.  1.
         11   -1    0    0    0    0 -0.00000000000E+00 -0.00000000000E+00 -0.45593999997E+02  0.45594000000E+02  0.51100000000E-03 0. -1.
    9900012    2    1    2    0    0 -0.12356649614E+02  0.41632712709E+01 -0.43117209495E+02  0.46142319053E+02  0.10000011781E+02 0.  0.
        -12    1    1    2    0    0  0.12356649614E+02 -0.41632712709E+01  0.43117209495E+02  0.45045680947E+02  0.00000000000E+00 0.  1.
         11    1    3    3    0    0 -0.17357588492E+01  0.29746754403E+01 -0.48830832505E+01  0.59754543802E+01  0.51100000000E-03 0. -1.
        -11    1    3    3    0    0  0.28611136107E+00 -0.10119615334E+01 -0.53179231901E+01  0.54209070433E+01  0.51100000000E-03 0.  1.
         12    1    3    3    0    0 -0.10907002126E+02  0.22005573639E+01 -0.32916203054E+02  0.34745957630E+02  0.00000000000E+00 0. -1.
</event>
<event>
 7    1  0.2031146E-008  0.4614232E+02  0.7816164E-02  0.1320468E+00
        -11   -1    0    0    0    0  0.00000000000E+00  0.00000000000E+00  0.45593999997E+02  0.45594000000E+02  0.51100000000E-03 0.  1.
         11   -1    0    0    0    0 -0.00000000000E+00 -0.00000000000E+00 -0.45593999997E+02  0.45594000000E+02  0.51100000000E-03 0. -1.
    9900012    2    1    2    0    0  0.62959314848E+01 -0.30390026100E+02 -0.32648447011E+02  0.46142317278E+02  0.99999955977E+01 0.  0.
        -12    1    1    2    0    0 -0.62959314848E+01  0.30390026100E+02  0.32648447011E+02  0.45045682722E+02  0.00000000000E+00 0.  1.
         11    1    3    3    0    0  0.29994803348E+01 -0.63971861204E+01 -0.36596753045E+01  0.79570155292E+01  0.51100000000E-03 0. -1.
        -11    1    3    3    0    0  0.10003478320E+01 -0.96226100209E+01 -0.75398771446E+01  0.12265605041E+02  0.51100000000E-03 0.  1.
         12    1    3    3    0    0  0.22961033180E+01 -0.14370229959E+02 -0.21448894562E+02  0.25919696708E+02  0.00000000000E+00 0. -1.
</event>
<event>
 7    1  0.2031146E-008  0.4614232E+02  0.7816164E-02  0.1320468E+00
        -11   -1    0    0    0    0  0.00000000000E+00  0.00000000000E+00  0.45593999997E+02  0.45594000000E+02  0.51100000000E-03 0. -1.
         11   -1    0    0    0    0 -0.00000000000E+00 -0.00000000000E+00 -0.45593999997E+02  0.45594000000E+02  0.51100000000E-03 0.  1.
    9900012    2    1    2    0    0 -0.41003491397E+02 -0.15199122342E+02 -0.10808043509E+02  0.46142318396E+02  0.10000005789E+02 0.  0.
        -12    1    1    2    0    0  0.41003491397E+02  0.15199122342E+02  0.10808043509E+02  0.45045681604E+02  0.00000000000E+00 0.  1.
         11    1    3    3    0    0 -0.64914483800E+01 -0.51917380044E+01 -0.51215766745E-01  0.83123804588E+01  0.51100000000E-03 0. -1.
        -11    1    3    3    0    0 -0.42263178954E+01 -0.19937665282E+01 -0.30094285738E+01  0.55581947180E+01  0.51100000000E-03 0.  1.
         12    1    3    3    0    0 -0.30285725121E+02 -0.80136178092E+01 -0.77473991686E+01  0.32271743219E+02  0.00000000000E+00 0. -1.
</event>
<event>
 7    1  0.2031146E-008  0.4614232E+02  0.7816164E-02  0.1320468E+00
        -11   -1    0    0    0    0  0.00000000000E+00  0.00000000000E+00  0.45593999997E+02  0.45594000000E+02  0.51100000000E-03 0.  1.
         11   -1    0    0    0    0 -0.00000000000E+00 -0.00000000000E+00 -0.45593999997E+02  0.45594000000E+02  0.51100000000E-03 0. -1.
    9900012    2    1    2    0    0 -0.19546003858E+02 -0.39986225867E+02  0.69403933837E+01  0.46142316675E+02  0.99999900971E+01 0.  0.
        -12    1    1    2    0    0  0.19546003858E+02  0.39986225867E+02 -0.69403933837E+01  0.45045683325E+02  0.00000000000E+00 0.  1.
         11    1    3    3    0    0 -0.93111983838E+01 -0.22449915547E+02  0.30146444505E+01  0.24490512548E+02  0.51100000000E-03 0. -1.
        -11    1    3    3    0    0 -0.13140485301E+00 -0.54222617956E+01  0.12135118656E+00  0.54252112021E+01  0.51100000000E-03 0.  1.
         12    1    3    3    0    0 -0.10103400621E+02 -0.12114048524E+02  0.38043977467E+01  0.16226592925E+02  0.00000000000E+00 0. -1.
</event>
<event>
 7    1  0.2031146E-008  0.4614232E+02  0.7816164E-02  0.1320468E+00
        -11   -1    0    0    0    0  0.00000000000E+00  0.00000000000E+00  0.45593999997E+02  0.45594000000E+02  0.51100000000E-03 0.  1.
         11   -1    0    0    0    0 -0.00000000000E+00 -0.00000000000E+00 -0.45593999997E+02  0.45594000000E+02  0.51100000000E-03 0. -1.
    9900012    2    1    2    0    0 -0.40992577919E+02  0.16352532589E+02 -0.90175723715E+01  0.46142318986E+02  0.10000011172E+02 0.  0.
        -12    1    1    2    0    0  0.40992577919E+02 -0.16352532589E+02  0.90175723715E+01  0.45045681014E+02  0.00000000000E+00 0.  1.
         11    1    3    3    0    0 -0.21940079134E+02  0.57088310146E+01 -0.33386672057E+01  0.22915159238E+02  0.51100000000E-03 0. -1.
        -11    1    3    3    0    0 -0.66106585106E+01  0.20827783636E+01 -0.40736236195E+01  0.80394764326E+01  0.51100000000E-03 0.  1.
         12    1    3    3    0    0 -0.12441840275E+02  0.85609232108E+01 -0.16052815462E+01  0.15187683315E+02  0.00000000000E+00 0. -1.
</event>
<event>
 7    1  0.2031146E-008  0.4614232E+02  0.7816164E-02  0.1320468E+00
        -11   -1    0    0    0    0  0.00000000000E+00  0.00000000000E+00  0.45593999997E+02  0.45594000000E+02  0.51100000000E-03 0. -1.
         11   -1    0    0    0    0 -0.00000000000E+00 -0.00000000000E+00 -0.45593999997E+02  0.45594000000E+02  0.51100000000E-03 0.  1.
    9900012    2    1    2    0    0 -0.37652901213E+02 -0.17077346754E+02  0.17881170834E+02  0.46142323046E+02  0.10000048188E+02 0.  0.
        -12    1    1    2    0    0  0.37652901213E+02  0.17077346754E+02 -0.17881170834E+02  0.45045676954E+02  0.00000000000E+00 0.  1.
         11    1    3    3    0    0 -0.21929200850E+02 -0.13122993739E+02  0.94741012343E+01  0.27255484018E+02  0.51100000000E-03 0. -1.
        -11    1    3    3    0    0 -0.22457364067E+01 -0.17031983970E+01 -0.46016931687E-01  0.28189243706E+01  0.51100000000E-03 0.  1.
         12    1    3    3    0    0 -0.13477963956E+02 -0.22511546172E+01  0.84530865309E+01  0.16067914657E+02  0.00000000000E+00 0. -1.
</event>
<event>
 7    1  0.2031146E-008  0.4614232E+02  0.7816164E-02  0.1320468E+00
        -11   -1    0    0    0    0  0.00000000000E+00  0.00000000000E+00  0.45593999997E+02  0.45594000000E+02  0.51100000000E-03 0.  1.
         11   -1    0    0    0    0 -0.00000000000E+00 -0.00000000000E+00 -0.45593999997E+02  0.45594000000E+02  0.51100000000E-03 0. -1.
    9900012    2    1    2    0    0 -0.38014657135E+02  0.19366315155E+02  0.14454933646E+02  0.46142318448E+02  0.10000006265E+02 0.  0.
        -12    1    1    2    0    0  0.38014657135E+02 -0.19366315155E+02 -0.14454933646E+02  0.45045681552E+02  0.00000000000E+00 0.  1.
         11    1    3    3    0    0 -0.14001212463E+02  0.40683184923E+01  0.55487574888E+01  0.15600444728E+02  0.51100000000E-03 0. -1.
        -11    1    3    3    0    0 -0.88002910205E+01  0.42884476345E+01  0.61516398590E+01  0.11561945268E+02  0.51100000000E-03 0.  1.
         12    1    3    3    0    0 -0.15213153651E+02  0.11009549029E+02  0.27545362982E+01  0.18979928452E+02  0.00000000000E+00 0. -1.
</event>
<event>
 7    1  0.2031146E-008  0.4614232E+02  0.7816164E-02  0.1320468E+00
        -11   -1    0    0    0    0  0.00000000000E+00  0.00000000000E+00  0.45593999997E+02  0.45594000000E+02  0.51100000000E-03 0.  1.
         11   -1    0    0    0    0 -0.00000000000E+00 -0.00000000000E+00 -0.45593999997E+02  0.45594000000E+02  0.51100000000E-03 0. -1.
    9900012    2    1    2    0    0 -0.27639606293E+02 -0.78698830194E+01 -0.34687611541E+02  0.46142319972E+02  0.10000020160E+02 0.  0.
        -12    1    1    2    0    0  0.27639606293E+02  0.78698830194E+01  0.34687611541E+02  0.45045680028E+02  0.00000000000E+00 0.  1.
         11    1    3    3    0    0 -0.78247299303E+01 -0.48856191623E+01 -0.12289428468E+02  0.15366382964E+02  0.51100000000E-03 0. -1.
        -11    1    3    3    0    0 -0.16169625314E+02 -0.20225950937E+01 -0.13676238953E+02  0.21274096594E+02  0.51100000000E-03 0.  1.
         12    1    3    3    0    0 -0.36452510487E+01 -0.96166876343E+00 -0.87219441196E+01  0.95018404135E+01  0.00000000000E+00 0. -1.
</event>
<event>
 7    1  0.2031146E-008  0.4614232E+02  0.7816164E-02  0.1320468E+00
        -11   -1    0    0    0    0  0.00000000000E+00  0.00000000000E+00  0.45593999997E+02  0.45594000000E+02  0.51100000000E-03 0. -1.
         11   -1    0    0    0    0 -0.00000000000E+00 -0.00000000000E+00 -0.45593999997E+02  0.45594000000E+02  0.51100000000E-03 0.  1.
    9900012    2    1    2    0    0 -0.11834629401E+02 -0.41677981399E+02 -0.12328867376E+02  0.46142316996E+02  0.99999930203E+01 0.  0.
        -12    1    1    2    0    0  0.11834629401E+02  0.41677981399E+02  0.12328867376E+02  0.45045683004E+02  0.00000000000E+00 0.  1.
         11    1    3    3    0    0 -0.13312795718E+02 -0.38518928080E+02 -0.11571829142E+02  0.42365617902E+02  0.51100000000E-03 0. -1.
        -11    1    3    3    0    0  0.81760624529E+00 -0.15291688050E+01  0.24714208565E+00  0.17515469386E+01  0.51100000000E-03 0.  1.
         12    1    3    3    0    0  0.66056007168E+00 -0.16298845141E+01 -0.10041803198E+01  0.20251521554E+01  0.00000000000E+00 0. -1.
</event>
<event>
 7    1  0.2031146E-008  0.4614232E+02  0.7816164E-02  0.1320468E+00
        -11   -1    0    0    0    0  0.00000000000E+00  0.00000000000E+00  0.45593999997E+02  0.45594000000E+02  0.51100000000E-03 0.  1.
         11   -1    0    0    0    0 -0.00000000000E+00 -0.00000000000E+00 -0.45593999997E+02  0.45594000000E+02  0.51100000000E-03 0. -1.
    9900012    2    1    2    0    0 -0.86137525186E+01  0.31554583424E+02 -0.30971358110E+02  0.46142317735E+02  0.99999997609E+01 0.  0.
        -12    1    1    2    0    0  0.86137525186E+01 -0.31554583424E+02  0.30971358110E+02  0.45045682265E+02  0.00000000000E+00 0.  1.
         11    1    3    3    0    0 -0.30575386581E+00  0.45439188857E+01 -0.83043088543E+01  0.94711261249E+01  0.51100000000E-03 0. -1.
        -11    1    3    3    0    0 -0.75510068785E+01  0.15491101336E+02 -0.14612780654E+02  0.22594806576E+02  0.51100000000E-03 0.  1.
         12    1    3    3    0    0 -0.75699177424E+00  0.11519563202E+02 -0.80542686022E+01  0.14076385034E+02  0.00000000000E+00 0. -1.
</event>
<event>
 7    1  0.2031146E-008  0.4614232E+02  0.7816164E-02  0.1320468E+00
        -11   -1    0    0    0    0  0.00000000000E+00  0.00000000000E+00  0.45593999997E+02  0.45594000000E+02  0.51100000000E-03 0. -1.
         11   -1    0    0    0    0 -0.00000000000E+00 -0.00000000000E+00 -0.45593999997E+02  0.45594000000E+02  0.51100000000E-03 0.  1.
    9900012    2    1    2    0    0  0.37221373905E+02 -0.23884109658E+02  0.85575754344E+01  0.46142318000E+02  0.10000002179E+02 0.  0.
        -12    1    1    2    0    0 -0.37221373905E+02  0.23884109658E+02 -0.85575754344E+01  0.45045682000E+02  0.00000000000E+00 0.  1.
         11    1    3    3    0    0  0.31050414436E+02 -0.17080028118E+02  0.82751346254E+01  0.36391392533E+02  0.51100000000E-03 0. -1.
        -11    1    3    3    0    0  0.48290751971E+01 -0.36577041369E+01 -0.91530885716E+00  0.61267085272E+01  0.51100000000E-03 0.  1.
         12    1    3    3    0    0  0.13418842715E+01 -0.31463774038E+01  0.11977496662E+01  0.36242169400E+01  0.00000000000E+00 0. -1.
</event>
<event>
 7    1  0.2031146E-008  0.4614232E+02  0.7816164E-02  0.1320468E+00
        -11   -1    0    0    0    0  0.00000000000E+00  0.00000000000E+00  0.45593999997E+02  0.45594000000E+02  0.51100000000E-03 0.  1.
         11   -1    0    0    0    0 -0.00000000000E+00 -0.00000000000E+00 -0.45593999997E+02  0.45594000000E+02  0.51100000000E-03 0. -1.
    9900012    2    1    2    0    0  0.40445195247E+02 -0.15524933571E+02 -0.12340013367E+02  0.46142319732E+02  0.10000017970E+02 0.  0.
        -12    1    1    2    0    0 -0.40445195247E+02  0.15524933571E+02  0.12340013367E+02  0.45045680268E+02  0.00000000000E+00 0.  1.
         11    1    3    3    0    0  0.39870106084E+00  0.13357774546E+00 -0.54140293968E+00  0.68550926632E+00  0.51100000000E-03 0. -1.
        -11    1    3    3    0    0  0.91738169398E+01  0.14248514169E+00 -0.32904158019E+01  0.97471049892E+01  0.51100000000E-03 0.  1.
         12    1    3    3    0    0  0.30872677246E+02 -0.15800996458E+02 -0.85081946259E+01  0.35709705476E+02  0.00000000000E+00 0. -1.
</event>
<event>
 7    1  0.2031146E-008  0.4614232E+02  0.7816164E-02  0.1320468E+00
        -11   -1    0    0    0    0  0.00000000000E+00  0.00000000000E+00  0.45593999997E+02  0.45594000000E+02  0.51100000000E-03 0.  1.
         11   -1    0    0    0    0 -0.00000000000E+00 -0.00000000000E+00 -0.45593999997E+02  0.45594000000E+02  0.51100000000E-03 0. -1.
    9900012    2    1    2    0    0 -0.22790577572E+02 -0.33820133869E+02 -0.19128554800E+02  0.46142317746E+02  0.99999998639E+01 0.  0.
        -12    1    1    2    0    0  0.22790577572E+02  0.33820133869E+02  0.19128554800E+02  0.45045682254E+02  0.00000000000E+00 0.  1.
         11    1    3    3    0    0 -0.80715003688E+01 -0.10167579526E+02 -0.66107512549E+01  0.14568144152E+02  0.51100000000E-03 0. -1.
        -11    1    3    3    0    0 -0.76996949292E+01 -0.58016770642E+01 -0.57969901303E+01  0.11249437923E+02  0.51100000000E-03 0.  1.
        -12    1    3    3    0    0 -0.70193822739E+01 -0.17850877279E+02 -0.67208134147E+01  0.20324735671E+02  0.00000000000E+00 0.  1.
</event>
<event>
 7    1  0.2031146E-008  0.4614232E+02  0.7816164E-02  0.1320468E+00
        -11   -1    0    0    0    0  0.00000000000E+00  0.00000000000E+00  0.45593999997E+02  0.45594000000E+02  0.51100000000E-03 0.  1.
         11   -1    0    0    0    0 -0.00000000000E+00 -0.00000000000E+00 -0.45593999997E+02  0.45594000000E+02  0.51100000000E-03 0. -1.
    9900012    2    1    2    0    0  0.79891155109E+01  0.28531665532E+02 -0.33929804095E+02  0.46142317514E+02  0.99999977469E+01 0.  0.
        -12    1    1    2    0    0 -0.79891155109E+01 -0.28531665532E+02  0.33929804095E+02  0.45045682486E+02  0.00000000000E+00 0.  1.
         11    1    3    3    0    0  0.62850459023E+01  0.21290188627E+02 -0.22943193530E+02  0.31924349067E+02  0.51100000000E-03 0. -1.
        -11    1    3    3    0    0  0.19424242300E+01  0.32718315481E+01 -0.18035215366E+01  0.42107699727E+01  0.51100000000E-03 0.  1.
         12    1    3    3    0    0 -0.23835462138E+00  0.39696453571E+01 -0.91830890289E+01  0.10007198474E+02  0.00000000000E+00 0. -1.
</event>
<event>
 7    1  0.2031146E-008  0.4614232E+02  0.7816164E-02  0.1320468E+00
        -11   -1    0    0    0    0  0.00000000000E+00  0.00000000000E+00  0.45593999997E+02  0.45594000000E+02  0.51100000000E-03 0. -1.
         11   -1    0    0    0    0 -0.00000000000E+00 -0.00000000000E+00 -0.45593999997E+02  0.45594000000E+02  0.51100000000E-03 0.  1.
    9900012    2    1    2    0    0 -0.81081031530E+01  0.40256138987E+02  0.18515269078E+02  0.46142320386E+02  0.10000023936E+02 0.  0.
        -12    1    1    2    0    0  0.81081031530E+01 -0.40256138987E+02 -0.18515269078E+02  0.45045679614E+02  0.00000000000E+00 0.  1.
         11    1    3    3    0    0 -0.85827462986E+00  0.13757128860E+02  0.51612386488E+01  0.14718478673E+02  0.51100000000E-03 0. -1.
        -11    1    3    3    0    0  0.23826282710E+00  0.22115429099E+01  0.35367633837E+01  0.41780840957E+01  0.51100000000E-03 0.  1.
        -12    1    3    3    0    0 -0.74880913502E+01  0.24287467217E+02  0.98172670453E+01  0.27245757617E+02  0.00000000000E+00 0.  1.
</event>
<event>
 7    1  0.2031146E-008  0.4614232E+02  0.7816164E-02  0.1320468E+00
        -11   -1    0    0    0    0  0.00000000000E+00  0.00000000000E+00  0.45593999997E+02  0.45594000000E+02  0.51100000000E-03 0. -1.
         11   -1    0    0    0    0 -0.00000000000E+00 -0.00000000000E+00 -0.45593999997E+02  0.45594000000E+02  0.51100000000E-03 0.  1.
    9900012    2    1    2    0    0 -0.91038353207E+01  0.43451046705E+02 -0.76315278662E+01  0.46142317689E+02  0.99999993439E+01 0.  0.
        -12    1    1    2    0    0  0.91038353207E+01 -0.43451046705E+02  0.76315278662E+01  0.45045682311E+02  0.00000000000E+00 0.  1.
         11    1    3    3    0    0  0.11604956720E+01  0.50133855921E+01 -0.25592254207E+00  0.51523084057E+01  0.51100000000E-03 0. -1.
        -11    1    3    3    0    0 -0.71181722133E+01  0.24723044734E+02 -0.15910198684E+01  0.25776513749E+02  0.51100000000E-03 0.  1.
        -12    1    3    3    0    0 -0.31461587793E+01  0.13714616379E+02 -0.57845854557E+01  0.15213495534E+02  0.00000000000E+00 0.  1.
</event>
<event>
 7    1  0.2031146E-008  0.4614232E+02  0.7816164E-02  0.1320468E+00
        -11   -1    0    0    0    0  0.00000000000E+00  0.00000000000E+00  0.45593999997E+02  0.45594000000E+02  0.51100000000E-03 0.  1.
         11   -1    0    0    0    0 -0.00000000000E+00 -0.00000000000E+00 -0.45593999997E+02  0.45594000000E+02  0.51100000000E-03 0. -1.
    9900012    2    1    2    0    0  0.38680050760E+02  0.44628976012E+00 -0.23081771643E+02  0.46142315595E+02  0.99999802447E+01 0.  0.
        -12    1    1    2    0    0 -0.38680050760E+02 -0.44628976012E+00  0.23081771643E+02  0.45045684405E+02  0.00000000000E+00 0.  1.
         11    1    3    3    0    0  0.81018022216E+01  0.27263318173E+01 -0.36605736415E+01  0.92990259738E+01  0.51100000000E-03 0.  1.
        -11    1    3    3    0    0  0.96881501540E+01 -0.11277026781E+01 -0.97610974923E+01  0.13798948918E+02  0.51100000000E-03 0. -1.
        -12    1    3    3    0    0  0.20890098385E+02 -0.11523393790E+01 -0.96601005092E+01  0.23044340703E+02  0.00000000000E+00 0.  1.
</event>
<event>
 7    1  0.2031146E-008  0.4614232E+02  0.7816164E-02  0.1320468E+00
        -11   -1    0    0    0    0  0.00000000000E+00  0.00000000000E+00  0.45593999997E+02  0.45594000000E+02  0.51100000000E-03 0.  1.
         11   -1    0    0    0    0 -0.00000000000E+00 -0.00000000000E+00 -0.45593999997E+02  0.45594000000E+02  0.51100000000E-03 0. -1.
    9900012    2    1    2    0    0 -0.38652093424E+02  0.11621834644E+01 -0.23103642541E+02  0.46142319906E+02  0.10000019561E+02 0.  0.
        -12    1    1    2    0    0  0.38652093424E+02 -0.11621834644E+01  0.23103642541E+02  0.45045680094E+02  0.00000000000E+00 0.  1.
         11    1    3    3    0    0 -0.12942867919E+01  0.18133255154E+01 -0.73408262842E+00  0.23456780024E+01  0.51100000000E-03 0. -1.
        -11    1    3    3    0    0 -0.43496151374E+01  0.10853314177E+01 -0.38436603016E+01  0.59051520645E+01  0.51100000000E-03 0.  1.
         12    1    3    3    0    0 -0.33008191495E+02 -0.17364734688E+01 -0.18525899611E+02  0.37891489839E+02  0.00000000000E+00 0. -1.
</event>
<event>
 7    1  0.2031146E-008  0.4614232E+02  0.7816164E-02  0.1320468E+00
        -11   -1    0    0    0    0  0.00000000000E+00  0.00000000000E+00  0.45593999997E+02  0.45594000000E+02  0.51100000000E-03 0.  1.
         11   -1    0    0    0    0 -0.00000000000E+00 -0.00000000000E+00 -0.45593999997E+02  0.45594000000E+02  0.51100000000E-03 0. -1.
    9900012    2    1    2    0    0 -0.37960241198E+02 -0.23937450824E+02  0.38899979446E+01  0.46142317102E+02  0.99999939877E+01 0.  0.
        -12    1    1    2    0    0  0.37960241198E+02  0.23937450824E+02 -0.38899979446E+01  0.45045682898E+02  0.00000000000E+00 0.  1.
         11    1    3    3    0    0 -0.13436746451E+02 -0.94335619161E+01  0.14043906448E+01  0.16477577460E+02  0.51100000000E-03 0. -1.
        -11    1    3    3    0    0 -0.14662962938E+02 -0.11508967997E+02  0.44732732532E+01  0.19169480961E+02  0.51100000000E-03 0.  1.
        -12    1    3    3    0    0 -0.98605318089E+01 -0.29949209111E+01 -0.19876659535E+01  0.10495258680E+02  0.00000000000E+00 0.  1.
</event>
<event>
 7    1  0.2031146E-008  0.4614232E+02  0.7816164E-02  0.1320468E+00
        -11   -1    0    0    0    0  0.00000000000E+00  0.00000000000E+00  0.45593999997E+02  0.45594000000E+02  0.51100000000E-03 0. -1.
         11   -1    0    0    0    0 -0.00000000000E+00 -0.00000000000E+00 -0.45593999997E+02  0.45594000000E+02  0.51100000000E-03 0.  1.
    9900012    2    1    2    0    0  0.14703069503E+02 -0.39076879942E+02  0.16909483903E+02  0.46142318246E+02  0.10000004421E+02 0.  0.
        -12    1    1    2    0    0 -0.14703069503E+02  0.39076879942E+02 -0.16909483903E+02  0.45045681754E+02  0.00000000000E+00 0.  1.
         11    1    3    3    0    0  0.82495315775E+01 -0.30793073838E+02  0.14277076009E+02  0.34929973766E+02  0.51100000000E-03 0. -1.
        -11    1    3    3    0    0  0.39555993307E+01 -0.45120389474E+01  0.29320849496E+01  0.66785016240E+01  0.51100000000E-03 0.  1.
        -12    1    3    3    0    0  0.24979385947E+01 -0.37717671567E+01 -0.29967705555E+00  0.45338428562E+01  0.00000000000E+00 0.  1.
</event>
<event>
 7    1  0.2031146E-008  0.4614232E+02  0.7816164E-02  0.1320468E+00
        -11   -1    0    0    0    0  0.00000000000E+00  0.00000000000E+00  0.45593999997E+02  0.45594000000E+02  0.51100000000E-03 0. -1.
         11   -1    0    0    0    0 -0.00000000000E+00 -0.00000000000E+00 -0.45593999997E+02  0.45594000000E+02  0.51100000000E-03 0.  1.
    9900012    2    1    2    0    0 -0.27534761830E+01 -0.41353022274E+02  0.17648212927E+02  0.46142317612E+02  0.99999986411E+01 0.  0.
        -12    1    1    2    0    0  0.27534761830E+01  0.41353022274E+02 -0.17648212927E+02  0.45045682388E+02  0.00000000000E+00 0.  1.
         11    1    3    3    0    0 -0.43881597990E+01 -0.27790954059E+02  0.11733480092E+02  0.30483891308E+02  0.51100000000E-03 0. -1.
        -11    1    3    3    0    0  0.39820085745E+00 -0.58794834265E+01  0.51736190703E+01  0.78417615260E+01  0.51100000000E-03 0.  1.
        -12    1    3    3    0    0  0.12364827586E+01 -0.76825847886E+01  0.74111376437E+00  0.78166647784E+01  0.00000000000E+00 0.  1.
</event>
<event>
 7    1  0.2031146E-008  0.4614232E+02  0.7816164E-02  0.1320468E+00
        -11   -1    0    0    0    0  0.00000000000E+00  0.00000000000E+00  0.45593999997E+02  0.45594000000E+02  0.51100000000E-03 0. -1.
         11   -1    0    0    0    0 -0.00000000000E+00 -0.00000000000E+00 -0.45593999997E+02  0.45594000000E+02  0.51100000000E-03 0.  1.
    9900012    2    1    2    0    0  0.10559159802E+02 -0.31702123523E+02  0.30209154945E+02  0.46142317254E+02  0.99999953740E+01 0.  0.
        -12    1    1    2    0    0 -0.10559159802E+02  0.31702123523E+02 -0.30209154945E+02  0.45045682746E+02  0.00000000000E+00 0.  1.
         11    1    3    3    0    0  0.10121925914E+01 -0.11518050328E+02  0.11487637265E+02  0.16298951727E+02  0.51100000000E-03 0. -1.
        -11    1    3    3    0    0  0.38315056514E+01 -0.47513380534E+01  0.85203822304E+01  0.10481057316E+02  0.51100000000E-03 0.  1.
        -12    1    3    3    0    0  0.57154615593E+01 -0.15432735142E+02  0.10201135449E+02  0.19362308211E+02  0.00000000000E+00 0.  1.
</event>
<event>
 7    1  0.2031146E-008  0.4614232E+02  0.7816164E-02  0.1320468E+00
        -11   -1    0    0    0    0  0.00000000000E+00  0.00000000000E+00  0.45593999997E+02  0.45594000000E+02  0.51100000000E-03 0. -1.
         11   -1    0    0    0    0 -0.00000000000E+00 -0.00000000000E+00 -0.45593999997E+02  0.45594000000E+02  0.51100000000E-03 0.  1.
    9900012    2    1    2    0    0 -0.33721838886E+02  0.61661733824E+00  0.29859186867E+02  0.46142315688E+02  0.99999810919E+01 0.  0.
        -12    1    1    2    0    0  0.33721838886E+02 -0.61661733824E+00 -0.29859186867E+02  0.45045684312E+02  0.00000000000E+00 0.  1.
         11    1    3    3    0    0 -0.12735827627E+02 -0.18483230268E+01  0.96458272579E+01  0.16082897348E+02  0.51100000000E-03 0. -1.
        -11    1    3    3    0    0 -0.35981564054E+01 -0.20149738607E+01  0.53179961476E+01  0.67296309307E+01  0.51100000000E-03 0.  1.
        -12    1    3    3    0    0 -0.17387854854E+02  0.44799142258E+01  0.14895363461E+02  0.23329787409E+02  0.00000000000E+00 0.  1.
</event>
<event>
 7    1  0.2031146E-008  0.4614232E+02  0.7816164E-02  0.1320468E+00
        -11   -1    0    0    0    0  0.00000000000E+00  0.00000000000E+00  0.45593999997E+02  0.45594000000E+02  0.51100000000E-03 0.  1.
         11   -1    0    0    0    0 -0.00000000000E+00 -0.00000000000E+00 -0.45593999997E+02  0.45594000000E+02  0.51100000000E-03 0. -1.
    9900012    2    1    2    0    0 -0.12627684250E+02  0.22088952306E+02 -0.37171672557E+02  0.46142318030E+02  0.10000002448E+02 0.  0.
        -12    1    1    2    0    0  0.12627684250E+02 -0.22088952306E+02  0.37171672557E+02  0.45045681970E+02  0.00000000000E+00 0.  1.
         11    1    3    3    0    0 -0.84983119489E+01  0.64159388294E+01 -0.14511741079E+02  0.17999339056E+02  0.51100000000E-03 0. -1.
        -11    1    3    3    0    0 -0.94777510427E+00  0.17108749379E+01 -0.10524632603E+01  0.22210470226E+01  0.51100000000E-03 0.  1.
         12    1    3    3    0    0 -0.31815971971E+01  0.13962138539E+02 -0.21607468218E+02  0.25921931951E+02  0.00000000000E+00 0. -1.
</event>
<event>
 7    1  0.2031146E-008  0.4614232E+02  0.7816164E-02  0.1320468E+00
        -11   -1    0    0    0    0  0.00000000000E+00  0.00000000000E+00  0.45593999997E+02  0.45594000000E+02  0.51100000000E-03 0. -1.
         11   -1    0    0    0    0 -0.00000000000E+00 -0.00000000000E+00 -0.45593999997E+02  0.45594000000E+02  0.51100000000E-03 0.  1.
    9900012    2    1    2    0    0  0.42840066826E+02  0.13540245565E+02  0.32409515874E+01  0.46142319376E+02  0.10000014728E+02 0.  0.
        -12    1    1    2    0    0 -0.42840066826E+02 -0.13540245565E+02 -0.32409515874E+01  0.45045680624E+02  0.00000000000E+00 0.  1.
         11    1    3    3    0    0  0.92586593235E+01  0.39144181773E+01 -0.27184874997E+01  0.10413242371E+02  0.51100000000E-03 0. -1.
        -11    1    3    3    0    0  0.22051641744E+02  0.49420601469E+01  0.20826782337E+01  0.22694413652E+02  0.51100000000E-03 0.  1.
        -12    1    3    3    0    0  0.11529765759E+02  0.46837672411E+01  0.38767608533E+01  0.13034663353E+02  0.00000000000E+00 0.  1.
</event>
<event>
 7    1  0.2031146E-008  0.4614232E+02  0.7816164E-02  0.1320468E+00
        -11   -1    0    0    0    0  0.00000000000E+00  0.00000000000E+00  0.45593999997E+02  0.45594000000E+02  0.51100000000E-03 0. -1.
         11   -1    0    0    0    0 -0.00000000000E+00 -0.00000000000E+00 -0.45593999997E+02  0.45594000000E+02  0.51100000000E-03 0.  1.
    9900012    2    1    2    0    0  0.38687227568E+02  0.19213629727E+02  0.12776865713E+02  0.46142318280E+02  0.10000004729E+02 0.  0.
        -12    1    1    2    0    0 -0.38687227568E+02 -0.19213629727E+02 -0.12776865713E+02  0.45045681720E+02  0.00000000000E+00 0.  1.
         11    1    3    3    0    0  0.74980916429E+01  0.52389883626E+01  0.57716848182E+01  0.10815762722E+02  0.51100000000E-03 0. -1.
        -11    1    3    3    0    0  0.18678680970E+01 -0.48642546770E+00  0.46510831175E+00  0.19854135504E+01  0.51100000000E-03 0.  1.
         12    1    3    3    0    0  0.29321267829E+02  0.14461066832E+02  0.65400725828E+01  0.33341142008E+02  0.00000000000E+00 0. -1.
</event>
<event>
 7    1  0.2031146E-008  0.4614232E+02  0.7816164E-02  0.1320468E+00
        -11   -1    0    0    0    0  0.00000000000E+00  0.00000000000E+00  0.45593999997E+02  0.45594000000E+02  0.51100000000E-03 0.  1.
         11   -1    0    0    0    0 -0.00000000000E+00 -0.00000000000E+00 -0.45593999997E+02  0.45594000000E+02  0.51100000000E-03 0. -1.
    9900012    2    1    2    0    0  0.90716942280E+01  0.24560430278E+01 -0.44054350039E+02  0.46142317178E+02  0.99999946866E+01 0.  0.
        -12    1    1    2    0    0 -0.90716942280E+01 -0.24560430278E+01  0.44054350039E+02  0.45045682822E+02  0.00000000000E+00 0.  1.
         11    1    3    3    0    0 -0.16163211807E+01  0.95893475998E+00 -0.71378315676E+01  0.73811035613E+01  0.51100000000E-03 0. -1.
        -11    1    3    3    0    0  0.40695458258E+01  0.28711183419E+01 -0.13536276691E+02  0.14423429228E+02  0.51100000000E-03 0.  1.
         12    1    3    3    0    0  0.66184695829E+01 -0.13740100740E+01 -0.23380241780E+02  0.24337784389E+02  0.00000000000E+00 0. -1.
</event>
<event>
 7    1  0.2031146E-008  0.4614232E+02  0.7816164E-02  0.1320468E+00
        -11   -1    0    0    0    0  0.00000000000E+00  0.00000000000E+00  0.45593999997E+02  0.45594000000E+02  0.51100000000E-03 0. -1.
         11   -1    0    0    0    0 -0.00000000000E+00 -0.00000000000E+00 -0.45593999997E+02  0.45594000000E+02  0.51100000000E-03 0.  1.
    9900012    2    1    2    0    0 -0.41024111920E+02  0.12095888835E+02  0.14135950796E+02  0.46142318848E+02  0.10000009910E+02 0.  0.
        -12    1    1    2    0    0  0.41024111920E+02 -0.12095888835E+02 -0.14135950796E+02  0.45045681152E+02  0.00000000000E+00 0.  1.
         11    1    3    3    0    0 -0.18661333531E+02  0.35599372354E+01  0.87246027545E+01  0.20905435077E+02  0.51100000000E-03 0. -1.
        -11    1    3    3    0    0 -0.15727910919E+02  0.86252734272E+01  0.48262906427E+01  0.18575672403E+02  0.51100000000E-03 0.  1.
        -12    1    3    3    0    0 -0.66348674698E+01 -0.89321827734E-01  0.58505739917E+00  0.66612113681E+01  0.00000000000E+00 0.  1.
</event>
<event>
 7    1  0.2031146E-008  0.4614232E+02  0.7816164E-02  0.1320468E+00
        -11   -1    0    0    0    0  0.00000000000E+00  0.00000000000E+00  0.45593999997E+02  0.45594000000E+02  0.51100000000E-03 0. -1.
         11   -1    0    0    0    0 -0.00000000000E+00 -0.00000000000E+00 -0.45593999997E+02  0.45594000000E+02  0.51100000000E-03 0.  1.
    9900012    2    1    2    0    0 -0.33690805283E+02  0.28985382965E+02 -0.73410322118E+01  0.46142317187E+02  0.99999947606E+01 0.  0.
        -12    1    1    2    0    0  0.33690805283E+02 -0.28985382965E+02  0.73410322118E+01  0.45045682813E+02  0.00000000000E+00 0.  1.
         11    1    3    3    0    0 -0.38118881106E+01  0.60590351889E+01  0.19909637380E-01  0.71584072979E+01  0.51100000000E-03 0. -1.
        -11    1    3    3    0    0 -0.39278065285E+01  0.65284267490E+00 -0.16561843242E+01  0.43124024001E+01  0.51100000000E-03 0.  1.
         12    1    3    3    0    0 -0.25951110643E+02  0.22273505101E+02 -0.57047575250E+01  0.34671507489E+02  0.00000000000E+00 0. -1.
</event>
<event>
 7    1  0.2031146E-008  0.4614232E+02  0.7816164E-02  0.1320468E+00
        -11   -1    0    0    0    0  0.00000000000E+00  0.00000000000E+00  0.45593999997E+02  0.45594000000E+02  0.51100000000E-03 0.  1.
         11   -1    0    0    0    0 -0.00000000000E+00 -0.00000000000E+00 -0.45593999997E+02  0.45594000000E+02  0.51100000000E-03 0. -1.
    9900012    2    1    2    0    0  0.23517806375E+02 -0.34660127884E+02 -0.16574130369E+02  0.46142317863E+02  0.10000000933E+02 0.  0.
        -12    1    1    2    0    0 -0.23517806375E+02  0.34660127884E+02  0.16574130369E+02  0.45045682137E+02  0.00000000000E+00 0.  1.
         11    1    3    3    0    0  0.69407458525E+01 -0.94804410519E+01 -0.65078386048E+01  0.13431480897E+02  0.51100000000E-03 0. -1.
        -11    1    3    3    0    0  0.10075304150E+02 -0.20777720264E+02 -0.59519062010E+01  0.23846395971E+02  0.51100000000E-03 0.  1.
        -12    1    3    3    0    0  0.65017563728E+01 -0.44019665679E+01 -0.41143855637E+01  0.88644409955E+01  0.00000000000E+00 0.  1.
</event>
<event>
 7    1  0.2031146E-008  0.4614232E+02  0.7816164E-02  0.1320468E+00
        -11   -1    0    0    0    0  0.00000000000E+00  0.00000000000E+00  0.45593999997E+02  0.45594000000E+02  0.51100000000E-03 0.  1.
         11   -1    0    0    0    0 -0.00000000000E+00 -0.00000000000E+00 -0.45593999997E+02  0.45594000000E+02  0.51100000000E-03 0. -1.
    9900012    2    1    2    0    0  0.11802752436E+02 -0.32270580319E+02 -0.29127615100E+02  0.46142320068E+02  0.10000021034E+02 0.  0.
        -12    1    1    2    0    0 -0.11802752436E+02  0.32270580319E+02  0.29127615100E+02  0.45045679932E+02  0.00000000000E+00 0.  1.
         11    1    3    3    0    0  0.28093814770E+01 -0.56924926571E+01 -0.90211141542E+01  0.11030756900E+02  0.51100000000E-03 0. -1.
        -11    1    3    3    0    0  0.29529962426E+01 -0.17433718091E+02 -0.14090385987E+02  0.22609592894E+02  0.51100000000E-03 0.  1.
        -12    1    3    3    0    0  0.60403747163E+01 -0.91443695704E+01 -0.60161149584E+01  0.12501970275E+02  0.00000000000E+00 0.  1.
</event>
<event>
 7    1  0.2031146E-008  0.4614232E+02  0.7816164E-02  0.1320468E+00
        -11   -1    0    0    0    0  0.00000000000E+00  0.00000000000E+00  0.45593999997E+02  0.45594000000E+02  0.51100000000E-03 0.  1.
         11   -1    0    0    0    0 -0.00000000000E+00 -0.00000000000E+00 -0.45593999997E+02  0.45594000000E+02  0.51100000000E-03 0. -1.
    9900012    2    1    2    0    0  0.23381722615E+01 -0.29894913089E+02 -0.33614589157E+02  0.46142317828E+02  0.10000000609E+02 0.  0.
        -12    1    1    2    0    0 -0.23381722615E+01  0.29894913089E+02  0.33614589157E+02  0.45045682172E+02  0.00000000000E+00 0.  1.
         11    1    3    3    0    0  0.10373520534E+01 -0.26025345738E+02 -0.26044637359E+02  0.36833651129E+02  0.51100000000E-03 0. -1.
        -11    1    3    3    0    0 -0.42044815650E+00 -0.24251159666E+01 -0.16149242253E+01  0.29437976524E+01  0.51100000000E-03 0.  1.
        -12    1    3    3    0    0  0.17212683645E+01 -0.14444513848E+01 -0.59550275731E+01  0.63648690467E+01  0.00000000000E+00 0.  1.
</event>
<event>
 7    1  0.2031146E-008  0.4614232E+02  0.7816164E-02  0.1320468E+00
        -11   -1    0    0    0    0  0.00000000000E+00  0.00000000000E+00  0.45593999997E+02  0.45594000000E+02  0.51100000000E-03 0. -1.
         11   -1    0    0    0    0 -0.00000000000E+00 -0.00000000000E+00 -0.45593999997E+02  0.45594000000E+02  0.51100000000E-03 0.  1.
    9900012    2    1    2    0    0  0.23257177324E+02  0.34174742708E+02 -0.17897045841E+02  0.46142316677E+02  0.99999901119E+01 0.  0.
        -12    1    1    2    0    0 -0.23257177324E+02 -0.34174742708E+02  0.17897045841E+02  0.45045683323E+02  0.00000000000E+00 0.  1.
         11    1    3    3    0    0  0.83827482404E+01  0.16853716805E+02 -0.58334927163E+01  0.19706543983E+02  0.51100000000E-03 0. -1.
        -11    1    3    3    0    0  0.10693023693E+02  0.85278694460E+01 -0.57852558602E+01  0.14850403988E+02  0.51100000000E-03 0.  1.
        -12    1    3    3    0    0  0.41814053912E+01  0.87931564568E+01 -0.62782972643E+01  0.11585368706E+02  0.00000000000E+00 0.  1.
</event>
<event>
 7    1  0.2031146E-008  0.4614232E+02  0.7816164E-02  0.1320468E+00
        -11   -1    0    0    0    0  0.00000000000E+00  0.00000000000E+00  0.45593999997E+02  0.45594000000E+02  0.51100000000E-03 0. -1.
         11   -1    0    0    0    0 -0.00000000000E+00 -0.00000000000E+00 -0.45593999997E+02  0.45594000000E+02  0.51100000000E-03 0.  1.
    9900012    2    1    2    0    0  0.33970570279E+02  0.11598968767E+02  0.27213561971E+02  0.46142315671E+02  0.99999809383E+01 0.  0.
        -12    1    1    2    0    0 -0.33970570279E+02 -0.11598968767E+02 -0.27213561971E+02  0.45045684329E+02  0.00000000000E+00 0.  1.
         11    1    3    3    0    0  0.48724920046E+01  0.24133685084E+01  0.38988043512E+01  0.66907549292E+01  0.51100000000E-03 0. -1.
        -11    1    3    3    0    0  0.19023532657E+02  0.69502961019E+01  0.99476641247E+01  0.22564517111E+02  0.51100000000E-03 0.  1.
        -12    1    3    3    0    0  0.10074545617E+02  0.22353041570E+01  0.13367093495E+02  0.16887043630E+02  0.00000000000E+00 0.  1.
</event>
<event>
 7    1  0.2031146E-008  0.4614232E+02  0.7816164E-02  0.1320468E+00
        -11   -1    0    0    0    0  0.00000000000E+00  0.00000000000E+00  0.45593999997E+02  0.45594000000E+02  0.51100000000E-03 0.  1.
         11   -1    0    0    0    0 -0.00000000000E+00 -0.00000000000E+00 -0.45593999997E+02  0.45594000000E+02  0.51100000000E-03 0. -1.
    9900012    2    1    2    0    0 -0.39468390010E+02 -0.21214224434E+02 -0.46169710811E+01  0.46142317074E+02  0.99999937333E+01 0.  0.
        -12    1    1    2    0    0  0.39468390010E+02  0.21214224434E+02  0.46169710811E+01  0.45045682926E+02  0.00000000000E+00 0.  1.
         11    1    3    3    0    0 -0.30410406595E+02 -0.12705613468E+02 -0.20072585696E+01  0.33019002560E+02  0.51100000000E-03 0. -1.
        -11    1    3    3    0    0 -0.86946206866E+01 -0.67854769590E+01 -0.27178982033E+01  0.11358965505E+02  0.51100000000E-03 0.  1.
         12    1    3    3    0    0 -0.36336272865E+00 -0.17231340072E+01  0.10818569179E+00  0.17643490084E+01  0.00000000000E+00 0. -1.
</event>
<event>
 7    1  0.2031146E-008  0.4614232E+02  0.7816164E-02  0.1320468E+00
        -11   -1    0    0    0    0  0.00000000000E+00  0.00000000000E+00  0.45593999997E+02  0.45594000000E+02  0.51100000000E-03 0.  1.
         11   -1    0    0    0    0 -0.00000000000E+00 -0.00000000000E+00 -0.45593999997E+02  0.45594000000E+02  0.51100000000E-03 0. -1.
    9900012    2    1    2    0    0  0.16633835108E+02 -0.25317582798E+01 -0.41785395404E+02  0.46142317194E+02  0.99999948306E+01 0.  0.
        -12    1    1    2    0    0 -0.16633835108E+02  0.25317582798E+01  0.41785395404E+02  0.45045682806E+02  0.00000000000E+00 0.  1.
         11    1    3    3    0    0  0.17607498798E+01 -0.78890631590E+00 -0.57201574237E+01  0.60367884282E+01  0.51100000000E-03 0. -1.
        -11    1    3    3    0    0  0.95930031004E+01  0.27745380655E+00 -0.31213906557E+02  0.32655943592E+02  0.51100000000E-03 0.  1.
         12    1    3    3    0    0  0.52800821278E+01 -0.20203057705E+01 -0.48513314233E+01  0.74495851738E+01  0.00000000000E+00 0. -1.
</event>
<event>
 7    1  0.2031146E-008  0.4614232E+02  0.7816164E-02  0.1320468E+00
        -11   -1    0    0    0    0  0.00000000000E+00  0.00000000000E+00  0.45593999997E+02  0.45594000000E+02  0.51100000000E-03 0. -1.
         11   -1    0    0    0    0 -0.00000000000E+00 -0.00000000000E+00 -0.45593999997E+02  0.45594000000E+02  0.51100000000E-03 0.  1.
    9900012    2    1    2    0    0  0.17030206889E+02  0.34204330784E+02  0.23856850910E+02  0.46142317339E+02  0.99999961496E+01 0.  0.
        -12    1    1    2    0    0 -0.17030206889E+02 -0.34204330784E+02 -0.23856850910E+02  0.45045682661E+02  0.00000000000E+00 0.  1.
         11    1    3    3    0    0  0.18513419089E+01  0.98086967587E+01  0.37142912486E+01  0.10650537954E+02  0.51100000000E-03 0. -1.
        -11    1    3    3    0    0  0.39195263013E+01  0.50612316537E+01  0.20615751101E+01  0.67252393619E+01  0.51100000000E-03 0.  1.
        -12    1    3    3    0    0  0.11259338679E+02  0.19334402372E+02  0.18080984551E+02  0.28766540023E+02  0.00000000000E+00 0.  1.
</event>
<event>
 7    1  0.2031146E-008  0.4614232E+02  0.7816164E-02  0.1320468E+00
        -11   -1    0    0    0    0  0.00000000000E+00  0.00000000000E+00  0.45593999997E+02  0.45594000000E+02  0.51100000000E-03 0. -1.
         11   -1    0    0    0    0 -0.00000000000E+00 -0.00000000000E+00 -0.45593999997E+02  0.45594000000E+02  0.51100000000E-03 0.  1.
    9900012    2    1    2    0    0  0.40341381211E+02  0.87783342689E+01  0.18017417155E+02  0.46142317505E+02  0.99999976608E+01 0.  0.
        -12    1    1    2    0    0 -0.40341381211E+02 -0.87783342689E+01 -0.18017417155E+02  0.45045682495E+02  0.00000000000E+00 0.  1.
         11    1    3    3    0    0  0.19984642280E+02  0.25684662440E+01  0.91973056770E+01  0.22148891121E+02  0.51100000000E-03 0. -1.
        -11    1    3    3    0    0  0.10717303674E+02 -0.17370144539E-01  0.30181365069E+01  0.11134183760E+02  0.51100000000E-03 0.  1.
         12    1    3    3    0    0  0.96394352562E+01  0.62272381694E+01  0.58019749715E+01  0.12859242623E+02  0.00000000000E+00 0. -1.
</event>
<event>
 7    1  0.2031146E-008  0.4614232E+02  0.7816164E-02  0.1320468E+00
        -11   -1    0    0    0    0  0.00000000000E+00  0.00000000000E+00  0.45593999997E+02  0.45594000000E+02  0.51100000000E-03 0.  1.
         11   -1    0    0    0    0 -0.00000000000E+00 -0.00000000000E+00 -0.45593999997E+02  0.45594000000E+02  0.51100000000E-03 0. -1.
    9900012    2    1    2    0    0  0.14326465536E+02  0.40886888914E+02 -0.12334027579E+02  0.46142317230E+02  0.99999951612E+01 0.  0.
        -12    1    1    2    0    0 -0.14326465536E+02 -0.40886888914E+02  0.12334027579E+02  0.45045682770E+02  0.00000000000E+00 0.  1.
         11    1    3    3    0    0  0.18177445662E+01  0.59404443368E+01  0.75867168420E+00  0.62584868148E+01  0.51100000000E-03 0.  1.
        -11    1    3    3    0    0  0.11708833477E+02  0.24421072455E+02 -0.86437697731E+01  0.28428864160E+02  0.51100000000E-03 0. -1.
         12    1    3    3    0    0  0.79988749268E+00  0.10525372122E+02 -0.44489294902E+01  0.11454966256E+02  0.00000000000E+00 0. -1.
</event>
<event>
 7    1  0.2031146E-008  0.4614232E+02  0.7816164E-02  0.1320468E+00
        -11   -1    0    0    0    0  0.00000000000E+00  0.00000000000E+00  0.45593999997E+02  0.45594000000E+02  0.51100000000E-03 0.  1.
         11   -1    0    0    0    0 -0.00000000000E+00 -0.00000000000E+00 -0.45593999997E+02  0.45594000000E+02  0.51100000000E-03 0. -1.
    9900012    2    1    2    0    0  0.28453227285E+02  0.41096513814E+00 -0.34919315347E+02  0.46142316305E+02  0.99999867199E+01 0.  0.
        -12    1    1    2    0    0 -0.28453227285E+02 -0.41096513814E+00  0.34919315347E+02  0.45045683695E+02  0.00000000000E+00 0.  1.
         11    1    3    3    0    0  0.74015443012E+00 -0.12966126622E+00 -0.39458767463E+01  0.40167877940E+01  0.51100000000E-03 0. -1.
        -11    1    3    3    0    0  0.90721700118E+01 -0.15933524024E+01 -0.64365837448E+01  0.11237110446E+02  0.51100000000E-03 0.  1.
         12    1    3    3    0    0  0.18640902843E+02  0.21339788067E+01 -0.24536854856E+02  0.30888418065E+02  0.00000000000E+00 0. -1.
</event>
<event>
 7    1  0.2031146E-008  0.4614231E+02  0.7816164E-02  0.1320468E+00
        -11   -1    0    0    0    0  0.00000000000E+00  0.00000000000E+00  0.45593999997E+02  0.45594000000E+02  0.51100000000E-03 0.  1.
         11   -1    0    0    0    0 -0.00000000000E+00 -0.00000000000E+00 -0.45593999997E+02  0.45594000000E+02  0.51100000000E-03 0. -1.
    9900012    2    1    2    0    0  0.24165930712E+02 -0.25511841876E+02 -0.28182756594E+02  0.46142311501E+02  0.99999429165E+01 0.  0.
        -12    1    1    2    0    0 -0.24165930712E+02  0.25511841876E+02  0.28182756594E+02  0.45045688499E+02  0.00000000000E+00 0.  1.
         11    1    3    3    0    0  0.81806593113E+01 -0.65173678947E+01 -0.53403526841E+01  0.11743876621E+02  0.51100000000E-03 0.  1.
        -11    1    3    3    0    0  0.99340858343E+01 -0.11516713671E+02 -0.18196941063E+02  0.23716016095E+02  0.51100000000E-03 0. -1.
         12    1    3    3    0    0  0.60511855664E+01 -0.74777603107E+01 -0.46454628475E+01  0.10682418785E+02  0.00000000000E+00 0. -1.
</event>
<event>
 7    1  0.2031146E-008  0.4614232E+02  0.7816164E-02  0.1320468E+00
        -11   -1    0    0    0    0  0.00000000000E+00  0.00000000000E+00  0.45593999997E+02  0.45594000000E+02  0.51100000000E-03 0.  1.
         11   -1    0    0    0    0 -0.00000000000E+00 -0.00000000000E+00 -0.45593999997E+02  0.45594000000E+02  0.51100000000E-03 0. -1.
    9900012    2    1    2    0    0 -0.38802001241E+02 -0.22857633212E+02 -0.10229011439E+01  0.46142322925E+02  0.10000047091E+02 0.  0.
        -12    1    1    2    0    0  0.38802001241E+02  0.22857633212E+02  0.10229011439E+01  0.45045677075E+02  0.00000000000E+00 0.  1.
         11    1    3    3    0    0 -0.15461184495E+02 -0.13051225474E+02 -0.20831238619E+01  0.20340160217E+02  0.51100000000E-03 0. -1.
        -11    1    3    3    0    0 -0.22146877046E+02 -0.92173470682E+01 -0.17064103889E+00  0.23989013495E+02  0.51100000000E-03 0.  1.
        -12    1    3    3    0    0 -0.11939397002E+01 -0.58906067007E+00  0.12308637569E+01  0.18131492131E+01  0.00000000000E+00 0.  1.
</event>
<event>
 7    1  0.2031146E-008  0.4614232E+02  0.7816164E-02  0.1320468E+00
        -11   -1    0    0    0    0  0.00000000000E+00  0.00000000000E+00  0.45593999997E+02  0.45594000000E+02  0.51100000000E-03 0.  1.
         11   -1    0    0    0    0 -0.00000000000E+00 -0.00000000000E+00 -0.45593999997E+02  0.45594000000E+02  0.51100000000E-03 0. -1.
    9900012    2    1    2    0    0 -0.13745156812E+02  0.31156155909E+02 -0.29486915009E+02  0.46142317148E+02  0.99999944104E+01 0.  0.
        -12    1    1    2    0    0  0.13745156812E+02 -0.31156155909E+02  0.29486915009E+02  0.45045682852E+02  0.00000000000E+00 0.  1.
         11    1    3    3    0    0 -0.12676496694E+01  0.81490710207E+00 -0.31751944283E+01  0.35146648756E+01  0.51100000000E-03 0.  1.
        -11    1    3    3    0    0 -0.14899941621E+00  0.66054505652E+01 -0.70843713503E+01  0.96872336446E+01  0.51100000000E-03 0. -1.
         12    1    3    3    0    0 -0.12328507726E+02  0.23735798242E+02 -0.19227349231E+02  0.32940418628E+02  0.00000000000E+00 0. -1.
</event>
<event>
 7    1  0.2031146E-008  0.4614231E+02  0.7816164E-02  0.1320468E+00
        -11   -1    0    0    0    0  0.00000000000E+00  0.00000000000E+00  0.45593999997E+02  0.45594000000E+02  0.51100000000E-03 0. -1.
         11   -1    0    0    0    0 -0.00000000000E+00 -0.00000000000E+00 -0.45593999997E+02  0.45594000000E+02  0.51100000000E-03 0.  1.
    9900012    2    1    2    0    0 -0.21714825905E+02  0.55542911223E+01  0.39073393025E+02  0.46142313676E+02  0.99999627442E+01 0.  0.
        -12    1    1    2    0    0  0.21714825905E+02 -0.55542911223E+01 -0.39073393025E+02  0.45045686324E+02  0.00000000000E+00 0.  1.
         11    1    3    3    0    0 -0.13813840793E+02  0.32400618982E+01  0.22170074327E+02  0.26321709566E+02  0.51100000000E-03 0. -1.
        -11    1    3    3    0    0 -0.36528022313E+01  0.12160638465E+01  0.21098645291E+01  0.43901371291E+01  0.51100000000E-03 0.  1.
        -12    1    3    3    0    0 -0.42481828811E+01  0.10981653775E+01  0.14793454169E+02  0.15430466981E+02  0.00000000000E+00 0.  1.
</event>
<event>
 7    1  0.2031146E-008  0.4614232E+02  0.7816164E-02  0.1320468E+00
        -11   -1    0    0    0    0  0.00000000000E+00  0.00000000000E+00  0.45593999997E+02  0.45594000000E+02  0.51100000000E-03 0.  1.
         11   -1    0    0    0    0 -0.00000000000E+00 -0.00000000000E+00 -0.45593999997E+02  0.45594000000E+02  0.51100000000E-03 0. -1.
    9900012    2    1    2    0    0  0.18313893612E+02  0.10262612006E+02 -0.39854655608E+02  0.46142317876E+02  0.10000001048E+02 0.  0.
        -12    1    1    2    0    0 -0.18313893612E+02 -0.10262612006E+02  0.39854655608E+02  0.45045682124E+02  0.00000000000E+00 0.  1.
         11    1    3    3    0    0  0.99558971219E+01  0.93764902827E+01 -0.27893726572E+02  0.31066033539E+02  0.51100000000E-03 0. -1.
        -11    1    3    3    0    0  0.60388558884E+01  0.20903399601E+01 -0.97271640465E+01  0.11638514606E+02  0.51100000000E-03 0.  1.
        -12    1    3    3    0    0  0.23191406019E+01 -0.12042182373E+01 -0.22337649888E+01  0.34377697305E+01  0.00000000000E+00 0.  1.
</event>
<event>
 7    1  0.2031146E-008  0.4614232E+02  0.7816164E-02  0.1320468E+00
        -11   -1    0    0    0    0  0.00000000000E+00  0.00000000000E+00  0.45593999997E+02  0.45594000000E+02  0.51100000000E-03 0.  1.
         11   -1    0    0    0    0 -0.00000000000E+00 -0.00000000000E+00 -0.45593999997E+02  0.45594000000E+02  0.51100000000E-03 0. -1.
    9900012    2    1    2    0    0  0.11227483158E+02 -0.40609836219E+02 -0.15934189203E+02  0.46142316951E+02  0.99999926107E+01 0.  0.
        -12    1    1    2    0    0 -0.11227483158E+02  0.40609836219E+02  0.15934189203E+02  0.45045683049E+02  0.00000000000E+00 0.  1.
         11    1    3    3    0    0 -0.99499046391E+00 -0.20232492635E+01 -0.14300370303E+01  0.26699344139E+01  0.51100000000E-03 0. -1.
        -11    1    3    3    0    0  0.34566817662E+01 -0.46802314836E+01 -0.33703764977E+01  0.67240355122E+01  0.51100000000E-03 0.  1.
         12    1    3    3    0    0  0.87657918554E+01 -0.33906355472E+02 -0.11133775675E+02  0.36748347025E+02  0.00000000000E+00 0. -1.
</event>
<event>
 7    1  0.2031146E-008  0.4614232E+02  0.7816164E-02  0.1320468E+00
        -11   -1    0    0    0    0  0.00000000000E+00  0.00000000000E+00  0.45593999997E+02  0.45594000000E+02  0.51100000000E-03 0.  1.
         11   -1    0    0    0    0 -0.00000000000E+00 -0.00000000000E+00 -0.45593999997E+02  0.45594000000E+02  0.51100000000E-03 0. -1.
    9900012    2    1    2    0    0  0.28415230809E+02 -0.35186691091E+01 -0.34775096428E+02  0.46142315348E+02  0.99999779957E+01 0.  0.
        -12    1    1    2    0    0 -0.28415230809E+02  0.35186691091E+01  0.34775096428E+02  0.45045684652E+02  0.00000000000E+00 0.  1.
         11    1    3    3    0    0  0.10373404295E+02  0.15977319284E+01 -0.11355101114E+02  0.15462812989E+02  0.51100000000E-03 0. -1.
        -11    1    3    3    0    0  0.70942978772E+00 -0.20650388915E+01 -0.31909294352E+01  0.38664851181E+01  0.51100000000E-03 0.  1.
         12    1    3    3    0    0  0.17332396726E+02 -0.30513621460E+01 -0.20229065879E+02  0.26813017241E+02  0.00000000000E+00 0. -1.
</event>
<event>
 7    1  0.2031146E-008  0.4614232E+02  0.7816164E-02  0.1320468E+00
        -11   -1    0    0    0    0  0.00000000000E+00  0.00000000000E+00  0.45593999997E+02  0.45594000000E+02  0.51100000000E-03 0. -1.
         11   -1    0    0    0    0 -0.00000000000E+00 -0.00000000000E+00 -0.45593999997E+02  0.45594000000E+02  0.51100000000E-03 0.  1.
    9900012    2    1    2    0    0  0.43188258109E+02  0.76268136760E+01  0.10282002670E+02  0.46142317584E+02  0.99999983893E+01 0.  0.
        -12    1    1    2    0    0 -0.43188258109E+02 -0.76268136760E+01 -0.10282002670E+02  0.45045682416E+02  0.00000000000E+00 0.  1.
         11    1    3    3    0    0  0.21894204706E+02  0.66553669734E+01  0.37618062974E+01  0.23190543248E+02  0.51100000000E-03 0. -1.
        -11    1    3    3    0    0 -0.10433094633E+00  0.20639057183E+00 -0.38903522806E+00  0.45258224036E+00  0.51100000000E-03 0.  1.
        -12    1    3    3    0    0  0.21398384349E+02  0.76505613074E+00  0.69092316011E+01  0.22499192096E+02  0.00000000000E+00 0.  1.
</event>
<event>
 7    1  0.2031146E-008  0.4614231E+02  0.7816164E-02  0.1320468E+00
        -11   -1    0    0    0    0  0.00000000000E+00  0.00000000000E+00  0.45593999997E+02  0.45594000000E+02  0.51100000000E-03 0. -1.
         11   -1    0    0    0    0 -0.00000000000E+00 -0.00000000000E+00 -0.45593999997E+02  0.45594000000E+02  0.51100000000E-03 0.  1.
    9900012    2    1    2    0    0 -0.72770761424E+01  0.23116070233E+01  0.44393856193E+02  0.46142313948E+02  0.99999652274E+01 0.  0.
        -12    1    1    2    0    0  0.72770761424E+01 -0.23116070233E+01 -0.44393856193E+02  0.45045686052E+02  0.00000000000E+00 0.  1.
         11    1    3    3    0    0 -0.43490145676E+01  0.26891908073E+01  0.35352585190E+02  0.35720455691E+02  0.51100000000E-03 0. -1.
        -11    1    3    3    0    0 -0.94425277971E+00  0.18867573348E+01  0.29447471805E+01  0.36225685322E+01  0.51100000000E-03 0.  1.
        -12    1    3    3    0    0 -0.19838087952E+01 -0.22643411187E+01  0.60965238228E+01  0.67992897246E+01  0.00000000000E+00 0.  1.
</event>
<event>
 7    1  0.2031146E-008  0.4614232E+02  0.7816164E-02  0.1320468E+00
        -11   -1    0    0    0    0  0.00000000000E+00  0.00000000000E+00  0.45593999997E+02  0.45594000000E+02  0.51100000000E-03 0.  1.
         11   -1    0    0    0    0 -0.00000000000E+00 -0.00000000000E+00 -0.45593999997E+02  0.45594000000E+02  0.51100000000E-03 0. -1.
    9900012    2    1    2    0    0  0.21690462264E+02 -0.32450166198E+01 -0.39345993118E+02  0.46142318071E+02  0.10000002822E+02 0.  0.
        -12    1    1    2    0    0 -0.21690462264E+02  0.32450166198E+01  0.39345993118E+02  0.45045681929E+02  0.00000000000E+00 0.  1.
         11    1    3    3    0    0  0.11110573780E+02  0.11220974413E+01 -0.26703625480E+02  0.28944560221E+02  0.51100000000E-03 0. -1.
        -11    1    3    3    0    0  0.23477297621E+01 -0.14400291504E+01 -0.18764746690E+01  0.33326680654E+01  0.51100000000E-03 0.  1.
         12    1    3    3    0    0  0.82321587215E+01 -0.29270849108E+01 -0.10765892969E+02  0.13865089784E+02  0.00000000000E+00 0. -1.
</event>
<event>
 7    1  0.2031146E-008  0.4614232E+02  0.7816164E-02  0.1320468E+00
        -11   -1    0    0    0    0  0.00000000000E+00  0.00000000000E+00  0.45593999997E+02  0.45594000000E+02  0.51100000000E-03 0.  1.
         11   -1    0    0    0    0 -0.00000000000E+00 -0.00000000000E+00 -0.45593999997E+02  0.45594000000E+02  0.51100000000E-03 0. -1.
    9900012    2    1    2    0    0 -0.29864074199E+02  0.32439552833E+02 -0.92155283753E+01  0.46142317865E+02  0.10000000950E+02 0.  0.
        -12    1    1    2    0    0  0.29864074199E+02 -0.32439552833E+02  0.92155283753E+01  0.45045682135E+02  0.00000000000E+00 0.  1.
         11    1    3    3    0    0 -0.94429608602E+01  0.11009855642E+02 -0.32772209652E+01  0.14870326445E+02  0.51100000000E-03 0. -1.
        -11    1    3    3    0    0 -0.10591832408E+02  0.14590342542E+02 -0.67932372280E+01  0.19266890811E+02  0.51100000000E-03 0.  1.
        -12    1    3    3    0    0 -0.98292809312E+01  0.68393546491E+01  0.85492981797E+00  0.12005100609E+02  0.00000000000E+00 0.  1.
</event>
<event>
 7    1  0.2031146E-008  0.4614232E+02  0.7816164E-02  0.1320468E+00
        -11   -1    0    0    0    0  0.00000000000E+00  0.00000000000E+00  0.45593999997E+02  0.45594000000E+02  0.51100000000E-03 0.  1.
         11   -1    0    0    0    0 -0.00000000000E+00 -0.00000000000E+00 -0.45593999997E+02  0.45594000000E+02  0.51100000000E-03 0. -1.
    9900012    2    1    2    0    0  0.17604904613E+02 -0.30324922331E+02 -0.28276839847E+02  0.46142320378E+02  0.10000023865E+02 0.  0.
        -12    1    1    2    0    0 -0.17604904613E+02  0.30324922331E+02  0.28276839847E+02  0.45045679622E+02  0.00000000000E+00 0.  1.
         11    1    3    3    0    0  0.72955507820E+01 -0.58317277504E+01 -0.10229891703E+02  0.13852248709E+02  0.51100000000E-03 0. -1.
        -11    1    3    3    0    0 -0.84361100182E-01 -0.18378817325E+01 -0.10177484320E+01  0.21025551574E+01  0.51100000000E-03 0.  1.
        -12    1    3    3    0    0  0.10393714932E+02 -0.22655312849E+02 -0.17029199712E+02  0.30187516512E+02  0.00000000000E+00 0.  1.
</event>
<event>
 7    1  0.2031146E-008  0.4614232E+02  0.7816164E-02  0.1320468E+00
        -11   -1    0    0    0    0  0.00000000000E+00  0.00000000000E+00  0.45593999997E+02  0.45594000000E+02  0.51100000000E-03 0. -1.
         11   -1    0    0    0    0 -0.00000000000E+00 -0.00000000000E+00 -0.45593999997E+02  0.45594000000E+02  0.51100000000E-03 0.  1.
    9900012    2    1    2    0    0  0.17096695080E+02 -0.21254161011E+02  0.35847973976E+02  0.46142316731E+02  0.99999906075E+01 0.  0.
        -12    1    1    2    0    0 -0.17096695080E+02  0.21254161011E+02 -0.35847973976E+02  0.45045683269E+02  0.00000000000E+00 0.  1.
         11    1    3    3    0    0  0.95084698619E+01 -0.76460425511E+01  0.16398216426E+02  0.20439531992E+02  0.51100000000E-03 0. -1.
        -11    1    3    3    0    0  0.22069100460E+01 -0.10990997941E+00  0.33696827779E+01  0.40295526351E+01  0.51100000000E-03 0.  1.
        -12    1    3    3    0    0  0.53813151719E+01 -0.13498208481E+02  0.16080074772E+02  0.21673232104E+02  0.00000000000E+00 0.  1.
</event>
<event>
 7    1  0.2031146E-008  0.4614232E+02  0.7816164E-02  0.1320468E+00
        -11   -1    0    0    0    0  0.00000000000E+00  0.00000000000E+00  0.45593999997E+02  0.45594000000E+02  0.51100000000E-03 0.  1.
         11   -1    0    0    0    0 -0.00000000000E+00 -0.00000000000E+00 -0.45593999997E+02  0.45594000000E+02  0.51100000000E-03 0. -1.
    9900012    2    1    2    0    0  0.23563355538E+02 -0.13817683107E+02 -0.35818340388E+02  0.46142316535E+02  0.99999888221E+01 0.  0.
        -12    1    1    2    0    0 -0.23563355538E+02  0.13817683107E+02  0.35818340388E+02  0.45045683465E+02  0.00000000000E+00 0.  1.
         11    1    3    3    0    0  0.47799996943E+01 -0.48980933478E+01 -0.12504115180E+02  0.14254564609E+02  0.51100000000E-03 0. -1.
        -11    1    3    3    0    0  0.41663794623E+01 -0.30555945825E+00 -0.80321042825E+01  0.90535508985E+01  0.51100000000E-03 0.  1.
         12    1    3    3    0    0  0.14616976381E+02 -0.86140303012E+01 -0.15282120926E+02  0.22834201027E+02  0.00000000000E+00 0. -1.
</event>
<event>
 7    1  0.2031146E-008  0.4614231E+02  0.7816164E-02  0.1320468E+00
        -11   -1    0    0    0    0  0.00000000000E+00  0.00000000000E+00  0.45593999997E+02  0.45594000000E+02  0.51100000000E-03 0. -1.
         11   -1    0    0    0    0 -0.00000000000E+00 -0.00000000000E+00 -0.45593999997E+02  0.45594000000E+02  0.51100000000E-03 0.  1.
    9900012    2    1    2    0    0 -0.40268686063E+02 -0.14484495198E+02  0.14062235008E+02  0.46142310619E+02  0.99999348767E+01 0.  0.
        -12    1    1    2    0    0  0.40268686063E+02  0.14484495198E+02 -0.14062235008E+02  0.45045689381E+02  0.00000000000E+00 0.  1.
         11    1    3    3    0    0 -0.15085494727E+02 -0.78742524183E+01  0.92350368402E+01  0.19361350883E+02  0.51100000000E-03 0. -1.
        -11    1    3    3    0    0 -0.85287908249E+01 -0.30541403105E+00  0.16132318965E+01  0.86853939507E+01  0.51100000000E-03 0.  1.
         12    1    3    3    0    0 -0.16654400511E+02 -0.63048287489E+01  0.32139662709E+01  0.18095565786E+02  0.00000000000E+00 0. -1.
</event>
<event>
 7    1  0.2031146E-008  0.4614231E+02  0.7816164E-02  0.1320468E+00
        -11   -1    0    0    0    0  0.00000000000E+00  0.00000000000E+00  0.45593999997E+02  0.45594000000E+02  0.51100000000E-03 0. -1.
         11   -1    0    0    0    0 -0.00000000000E+00 -0.00000000000E+00 -0.45593999997E+02  0.45594000000E+02  0.51100000000E-03 0.  1.
    9900012    2    1    2    0    0 -0.11329157809E+02 -0.43529618899E+02 -0.24364821623E+01  0.46142312265E+02  0.99999498852E+01 0.  0.
        -12    1    1    2    0    0  0.11329157809E+02  0.43529618899E+02  0.24364821623E+01  0.45045687735E+02  0.00000000000E+00 0.  1.
         11    1    3    3    0    0 -0.16809457509E+01 -0.32536076139E+01  0.16567954865E+00  0.36659229530E+01  0.51100000000E-03 0. -1.
        -11    1    3    3    0    0 -0.39730438385E+01 -0.26134538002E+02  0.21307290542E+01  0.26520542235E+02  0.51100000000E-03 0.  1.
         12    1    3    3    0    0 -0.56751682191E+01 -0.14141473284E+02 -0.47328907652E+01  0.15955847077E+02  0.00000000000E+00 0. -1.
</event>
<event>
 7    1  0.2031146E-008  0.4614232E+02  0.7816164E-02  0.1320468E+00
        -11   -1    0    0    0    0  0.00000000000E+00  0.00000000000E+00  0.45593999997E+02  0.45594000000E+02  0.51100000000E-03 0. -1.
         11   -1    0    0    0    0 -0.00000000000E+00 -0.00000000000E+00 -0.45593999997E+02  0.45594000000E+02  0.51100000000E-03 0.  1.
    9900012    2    1    2    0    0 -0.39169042253E+02  0.82097945320E+01  0.20676047359E+02  0.46142317281E+02  0.99999956176E+01 0.  0.
        -12    1    1    2    0    0  0.39169042253E+02 -0.82097945320E+01 -0.20676047359E+02  0.45045682719E+02  0.00000000000E+00 0.  1.
         11    1    3    3    0    0 -0.48510826709E+01  0.16381709104E+01  0.11990879570E+01  0.52587469231E+01  0.51100000000E-03 0. -1.
        -11    1    3    3    0    0 -0.23294864735E+02  0.37219834019E+00  0.12793577268E+02  0.26579406958E+02  0.51100000000E-03 0.  1.
         12    1    3    3    0    0 -0.11023094847E+02  0.61994252814E+01  0.66833821339E+01  0.14304163400E+02  0.00000000000E+00 0. -1.
</event>
<event>
 7    1  0.2031146E-008  0.4614232E+02  0.7816164E-02  0.1320468E+00
        -11   -1    0    0    0    0  0.00000000000E+00  0.00000000000E+00  0.45593999997E+02  0.45594000000E+02  0.51100000000E-03 0.  1.
         11   -1    0    0    0    0 -0.00000000000E+00 -0.00000000000E+00 -0.45593999997E+02  0.45594000000E+02  0.51100000000E-03 0. -1.
    9900012    2    1    2    0    0 -0.38860959886E+02  0.60495149032E+01 -0.21962299197E+02  0.46142318522E+02  0.10000006938E+02 0.  0.
        -12    1    1    2    0    0  0.38860959886E+02 -0.60495149032E+01  0.21962299197E+02  0.45045681478E+02  0.00000000000E+00 0.  1.
         11    1    3    3    0    0 -0.79755187431E+01 -0.18269338294E+01 -0.25368851913E+01  0.85663512170E+01  0.51100000000E-03 0. -1.
        -11    1    3    3    0    0 -0.20071993980E+02  0.39578107365E+01 -0.10364845722E+02  0.22934237185E+02  0.51100000000E-03 0.  1.
        -12    1    3    3    0    0 -0.10813447163E+02  0.39186379960E+01 -0.90605682836E+01  0.14641730120E+02  0.00000000000E+00 0.  1.
</event>
<event>
 7    1  0.2031146E-008  0.4614232E+02  0.7816164E-02  0.1320468E+00
        -11   -1    0    0    0    0  0.00000000000E+00  0.00000000000E+00  0.45593999997E+02  0.45594000000E+02  0.51100000000E-03 0.  1.
         11   -1    0    0    0    0 -0.00000000000E+00 -0.00000000000E+00 -0.45593999997E+02  0.45594000000E+02  0.51100000000E-03 0. -1.
    9900012    2    1    2    0    0 -0.16348277528E+02  0.26249334089E+02 -0.32753927555E+02  0.46142317760E+02  0.99999999874E+01 0.  0.
        -12    1    1    2    0    0  0.16348277528E+02 -0.26249334089E+02  0.32753927555E+02  0.45045682240E+02  0.00000000000E+00 0.  1.
         11    1    3    3    0    0 -0.11582617147E+02  0.18721879741E+02 -0.22714768933E+02  0.31632681342E+02  0.51100000000E-03 0. -1.
        -11    1    3    3    0    0 -0.28092614075E+01  0.11721875468E+00 -0.27177533019E+01  0.39104824719E+01  0.51100000000E-03 0.  1.
        -12    1    3    3    0    0 -0.19563989736E+01  0.74102355935E+01 -0.73214053203E+01  0.10599153945E+02  0.00000000000E+00 0.  1.
</event>
<event>
 7    1  0.2031146E-008  0.4614232E+02  0.7816164E-02  0.1320468E+00
        -11   -1    0    0    0    0  0.00000000000E+00  0.00000000000E+00  0.45593999997E+02  0.45594000000E+02  0.51100000000E-03 0. -1.
         11   -1    0    0    0    0 -0.00000000000E+00 -0.00000000000E+00 -0.45593999997E+02  0.45594000000E+02  0.51100000000E-03 0.  1.
    9900012    2    1    2    0    0  0.38820900401E+02 -0.16490183072E+02  0.15815343822E+02  0.46142317123E+02  0.99999941818E+01 0.  0.
        -12    1    1    2    0    0 -0.38820900401E+02  0.16490183072E+02 -0.15815343822E+02  0.45045682877E+02  0.00000000000E+00 0.  1.
         11    1    3    3    0    0  0.17831121345E+02 -0.30646018051E+01  0.81472684006E+01  0.19842345005E+02  0.51100000000E-03 0. -1.
        -11    1    3    3    0    0  0.54771964256E+01 -0.18039837100E+01  0.20317915523E+01  0.61140996952E+01  0.51100000000E-03 0.  1.
        -12    1    3    3    0    0  0.15512582630E+02 -0.11621597557E+02  0.56362838687E+01  0.20185872423E+02  0.00000000000E+00 0.  1.
</event>
<event>
 7    1  0.2031146E-008  0.4614232E+02  0.7816164E-02  0.1320468E+00
        -11   -1    0    0    0    0  0.00000000000E+00  0.00000000000E+00  0.45593999997E+02  0.45594000000E+02  0.51100000000E-03 0.  1.
         11   -1    0    0    0    0 -0.00000000000E+00 -0.00000000000E+00 -0.45593999997E+02  0.45594000000E+02  0.51100000000E-03 0. -1.
    9900012    2    1    2    0    0 -0.87206879141E+01  0.13612342796E+02 -0.42044825715E+02  0.46142316039E+02  0.99999842993E+01 0.  0.
        -12    1    1    2    0    0  0.87206879141E+01 -0.13612342796E+02  0.42044825715E+02  0.45045683961E+02  0.00000000000E+00 0.  1.
         11    1    3    3    0    0  0.94920579313E+00  0.22139392830E+01 -0.59811028202E+01  0.64479539386E+01  0.51100000000E-03 0. -1.
        -11    1    3    3    0    0 -0.33849141702E+01  0.56528449400E+01 -0.79829179522E+01  0.10350810555E+02  0.51100000000E-03 0.  1.
         12    1    3    3    0    0 -0.62849795370E+01  0.57455585733E+01 -0.28080804942E+02  0.29343551546E+02  0.00000000000E+00 0. -1.
</event>
<event>
 7    1  0.2031146E-008  0.4614232E+02  0.7816164E-02  0.1320468E+00
        -11   -1    0    0    0    0  0.00000000000E+00  0.00000000000E+00  0.45593999997E+02  0.45594000000E+02  0.51100000000E-03 0.  1.
         11   -1    0    0    0    0 -0.00000000000E+00 -0.00000000000E+00 -0.45593999997E+02  0.45594000000E+02  0.51100000000E-03 0. -1.
    9900012    2    1    2    0    0  0.71445331469E+01 -0.16097137298E+02 -0.41460235137E+02  0.46142320067E+02  0.10000021024E+02 0.  0.
        -12    1    1    2    0    0 -0.71445331469E+01  0.16097137298E+02  0.41460235137E+02  0.45045679933E+02  0.00000000000E+00 0.  1.
         11    1    3    3    0    0 -0.10690774612E+01 -0.97226379527E+00 -0.31998887499E+01  0.35110556502E+01  0.51100000000E-03 0. -1.
        -11    1    3    3    0    0  0.51352186193E+01 -0.61786035087E+01 -0.99897708120E+01  0.12819560551E+02  0.51100000000E-03 0.  1.
         12    1    3    3    0    0  0.30783919888E+01 -0.89462699940E+01 -0.28270575575E+02  0.29811703865E+02  0.00000000000E+00 0. -1.
</event>
<event>
 7    1  0.2031146E-008  0.4614232E+02  0.7816164E-02  0.1320468E+00
        -11   -1    0    0    0    0  0.00000000000E+00  0.00000000000E+00  0.45593999997E+02  0.45594000000E+02  0.51100000000E-03 0.  1.
         11   -1    0    0    0    0 -0.00000000000E+00 -0.00000000000E+00 -0.45593999997E+02  0.45594000000E+02  0.51100000000E-03 0. -1.
    9900012    2    1    2    0    0  0.60751970883E+01  0.29860645900E+02 -0.33174498059E+02  0.46142317469E+02  0.99999973364E+01 0.  0.
        -12    1    1    2    0    0 -0.60751970883E+01 -0.29860645900E+02  0.33174498059E+02  0.45045682531E+02  0.00000000000E+00 0.  1.
         11    1    3    3    0    0  0.23539263462E+01  0.21831299191E+02 -0.19346132767E+02  0.29264644999E+02  0.51100000000E-03 0. -1.
        -11    1    3    3    0    0  0.19852322250E+01  0.64628080718E+01 -0.73322302734E+01  0.99734966890E+01  0.51100000000E-03 0.  1.
         12    1    3    3    0    0  0.17360385171E+01  0.15665386363E+01 -0.64961350185E+01  0.69041757806E+01  0.00000000000E+00 0. -1.
</event>
<event>
 7    1  0.2031146E-008  0.4614232E+02  0.7816164E-02  0.1320468E+00
        -11   -1    0    0    0    0  0.00000000000E+00  0.00000000000E+00  0.45593999997E+02  0.45594000000E+02  0.51100000000E-03 0. -1.
         11   -1    0    0    0    0 -0.00000000000E+00 -0.00000000000E+00 -0.45593999997E+02  0.45594000000E+02  0.51100000000E-03 0.  1.
    9900012    2    1    2    0    0  0.42708400660E+01  0.39957607641E+02  0.20353456882E+02  0.46142315519E+02  0.99999795570E+01 0.  0.
        -12    1    1    2    0    0 -0.42708400660E+01 -0.39957607641E+02 -0.20353456882E+02  0.45045684481E+02  0.00000000000E+00 0.  1.
         11    1    3    3    0    0  0.11457876363E+01  0.27055192607E+02  0.10822471848E+02  0.29161998790E+02  0.51100000000E-03 0. -1.
        -11    1    3    3    0    0 -0.15574789588E-01  0.39512544318E+01  0.52555461948E+01  0.65752125613E+01  0.51100000000E-03 0.  1.
         12    1    3    3    0    0  0.31406272193E+01  0.89511606027E+01  0.42754388396E+01  0.10405104168E+02  0.00000000000E+00 0. -1.
</event>
<event>
 7    1  0.2031146E-008  0.4614232E+02  0.7816164E-02  0.1320468E+00
        -11   -1    0    0    0    0  0.00000000000E+00  0.00000000000E+00  0.45593999997E+02  0.45594000000E+02  0.51100000000E-03 0. -1.
         11   -1    0    0    0    0 -0.00000000000E+00 -0.00000000000E+00 -0.45593999997E+02  0.45594000000E+02  0.51100000000E-03 0.  1.
    9900012    2    1    2    0    0  0.10163606953E+02 -0.68382619229E+01  0.43348041371E+02  0.46142318485E+02  0.10000006604E+02 0.  0.
        -12    1    1    2    0    0 -0.10163606953E+02  0.68382619229E+01 -0.43348041371E+02  0.45045681515E+02  0.00000000000E+00 0.  1.
         11    1    3    3    0    0  0.27707975133E+01  0.13004979803E+01  0.80197353547E+01  0.85839832989E+01  0.51100000000E-03 0. -1.
        -11    1    3    3    0    0  0.11143367453E+01  0.19801775210E+00  0.11362033259E+02  0.11418264204E+02  0.51100000000E-03 0.  1.
         12    1    3    3    0    0  0.62784726948E+01 -0.83367776553E+01  0.23966272758E+02  0.26140070982E+02  0.00000000000E+00 0. -1.
</event>
<event>
 7    1  0.2031146E-008  0.4614232E+02  0.7816164E-02  0.1320468E+00
        -11   -1    0    0    0    0  0.00000000000E+00  0.00000000000E+00  0.45593999997E+02  0.45594000000E+02  0.51100000000E-03 0.  1.
         11   -1    0    0    0    0 -0.00000000000E+00 -0.00000000000E+00 -0.45593999997E+02  0.45594000000E+02  0.51100000000E-03 0. -1.
    9900012    2    1    2    0    0  0.36864332279E+02 -0.26672610966E+01 -0.25749179189E+02  0.46142317577E+02  0.99999983178E+01 0.  0.
        -12    1    1    2    0    0 -0.36864332279E+02  0.26672610966E+01  0.25749179189E+02  0.45045682423E+02  0.00000000000E+00 0.  1.
         11    1    3    3    0    0  0.16111763318E+02  0.25358369901E+01 -0.10176167817E+02  0.19224301760E+02  0.51100000000E-03 0. -1.
        -11    1    3    3    0    0  0.64246468059E+01 -0.17140628815E+01 -0.21808886539E+01  0.69978835175E+01  0.51100000000E-03 0.  1.
        -12    1    3    3    0    0  0.14327922155E+02 -0.34890352053E+01 -0.13392122718E+02  0.19920132299E+02  0.00000000000E+00 0.  1.
</event>
<event>
 7    1  0.2031146E-008  0.4614232E+02  0.7816164E-02  0.1320468E+00
        -11   -1    0    0    0    0  0.00000000000E+00  0.00000000000E+00  0.45593999997E+02  0.45594000000E+02  0.51100000000E-03 0. -1.
         11   -1    0    0    0    0 -0.00000000000E+00 -0.00000000000E+00 -0.45593999997E+02  0.45594000000E+02  0.51100000000E-03 0.  1.
    9900012    2    1    2    0    0 -0.96171948116E+01  0.12808070443E+02  0.42101976073E+02  0.46142317701E+02  0.99999994508E+01 0.  0.
        -12    1    1    2    0    0  0.96171948116E+01 -0.12808070443E+02 -0.42101976073E+02  0.45045682299E+02  0.00000000000E+00 0.  1.
         11    1    3    3    0    0 -0.56872516162E+00  0.93181262810E+00  0.62093854265E+00  0.12559012773E+01  0.51100000000E-03 0. -1.
        -11    1    3    3    0    0 -0.17292759015E+01  0.29857093939E+01  0.21899998819E+02  0.22170133159E+02  0.51100000000E-03 0.  1.
        -12    1    3    3    0    0 -0.73191937485E+01  0.88905484214E+01  0.19581038711E+02  0.22716283265E+02  0.00000000000E+00 0.  1.
</event>
<event>
 7    1  0.2031146E-008  0.4614232E+02  0.7816164E-02  0.1320468E+00
        -11   -1    0    0    0    0  0.00000000000E+00  0.00000000000E+00  0.45593999997E+02  0.45594000000E+02  0.51100000000E-03 0.  1.
         11   -1    0    0    0    0 -0.00000000000E+00 -0.00000000000E+00 -0.45593999997E+02  0.45594000000E+02  0.51100000000E-03 0. -1.
    9900012    2    1    2    0    0 -0.26528478929E+02  0.21020091308E+02 -0.29723878445E+02  0.46142318934E+02  0.10000010696E+02 0.  0.
        -12    1    1    2    0    0  0.26528478929E+02 -0.21020091308E+02  0.29723878445E+02  0.45045681066E+02  0.00000000000E+00 0.  1.
         11    1    3    3    0    0 -0.75676546007E+01  0.49654574923E+01 -0.93971586787E+01  0.13047289211E+02  0.51100000000E-03 0. -1.
        -11    1    3    3    0    0 -0.98507789400E+01  0.44493448032E+01 -0.12013058377E+02  0.16160076941E+02  0.51100000000E-03 0.  1.
        -12    1    3    3    0    0 -0.91100453882E+01  0.11605289012E+02 -0.83136613894E+01  0.16934952782E+02  0.00000000000E+00 0.  1.
</event>
<event>
 7    1  0.2031146E-008  0.4614232E+02  0.7816164E-02  0.1320468E+00
        -11   -1    0    0    0    0  0.00000000000E+00  0.00000000000E+00  0.45593999997E+02  0.45594000000E+02  0.51100000000E-03 0.  1.
         11   -1    0    0    0    0 -0.00000000000E+00 -0.00000000000E+00 -0.45593999997E+02  0.45594000000E+02  0.51100000000E-03 0. -1.
    9900012    2    1    2    0    0 -0.41851716801E+02 -0.14468010243E+02  0.82597815489E+01  0.46142317512E+02  0.99999977286E+01 0.  0.
        -12    1    1    2    0    0  0.41851716801E+02  0.14468010243E+02 -0.82597815489E+01  0.45045682488E+02  0.00000000000E+00 0.  1.
         11    1    3    3    0    0 -0.12761748131E+02 -0.11386485964E+01 -0.78291398417E-01  0.12812683786E+02  0.51100000000E-03 0. -1.
        -11    1    3    3    0    0 -0.43258675315E+01 -0.36150327617E+01  0.90802780761E+00  0.57101757004E+01  0.51100000000E-03 0.  1.
        -12    1    3    3    0    0 -0.24764101138E+02 -0.97143288844E+01  0.74300451397E+01  0.27619458026E+02  0.00000000000E+00 0.  1.
</event>
<event>
 7    1  0.2031146E-008  0.4614232E+02  0.7816164E-02  0.1320468E+00
        -11   -1    0    0    0    0  0.00000000000E+00  0.00000000000E+00  0.45593999997E+02  0.45594000000E+02  0.51100000000E-03 0.  1.
         11   -1    0    0    0    0 -0.00000000000E+00 -0.00000000000E+00 -0.45593999997E+02  0.45594000000E+02  0.51100000000E-03 0. -1.
    9900012    2    1    2    0    0  0.30770318484E+02  0.16644331303E+02 -0.28377231360E+02  0.46142317368E+02  0.99999964163E+01 0.  0.
        -12    1    1    2    0    0 -0.30770318484E+02 -0.16644331303E+02  0.28377231360E+02  0.45045682632E+02  0.00000000000E+00 0.  1.
         11    1    3    3    0    0  0.12414647817E+02  0.82687120454E+01 -0.93680277274E+01  0.17614057541E+02  0.51100000000E-03 0. -1.
        -11    1    3    3    0    0  0.52009228575E+01  0.55024951473E+01 -0.48646582662E+01  0.89995528624E+01  0.51100000000E-03 0.  1.
         12    1    3    3    0    0  0.13154747810E+02  0.28731241106E+01 -0.14144545366E+02  0.19528706964E+02  0.00000000000E+00 0. -1.
</event>
<event>
 7    1  0.2031146E-008  0.4614232E+02  0.7816164E-02  0.1320468E+00
        -11   -1    0    0    0    0  0.00000000000E+00  0.00000000000E+00  0.45593999997E+02  0.45594000000E+02  0.51100000000E-03 0. -1.
         11   -1    0    0    0    0 -0.00000000000E+00 -0.00000000000E+00 -0.45593999997E+02  0.45594000000E+02  0.51100000000E-03 0.  1.
    9900012    2    1    2    0    0 -0.18328615631E+02 -0.95795183263E+01  0.40017598742E+02  0.46142317284E+02  0.99999956459E+01 0.  0.
        -12    1    1    2    0    0  0.18328615631E+02  0.95795183263E+01 -0.40017598742E+02  0.45045682716E+02  0.00000000000E+00 0.  1.
         11    1    3    3    0    0 -0.61876097256E+01 -0.18805315234E+01  0.98305217312E+01  0.11766990724E+02  0.51100000000E-03 0. -1.
        -11    1    3    3    0    0 -0.74202222174E+01 -0.19797781129E+01  0.85007996973E+01  0.11456125649E+02  0.51100000000E-03 0.  1.
        -12    1    3    3    0    0 -0.47207836878E+01 -0.57192086901E+01  0.21686277313E+02  0.22919200911E+02  0.00000000000E+00 0.  1.
</event>
<event>
 7    1  0.2031146E-008  0.4614232E+02  0.7816164E-02  0.1320468E+00
        -11   -1    0    0    0    0  0.00000000000E+00  0.00000000000E+00  0.45593999997E+02  0.45594000000E+02  0.51100000000E-03 0.  1.
         11   -1    0    0    0    0 -0.00000000000E+00 -0.00000000000E+00 -0.45593999997E+02  0.45594000000E+02  0.51100000000E-03 0. -1.
    9900012    2    1    2    0    0 -0.77633147748E+01 -0.77031261189E+01 -0.43697898438E+02  0.46142317230E+02  0.99999951573E+01 0.  0.
        -12    1    1    2    0    0  0.77633147748E+01  0.77031261189E+01  0.43697898438E+02  0.45045682770E+02  0.00000000000E+00 0.  1.
         11    1    3    3    0    0 -0.15345591915E+01 -0.27398622184E+01 -0.79920295560E+01  0.85868651773E+01  0.51100000000E-03 0. -1.
        -11    1    3    3    0    0 -0.25000554058E+01 -0.57500370096E+00 -0.17279217730E+01  0.30929953448E+01  0.51100000000E-03 0.  1.
         12    1    3    3    0    0 -0.37287001775E+01 -0.43882601996E+01 -0.33977947109E+02  0.34462456708E+02  0.00000000000E+00 0. -1.
</event>
<event>
 7    1  0.2031146E-008  0.4614232E+02  0.7816164E-02  0.1320468E+00
        -11   -1    0    0    0    0  0.00000000000E+00  0.00000000000E+00  0.45593999997E+02  0.45594000000E+02  0.51100000000E-03 0.  1.
         11   -1    0    0    0    0 -0.00000000000E+00 -0.00000000000E+00 -0.45593999997E+02  0.45594000000E+02  0.51100000000E-03 0. -1.
    9900012    2    1    2    0    0  0.61116925020E+01 -0.51526599532E+01 -0.44330697930E+02  0.46142317979E+02  0.10000001983E+02 0.  0.
        -12    1    1    2    0    0 -0.61116925020E+01  0.51526599532E+01  0.44330697930E+02  0.45045682021E+02  0.00000000000E+00 0.  1.
         11    1    3    3    0    0  0.28074713086E+01 -0.30374554334E+01 -0.11079418621E+02  0.11826307450E+02  0.51100000000E-03 0. -1.
        -11    1    3    3    0    0  0.15526542041E+01  0.11426180178E+01 -0.17665886398E+01  0.26147938151E+01  0.51100000000E-03 0.  1.
        -12    1    3    3    0    0  0.17515669893E+01 -0.32578225376E+01 -0.31484690668E+02  0.31701216713E+02  0.00000000000E+00 0.  1.
</event>
<event>
 7    1  0.2031146E-008  0.4614232E+02  0.7816164E-02  0.1320468E+00
        -11   -1    0    0    0    0  0.00000000000E+00  0.00000000000E+00  0.45593999997E+02  0.45594000000E+02  0.51100000000E-03 0.  1.
         11   -1    0    0    0    0 -0.00000000000E+00 -0.00000000000E+00 -0.45593999997E+02  0.45594000000E+02  0.51100000000E-03 0. -1.
    9900012    2    1    2    0    0  0.32714958603E+02  0.90747074535E+01 -0.29605652761E+02  0.46142317552E+02  0.99999980947E+01 0.  0.
        -12    1    1    2    0    0 -0.32714958603E+02 -0.90747074535E+01  0.29605652761E+02  0.45045682448E+02  0.00000000000E+00 0.  1.
         11    1    3    3    0    0  0.31323741065E+01  0.11769002616E+01 -0.18261350923E+01  0.38120376972E+01  0.51100000000E-03 0. -1.
        -11    1    3    3    0    0 -0.45549014714E-01  0.14091446855E+01 -0.23942801012E+01  0.27785501474E+01  0.51100000000E-03 0.  1.
         12    1    3    3    0    0  0.29628133511E+02  0.64886625065E+01 -0.25385237568E+02  0.39551729708E+02  0.00000000000E+00 0. -1.
</event>
<event>
 7    1  0.2031146E-008  0.4614232E+02  0.7816164E-02  0.1320468E+00
        -11   -1    0    0    0    0  0.00000000000E+00  0.00000000000E+00  0.45593999997E+02  0.45594000000E+02  0.51100000000E-03 0.  1.
         11   -1    0    0    0    0 -0.00000000000E+00 -0.00000000000E+00 -0.45593999997E+02  0.45594000000E+02  0.51100000000E-03 0. -1.
    9900012    2    1    2    0    0 -0.25461017298E+02  0.13543793229E+01 -0.37135100643E+02  0.46142318242E+02  0.10000004388E+02 0.  0.
        -12    1    1    2    0    0  0.25461017298E+02 -0.13543793229E+01  0.37135100643E+02  0.45045681758E+02  0.00000000000E+00 0.  1.
         11    1    3    3    0    0 -0.97842718687E+01 -0.21316082656E+01 -0.18074009049E+02  0.20662660360E+02  0.51100000000E-03 0. -1.
        -11    1    3    3    0    0 -0.26845335970E+01  0.13772593629E+01 -0.70185814548E+01  0.76396367639E+01  0.51100000000E-03 0.  1.
        -12    1    3    3    0    0 -0.12992211833E+02  0.21087282257E+01 -0.12042510140E+02  0.17840021119E+02  0.00000000000E+00 0.  1.
</event>
<event>
 7    1  0.2031146E-008  0.4614232E+02  0.7816164E-02  0.1320468E+00
        -11   -1    0    0    0    0  0.00000000000E+00  0.00000000000E+00  0.45593999997E+02  0.45594000000E+02  0.51100000000E-03 0.  1.
         11   -1    0    0    0    0 -0.00000000000E+00 -0.00000000000E+00 -0.45593999997E+02  0.45594000000E+02  0.51100000000E-03 0. -1.
    9900012    2    1    2    0    0 -0.33099223720E+02 -0.17625072134E+02 -0.24958201867E+02  0.46142316311E+02  0.99999867729E+01 0.  0.
        -12    1    1    2    0    0  0.33099223720E+02  0.17625072134E+02  0.24958201867E+02  0.45045683689E+02  0.00000000000E+00 0.  1.
         11    1    3    3    0    0 -0.22092794869E+02 -0.73780511561E+01 -0.16845347980E+02  0.28745312189E+02  0.51100000000E-03 0. -1.
        -11    1    3    3    0    0 -0.21725549857E+00 -0.14544739822E+01 -0.82617475807E+00  0.16867897049E+01  0.51100000000E-03 0.  1.
        -12    1    3    3    0    0 -0.10789173352E+02 -0.87925469958E+01 -0.72866791295E+01  0.15710214417E+02  0.00000000000E+00 0.  1.
</event>
<event>
 7    1  0.2031146E-008  0.4614232E+02  0.7816164E-02  0.1320468E+00
        -11   -1    0    0    0    0  0.00000000000E+00  0.00000000000E+00  0.45593999997E+02  0.45594000000E+02  0.51100000000E-03 0.  1.
         11   -1    0    0    0    0 -0.00000000000E+00 -0.00000000000E+00 -0.45593999997E+02  0.45594000000E+02  0.51100000000E-03 0. -1.
    9900012    2    1    2    0    0 -0.13535855735E+02  0.90571122685E+01 -0.41998366506E+02  0.46142318051E+02  0.10000002639E+02 0.  0.
        -12    1    1    2    0    0  0.13535855735E+02 -0.90571122685E+01  0.41998366506E+02  0.45045681949E+02  0.00000000000E+00 0.  1.
         11    1    3    3    0    0 -0.10223852755E+02  0.10083756744E+02 -0.37290351172E+02  0.39959724799E+02  0.51100000000E-03 0. -1.
        -11    1    3    3    0    0 -0.22730985323E+01  0.27271590663E+00 -0.22154567344E+01  0.31858436413E+01  0.51100000000E-03 0.  1.
        -12    1    3    3    0    0 -0.10389044485E+01 -0.12993603820E+01 -0.24925585995E+01  0.29967496104E+01  0.00000000000E+00 0.  1.
</event>
<event>
 7    1  0.2031146E-008  0.4614232E+02  0.7816164E-02  0.1320468E+00
        -11   -1    0    0    0    0  0.00000000000E+00  0.00000000000E+00  0.45593999997E+02  0.45594000000E+02  0.51100000000E-03 0.  1.
         11   -1    0    0    0    0 -0.00000000000E+00 -0.00000000000E+00 -0.45593999997E+02  0.45594000000E+02  0.51100000000E-03 0. -1.
    9900012    2    1    2    0    0 -0.26412487231E+02  0.21587640351E+02 -0.29418831880E+02  0.46142319110E+02  0.10000012300E+02 0.  0.
        -12    1    1    2    0    0  0.26412487231E+02 -0.21587640351E+02  0.29418831880E+02  0.45045680890E+02  0.00000000000E+00 0.  1.
         11    1    3    3    0    0 -0.19343675085E+00  0.16149459337E+01 -0.48502254070E+00  0.16972670006E+01  0.51100000000E-03 0. -1.
        -11    1    3    3    0    0 -0.10465424752E+02  0.10893579184E+02 -0.16761447584E+02  0.22564159813E+02  0.51100000000E-03 0.  1.
         12    1    3    3    0    0 -0.15753625727E+02  0.90791152330E+01 -0.12172361755E+02  0.21880892296E+02  0.00000000000E+00 0. -1.
</event>
<event>
 7    1  0.2031146E-008  0.4614232E+02  0.7816164E-02  0.1320468E+00
        -11   -1    0    0    0    0  0.00000000000E+00  0.00000000000E+00  0.45593999997E+02  0.45594000000E+02  0.51100000000E-03 0. -1.
         11   -1    0    0    0    0 -0.00000000000E+00 -0.00000000000E+00 -0.45593999997E+02  0.45594000000E+02  0.51100000000E-03 0.  1.
    9900012    2    1    2    0    0  0.26466304846E+02 -0.36092921039E+02 -0.50940371857E+01  0.46142318118E+02  0.10000003257E+02 0.  0.
        -12    1    1    2    0    0 -0.26466304846E+02  0.36092921039E+02  0.50940371857E+01  0.45045681882E+02  0.00000000000E+00 0.  1.
         11    1    3    3    0    0  0.16562222943E+02 -0.17583728691E+02  0.27699603337E+00  0.24157223983E+02  0.51100000000E-03 0. -1.
        -11    1    3    3    0    0  0.56394955257E+01 -0.80258949711E+01 -0.10278702264E+01  0.98628300875E+01  0.51100000000E-03 0.  1.
        -12    1    3    3    0    0  0.42645863775E+01 -0.10483297377E+02 -0.43431629926E+01  0.12122264048E+02  0.00000000000E+00 0.  1.
</event>
<event>
 7    1  0.2031146E-008  0.4614232E+02  0.7816164E-02  0.1320468E+00
        -11   -1    0    0    0    0  0.00000000000E+00  0.00000000000E+00  0.45593999997E+02  0.45594000000E+02  0.51100000000E-03 0.  1.
         11   -1    0    0    0    0 -0.00000000000E+00 -0.00000000000E+00 -0.45593999997E+02  0.45594000000E+02  0.51100000000E-03 0. -1.
    9900012    2    1    2    0    0  0.34001865306E+02 -0.27496717881E+02 -0.10812820893E+02  0.46142318363E+02  0.10000005485E+02 0.  0.
        -12    1    1    2    0    0 -0.34001865306E+02  0.27496717881E+02  0.10812820893E+02  0.45045681637E+02  0.00000000000E+00 0.  1.
         11    1    3    3    0    0  0.12953088809E+02 -0.85504150875E+01 -0.12571849276E+01  0.15571532425E+02  0.51100000000E-03 0. -1.
        -11    1    3    3    0    0  0.10468636157E+01 -0.65260052789E+00  0.89061414923E+00  0.15215139509E+01  0.51100000000E-03 0.  1.
         12    1    3    3    0    0  0.20001912882E+02 -0.18293702266E+02 -0.10446250115E+02  0.29049271987E+02  0.00000000000E+00 0. -1.
</event>
<event>
 7    1  0.2031146E-008  0.4614232E+02  0.7816164E-02  0.1320468E+00
        -11   -1    0    0    0    0  0.00000000000E+00  0.00000000000E+00  0.45593999997E+02  0.45594000000E+02  0.51100000000E-03 0.  1.
         11   -1    0    0    0    0 -0.00000000000E+00 -0.00000000000E+00 -0.45593999997E+02  0.45594000000E+02  0.51100000000E-03 0. -1.
    9900012    2    1    2    0    0 -0.43522171326E+02  0.10804844383E+02 -0.42649077287E+01  0.46142317666E+02  0.99999991301E+01 0.  0.
        -12    1    1    2    0    0  0.43522171326E+02 -0.10804844383E+02  0.42649077287E+01  0.45045682334E+02  0.00000000000E+00 0.  1.
         11    1    3    3    0    0 -0.65351176476E+01  0.16166274494E+01 -0.32795878546E+01  0.74884540284E+01  0.51100000000E-03 0. -1.
        -11    1    3    3    0    0 -0.35097916334E+02  0.76173810336E+01  0.22345029770E+00  0.35915709029E+02  0.51100000000E-03 0.  1.
         12    1    3    3    0    0 -0.18891373442E+01  0.15708358997E+01 -0.12087701718E+01  0.27381546080E+01  0.00000000000E+00 0. -1.
</event>
<event>
 7    1  0.2031146E-008  0.4614232E+02  0.7816164E-02  0.1320468E+00
        -11   -1    0    0    0    0  0.00000000000E+00  0.00000000000E+00  0.45593999997E+02  0.45594000000E+02  0.51100000000E-03 0.  1.
         11   -1    0    0    0    0 -0.00000000000E+00 -0.00000000000E+00 -0.45593999997E+02  0.45594000000E+02  0.51100000000E-03 0. -1.
    9900012    2    1    2    0    0  0.13985647557E+02  0.31010255236E+02 -0.29527601347E+02  0.46142317535E+02  0.99999979407E+01 0.  0.
        -12    1    1    2    0    0 -0.13985647557E+02 -0.31010255236E+02  0.29527601347E+02  0.45045682465E+02  0.00000000000E+00 0.  1.
         11    1    3    3    0    0  0.33602856080E+01  0.76944245133E+01 -0.10723730900E+02  0.13619621604E+02  0.51100000000E-03 0.  1.
        -11    1    3    3    0    0  0.21799401711E-01  0.21448338366E+01 -0.41650664017E+01  0.46849296465E+01  0.51100000000E-03 0. -1.
         12    1    3    3    0    0  0.10603562548E+02  0.21170996887E+02 -0.14638804045E+02  0.27837766285E+02  0.00000000000E+00 0. -1.
</event>
<event>
 7    1  0.2031146E-008  0.4614232E+02  0.7816164E-02  0.1320468E+00
        -11   -1    0    0    0    0  0.00000000000E+00  0.00000000000E+00  0.45593999997E+02  0.45594000000E+02  0.51100000000E-03 0.  1.
         11   -1    0    0    0    0 -0.00000000000E+00 -0.00000000000E+00 -0.45593999997E+02  0.45594000000E+02  0.51100000000E-03 0. -1.
    9900012    2    1    2    0    0  0.40515494035E+02 -0.72676903787E+01  0.18297235429E+02  0.46142318691E+02  0.10000008475E+02 0.  0.
        -12    1    1    2    0    0 -0.40515494035E+02  0.72676903787E+01 -0.18297235429E+02  0.45045681309E+02  0.00000000000E+00 0.  1.
         11    1    3    3    0    0  0.68519474352E+01 -0.43797448448E+01  0.42514528545E+01  0.91763936378E+01  0.51100000000E-03 0. -1.
        -11    1    3    3    0    0  0.17650220959E+02 -0.33504255621E-01  0.49568716453E+01  0.18333084826E+02  0.51100000000E-03 0.  1.
         12    1    3    3    0    0  0.16013325640E+02 -0.28544412783E+01  0.90889109287E+01  0.18632840227E+02  0.00000000000E+00 0. -1.
</event>
<event>
 7    1  0.2031146E-008  0.4614232E+02  0.7816164E-02  0.1320468E+00
        -11   -1    0    0    0    0  0.00000000000E+00  0.00000000000E+00  0.45593999997E+02  0.45594000000E+02  0.51100000000E-03 0. -1.
         11   -1    0    0    0    0 -0.00000000000E+00 -0.00000000000E+00 -0.45593999997E+02  0.45594000000E+02  0.51100000000E-03 0.  1.
    9900012    2    1    2    0    0  0.36005052416E+02  0.20137949780E+02  0.18089019470E+02  0.46142318229E+02  0.10000004269E+02 0.  0.
        -12    1    1    2    0    0 -0.36005052416E+02 -0.20137949780E+02 -0.18089019470E+02  0.45045681771E+02  0.00000000000E+00 0.  1.
         11    1    3    3    0    0  0.14869108503E+02  0.36105812183E+01  0.89047936274E+01  0.17703729388E+02  0.51100000000E-03 0. -1.
        -11    1    3    3    0    0  0.12603498481E+02  0.10279141501E+02  0.45201162958E+01  0.16880177000E+02  0.51100000000E-03 0.  1.
         12    1    3    3    0    0  0.85324454309E+01  0.62482270607E+01  0.46641095470E+01  0.11558411842E+02  0.00000000000E+00 0. -1.
</event>
<event>
 7    1  0.2031146E-008  0.4614232E+02  0.7816164E-02  0.1320468E+00
        -11   -1    0    0    0    0  0.00000000000E+00  0.00000000000E+00  0.45593999997E+02  0.45594000000E+02  0.51100000000E-03 0. -1.
         11   -1    0    0    0    0 -0.00000000000E+00 -0.00000000000E+00 -0.45593999997E+02  0.45594000000E+02  0.51100000000E-03 0.  1.
    9900012    2    1    2    0    0 -0.40652380018E+02  0.96547185452E+01 -0.16831043216E+02  0.46142316444E+02  0.99999879883E+01 0.  0.
        -12    1    1    2    0    0  0.40652380018E+02 -0.96547185452E+01  0.16831043216E+02  0.45045683556E+02  0.00000000000E+00 0.  1.
         11    1    3    3    0    0 -0.23477042299E+02  0.29072889338E+01 -0.72674751625E+01  0.24747525928E+02  0.51100000000E-03 0. -1.
        -11    1    3    3    0    0 -0.60463660575E+01  0.16891631258E+01 -0.74614950601E+00  0.63220688001E+01  0.51100000000E-03 0.  1.
        -12    1    3    3    0    0 -0.11128971661E+02  0.50582664856E+01 -0.88174185476E+01  0.15072721715E+02  0.00000000000E+00 0.  1.
</event>
<event>
 7    1  0.2031146E-008  0.4614232E+02  0.7816164E-02  0.1320468E+00
        -11   -1    0    0    0    0  0.00000000000E+00  0.00000000000E+00  0.45593999997E+02  0.45594000000E+02  0.51100000000E-03 0.  1.
         11   -1    0    0    0    0 -0.00000000000E+00 -0.00000000000E+00 -0.45593999997E+02  0.45594000000E+02  0.51100000000E-03 0. -1.
    9900012    2    1    2    0    0 -0.43724535309E+02  0.79389291419E+01 -0.73655642584E+01  0.46142321842E+02  0.10000037213E+02 0.  0.
        -12    1    1    2    0    0  0.43724535309E+02 -0.79389291419E+01  0.73655642584E+01  0.45045678158E+02  0.00000000000E+00 0.  1.
         11    1    3    3    0    0 -0.34005690974E+01 -0.71983479292E+00 -0.70877839829E-01  0.34766443944E+01  0.51100000000E-03 0. -1.
        -11    1    3    3    0    0 -0.20231740535E+02  0.17471852966E+01 -0.67892263697E+01  0.21411902683E+02  0.51100000000E-03 0.  1.
         12    1    3    3    0    0 -0.20092225676E+02  0.69115786383E+01 -0.50546004883E+00  0.21253774765E+02  0.00000000000E+00 0. -1.
</event>
<event>
 7    1  0.2031146E-008  0.4614232E+02  0.7816164E-02  0.1320468E+00
        -11   -1    0    0    0    0  0.00000000000E+00  0.00000000000E+00  0.45593999997E+02  0.45594000000E+02  0.51100000000E-03 0. -1.
         11   -1    0    0    0    0 -0.00000000000E+00 -0.00000000000E+00 -0.45593999997E+02  0.45594000000E+02  0.51100000000E-03 0.  1.
    9900012    2    1    2    0    0  0.33029853670E+02  0.63999089813E+01  0.29953019877E+02  0.46142317986E+02  0.10000002047E+02 0.  0.
        -12    1    1    2    0    0 -0.33029853670E+02 -0.63999089813E+01 -0.29953019877E+02  0.45045682014E+02  0.00000000000E+00 0.  1.
         11    1    3    3    0    0  0.17702909618E+02  0.25109354701E+01  0.12415217583E+02  0.21767761340E+02  0.51100000000E-03 0. -1.
        -11    1    3    3    0    0  0.74320368077E+01  0.11772047297E+01  0.41384072039E+01  0.85876304376E+01  0.51100000000E-03 0.  1.
         12    1    3    3    0    0  0.78949072444E+01  0.27117687814E+01  0.13399395090E+02  0.15786926208E+02  0.00000000000E+00 0. -1.
</event>
<event>
 7    1  0.2481110E-008  0.4614232E+02  0.7816164E-02  0.1320468E+00
        -11   -1    0    0    0    0  0.00000000000E+00  0.00000000000E+00  0.45593999997E+02  0.45594000000E+02  0.51100000000E-03 0. -1.
         11   -1    0    0    0    0 -0.00000000000E+00 -0.00000000000E+00 -0.45593999997E+02  0.45594000000E+02  0.51100000000E-03 0.  1.
    9900012    2    1    2    0    0 -0.26410094425E+02 -0.19690635608E+02  0.30722944077E+02  0.46142317510E+02  0.99999977108E+01 0.  0.
        -12    1    1    2    0    0  0.26410094425E+02  0.19690635608E+02 -0.30722944077E+02  0.45045682490E+02  0.00000000000E+00 0.  1.
         11    1    3    3    0    0 -0.14790421791E+02 -0.10482573196E+02  0.15757330353E+02  0.24019458314E+02  0.51100000000E-03 0. -1.
        -11    1    3    3    0    0 -0.11207871166E+02 -0.93097650831E+01  0.11315017170E+02  0.18447702182E+02  0.51100000000E-03 0.  1.
        -12    1    3    3    0    0 -0.41180146838E+00  0.10170267067E+00  0.36505965533E+01  0.36751570140E+01  0.00000000000E+00 0.  1.
</event>
<event>
 7    1  0.2686715E-008  0.4614232E+02  0.7816164E-02  0.1320468E+00
        -11   -1    0    0    0    0  0.00000000000E+00  0.00000000000E+00  0.45593999997E+02  0.45594000000E+02  0.51100000000E-03 0. -1.
         11   -1    0    0    0    0 -0.00000000000E+00 -0.00000000000E+00 -0.45593999997E+02  0.45594000000E+02  0.51100000000E-03 0.  1.
    9900012    2    1    2    0    0  0.13787346055E+02 -0.11504880638E+02  0.41311746021E+02  0.46142317088E+02  0.99999938639E+01 0.  0.
        -12    1    1    2    0    0 -0.13787346055E+02  0.11504880638E+02 -0.41311746021E+02  0.45045682912E+02  0.00000000000E+00 0.  1.
         11    1    3    3    0    0  0.41394589997E+01 -0.38173441709E+01  0.14481569118E+02  0.15537795265E+02  0.51100000000E-03 0.  1.
        -11    1    3    3    0    0  0.93861535917E+01 -0.69870931852E+01  0.27313330398E+02  0.29714262032E+02  0.51100000000E-03 0. -1.
        -12    1    3    3    0    0  0.26173346331E+00 -0.70044328148E+00 -0.48315349472E+00  0.89025979121E+00  0.00000000000E+00 0.  1.
</event>
<event>
 7    1  0.2031146E-008  0.4614232E+02  0.7816164E-02  0.1320468E+00
        -11   -1    0    0    0    0  0.00000000000E+00  0.00000000000E+00  0.45593999997E+02  0.45594000000E+02  0.51100000000E-03 0.  1.
         11   -1    0    0    0    0 -0.00000000000E+00 -0.00000000000E+00 -0.45593999997E+02  0.45594000000E+02  0.51100000000E-03 0. -1.
    9900012    2    1    2    0    0 -0.10738486399E+02 -0.20282217665E+02 -0.38761192195E+02  0.46142318033E+02  0.10000002476E+02 0.  0.
        -12    1    1    2    0    0  0.10738486399E+02  0.20282217665E+02  0.38761192195E+02  0.45045681967E+02  0.00000000000E+00 0.  1.
         11    1    3    3    0    0 -0.73640387037E+01 -0.13100334313E+02 -0.20971573017E+02  0.25800284886E+02  0.51100000000E-03 0. -1.
        -11    1    3    3    0    0  0.16402202116E+01 -0.15850031773E+01 -0.31855898244E+01  0.39179765447E+01  0.51100000000E-03 0.  1.
        -12    1    3    3    0    0 -0.50146679069E+01 -0.55968801746E+01 -0.14604029354E+02  0.16424056602E+02  0.00000000000E+00 0.  1.
</event>
<event>
 7    1  0.2031146E-008  0.4614232E+02  0.7816164E-02  0.1320468E+00
        -11   -1    0    0    0    0  0.00000000000E+00  0.00000000000E+00  0.45593999997E+02  0.45594000000E+02  0.51100000000E-03 0.  1.
         11   -1    0    0    0    0 -0.00000000000E+00 -0.00000000000E+00 -0.45593999997E+02  0.45594000000E+02  0.51100000000E-03 0. -1.
    9900012    2    1    2    0    0 -0.31985287014E+02  0.26372580365E+02 -0.17622199112E+02  0.46142317832E+02  0.10000000644E+02 0.  0.
        -12    1    1    2    0    0  0.31985287014E+02 -0.26372580365E+02  0.17622199112E+02  0.45045682168E+02  0.00000000000E+00 0.  1.
         11    1    3    3    0    0 -0.12582274965E+02  0.63264435408E+01 -0.49727526271E+01  0.14935387512E+02  0.51100000000E-03 0. -1.
        -11    1    3    3    0    0 -0.12220072289E+02  0.88214929924E+01 -0.81987223189E+01  0.17157154580E+02  0.51100000000E-03 0.  1.
         12    1    3    3    0    0 -0.71829397595E+01  0.11224643832E+02 -0.44507241661E+01  0.14049775740E+02  0.00000000000E+00 0. -1.
</event>
<event>
 7    1  0.2031146E-008  0.4614232E+02  0.7816164E-02  0.1320468E+00
        -11   -1    0    0    0    0  0.00000000000E+00  0.00000000000E+00  0.45593999997E+02  0.45594000000E+02  0.51100000000E-03 0.  1.
         11   -1    0    0    0    0 -0.00000000000E+00 -0.00000000000E+00 -0.45593999997E+02  0.45594000000E+02  0.51100000000E-03 0. -1.
    9900012    2    1    2    0    0 -0.42122448818E+02 -0.89606929082E+01 -0.13210558134E+02  0.46142316987E+02  0.99999929441E+01 0.  0.
        -12    1    1    2    0    0  0.42122448818E+02  0.89606929082E+01  0.13210558134E+02  0.45045683013E+02  0.00000000000E+00 0.  1.
         11    1    3    3    0    0 -0.11981484489E+02 -0.34842106529E+01 -0.64210787732E+01  0.14033030581E+02  0.51100000000E-03 0. -1.
        -11    1    3    3    0    0 -0.17832356296E+00 -0.82603395151E+00  0.41838373234E+00  0.94296160619E+00  0.51100000000E-03 0.  1.
        -12    1    3    3    0    0 -0.29962640767E+02 -0.46504483038E+01 -0.72078630932E+01  0.31166324800E+02  0.00000000000E+00 0.  1.
</event>
<event>
 7    1  0.2031146E-008  0.4614232E+02  0.7816164E-02  0.1320468E+00
        -11   -1    0    0    0    0  0.00000000000E+00  0.00000000000E+00  0.45593999997E+02  0.45594000000E+02  0.51100000000E-03 0.  1.
         11   -1    0    0    0    0 -0.00000000000E+00 -0.00000000000E+00 -0.45593999997E+02  0.45594000000E+02  0.51100000000E-03 0. -1.
    9900012    2    1    2    0    0  0.18334363998E+02 -0.41136634902E+02  0.86134719666E+00  0.46142317041E+02  0.99999934317E+01 0.  0.
        -12    1    1    2    0    0 -0.18334363998E+02  0.41136634902E+02 -0.86134719666E+00  0.45045682959E+02  0.00000000000E+00 0.  1.
         11    1    3    3    0    0  0.12250368291E+02 -0.34413894690E+02  0.13468517401E+01  0.36554092532E+02  0.51100000000E-03 0. -1.
        -11    1    3    3    0    0  0.11525965512E+01 -0.29768232095E+00  0.73255382676E+00  0.13977585429E+01  0.51100000000E-03 0.  1.
        -12    1    3    3    0    0  0.49313991562E+01 -0.64250578910E+01 -0.12180583702E+01  0.81904659656E+01  0.00000000000E+00 0.  1.
</event>
<event>
 7    1  0.2031146E-008  0.4614232E+02  0.7816164E-02  0.1320468E+00
        -11   -1    0    0    0    0  0.00000000000E+00  0.00000000000E+00  0.45593999997E+02  0.45594000000E+02  0.51100000000E-03 0.  1.
         11   -1    0    0    0    0 -0.00000000000E+00 -0.00000000000E+00 -0.45593999997E+02  0.45594000000E+02  0.51100000000E-03 0. -1.
    9900012    2    1    2    0    0 -0.30051089909E+02 -0.32160903985E+01 -0.33402129179E+02  0.46142317900E+02  0.10000001269E+02 0.  0.
        -12    1    1    2    0    0  0.30051089909E+02  0.32160903985E+01  0.33402129179E+02  0.45045682100E+02  0.00000000000E+00 0.  1.
         11    1    3    3    0    0 -0.36247288154E+01  0.40369029479E+00 -0.33781444173E+01  0.49712659157E+01  0.51100000000E-03 0. -1.
        -11    1    3    3    0    0 -0.38496232427E+01  0.11313406570E+01 -0.94192997530E+01  0.10238297656E+02  0.51100000000E-03 0.  1.
         12    1    3    3    0    0 -0.22576737851E+02 -0.47511213503E+01 -0.20604685008E+02  0.30932754329E+02  0.00000000000E+00 0. -1.
</event>
<event>
 7    1  0.2031146E-008  0.4614232E+02  0.7816164E-02  0.1320468E+00
        -11   -1    0    0    0    0  0.00000000000E+00  0.00000000000E+00  0.45593999997E+02  0.45594000000E+02  0.51100000000E-03 0. -1.
         11   -1    0    0    0    0 -0.00000000000E+00 -0.00000000000E+00 -0.45593999997E+02  0.45594000000E+02  0.51100000000E-03 0.  1.
    9900012    2    1    2    0    0 -0.15696422291E+02  0.40084932607E+02  0.13264011128E+02  0.46142317787E+02  0.10000000235E+02 0.  0.
        -12    1    1    2    0    0  0.15696422291E+02 -0.40084932607E+02 -0.13264011128E+02  0.45045682213E+02  0.00000000000E+00 0.  1.
         11    1    3    3    0    0 -0.41015707406E+01  0.10930176399E+02  0.61297699325E+01  0.13185815042E+02  0.51100000000E-03 0.  1.
        -11    1    3    3    0    0 -0.81034416643E+01  0.10860495308E+02  0.29639539518E+01  0.13870874105E+02  0.51100000000E-03 0. -1.
         12    1    3    3    0    0 -0.34914098864E+01  0.18294260900E+02  0.41702872434E+01  0.19085628640E+02  0.00000000000E+00 0. -1.
</event>
<event>
 7    1  0.2031146E-008  0.4614232E+02  0.7816164E-02  0.1320468E+00
        -11   -1    0    0    0    0  0.00000000000E+00  0.00000000000E+00  0.45593999997E+02  0.45594000000E+02  0.51100000000E-03 0.  1.
         11   -1    0    0    0    0 -0.00000000000E+00 -0.00000000000E+00 -0.45593999997E+02  0.45594000000E+02  0.51100000000E-03 0. -1.
    9900012    2    1    2    0    0 -0.72073897929E+01 -0.24198840457E+02 -0.37303929144E+02  0.46142317891E+02  0.10000001185E+02 0.  0.
        -12    1    1    2    0    0  0.72073897929E+01  0.24198840457E+02  0.37303929144E+02  0.45045682109E+02  0.00000000000E+00 0.  1.
         11    1    3    3    0    0 -0.79709420467E+01 -0.21299538035E+02 -0.30087464614E+02  0.37715537445E+02  0.51100000000E-03 0. -1.
        -11    1    3    3    0    0 -0.65648148986E+00 -0.13170571913E+01 -0.55025626514E+01  0.56959462414E+01  0.51100000000E-03 0.  1.
         12    1    3    3    0    0  0.14200337436E+01 -0.15822452306E+01 -0.17139018783E+01  0.27308342043E+01  0.00000000000E+00 0. -1.
</event>
<event>
 7    1  0.2031146E-008  0.4614232E+02  0.7816164E-02  0.1320468E+00
        -11   -1    0    0    0    0  0.00000000000E+00  0.00000000000E+00  0.45593999997E+02  0.45594000000E+02  0.51100000000E-03 0.  1.
         11   -1    0    0    0    0 -0.00000000000E+00 -0.00000000000E+00 -0.45593999997E+02  0.45594000000E+02  0.51100000000E-03 0. -1.
    9900012    2    1    2    0    0  0.24694035306E+02  0.89844706637E+01 -0.36586847715E+02  0.46142317426E+02  0.99999969475E+01 0.  0.
        -12    1    1    2    0    0 -0.24694035306E+02 -0.89844706637E+01  0.36586847715E+02  0.45045682574E+02  0.00000000000E+00 0.  1.
         11    1    3    3    0    0  0.18007039349E+02  0.55583558175E+01 -0.20467365514E+02  0.27821966805E+02  0.51100000000E-03 0. -1.
        -11    1    3    3    0    0  0.54844891460E+01  0.38314736865E+01 -0.97433484109E+01  0.11819164536E+02  0.51100000000E-03 0.  1.
        -12    1    3    3    0    0  0.12025068104E+01 -0.40535884029E+00 -0.63761337898E+01  0.65011860859E+01  0.00000000000E+00 0.  1.
</event>
<event>
 7    1  0.2031146E-008  0.4614232E+02  0.7816164E-02  0.1320468E+00
        -11   -1    0    0    0    0  0.00000000000E+00  0.00000000000E+00  0.45593999997E+02  0.45594000000E+02  0.51100000000E-03 0.  1.
         11   -1    0    0    0    0 -0.00000000000E+00 -0.00000000000E+00 -0.45593999997E+02  0.45594000000E+02  0.51100000000E-03 0. -1.
    9900012    2    1    2    0    0  0.22303554201E+02  0.32605048776E+02 -0.21646610717E+02  0.46142317729E+02  0.99999997080E+01 0.  0.
        -12    1    1    2    0    0 -0.22303554201E+02 -0.32605048776E+02  0.21646610717E+02  0.45045682271E+02  0.00000000000E+00 0.  1.
         11    1    3    3    0    0  0.13487374665E+01  0.22867870713E+01  0.22745173138E+00  0.26646242539E+01  0.51100000000E-03 0. -1.
        -11    1    3    3    0    0  0.40647781181E+01  0.76854992298E+01 -0.19327649807E+01  0.89064527335E+01  0.51100000000E-03 0.  1.
         12    1    3    3    0    0  0.16890038617E+02  0.22632762475E+02 -0.19941297468E+02  0.34571240742E+02  0.00000000000E+00 0. -1.
</event>
<event>
 7    1  0.2031146E-008  0.4614232E+02  0.7816164E-02  0.1320468E+00
        -11   -1    0    0    0    0  0.00000000000E+00  0.00000000000E+00  0.45593999997E+02  0.45594000000E+02  0.51100000000E-03 0.  1.
         11   -1    0    0    0    0 -0.00000000000E+00 -0.00000000000E+00 -0.45593999997E+02  0.45594000000E+02  0.51100000000E-03 0. -1.
    9900012    2    1    2    0    0  0.33899267742E+02  0.20679105739E+02 -0.21267996845E+02  0.46142318105E+02  0.10000003136E+02 0.  0.
        -12    1    1    2    0    0 -0.33899267742E+02 -0.20679105739E+02  0.21267996845E+02  0.45045681895E+02  0.00000000000E+00 0.  1.
         11    1    3    3    0    0  0.10736370784E+02  0.70634547024E+01 -0.65775623834E+01  0.14436979501E+02  0.51100000000E-03 0. -1.
        -11    1    3    3    0    0  0.64019366516E+01  0.76626179694E+01 -0.30200762298E+01  0.10431748067E+02  0.51100000000E-03 0.  1.
        -12    1    3    3    0    0  0.16760960306E+02  0.59530330667E+01 -0.11670358232E+02  0.21273590537E+02  0.00000000000E+00 0.  1.
</event>
<event>
 7    1  0.2031146E-008  0.4614230E+02  0.7816164E-02  0.1320468E+00
        -11   -1    0    0    0    0  0.00000000000E+00  0.00000000000E+00  0.45593999997E+02  0.45594000000E+02  0.51100000000E-03 0. -1.
         11   -1    0    0    0    0 -0.00000000000E+00 -0.00000000000E+00 -0.45593999997E+02  0.45594000000E+02  0.51100000000E-03 0.  1.
    9900012    2    1    2    0    0 -0.28484035520E+02  0.32126298501E+02  0.13626280804E+02  0.46142302498E+02  0.99998608160E+01 0.  0.
        -12    1    1    2    0    0  0.28484035520E+02 -0.32126298501E+02 -0.13626280804E+02  0.45045697502E+02  0.00000000000E+00 0.  1.
         11    1    3    3    0    0 -0.14043115181E+02  0.16863963753E+02  0.91779351206E+01  0.23787325423E+02  0.51100000000E-03 0. -1.
        -11    1    3    3    0    0 -0.75195755790E+01  0.11893536415E+02  0.16643075933E+01  0.14169338212E+02  0.51100000000E-03 0.  1.
        -12    1    3    3    0    0 -0.69213447599E+01  0.33687983330E+01  0.27840380903E+01  0.81856388621E+01  0.00000000000E+00 0.  1.
</event>
<event>
 7    1  0.2031146E-008  0.4614232E+02  0.7816164E-02  0.1320468E+00
        -11   -1    0    0    0    0  0.00000000000E+00  0.00000000000E+00  0.45593999997E+02  0.45594000000E+02  0.51100000000E-03 0.  1.
         11   -1    0    0    0    0 -0.00000000000E+00 -0.00000000000E+00 -0.45593999997E+02  0.45594000000E+02  0.51100000000E-03 0. -1.
    9900012    2    1    2    0    0 -0.14991171143E+02 -0.35899567941E+01 -0.42326002113E+02  0.46142318110E+02  0.10000003185E+02 0.  0.
        -12    1    1    2    0    0  0.14991171143E+02  0.35899567941E+01  0.42326002113E+02  0.45045681890E+02  0.00000000000E+00 0.  1.
         11    1    3    3    0    0 -0.88192245154E+01 -0.17426813830E+01 -0.25458584226E+02  0.26999169812E+02  0.51100000000E-03 0.  1.
        -11    1    3    3    0    0 -0.69368750271E+01 -0.29536930424E-01 -0.11565904573E+02  0.13486706656E+02  0.51100000000E-03 0. -1.
        -12    1    3    3    0    0  0.76492839941E+00 -0.18177384807E+01 -0.53015133140E+01  0.56564416429E+01  0.00000000000E+00 0.  1.
</event>
