<event>
 7    1  0.3755162E-013  0.5930193E+02  0.7816164E-02  0.1266605E+00
        -11   -1    0    0    0    0  0.00000000000E+00  0.00000000000E+00  0.45593999997E+02  0.45594000000E+02  0.51100000000E-03 0.  1.
         11   -1    0    0    0    0 -0.00000000000E+00 -0.00000000000E+00 -0.45593999997E+02  0.45594000000E+02  0.51100000000E-03 0. -1.
    9900012    2    1    2    0    0 -0.26867907542E+02  0.99967489375E+01 -0.13960727996E+02  0.59301931393E+02  0.49999976958E+02 0.  0.
        -12    1    1    2    0    0  0.26867907542E+02 -0.99967489375E+01  0.13960727996E+02  0.31886068607E+02  0.00000000000E+00 0.  1.
         11    1    3    3    0    0 -0.63348620121E+01  0.12943006329E+02 -0.48270892886E+01  0.15197127386E+02  0.51100000000E-03 0. -1.
        -11    1    3    3    0    0 -0.52194706324E+01  0.15918514269E+02  0.28817809877E+01  0.16998430284E+02  0.51100000000E-03 0.  1.
        -12    1    3    3    0    0 -0.15313574898E+02 -0.18864771660E+02 -0.12015419695E+02  0.27106373722E+02  0.00000000000E+00 0.  1.
</event>
<event>
 7    1  0.3755162E-013  0.5930195E+02  0.7816164E-02  0.1266605E+00
        -11   -1    0    0    0    0  0.00000000000E+00  0.00000000000E+00  0.45593999997E+02  0.45594000000E+02  0.51100000000E-03 0.  1.
         11   -1    0    0    0    0 -0.00000000000E+00 -0.00000000000E+00 -0.45593999997E+02  0.45594000000E+02  0.51100000000E-03 0. -1.
    9900012    2    1    2    0    0 -0.17150418983E+02 -0.35667885160E+01 -0.26643217787E+02  0.59301954374E+02  0.50000018869E+02 0.  0.
        -12    1    1    2    0    0  0.17150418983E+02  0.35667885160E+01  0.26643217787E+02  0.31886045626E+02  0.00000000000E+00 0.  1.
         11    1    3    3    0    0  0.91060250797E+01 -0.81117001624E+01 -0.13447825750E+02  0.18153880850E+02  0.51100000000E-03 0.  1.
        -11    1    3    3    0    0 -0.24664357095E+02 -0.54088495950E+01 -0.16927099839E+02  0.30399224893E+02  0.51100000000E-03 0. -1.
         12    1    3    3    0    0 -0.15920869681E+01  0.99537612414E+01  0.37317078016E+01  0.10748848630E+02  0.00000000000E+00 0. -1.
</event>
<event>
 7    1  0.3755162E-013  0.5930194E+02  0.7816164E-02  0.1266605E+00
        -11   -1    0    0    0    0  0.00000000000E+00  0.00000000000E+00  0.45593999997E+02  0.45594000000E+02  0.51100000000E-03 0.  1.
         11   -1    0    0    0    0 -0.00000000000E+00 -0.00000000000E+00 -0.45593999997E+02  0.45594000000E+02  0.51100000000E-03 0. -1.
    9900012    2    1    2    0    0 -0.24551072121E+02  0.40037378563E+01 -0.19948320662E+02  0.59301944171E+02  0.50000000261E+02 0.  0.
        -12    1    1    2    0    0  0.24551072121E+02 -0.40037378563E+01  0.19948320662E+02  0.31886055829E+02  0.00000000000E+00 0.  1.
         11    1    3    3    0    0 -0.12253817455E+02 -0.11315518737E+02 -0.68191901844E+01  0.18019388490E+02  0.51100000000E-03 0. -1.
        -11    1    3    3    0    0 -0.73911998596E+00  0.32226368989E+01  0.11243757726E+02  0.11719802686E+02  0.51100000000E-03 0.  1.
         12    1    3    3    0    0 -0.11558134679E+02  0.12096619694E+02 -0.24372888203E+02  0.29562752995E+02  0.00000000000E+00 0. -1.
</event>
<event>
 7    1  0.3755162E-013  0.5930196E+02  0.7816164E-02  0.1266605E+00
        -11   -1    0    0    0    0  0.00000000000E+00  0.00000000000E+00  0.45593999997E+02  0.45594000000E+02  0.51100000000E-03 0.  1.
         11   -1    0    0    0    0 -0.00000000000E+00 -0.00000000000E+00 -0.45593999997E+02  0.45594000000E+02  0.51100000000E-03 0. -1.
    9900012    2    1    2    0    0 -0.67985924732E+01 -0.20720785576E+02 -0.23262587423E+02  0.59301956217E+02  0.50000022230E+02 0.  0.
        -12    1    1    2    0    0  0.67985924732E+01  0.20720785576E+02  0.23262587423E+02  0.31886043783E+02  0.00000000000E+00 0.  1.
         11    1    3    3    0    0  0.36484161523E+00  0.22251243069E+01 -0.15426806556E+01  0.27320599283E+01  0.51100000000E-03 0. -1.
        -11    1    3    3    0    0  0.12807961780E+02 -0.46314436871E+01 -0.25792942998E+02  0.29167962979E+02  0.51100000000E-03 0.  1.
         12    1    3    3    0    0 -0.19971395869E+02 -0.18314466196E+02  0.40730362304E+01  0.27401933310E+02  0.00000000000E+00 0. -1.
</event>
<event>
 7    1  0.3755162E-013  0.5930200E+02  0.7816164E-02  0.1266605E+00
        -11   -1    0    0    0    0  0.00000000000E+00  0.00000000000E+00  0.45593999997E+02  0.45594000000E+02  0.51100000000E-03 0. -1.
         11   -1    0    0    0    0 -0.00000000000E+00 -0.00000000000E+00 -0.45593999997E+02  0.45594000000E+02  0.51100000000E-03 0.  1.
    9900012    2    1    2    0    0 -0.15531802227E+02  0.31275757970E+01  0.27671251711E+02  0.59302003355E+02  0.50000108198E+02 0.  0.
        -12    1    1    2    0    0  0.15531802227E+02 -0.31275757970E+01 -0.27671251711E+02  0.31885996645E+02  0.00000000000E+00 0.  1.
         11    1    3    3    0    0 -0.13309915152E+01  0.12243922959E+02  0.94546629815E+01  0.15526617153E+02  0.51100000000E-03 0. -1.
        -11    1    3    3    0    0 -0.21882445190E+01  0.51891236368E+01 -0.90885218025E+01  0.10691896324E+02  0.51100000000E-03 0.  1.
         12    1    3    3    0    0 -0.12012566193E+02 -0.14305470799E+02  0.27305110532E+02  0.33083489878E+02  0.00000000000E+00 0. -1.
</event>
<event>
 7    1  0.3755162E-013  0.5930194E+02  0.7816164E-02  0.1266605E+00
        -11   -1    0    0    0    0  0.00000000000E+00  0.00000000000E+00  0.45593999997E+02  0.45594000000E+02  0.51100000000E-03 0.  1.
         11   -1    0    0    0    0 -0.00000000000E+00 -0.00000000000E+00 -0.45593999997E+02  0.45594000000E+02  0.51100000000E-03 0. -1.
    9900012    2    1    2    0    0 -0.23021847781E+02  0.17665465916E+02 -0.13215385436E+02  0.59301943902E+02  0.49999999770E+02 0.  0.
        -12    1    1    2    0    0  0.23021847781E+02 -0.17665465916E+02  0.13215385436E+02  0.31886056098E+02  0.00000000000E+00 0.  1.
         11    1    3    3    0    0  0.17069659317E+01  0.15081846457E+02 -0.14178714830E+02  0.20770454490E+02  0.51100000000E-03 0.  1.
        -11    1    3    3    0    0 -0.78986493685E+01  0.76071762641E+01  0.13173376402E+02  0.17140467866E+02  0.51100000000E-03 0. -1.
         12    1    3    3    0    0 -0.16830164344E+02 -0.50235568052E+01 -0.12210047009E+02  0.21391021546E+02  0.00000000000E+00 0. -1.
</event>
<event>
 7    1  0.3755162E-013  0.5930193E+02  0.7816164E-02  0.1266605E+00
        -11   -1    0    0    0    0  0.00000000000E+00  0.00000000000E+00  0.45593999997E+02  0.45594000000E+02  0.51100000000E-03 0.  1.
         11   -1    0    0    0    0 -0.00000000000E+00 -0.00000000000E+00 -0.45593999997E+02  0.45594000000E+02  0.51100000000E-03 0. -1.
    9900012    2    1    2    0    0  0.19340379183E+02  0.11659065023E+02 -0.22510824405E+02  0.59301932830E+02  0.49999979578E+02 0.  0.
        -12    1    1    2    0    0 -0.19340379183E+02 -0.11659065023E+02  0.22510824405E+02  0.31886067170E+02  0.00000000000E+00 0.  1.
         11    1    3    3    0    0  0.52053567933E+01  0.16838514913E+02 -0.13314272451E+02  0.22088485122E+02  0.51100000000E-03 0. -1.
        -11    1    3    3    0    0 -0.94520317941E+01  0.39280395242E+01  0.20506177991E+00  0.10237795179E+02  0.51100000000E-03 0.  1.
         12    1    3    3    0    0  0.23587054184E+02 -0.91074894141E+01 -0.94016137335E+01  0.26975652528E+02  0.00000000000E+00 0. -1.
</event>
<event>
 7    1  0.3755162E-013  0.5930192E+02  0.7816164E-02  0.1266605E+00
        -11   -1    0    0    0    0  0.00000000000E+00  0.00000000000E+00  0.45593999997E+02  0.45594000000E+02  0.51100000000E-03 0. -1.
         11   -1    0    0    0    0 -0.00000000000E+00 -0.00000000000E+00 -0.45593999997E+02  0.45594000000E+02  0.51100000000E-03 0.  1.
    9900012    2    1    2    0    0 -0.58004609547E+01 -0.21723335224E+02  0.22609142219E+02  0.59301922279E+02  0.49999960336E+02 0.  0.
        -12    1    1    2    0    0  0.58004609547E+01  0.21723335224E+02 -0.22609142219E+02  0.31886077721E+02  0.00000000000E+00 0.  1.
         11    1    3    3    0    0  0.16523342620E+01 -0.84080897686E+01  0.50797948343E+01  0.99614505917E+01  0.51100000000E-03 0. -1.
        -11    1    3    3    0    0 -0.18089998370E+02 -0.17773049436E+02  0.24990384355E+02  0.35604053671E+02  0.51100000000E-03 0.  1.
        -12    1    3    3    0    0  0.10637203153E+02  0.44578039811E+01 -0.74610369706E+01  0.13736418017E+02  0.00000000000E+00 0.  1.
</event>
<event>
 7    1  0.3755162E-013  0.5930193E+02  0.7816164E-02  0.1266605E+00
        -11   -1    0    0    0    0  0.00000000000E+00  0.00000000000E+00  0.45593999997E+02  0.45594000000E+02  0.51100000000E-03 0.  1.
         11   -1    0    0    0    0 -0.00000000000E+00 -0.00000000000E+00 -0.45593999997E+02  0.45594000000E+02  0.51100000000E-03 0. -1.
    9900012    2    1    2    0    0 -0.15821051632E+02 -0.27423432340E+02 -0.37909252015E+01  0.59301930472E+02  0.49999975278E+02 0.  0.
        -12    1    1    2    0    0  0.15821051632E+02  0.27423432340E+02  0.37909252015E+01  0.31886069528E+02  0.00000000000E+00 0.  1.
         11    1    3    3    0    0 -0.47708193310E+01 -0.28423774724E+02 -0.14430507002E+02  0.32232145744E+02  0.51100000000E-03 0. -1.
        -11    1    3    3    0    0 -0.70586619504E+01 -0.10270753306E+02  0.28037430324E+01  0.12773960124E+02  0.51100000000E-03 0.  1.
         12    1    3    3    0    0 -0.39915703506E+01  0.11271095690E+02  0.78358387678E+01  0.14295824604E+02  0.00000000000E+00 0. -1.
</event>
<event>
 7    1  0.3755162E-013  0.5930194E+02  0.7816164E-02  0.1266605E+00
        -11   -1    0    0    0    0  0.00000000000E+00  0.00000000000E+00  0.45593999997E+02  0.45594000000E+02  0.51100000000E-03 0.  1.
         11   -1    0    0    0    0 -0.00000000000E+00 -0.00000000000E+00 -0.45593999997E+02  0.45594000000E+02  0.51100000000E-03 0. -1.
    9900012    2    1    2    0    0  0.14080515463E+02  0.17785466390E+02 -0.22408414405E+02  0.59301940875E+02  0.49999994250E+02 0.  0.
        -12    1    1    2    0    0 -0.14080515463E+02 -0.17785466390E+02  0.22408414405E+02  0.31886059125E+02  0.00000000000E+00 0.  1.
         11    1    3    3    0    0  0.20828769755E+01  0.33499383043E+01 -0.33129378689E+02  0.33363396046E+02  0.51100000000E-03 0. -1.
        -11    1    3    3    0    0 -0.10534182716E+01 -0.43250675882E+00 -0.20824034834E+01  0.23734272014E+01  0.51100000000E-03 0.  1.
        -12    1    3    3    0    0  0.13051056759E+02  0.14868034844E+02  0.12803367767E+02  0.23565117628E+02  0.00000000000E+00 0.  1.
</event>
<event>
 7    1  0.3755162E-013  0.5930173E+02  0.7816164E-02  0.1266606E+00
        -11   -1    0    0    0    0  0.00000000000E+00  0.00000000000E+00  0.45593999997E+02  0.45594000000E+02  0.51100000000E-03 0. -1.
         11   -1    0    0    0    0 -0.00000000000E+00 -0.00000000000E+00 -0.45593999997E+02  0.45594000000E+02  0.51100000000E-03 0.  1.
    9900012    2    1    2    0    0  0.95422811983E+01  0.28603884077E+02  0.10368074035E+02  0.59301729068E+02  0.49999607963E+02 0.  0.
        -12    1    1    2    0    0 -0.95422811983E+01 -0.28603884077E+02 -0.10368074035E+02  0.31886270932E+02  0.00000000000E+00 0.  1.
         11    1    3    3    0    0 -0.18403285354E+01  0.85914134807E+01  0.62392201298E+01  0.10776226742E+02  0.51100000000E-03 0. -1.
        -11    1    3    3    0    0  0.19615256494E+02  0.29568004566E+02  0.52236978989E+01  0.35865194846E+02  0.51100000000E-03 0.  1.
        -12    1    3    3    0    0 -0.82326467601E+01 -0.95555339693E+01 -0.10948439939E+01  0.12660307480E+02  0.00000000000E+00 0.  1.
</event>
<event>
 7    1  0.3755162E-013  0.5930190E+02  0.7816164E-02  0.1266605E+00
        -11   -1    0    0    0    0  0.00000000000E+00  0.00000000000E+00  0.45593999997E+02  0.45594000000E+02  0.51100000000E-03 0.  1.
         11   -1    0    0    0    0 -0.00000000000E+00 -0.00000000000E+00 -0.45593999997E+02  0.45594000000E+02  0.51100000000E-03 0. -1.
    9900012    2    1    2    0    0  0.86846811443E+01  0.37017754096E+01 -0.30456465021E+02  0.59301904451E+02  0.49999927822E+02 0.  0.
        -12    1    1    2    0    0 -0.86846811443E+01 -0.37017754096E+01  0.30456465021E+02  0.31886095549E+02  0.00000000000E+00 0.  1.
         11    1    3    3    0    0 -0.55724246671E+01 -0.60853979369E+01  0.17851748633E+00  0.82532329105E+01  0.51100000000E-03 0.  1.
        -11    1    3    3    0    0 -0.63833613060E+01 -0.82833850700E+01 -0.75430640453E+00  0.10484786512E+02  0.51100000000E-03 0. -1.
         12    1    3    3    0    0  0.20640467117E+02  0.18070558417E+02 -0.29880676103E+02  0.40563885029E+02  0.00000000000E+00 0. -1.
</event>
<event>
 7    1  0.3755162E-013  0.5930194E+02  0.7816164E-02  0.1266605E+00
        -11   -1    0    0    0    0  0.00000000000E+00  0.00000000000E+00  0.45593999997E+02  0.45594000000E+02  0.51100000000E-03 0.  1.
         11   -1    0    0    0    0 -0.00000000000E+00 -0.00000000000E+00 -0.45593999997E+02  0.45594000000E+02  0.51100000000E-03 0. -1.
    9900012    2    1    2    0    0  0.13898189342E+01  0.28421558816E+02 -0.14387649117E+02  0.59301936441E+02  0.49999986164E+02 0.  0.
        -12    1    1    2    0    0 -0.13898189342E+01 -0.28421558816E+02  0.14387649117E+02  0.31886063559E+02  0.00000000000E+00 0.  1.
         11    1    3    3    0    0  0.67836463266E+01 -0.52162897294E+01 -0.20727108260E+01  0.88047524926E+01  0.51100000000E-03 0. -1.
        -11    1    3    3    0    0  0.39638675640E+01 -0.59836373604E+01 -0.58836276992E+01  0.92807993886E+01  0.51100000000E-03 0.  1.
         12    1    3    3    0    0 -0.93576949565E+01  0.39621485905E+02 -0.64313105919E+01  0.41216384560E+02  0.00000000000E+00 0. -1.
</event>
<event>
 7    1  0.3755162E-013  0.5930179E+02  0.7816164E-02  0.1266605E+00
        -11   -1    0    0    0    0  0.00000000000E+00  0.00000000000E+00  0.45593999997E+02  0.45594000000E+02  0.51100000000E-03 0.  1.
         11   -1    0    0    0    0 -0.00000000000E+00 -0.00000000000E+00 -0.45593999997E+02  0.45594000000E+02  0.51100000000E-03 0. -1.
    9900012    2    1    2    0    0  0.85212910882E+01  0.25826281078E+02 -0.16646965947E+02  0.59301785559E+02  0.49999710991E+02 0.  0.
        -12    1    1    2    0    0 -0.85212910882E+01 -0.25826281078E+02  0.16646965947E+02  0.31886214441E+02  0.00000000000E+00 0.  1.
         11    1    3    3    0    0  0.12989826228E+02 -0.40859899547E+01 -0.18688310184E+02  0.23123231546E+02  0.51100000000E-03 0. -1.
        -11    1    3    3    0    0 -0.92100258990E+01  0.48422336796E+01 -0.11351318856E+01  0.10467106989E+02  0.51100000000E-03 0.  1.
        -12    1    3    3    0    0  0.47414907595E+01  0.25070037353E+02  0.31764761231E+01  0.25711447024E+02  0.00000000000E+00 0.  1.
</event>
<event>
 7    1  0.3755162E-013  0.5930197E+02  0.7816164E-02  0.1266605E+00
        -11   -1    0    0    0    0  0.00000000000E+00  0.00000000000E+00  0.45593999997E+02  0.45594000000E+02  0.51100000000E-03 0.  1.
         11   -1    0    0    0    0 -0.00000000000E+00 -0.00000000000E+00 -0.45593999997E+02  0.45594000000E+02  0.51100000000E-03 0. -1.
    9900012    2    1    2    0    0  0.14436164713E+01 -0.62680556445E+01 -0.31230534372E+02  0.59301971285E+02  0.50000049710E+02 0.  0.
        -12    1    1    2    0    0 -0.14436164713E+01  0.62680556445E+01  0.31230534372E+02  0.31886028715E+02  0.00000000000E+00 0.  1.
         11    1    3    3    0    0  0.73714635045E+01 -0.41846736104E+01 -0.64120780006E+01  0.10628485874E+02  0.51100000000E-03 0. -1.
        -11    1    3    3    0    0  0.93836196693E+01  0.15002019035E+02 -0.50828802029E+01  0.18410555794E+02  0.51100000000E-03 0.  1.
         12    1    3    3    0    0 -0.15311466702E+02 -0.17085401070E+02 -0.19735576168E+02  0.30262929617E+02  0.00000000000E+00 0. -1.
</event>
<event>
 7    1  0.3755162E-013  0.5930196E+02  0.7816164E-02  0.1266605E+00
        -11   -1    0    0    0    0  0.00000000000E+00  0.00000000000E+00  0.45593999997E+02  0.45594000000E+02  0.51100000000E-03 0. -1.
         11   -1    0    0    0    0 -0.00000000000E+00 -0.00000000000E+00 -0.45593999997E+02  0.45594000000E+02  0.51100000000E-03 0.  1.
    9900012    2    1    2    0    0  0.31662782665E+02 -0.11793562243E+01 -0.35773061107E+01  0.59301955934E+02  0.50000021714E+02 0.  0.
        -12    1    1    2    0    0 -0.31662782665E+02  0.11793562243E+01  0.35773061107E+01  0.31886044066E+02  0.00000000000E+00 0.  1.
         11    1    3    3    0    0  0.18050784386E+02  0.68916837465E+01  0.43006470900E+01  0.19794486289E+02  0.51100000000E-03 0. -1.
        -11    1    3    3    0    0  0.14491042375E+02 -0.13852646806E+02  0.87556882012E+01  0.21875744760E+02  0.51100000000E-03 0.  1.
        -12    1    3    3    0    0 -0.87904409611E+00  0.57816068353E+01 -0.16633641402E+02  0.17631724885E+02  0.00000000000E+00 0.  1.
</event>
<event>
 7    1  0.3755162E-013  0.5930194E+02  0.7816164E-02  0.1266605E+00
        -11   -1    0    0    0    0  0.00000000000E+00  0.00000000000E+00  0.45593999997E+02  0.45594000000E+02  0.51100000000E-03 0.  1.
         11   -1    0    0    0    0 -0.00000000000E+00 -0.00000000000E+00 -0.45593999997E+02  0.45594000000E+02  0.51100000000E-03 0. -1.
    9900012    2    1    2    0    0 -0.91811710153E+01  0.43800311497E+01 -0.30219897824E+02  0.59301940372E+02  0.49999993333E+02 0.  0.
        -12    1    1    2    0    0  0.91811710153E+01 -0.43800311497E+01  0.30219897824E+02  0.31886059628E+02  0.00000000000E+00 0.  1.
         11    1    3    3    0    0 -0.65145562031E+01  0.85690173160E+01  0.15458021682E+01  0.10874603666E+02  0.51100000000E-03 0. -1.
        -11    1    3    3    0    0 -0.14682334352E+02 -0.13152034313E+02 -0.10285893335E+02  0.22233905427E+02  0.51100000000E-03 0.  1.
         12    1    3    3    0    0  0.12015719540E+02  0.89630481467E+01 -0.21479806658E+02  0.26193431279E+02  0.00000000000E+00 0. -1.
</event>
<event>
 7    1  0.3755162E-013  0.5930188E+02  0.7816164E-02  0.1266605E+00
        -11   -1    0    0    0    0  0.00000000000E+00  0.00000000000E+00  0.45593999997E+02  0.45594000000E+02  0.51100000000E-03 0. -1.
         11   -1    0    0    0    0 -0.00000000000E+00 -0.00000000000E+00 -0.45593999997E+02  0.45594000000E+02  0.51100000000E-03 0.  1.
    9900012    2    1    2    0    0  0.21453828679E+02 -0.21968950488E+02 -0.85920349453E+01  0.59301880527E+02  0.49999884190E+02 0.  0.
        -12    1    1    2    0    0 -0.21453828679E+02  0.21968950488E+02  0.85920349453E+01  0.31886119473E+02  0.00000000000E+00 0.  1.
         11    1    3    3    0    0  0.10558731668E+01 -0.44157190036E+01  0.75699200992E+01  0.88270682014E+01  0.51100000000E-03 0. -1.
        -11    1    3    3    0    0  0.81844414767E+01 -0.29508628488E+02 -0.11956521168E+02  0.32874041982E+02  0.51100000000E-03 0.  1.
        -12    1    3    3    0    0  0.12213514036E+02  0.11955397004E+02 -0.42054338763E+01  0.17600770344E+02  0.00000000000E+00 0.  1.
</event>
<event>
 7    1  0.3755162E-013  0.5930194E+02  0.7816164E-02  0.1266605E+00
        -11   -1    0    0    0    0  0.00000000000E+00  0.00000000000E+00  0.45593999997E+02  0.45594000000E+02  0.51100000000E-03 0.  1.
         11   -1    0    0    0    0 -0.00000000000E+00 -0.00000000000E+00 -0.45593999997E+02  0.45594000000E+02  0.51100000000E-03 0. -1.
    9900012    2    1    2    0    0  0.11276251798E+02  0.22518251376E+02 -0.19557485588E+02  0.59301941257E+02  0.49999994946E+02 0.  0.
        -12    1    1    2    0    0 -0.11276251798E+02 -0.22518251376E+02  0.19557485588E+02  0.31886058743E+02  0.00000000000E+00 0.  1.
         11    1    3    3    0    0 -0.94832333763E+01  0.11307109428E+02 -0.10026866168E+01  0.14791477938E+02  0.51100000000E-03 0.  1.
        -11    1    3    3    0    0 -0.89803309020E+01  0.17313379154E+01 -0.55319437394E+01  0.10688604955E+02  0.51100000000E-03 0. -1.
        -12    1    3    3    0    0  0.29739816076E+02  0.94798040331E+01 -0.13022855232E+02  0.33821858363E+02  0.00000000000E+00 0.  1.
</event>
<event>
 7    1  0.3755162E-013  0.5930194E+02  0.7816164E-02  0.1266605E+00
        -11   -1    0    0    0    0  0.00000000000E+00  0.00000000000E+00  0.45593999997E+02  0.45594000000E+02  0.51100000000E-03 0.  1.
         11   -1    0    0    0    0 -0.00000000000E+00 -0.00000000000E+00 -0.45593999997E+02  0.45594000000E+02  0.51100000000E-03 0. -1.
    9900012    2    1    2    0    0 -0.11145904249E+02 -0.23305297060E+02 -0.18690974823E+02  0.59301943605E+02  0.49999999229E+02 0.  0.
        -12    1    1    2    0    0  0.11145904249E+02  0.23305297060E+02  0.18690974823E+02  0.31886056395E+02  0.00000000000E+00 0.  1.
         11    1    3    3    0    0 -0.28213798707E+01 -0.28316640202E+01  0.17878803486E+01  0.43789293098E+01  0.51100000000E-03 0. -1.
        -11    1    3    3    0    0 -0.25624345525E+02 -0.16954531910E+02 -0.43903235272E+01  0.31037689618E+02  0.51100000000E-03 0.  1.
         12    1    3    3    0    0  0.17299821147E+02 -0.35191011301E+01 -0.16088531644E+02  0.23885324677E+02  0.00000000000E+00 0. -1.
</event>
<event>
 7    1  0.3755162E-013  0.5930195E+02  0.7816164E-02  0.1266605E+00
        -11   -1    0    0    0    0  0.00000000000E+00  0.00000000000E+00  0.45593999997E+02  0.45594000000E+02  0.51100000000E-03 0.  1.
         11   -1    0    0    0    0 -0.00000000000E+00 -0.00000000000E+00 -0.45593999997E+02  0.45594000000E+02  0.51100000000E-03 0. -1.
    9900012    2    1    2    0    0 -0.98153626739E+01  0.29341541728E+02 -0.77105695233E+01  0.59301948226E+02  0.50000007656E+02 0.  0.
        -12    1    1    2    0    0  0.98153626739E+01 -0.29341541728E+02  0.77105695233E+01  0.31886051774E+02  0.00000000000E+00 0.  1.
         11    1    3    3    0    0 -0.24464832755E+01  0.22984132623E+02 -0.24403389124E+02  0.33612215545E+02  0.51100000000E-03 0. -1.
        -11    1    3    3    0    0 -0.69991512151E+01  0.45997680205E+01 -0.51243498280E+00  0.83909816736E+01  0.51100000000E-03 0.  1.
        -12    1    3    3    0    0 -0.36972818327E+00  0.17576410846E+01  0.17205254584E+02  0.17298751007E+02  0.00000000000E+00 0.  1.
</event>
<event>
 7    1  0.3755162E-013  0.5930194E+02  0.7816164E-02  0.1266605E+00
        -11   -1    0    0    0    0  0.00000000000E+00  0.00000000000E+00  0.45593999997E+02  0.45594000000E+02  0.51100000000E-03 0.  1.
         11   -1    0    0    0    0 -0.00000000000E+00 -0.00000000000E+00 -0.45593999997E+02  0.45594000000E+02  0.51100000000E-03 0. -1.
    9900012    2    1    2    0    0  0.24491970152E+02 -0.20369631307E+02  0.13936788580E+01  0.59301940001E+02  0.49999992657E+02 0.  0.
        -12    1    1    2    0    0 -0.24491970152E+02  0.20369631307E+02 -0.13936788580E+01  0.31886059999E+02  0.00000000000E+00 0.  1.
         11    1    3    3    0    0 -0.44606554888E+01  0.62848975677E+01 -0.34083910262E+01  0.84270110048E+01  0.51100000000E-03 0.  1.
        -11    1    3    3    0    0  0.18698005143E+02  0.32673898433E+01  0.87187866565E+00  0.19001352725E+02  0.51100000000E-03 0. -1.
        -12    1    3    3    0    0  0.10254620497E+02 -0.29921918718E+02  0.39301912185E+01  0.31873576271E+02  0.00000000000E+00 0.  1.
</event>
<event>
 7    1  0.3755162E-013  0.5930197E+02  0.7816164E-02  0.1266605E+00
        -11   -1    0    0    0    0  0.00000000000E+00  0.00000000000E+00  0.45593999997E+02  0.45594000000E+02  0.51100000000E-03 0. -1.
         11   -1    0    0    0    0 -0.00000000000E+00 -0.00000000000E+00 -0.45593999997E+02  0.45594000000E+02  0.51100000000E-03 0.  1.
    9900012    2    1    2    0    0 -0.27684038057E+02  0.67218457443E+01  0.14322346796E+02  0.59301971851E+02  0.50000050744E+02 0.  0.
        -12    1    1    2    0    0  0.27684038057E+02 -0.67218457443E+01 -0.14322346796E+02  0.31886028149E+02  0.00000000000E+00 0.  1.
         11    1    3    3    0    0  0.20723935714E+01  0.10551216565E+02 -0.15050264945E+01  0.10857628246E+02  0.51100000000E-03 0. -1.
        -11    1    3    3    0    0 -0.10036190001E+02  0.43788581950E+01 -0.10068729018E+02  0.14875443292E+02  0.51100000000E-03 0.  1.
         12    1    3    3    0    0 -0.19720241627E+02 -0.82082290162E+01  0.25896102309E+02  0.33568900313E+02  0.00000000000E+00 0. -1.
</event>
<event>
 7    1  0.3755162E-013  0.5930191E+02  0.7816164E-02  0.1266605E+00
        -11   -1    0    0    0    0  0.00000000000E+00  0.00000000000E+00  0.45593999997E+02  0.45594000000E+02  0.51100000000E-03 0.  1.
         11   -1    0    0    0    0 -0.00000000000E+00 -0.00000000000E+00 -0.45593999997E+02  0.45594000000E+02  0.51100000000E-03 0. -1.
    9900012    2    1    2    0    0  0.30107754798E+02  0.96486382814E+01  0.41411761235E+01  0.59301914330E+02  0.49999945839E+02 0.  0.
        -12    1    1    2    0    0 -0.30107754798E+02 -0.96486382814E+01 -0.41411761235E+01  0.31886085670E+02  0.00000000000E+00 0.  1.
         11    1    3    3    0    0  0.25167415905E+02  0.14969665709E+02  0.11697732922E+02  0.31532945796E+02  0.51100000000E-03 0. -1.
        -11    1    3    3    0    0  0.69358708682E+00  0.88170648738E+01  0.33049044566E+01  0.94416147858E+01  0.51100000000E-03 0.  1.
        -12    1    3    3    0    0  0.42467518059E+01 -0.14138092302E+02 -0.10861461255E+02  0.18327353749E+02  0.00000000000E+00 0.  1.
</event>
<event>
 7    1  0.3755162E-013  0.5930193E+02  0.7816164E-02  0.1266605E+00
        -11   -1    0    0    0    0  0.00000000000E+00  0.00000000000E+00  0.45593999997E+02  0.45594000000E+02  0.51100000000E-03 0. -1.
         11   -1    0    0    0    0 -0.00000000000E+00 -0.00000000000E+00 -0.45593999997E+02  0.45594000000E+02  0.51100000000E-03 0.  1.
    9900012    2    1    2    0    0 -0.30157241848E+01  0.10332382281E+00  0.31742968149E+02  0.59301932587E+02  0.49999979135E+02 0.  0.
        -12    1    1    2    0    0  0.30157241848E+01 -0.10332382281E+00 -0.31742968149E+02  0.31886067413E+02  0.00000000000E+00 0.  1.
         11    1    3    3    0    0  0.99147166842E+01 -0.68784548097E+01  0.35474243816E+01  0.12577717102E+02  0.51100000000E-03 0.  1.
        -11    1    3    3    0    0 -0.76856123964E+01  0.20841671613E+02  0.19393632665E+02  0.29488250232E+02  0.51100000000E-03 0. -1.
         12    1    3    3    0    0 -0.52448284726E+01 -0.13859892981E+02  0.88019111022E+01  0.17235965253E+02  0.00000000000E+00 0. -1.
</event>
<event>
 7    1  0.3755162E-013  0.5930194E+02  0.7816164E-02  0.1266605E+00
        -11   -1    0    0    0    0  0.00000000000E+00  0.00000000000E+00  0.45593999997E+02  0.45594000000E+02  0.51100000000E-03 0. -1.
         11   -1    0    0    0    0 -0.00000000000E+00 -0.00000000000E+00 -0.45593999997E+02  0.45594000000E+02  0.51100000000E-03 0.  1.
    9900012    2    1    2    0    0  0.11131600022E+02  0.13562929906E+02  0.26624339064E+02  0.59301936943E+02  0.49999987079E+02 0.  0.
        -12    1    1    2    0    0 -0.11131600022E+02 -0.13562929906E+02 -0.26624339064E+02  0.31886063057E+02  0.00000000000E+00 0.  1.
         11    1    3    3    0    0 -0.49452561758E+00  0.11010776875E+02 -0.44584602126E+01  0.11889475628E+02  0.51100000000E-03 0. -1.
        -11    1    3    3    0    0  0.85473896023E+01 -0.39553666052E+01 -0.49691798136E+01  0.10648734304E+02  0.51100000000E-03 0.  1.
         12    1    3    3    0    0  0.30787360370E+01  0.65075196369E+01  0.36051979090E+02  0.36763727011E+02  0.00000000000E+00 0. -1.
</event>
<event>
 7    1  0.3755162E-013  0.5930207E+02  0.7816164E-02  0.1266604E+00
        -11   -1    0    0    0    0  0.00000000000E+00  0.00000000000E+00  0.45593999997E+02  0.45594000000E+02  0.51100000000E-03 0.  1.
         11   -1    0    0    0    0 -0.00000000000E+00 -0.00000000000E+00 -0.45593999997E+02  0.45594000000E+02  0.51100000000E-03 0. -1.
    9900012    2    1    2    0    0 -0.23248629740E+02 -0.11305308326E+02 -0.18665572671E+02  0.59302072316E+02  0.50000233967E+02 0.  0.
        -12    1    1    2    0    0  0.23248629740E+02  0.11305308326E+02  0.18665572671E+02  0.31885927684E+02  0.00000000000E+00 0.  1.
         11    1    3    3    0    0 -0.12299275787E+02 -0.14308479371E+02  0.15229378270E+01  0.18929450776E+02  0.51100000000E-03 0. -1.
        -11    1    3    3    0    0  0.65137234424E+01 -0.82836537117E+01  0.11234353592E+01  0.10597623279E+02  0.51100000000E-03 0.  1.
         12    1    3    3    0    0 -0.17463077395E+02  0.11286824757E+02 -0.21311945857E+02  0.29774998261E+02  0.00000000000E+00 0. -1.
</event>
<event>
 7    1  0.3755162E-013  0.5930199E+02  0.7816164E-02  0.1266605E+00
        -11   -1    0    0    0    0  0.00000000000E+00  0.00000000000E+00  0.45593999997E+02  0.45594000000E+02  0.51100000000E-03 0. -1.
         11   -1    0    0    0    0 -0.00000000000E+00 -0.00000000000E+00 -0.45593999997E+02  0.45594000000E+02  0.51100000000E-03 0.  1.
    9900012    2    1    2    0    0  0.21811236536E+02  0.79524466916E+01  0.21857400226E+02  0.59301993787E+02  0.50000090748E+02 0.  0.
        -12    1    1    2    0    0 -0.21811236536E+02 -0.79524466916E+01 -0.21857400226E+02  0.31886006213E+02  0.00000000000E+00 0.  1.
         11    1    3    3    0    0  0.20864083265E+02  0.16569212183E+02 -0.47132122312E+01  0.27056665216E+02  0.51100000000E-03 0. -1.
        -11    1    3    3    0    0 -0.36611689925E+01  0.34679772426E+01  0.10231689845E+02  0.11406949719E+02  0.51100000000E-03 0.  1.
        -12    1    3    3    0    0  0.46083222640E+01 -0.12084742734E+02  0.16338922612E+02  0.20838378851E+02  0.00000000000E+00 0.  1.
</event>
<event>
 7    1  0.3755162E-013  0.5930195E+02  0.7816164E-02  0.1266605E+00
        -11   -1    0    0    0    0  0.00000000000E+00  0.00000000000E+00  0.45593999997E+02  0.45594000000E+02  0.51100000000E-03 0.  1.
         11   -1    0    0    0    0 -0.00000000000E+00 -0.00000000000E+00 -0.45593999997E+02  0.45594000000E+02  0.51100000000E-03 0. -1.
    9900012    2    1    2    0    0 -0.87426151128E+01  0.29768133641E+01 -0.30519267760E+02  0.59301945973E+02  0.50000003547E+02 0.  0.
        -12    1    1    2    0    0  0.87426151128E+01 -0.29768133641E+01  0.30519267760E+02  0.31886054027E+02  0.00000000000E+00 0.  1.
         11    1    3    3    0    0  0.71235998072E+01  0.15541967943E+02 -0.26080822433E+02  0.31185056370E+02  0.51100000000E-03 0. -1.
        -11    1    3    3    0    0 -0.31866410424E+01  0.49111024064E+01  0.77360220473E+00  0.59052577091E+01  0.51100000000E-03 0.  1.
        -12    1    3    3    0    0 -0.12679573878E+02 -0.17476256985E+02 -0.52120475321E+01  0.22211631894E+02  0.00000000000E+00 0.  1.
</event>
<event>
 7    1  0.3755162E-013  0.5930192E+02  0.7816164E-02  0.1266605E+00
        -11   -1    0    0    0    0  0.00000000000E+00  0.00000000000E+00  0.45593999997E+02  0.45594000000E+02  0.51100000000E-03 0. -1.
         11   -1    0    0    0    0 -0.00000000000E+00 -0.00000000000E+00 -0.45593999997E+02  0.45594000000E+02  0.51100000000E-03 0.  1.
    9900012    2    1    2    0    0  0.30618987546E+02 -0.87228703379E+01 -0.17637994394E+01  0.59301923827E+02  0.49999963159E+02 0.  0.
        -12    1    1    2    0    0 -0.30618987546E+02  0.87228703379E+01  0.17637994394E+01  0.31886076173E+02  0.00000000000E+00 0.  1.
         11    1    3    3    0    0  0.16299009147E+02  0.26408685505E+01 -0.20650540504E+02  0.26440058798E+02  0.51100000000E-03 0. -1.
        -11    1    3    3    0    0  0.11744343539E+01 -0.10101433127E+02  0.44481722541E+00  0.10179199865E+02  0.51100000000E-03 0.  1.
        -12    1    3    3    0    0  0.13145544045E+02 -0.12623057616E+01  0.18441923839E+02  0.22682665164E+02  0.00000000000E+00 0.  1.
</event>
<event>
 7    1  0.3755162E-013  0.5930193E+02  0.7816164E-02  0.1266605E+00
        -11   -1    0    0    0    0  0.00000000000E+00  0.00000000000E+00  0.45593999997E+02  0.45594000000E+02  0.51100000000E-03 0.  1.
         11   -1    0    0    0    0 -0.00000000000E+00 -0.00000000000E+00 -0.45593999997E+02  0.45594000000E+02  0.51100000000E-03 0. -1.
    9900012    2    1    2    0    0  0.15044939656E+02  0.27782584003E+02 -0.43011098752E+01  0.59301925778E+02  0.49999966717E+02 0.  0.
        -12    1    1    2    0    0 -0.15044939656E+02 -0.27782584003E+02  0.43011098752E+01  0.31886074222E+02  0.00000000000E+00 0.  1.
         11    1    3    3    0    0 -0.10027061217E+02  0.17158706086E+02  0.37062829570E+01  0.20216322238E+02  0.51100000000E-03 0. -1.
        -11    1    3    3    0    0  0.98932421132E+01  0.10451732683E+02 -0.16336064122E+02  0.21771126449E+02  0.51100000000E-03 0.  1.
        -12    1    3    3    0    0  0.15178758760E+02  0.17214523355E+00  0.83286712899E+01  0.17314477091E+02  0.00000000000E+00 0.  1.
</event>
<event>
 7    1  0.3755162E-013  0.5930220E+02  0.7816164E-02  0.1266604E+00
        -11   -1    0    0    0    0  0.00000000000E+00  0.00000000000E+00  0.45593999997E+02  0.45594000000E+02  0.51100000000E-03 0.  1.
         11   -1    0    0    0    0 -0.00000000000E+00 -0.00000000000E+00 -0.45593999997E+02  0.45594000000E+02  0.51100000000E-03 0. -1.
    9900012    2    1    2    0    0  0.22687054043E+01 -0.19946245049E+02 -0.24773060939E+02  0.59302199649E+02  0.50000466190E+02 0.  0.
        -12    1    1    2    0    0 -0.22687054043E+01  0.19946245049E+02  0.24773060939E+02  0.31885800351E+02  0.00000000000E+00 0.  1.
         11    1    3    3    0    0  0.89873943113E+01 -0.19216304696E+01 -0.18280572038E+01  0.93705770137E+01  0.51100000000E-03 0. -1.
        -11    1    3    3    0    0 -0.47727935782E+01  0.12696845760E+02 -0.70726529652E+01  0.15297446552E+02  0.51100000000E-03 0.  1.
        -12    1    3    3    0    0 -0.19458953288E+01 -0.30721460339E+02 -0.15872350770E+02  0.34634176083E+02  0.00000000000E+00 0.  1.
</event>
<event>
 7    1  0.3755162E-013  0.5930193E+02  0.7816164E-02  0.1266605E+00
        -11   -1    0    0    0    0  0.00000000000E+00  0.00000000000E+00  0.45593999997E+02  0.45594000000E+02  0.51100000000E-03 0. -1.
         11   -1    0    0    0    0 -0.00000000000E+00 -0.00000000000E+00 -0.45593999997E+02  0.45594000000E+02  0.51100000000E-03 0.  1.
    9900012    2    1    2    0    0 -0.20156957070E+02 -0.23127999998E+02  0.86898872623E+01  0.59301930270E+02  0.49999974909E+02 0.  0.
        -12    1    1    2    0    0  0.20156957070E+02  0.23127999998E+02 -0.86898872623E+01  0.31886069730E+02  0.00000000000E+00 0.  1.
         11    1    3    3    0    0 -0.28483591548E+02 -0.72797817140E+01  0.82889272404E+01  0.30545319189E+02  0.51100000000E-03 0. -1.
        -11    1    3    3    0    0 -0.41106207272E+01 -0.63314525548E+01  0.82977357686E+01  0.11217705352E+02  0.51100000000E-03 0.  1.
        -12    1    3    3    0    0  0.12437255205E+02 -0.95167657289E+01 -0.78967757467E+01  0.17538905729E+02  0.00000000000E+00 0.  1.
</event>
<event>
 7    1  0.3755162E-013  0.5930197E+02  0.7816164E-02  0.1266605E+00
        -11   -1    0    0    0    0  0.00000000000E+00  0.00000000000E+00  0.45593999997E+02  0.45594000000E+02  0.51100000000E-03 0.  1.
         11   -1    0    0    0    0 -0.00000000000E+00 -0.00000000000E+00 -0.45593999997E+02  0.45594000000E+02  0.51100000000E-03 0. -1.
    9900012    2    1    2    0    0 -0.85538844684E+01 -0.30692702499E+02 -0.12279594099E+01  0.59301971547E+02  0.50000050188E+02 0.  0.
        -12    1    1    2    0    0  0.85538844684E+01  0.30692702499E+02  0.12279594099E+01  0.31886028453E+02  0.00000000000E+00 0.  1.
         11    1    3    3    0    0  0.14226529756E+01 -0.10620635501E+02 -0.22096953580E+01  0.10940959454E+02  0.51100000000E-03 0. -1.
        -11    1    3    3    0    0  0.55562687920E+01 -0.17389100913E+02  0.17669275265E+02  0.25405830869E+02  0.51100000000E-03 0.  1.
         12    1    3    3    0    0 -0.15532806236E+02 -0.26829660848E+01 -0.16687539317E+02  0.22955181224E+02  0.00000000000E+00 0. -1.
</event>
<event>
 7    1  0.3755162E-013  0.5930198E+02  0.7816164E-02  0.1266605E+00
        -11   -1    0    0    0    0  0.00000000000E+00  0.00000000000E+00  0.45593999997E+02  0.45594000000E+02  0.51100000000E-03 0.  1.
         11   -1    0    0    0    0 -0.00000000000E+00 -0.00000000000E+00 -0.45593999997E+02  0.45594000000E+02  0.51100000000E-03 0. -1.
    9900012    2    1    2    0    0 -0.26665856255E+02  0.86582685211E+01 -0.15188315636E+02  0.59301977428E+02  0.50000060914E+02 0.  0.
        -12    1    1    2    0    0  0.26665856255E+02 -0.86582685211E+01  0.15188315636E+02  0.31886022572E+02  0.00000000000E+00 0.  1.
         11    1    3    3    0    0  0.83998781258E+01 -0.75815052262E+01 -0.24996169941E+00  0.11318111818E+02  0.51100000000E-03 0. -1.
        -11    1    3    3    0    0 -0.10919187307E+01  0.10807045208E+02 -0.61149557767E+01  0.12465038991E+02  0.51100000000E-03 0.  1.
         12    1    3    3    0    0 -0.33973815650E+02  0.54327285396E+01 -0.88233981599E+01  0.35518826618E+02  0.00000000000E+00 0. -1.
</event>
<event>
 7    1  0.3755162E-013  0.5930192E+02  0.7816164E-02  0.1266605E+00
        -11   -1    0    0    0    0  0.00000000000E+00  0.00000000000E+00  0.45593999997E+02  0.45594000000E+02  0.51100000000E-03 0. -1.
         11   -1    0    0    0    0 -0.00000000000E+00 -0.00000000000E+00 -0.45593999997E+02  0.45594000000E+02  0.51100000000E-03 0.  1.
    9900012    2    1    2    0    0  0.18350046805E+02  0.77592247453E+01  0.24895629027E+02  0.59301919478E+02  0.49999955228E+02 0.  0.
        -12    1    1    2    0    0 -0.18350046805E+02 -0.77592247453E+01 -0.24895629027E+02  0.31886080522E+02  0.00000000000E+00 0.  1.
         11    1    3    3    0    0  0.12737496629E+02 -0.28495530665E+00 -0.84563486907E+01  0.15291659601E+02  0.51100000000E-03 0. -1.
        -11    1    3    3    0    0  0.17211511266E+01 -0.99241870074E+01  0.90762861604E+01  0.13558422463E+02  0.51100000000E-03 0.  1.
        -12    1    3    3    0    0  0.38913990488E+01  0.17968367059E+02  0.24275691557E+02  0.30451837414E+02  0.00000000000E+00 0.  1.
</event>
<event>
 7    1  0.3755162E-013  0.5930176E+02  0.7816164E-02  0.1266605E+00
        -11   -1    0    0    0    0  0.00000000000E+00  0.00000000000E+00  0.45593999997E+02  0.45594000000E+02  0.51100000000E-03 0. -1.
         11   -1    0    0    0    0 -0.00000000000E+00 -0.00000000000E+00 -0.45593999997E+02  0.45594000000E+02  0.51100000000E-03 0.  1.
    9900012    2    1    2    0    0 -0.21982662524E+02 -0.16338260855E+02  0.16326546455E+02  0.59301759416E+02  0.49999663312E+02 0.  0.
        -12    1    1    2    0    0  0.21982662524E+02  0.16338260855E+02 -0.16326546455E+02  0.31886240584E+02  0.00000000000E+00 0.  1.
         11    1    3    3    0    0 -0.73755625835E+01 -0.11583883775E+02  0.27722265826E+01  0.14009658355E+02  0.51100000000E-03 0. -1.
        -11    1    3    3    0    0 -0.11539100959E+01  0.14365449153E+02 -0.51996079632E+01  0.15321016974E+02  0.51100000000E-03 0.  1.
         12    1    3    3    0    0 -0.13453189845E+02 -0.19119826233E+02  0.18753927835E+02  0.29971084088E+02  0.00000000000E+00 0. -1.
</event>
<event>
 7    1  0.3755162E-013  0.5930195E+02  0.7816164E-02  0.1266605E+00
        -11   -1    0    0    0    0  0.00000000000E+00  0.00000000000E+00  0.45593999997E+02  0.45594000000E+02  0.51100000000E-03 0.  1.
         11   -1    0    0    0    0 -0.00000000000E+00 -0.00000000000E+00 -0.45593999997E+02  0.45594000000E+02  0.51100000000E-03 0. -1.
    9900012    2    1    2    0    0  0.15128584602E+02 -0.16150325008E+02 -0.22956764399E+02  0.59301951301E+02  0.50000013266E+02 0.  0.
        -12    1    1    2    0    0 -0.15128584602E+02  0.16150325008E+02  0.22956764399E+02  0.31886048699E+02  0.00000000000E+00 0.  1.
         11    1    3    3    0    0  0.15220762200E+02 -0.15876319369E+01 -0.87904015044E+01  0.17648323886E+02  0.51100000000E-03 0. -1.
        -11    1    3    3    0    0  0.13046949687E+02 -0.89894733783E+00 -0.18063849196E+02  0.22300978690E+02  0.51100000000E-03 0.  1.
        -12    1    3    3    0    0 -0.13139127284E+02 -0.13663745733E+02  0.38974863018E+01  0.19352648726E+02  0.00000000000E+00 0.  1.
</event>
<event>
 7    1  0.3755162E-013  0.5930187E+02  0.7816164E-02  0.1266605E+00
        -11   -1    0    0    0    0  0.00000000000E+00  0.00000000000E+00  0.45593999997E+02  0.45594000000E+02  0.51100000000E-03 0.  1.
         11   -1    0    0    0    0 -0.00000000000E+00 -0.00000000000E+00 -0.45593999997E+02  0.45594000000E+02  0.51100000000E-03 0. -1.
    9900012    2    1    2    0    0  0.10343710533E+02  0.97590112084E+01 -0.28539352160E+02  0.59301870272E+02  0.49999865486E+02 0.  0.
        -12    1    1    2    0    0 -0.10343710533E+02 -0.97590112084E+01  0.28539352160E+02  0.31886129728E+02  0.00000000000E+00 0.  1.
         11    1    3    3    0    0  0.83316591618E+01  0.51195007958E+00  0.10836847255E+01  0.84174230093E+01  0.51100000000E-03 0. -1.
        -11    1    3    3    0    0  0.14481544628E+02 -0.10427241281E+02 -0.15554833022E+02  0.23672670448E+02  0.51100000000E-03 0.  1.
         12    1    3    3    0    0 -0.12469493258E+02  0.19674302410E+02 -0.14068203864E+02  0.27211776814E+02  0.00000000000E+00 0. -1.
</event>
<event>
 7    1  0.3755162E-013  0.5930193E+02  0.7816164E-02  0.1266605E+00
        -11   -1    0    0    0    0  0.00000000000E+00  0.00000000000E+00  0.45593999997E+02  0.45594000000E+02  0.51100000000E-03 0.  1.
         11   -1    0    0    0    0 -0.00000000000E+00 -0.00000000000E+00 -0.45593999997E+02  0.45594000000E+02  0.51100000000E-03 0. -1.
    9900012    2    1    2    0    0 -0.26310202025E+02 -0.18003063159E+02  0.61983808758E+00  0.59301933875E+02  0.49999981484E+02 0.  0.
        -12    1    1    2    0    0  0.26310202025E+02  0.18003063159E+02 -0.61983808758E+00  0.31886066125E+02  0.00000000000E+00 0.  1.
         11    1    3    3    0    0 -0.18617644152E+02  0.35912045783E+00  0.56095580223E+01  0.19447693507E+02  0.51100000000E-03 0. -1.
        -11    1    3    3    0    0 -0.17076615743E+02 -0.95488058018E+01  0.83887683273E+01  0.21287600424E+02  0.51100000000E-03 0.  1.
         12    1    3    3    0    0  0.93840578713E+01 -0.88133778146E+01 -0.13378488262E+02  0.18566639944E+02  0.00000000000E+00 0. -1.
</event>
<event>
 7    1  0.3755162E-013  0.5930194E+02  0.7816164E-02  0.1266605E+00
        -11   -1    0    0    0    0  0.00000000000E+00  0.00000000000E+00  0.45593999997E+02  0.45594000000E+02  0.51100000000E-03 0. -1.
         11   -1    0    0    0    0 -0.00000000000E+00 -0.00000000000E+00 -0.45593999997E+02  0.45594000000E+02  0.51100000000E-03 0.  1.
    9900012    2    1    2    0    0 -0.12849798351E+02 -0.28968950203E+02  0.35218284708E+01  0.59301942400E+02  0.49999997031E+02 0.  0.
        -12    1    1    2    0    0  0.12849798351E+02  0.28968950203E+02 -0.35218284708E+01  0.31886057600E+02  0.00000000000E+00 0.  1.
         11    1    3    3    0    0 -0.14292983548E+02 -0.79275442969E+01  0.12980959621E+02  0.20872006378E+02  0.51100000000E-03 0. -1.
        -11    1    3    3    0    0  0.29865208229E+01  0.41663443399E+01  0.67087564802E+01  0.84430530945E+01  0.51100000000E-03 0.  1.
        -12    1    3    3    0    0 -0.15433356257E+01 -0.25207750246E+02 -0.16167887631E+02  0.29986882928E+02  0.00000000000E+00 0.  1.
</event>
<event>
 7    1  0.3755162E-013  0.5930194E+02  0.7816164E-02  0.1266605E+00
        -11   -1    0    0    0    0  0.00000000000E+00  0.00000000000E+00  0.45593999997E+02  0.45594000000E+02  0.51100000000E-03 0. -1.
         11   -1    0    0    0    0 -0.00000000000E+00 -0.00000000000E+00 -0.45593999997E+02  0.45594000000E+02  0.51100000000E-03 0.  1.
    9900012    2    1    2    0    0 -0.22555060508E+02 -0.21263929668E+02 -0.74723193690E+01  0.59301936960E+02  0.49999987111E+02 0.  0.
        -12    1    1    2    0    0  0.22555060508E+02  0.21263929668E+02  0.74723193690E+01  0.31886063040E+02  0.00000000000E+00 0.  1.
         11    1    3    3    0    0 -0.88315808925E+01 -0.20721910258E+02 -0.74560372479E+01  0.23727344510E+02  0.51100000000E-03 0. -1.
        -11    1    3    3    0    0  0.77894643512E+01  0.36898896605E-01 -0.93047910569E+01  0.12134918759E+02  0.51100000000E-03 0.  1.
         12    1    3    3    0    0 -0.21512943966E+02 -0.57891830653E+00  0.92885089359E+01  0.23439673691E+02  0.00000000000E+00 0. -1.
</event>
<event>
 7    1  0.3755162E-013  0.5930191E+02  0.7816164E-02  0.1266605E+00
        -11   -1    0    0    0    0  0.00000000000E+00  0.00000000000E+00  0.45593999997E+02  0.45594000000E+02  0.51100000000E-03 0. -1.
         11   -1    0    0    0    0 -0.00000000000E+00 -0.00000000000E+00 -0.45593999997E+02  0.45594000000E+02  0.51100000000E-03 0.  1.
    9900012    2    1    2    0    0  0.19775370548E+02  0.33854354914E+01 -0.24782989306E+02  0.59301905653E+02  0.49999930014E+02 0.  0.
        -12    1    1    2    0    0 -0.19775370548E+02 -0.33854354914E+01  0.24782989306E+02  0.31886094347E+02  0.00000000000E+00 0.  1.
         11    1    3    3    0    0  0.73269339159E+01  0.68691720790E+01  0.25842861949E+01  0.10370536199E+02  0.51100000000E-03 0. -1.
        -11    1    3    3    0    0 -0.58936774878E+01 -0.10649875343E+02  0.31858713754E+01  0.12581933708E+02  0.51100000000E-03 0.  1.
         12    1    3    3    0    0  0.18342114120E+02  0.71661387550E+01 -0.30553146876E+02  0.36349435746E+02  0.00000000000E+00 0. -1.
</event>
<event>
 7    1  0.3755162E-013  0.5930196E+02  0.7816164E-02  0.1266605E+00
        -11   -1    0    0    0    0  0.00000000000E+00  0.00000000000E+00  0.45593999997E+02  0.45594000000E+02  0.51100000000E-03 0.  1.
         11   -1    0    0    0    0 -0.00000000000E+00 -0.00000000000E+00 -0.45593999997E+02  0.45594000000E+02  0.51100000000E-03 0. -1.
    9900012    2    1    2    0    0 -0.40231474542E+01 -0.17534448311E+02 -0.26326358251E+02  0.59301957101E+02  0.50000023842E+02 0.  0.
        -12    1    1    2    0    0  0.40231474542E+01  0.17534448311E+02  0.26326358251E+02  0.31886042899E+02  0.00000000000E+00 0.  1.
         11    1    3    3    0    0 -0.67021194572E+01 -0.67870452058E+01 -0.34171867812E+02  0.35478147329E+02  0.51100000000E-03 0. -1.
        -11    1    3    3    0    0 -0.22982779750E+01  0.51556742984E+01  0.68289429254E+00  0.56858951799E+01  0.51100000000E-03 0.  1.
        -12    1    3    3    0    0  0.49772499780E+01 -0.15903077404E+02  0.71626152687E+01  0.18137914592E+02  0.00000000000E+00 0.  1.
</event>
<event>
 7    1  0.3755162E-013  0.5930194E+02  0.7816164E-02  0.1266605E+00
        -11   -1    0    0    0    0  0.00000000000E+00  0.00000000000E+00  0.45593999997E+02  0.45594000000E+02  0.51100000000E-03 0. -1.
         11   -1    0    0    0    0 -0.00000000000E+00 -0.00000000000E+00 -0.45593999997E+02  0.45594000000E+02  0.51100000000E-03 0.  1.
    9900012    2    1    2    0    0 -0.70587218110E+01  0.21569995534E+02  0.22397108889E+02  0.59301941173E+02  0.49999994793E+02 0.  0.
        -12    1    1    2    0    0  0.70587218110E+01 -0.21569995534E+02 -0.22397108889E+02  0.31886058827E+02  0.00000000000E+00 0.  1.
         11    1    3    3    0    0  0.13943771945E+02  0.20909525910E+02  0.27064594236E+02  0.36934121233E+02  0.51100000000E-03 0. -1.
        -11    1    3    3    0    0 -0.94985315962E+01  0.33232802241E+01 -0.23656203163E+01  0.10337429742E+02  0.51100000000E-03 0.  1.
        -12    1    3    3    0    0 -0.11503962160E+02 -0.26628106003E+01 -0.23018650308E+01  0.12030390197E+02  0.00000000000E+00 0.  1.
</event>
<event>
 7    1  0.3755162E-013  0.5930186E+02  0.7816164E-02  0.1266605E+00
        -11   -1    0    0    0    0  0.00000000000E+00  0.00000000000E+00  0.45593999997E+02  0.45594000000E+02  0.51100000000E-03 0.  1.
         11   -1    0    0    0    0 -0.00000000000E+00 -0.00000000000E+00 -0.45593999997E+02  0.45594000000E+02  0.51100000000E-03 0. -1.
    9900012    2    1    2    0    0  0.19136106359E+01  0.31784603361E+02 -0.16741890994E+01  0.59301861544E+02  0.49999849570E+02 0.  0.
        -12    1    1    2    0    0 -0.19136106359E+01 -0.31784603361E+02  0.16741890994E+01  0.31886138456E+02  0.00000000000E+00 0.  1.
         11    1    3    3    0    0  0.69220385286E+01  0.78786452796E+01  0.18127928497E+02  0.20943005054E+02  0.51100000000E-03 0.  1.
        -11    1    3    3    0    0  0.43369699088E+01  0.51441395795E+01  0.30172220278E+01  0.73739479947E+01  0.51100000000E-03 0. -1.
         12    1    3    3    0    0 -0.93453978014E+01  0.18761818502E+02 -0.22819339624E+02  0.30984908495E+02  0.00000000000E+00 0. -1.
</event>
<event>
 7    1  0.3755162E-013  0.5930195E+02  0.7816164E-02  0.1266605E+00
        -11   -1    0    0    0    0  0.00000000000E+00  0.00000000000E+00  0.45593999997E+02  0.45594000000E+02  0.51100000000E-03 0.  1.
         11   -1    0    0    0    0 -0.00000000000E+00 -0.00000000000E+00 -0.45593999997E+02  0.45594000000E+02  0.51100000000E-03 0. -1.
    9900012    2    1    2    0    0  0.19188632133E+01  0.29472497086E+02 -0.12017080525E+02  0.59301947487E+02  0.50000006310E+02 0.  0.
        -12    1    1    2    0    0 -0.19188632133E+01 -0.29472497086E+02  0.12017080525E+02  0.31886052513E+02  0.00000000000E+00 0.  1.
         11    1    3    3    0    0  0.64863959902E-01  0.38335657296E+01 -0.62186336621E+01  0.73056032209E+01  0.51100000000E-03 0. -1.
        -11    1    3    3    0    0 -0.20913162848E+02  0.75599916102E+01 -0.55641814831E+01  0.22923219000E+02  0.51100000000E-03 0.  1.
         12    1    3    3    0    0  0.22767162102E+02  0.18078939746E+02 -0.23426537956E+00  0.29073125267E+02  0.00000000000E+00 0. -1.
</event>
<event>
 7    1  0.3755162E-013  0.5930192E+02  0.7816164E-02  0.1266605E+00
        -11   -1    0    0    0    0  0.00000000000E+00  0.00000000000E+00  0.45593999997E+02  0.45594000000E+02  0.51100000000E-03 0.  1.
         11   -1    0    0    0    0 -0.00000000000E+00 -0.00000000000E+00 -0.45593999997E+02  0.45594000000E+02  0.51100000000E-03 0. -1.
    9900012    2    1    2    0    0 -0.16329871606E+02 -0.25936086596E+02 -0.87964064681E+01  0.59301920572E+02  0.49999957222E+02 0.  0.
        -12    1    1    2    0    0  0.16329871606E+02  0.25936086596E+02  0.87964064681E+01  0.31886079428E+02  0.00000000000E+00 0.  1.
         11    1    3    3    0    0 -0.82485856923E+01  0.51908829670E+01 -0.99801647175E+01  0.13949484577E+02  0.51100000000E-03 0. -1.
        -11    1    3    3    0    0  0.21838540683E+01 -0.21672776349E+02 -0.13071276886E+02  0.25403478757E+02  0.51100000000E-03 0.  1.
        -12    1    3    3    0    0 -0.10265139982E+02 -0.94541932137E+01  0.14255035136E+02  0.19948957238E+02  0.00000000000E+00 0.  1.
</event>
<event>
 7    1  0.3755162E-013  0.5930196E+02  0.7816164E-02  0.1266605E+00
        -11   -1    0    0    0    0  0.00000000000E+00  0.00000000000E+00  0.45593999997E+02  0.45594000000E+02  0.51100000000E-03 0. -1.
         11   -1    0    0    0    0 -0.00000000000E+00 -0.00000000000E+00 -0.45593999997E+02  0.45594000000E+02  0.51100000000E-03 0.  1.
    9900012    2    1    2    0    0  0.24374001379E+02  0.88917867078E+01  0.18535478131E+02  0.59301956601E+02  0.50000022931E+02 0.  0.
        -12    1    1    2    0    0 -0.24374001379E+02 -0.88917867078E+01 -0.18535478131E+02  0.31886043399E+02  0.00000000000E+00 0.  1.
         11    1    3    3    0    0  0.18941530894E+02 -0.91068250471E+01  0.14166634140E+02  0.25345796065E+02  0.51100000000E-03 0.  1.
        -11    1    3    3    0    0  0.13364097336E+02  0.33710977348E+00 -0.21232439309E+01  0.13535911704E+02  0.51100000000E-03 0. -1.
        -12    1    3    3    0    0 -0.79316268520E+01  0.17661501981E+02  0.64920879225E+01  0.20420248832E+02  0.00000000000E+00 0.  1.
</event>
<event>
 7    1  0.3755162E-013  0.5930198E+02  0.7816164E-02  0.1266605E+00
        -11   -1    0    0    0    0  0.00000000000E+00  0.00000000000E+00  0.45593999997E+02  0.45594000000E+02  0.51100000000E-03 0.  1.
         11   -1    0    0    0    0 -0.00000000000E+00 -0.00000000000E+00 -0.45593999997E+02  0.45594000000E+02  0.51100000000E-03 0. -1.
    9900012    2    1    2    0    0 -0.13222002770E+02  0.13708984497E+02 -0.25572657538E+02  0.59301977565E+02  0.50000061163E+02 0.  0.
        -12    1    1    2    0    0  0.13222002770E+02 -0.13708984497E+02  0.25572657538E+02  0.31886022435E+02  0.00000000000E+00 0.  1.
         11    1    3    3    0    0 -0.56652489225E+01 -0.22834245162E+01 -0.12886416772E+02  0.14260743682E+02  0.51100000000E-03 0. -1.
        -11    1    3    3    0    0  0.75367516678E+01  0.14008835221E+02 -0.22034617622E+02  0.27176726513E+02  0.51100000000E-03 0.  1.
        -12    1    3    3    0    0 -0.15093505515E+02  0.19835737923E+01  0.93483768562E+01  0.17864507370E+02  0.00000000000E+00 0.  1.
</event>
<event>
 7    1  0.3755162E-013  0.5930199E+02  0.7816164E-02  0.1266605E+00
        -11   -1    0    0    0    0  0.00000000000E+00  0.00000000000E+00  0.45593999997E+02  0.45594000000E+02  0.51100000000E-03 0.  1.
         11   -1    0    0    0    0 -0.00000000000E+00 -0.00000000000E+00 -0.45593999997E+02  0.45594000000E+02  0.51100000000E-03 0. -1.
    9900012    2    1    2    0    0 -0.19824471219E+01 -0.19099613232E+02 -0.25455693644E+02  0.59301989571E+02  0.50000083060E+02 0.  0.
        -12    1    1    2    0    0  0.19824471219E+01  0.19099613232E+02  0.25455693644E+02  0.31886010429E+02  0.00000000000E+00 0.  1.
         11    1    3    3    0    0 -0.11105187694E+00 -0.87939903499E+01 -0.27728399903E+02  0.29089701962E+02  0.51100000000E-03 0. -1.
        -11    1    3    3    0    0 -0.23075362512E+01  0.15703096857E+01 -0.11608258111E+02  0.11939106026E+02  0.51100000000E-03 0.  1.
        -12    1    3    3    0    0  0.43614100622E+00 -0.11875932567E+02  0.13880964371E+02  0.18273181583E+02  0.00000000000E+00 0.  1.
</event>
<event>
 7    1  0.3755162E-013  0.5930194E+02  0.7816164E-02  0.1266605E+00
        -11   -1    0    0    0    0  0.00000000000E+00  0.00000000000E+00  0.45593999997E+02  0.45594000000E+02  0.51100000000E-03 0. -1.
         11   -1    0    0    0    0 -0.00000000000E+00 -0.00000000000E+00 -0.45593999997E+02  0.45594000000E+02  0.51100000000E-03 0.  1.
    9900012    2    1    2    0    0 -0.25853005775E+02  0.38464424068E+01  0.18263284506E+02  0.59301943678E+02  0.49999999363E+02 0.  0.
        -12    1    1    2    0    0  0.25853005775E+02 -0.38464424068E+01 -0.18263284506E+02  0.31886056322E+02  0.00000000000E+00 0.  1.
         11    1    3    3    0    0 -0.34732321377E+00 -0.40128402938E+01  0.25291734187E+02  0.25610453707E+02  0.51100000000E-03 0. -1.
        -11    1    3    3    0    0  0.76742572352E+00 -0.37279154637E+01 -0.26666819909E+01  0.46473098721E+01  0.51100000000E-03 0.  1.
        -12    1    3    3    0    0 -0.26273108285E+02  0.11587198164E+02 -0.43617676903E+01  0.29044180099E+02  0.00000000000E+00 0.  1.
</event>
<event>
 7    1  0.3755162E-013  0.5930197E+02  0.7816164E-02  0.1266605E+00
        -11   -1    0    0    0    0  0.00000000000E+00  0.00000000000E+00  0.45593999997E+02  0.45594000000E+02  0.51100000000E-03 0. -1.
         11   -1    0    0    0    0 -0.00000000000E+00 -0.00000000000E+00 -0.45593999997E+02  0.45594000000E+02  0.51100000000E-03 0.  1.
    9900012    2    1    2    0    0  0.14854925432E+02  0.28045215423E+02 -0.30848310761E+01  0.59301967000E+02  0.50000041897E+02 0.  0.
        -12    1    1    2    0    0 -0.14854925432E+02 -0.28045215423E+02  0.30848310761E+01  0.31886033000E+02  0.00000000000E+00 0.  1.
         11    1    3    3    0    0 -0.69278593399E+01  0.38888494017E+01 -0.67131247127E+01  0.10401174375E+02  0.51100000000E-03 0. -1.
        -11    1    3    3    0    0  0.10194942666E+02  0.19712217037E+02 -0.14805873214E+02  0.26678122842E+02  0.51100000000E-03 0.  1.
         12    1    3    3    0    0  0.11587842106E+02  0.44441489841E+01  0.18434166851E+02  0.22222669784E+02  0.00000000000E+00 0. -1.
</event>
<event>
 7    1  0.3755162E-013  0.5930195E+02  0.7816164E-02  0.1266605E+00
        -11   -1    0    0    0    0  0.00000000000E+00  0.00000000000E+00  0.45593999997E+02  0.45594000000E+02  0.51100000000E-03 0. -1.
         11   -1    0    0    0    0 -0.00000000000E+00 -0.00000000000E+00 -0.45593999997E+02  0.45594000000E+02  0.51100000000E-03 0.  1.
    9900012    2    1    2    0    0 -0.17729370853E+02 -0.23158686926E+02 -0.12886602039E+02  0.59301954728E+02  0.50000019514E+02 0.  0.
        -12    1    1    2    0    0  0.17729370853E+02  0.23158686926E+02  0.12886602039E+02  0.31886045272E+02  0.00000000000E+00 0.  1.
         11    1    3    3    0    0  0.96356275646E+00  0.26913378252E+01 -0.26442510184E+01  0.38940744965E+01  0.51100000000E-03 0. -1.
        -11    1    3    3    0    0  0.70932764657E+01  0.84459473073E+01 -0.52330791747E+01  0.12207936552E+02  0.51100000000E-03 0.  1.
         12    1    3    3    0    0 -0.25786210076E+02 -0.34295972059E+02 -0.50092718457E+01  0.43199943680E+02  0.00000000000E+00 0. -1.
</event>
<event>
 7    1  0.3755162E-013  0.5930193E+02  0.7816164E-02  0.1266605E+00
        -11   -1    0    0    0    0  0.00000000000E+00  0.00000000000E+00  0.45593999997E+02  0.45594000000E+02  0.51100000000E-03 0. -1.
         11   -1    0    0    0    0 -0.00000000000E+00 -0.00000000000E+00 -0.45593999997E+02  0.45594000000E+02  0.51100000000E-03 0.  1.
    9900012    2    1    2    0    0  0.20039953628E+02  0.15048234618E+02  0.19714767352E+02  0.59301934733E+02  0.49999983048E+02 0.  0.
        -12    1    1    2    0    0 -0.20039953628E+02 -0.15048234618E+02 -0.19714767352E+02  0.31886065267E+02  0.00000000000E+00 0.  1.
         11    1    3    3    0    0 -0.16501814061E+01 -0.11486872590E+02  0.29047465000E+01  0.11962812925E+02  0.51100000000E-03 0. -1.
        -11    1    3    3    0    0  0.87044294598E+01  0.93439392990E+01 -0.75370261498E+01  0.14828454312E+02  0.51100000000E-03 0.  1.
         12    1    3    3    0    0  0.12985705574E+02  0.17191167909E+02  0.24347047002E+02  0.32510667496E+02  0.00000000000E+00 0. -1.
</event>
<event>
 7    1  0.3755162E-013  0.5930192E+02  0.7816164E-02  0.1266605E+00
        -11   -1    0    0    0    0  0.00000000000E+00  0.00000000000E+00  0.45593999997E+02  0.45594000000E+02  0.51100000000E-03 0. -1.
         11   -1    0    0    0    0 -0.00000000000E+00 -0.00000000000E+00 -0.45593999997E+02  0.45594000000E+02  0.51100000000E-03 0.  1.
    9900012    2    1    2    0    0 -0.22179751373E+02  0.10299317758E+02  0.20462279744E+02  0.59301918247E+02  0.49999952982E+02 0.  0.
        -12    1    1    2    0    0  0.22179751373E+02 -0.10299317758E+02 -0.20462279744E+02  0.31886081753E+02  0.00000000000E+00 0.  1.
         11    1    3    3    0    0 -0.74823291124E+01  0.93379020413E+01  0.23011763394E+02  0.25936902633E+02  0.51100000000E-03 0. -1.
        -11    1    3    3    0    0 -0.17219120111E+02  0.11968619176E+02  0.22591264999E+01  0.21091457872E+02  0.51100000000E-03 0.  1.
         12    1    3    3    0    0  0.25216978497E+01 -0.11007203460E+02 -0.48086101497E+01  0.12273557741E+02  0.00000000000E+00 0. -1.
</event>
<event>
 7    1  0.3755162E-013  0.5930194E+02  0.7816164E-02  0.1266605E+00
        -11   -1    0    0    0    0  0.00000000000E+00  0.00000000000E+00  0.45593999997E+02  0.45594000000E+02  0.51100000000E-03 0. -1.
         11   -1    0    0    0    0 -0.00000000000E+00 -0.00000000000E+00 -0.45593999997E+02  0.45594000000E+02  0.51100000000E-03 0.  1.
    9900012    2    1    2    0    0 -0.17593998471E+02 -0.77300232697E+01  0.25444430540E+02  0.59301935842E+02  0.49999985072E+02 0.  0.
        -12    1    1    2    0    0  0.17593998471E+02  0.77300232697E+01 -0.25444430540E+02  0.31886064158E+02  0.00000000000E+00 0.  1.
         11    1    3    3    0    0 -0.18136077274E+02 -0.55951344764E+00  0.22243286020E+02  0.28705297898E+02  0.51100000000E-03 0. -1.
        -11    1    3    3    0    0  0.10786243781E+02  0.22140774389E+01  0.10227302340E+02  0.15028070642E+02  0.51100000000E-03 0.  1.
        -12    1    3    3    0    0 -0.10244164978E+02 -0.93845872609E+01 -0.70261578192E+01  0.15568567303E+02  0.00000000000E+00 0.  1.
</event>
<event>
 7    1  0.3755162E-013  0.5930194E+02  0.7816164E-02  0.1266605E+00
        -11   -1    0    0    0    0  0.00000000000E+00  0.00000000000E+00  0.45593999997E+02  0.45594000000E+02  0.51100000000E-03 0.  1.
         11   -1    0    0    0    0 -0.00000000000E+00 -0.00000000000E+00 -0.45593999997E+02  0.45594000000E+02  0.51100000000E-03 0. -1.
    9900012    2    1    2    0    0 -0.40643150423E+01  0.31567709346E+02  0.19188161523E+01  0.59301940577E+02  0.49999993706E+02 0.  0.
        -12    1    1    2    0    0  0.40643150423E+01 -0.31567709346E+02 -0.19188161523E+01  0.31886059423E+02  0.00000000000E+00 0.  1.
         11    1    3    3    0    0  0.44445626792E+01  0.95364575363E+01 -0.55661740457E+01  0.11902959864E+02  0.51100000000E-03 0. -1.
        -11    1    3    3    0    0 -0.54109198396E+00  0.21691764013E+02 -0.13084011247E+02  0.25338049591E+02  0.51100000000E-03 0.  1.
        -12    1    3    3    0    0 -0.79677857375E+01  0.33948779704E+00  0.20569001445E+02  0.22060931122E+02  0.00000000000E+00 0.  1.
</event>
<event>
 7    1  0.3755162E-013  0.5930180E+02  0.7816164E-02  0.1266605E+00
        -11   -1    0    0    0    0  0.00000000000E+00  0.00000000000E+00  0.45593999997E+02  0.45594000000E+02  0.51100000000E-03 0.  1.
         11   -1    0    0    0    0 -0.00000000000E+00 -0.00000000000E+00 -0.45593999997E+02  0.45594000000E+02  0.51100000000E-03 0. -1.
    9900012    2    1    2    0    0  0.13554462304E+02 -0.14286375479E+02 -0.25077996910E+02  0.59301797628E+02  0.49999733001E+02 0.  0.
        -12    1    1    2    0    0 -0.13554462304E+02  0.14286375479E+02  0.25077996910E+02  0.31886202372E+02  0.00000000000E+00 0.  1.
         11    1    3    3    0    0  0.14004061425E+02 -0.19676024837E+02 -0.68675584554E+00  0.24160532354E+02  0.51100000000E-03 0.  1.
        -11    1    3    3    0    0  0.13678201484E+01 -0.90147961282E+01 -0.15880651860E+02  0.18312088492E+02  0.51100000000E-03 0. -1.
         12    1    3    3    0    0 -0.18174192695E+01  0.14404445485E+02 -0.85105892047E+01  0.16829176782E+02  0.00000000000E+00 0. -1.
</event>
<event>
 7    1  0.3755162E-013  0.5930194E+02  0.7816164E-02  0.1266605E+00
        -11   -1    0    0    0    0  0.00000000000E+00  0.00000000000E+00  0.45593999997E+02  0.45594000000E+02  0.51100000000E-03 0. -1.
         11   -1    0    0    0    0 -0.00000000000E+00 -0.00000000000E+00 -0.45593999997E+02  0.45594000000E+02  0.51100000000E-03 0.  1.
    9900012    2    1    2    0    0 -0.20858863475E+01  0.21881316302E+02  0.23099305550E+02  0.59301939693E+02  0.49999992095E+02 0.  0.
        -12    1    1    2    0    0  0.20858863475E+01 -0.21881316302E+02 -0.23099305550E+02  0.31886060307E+02  0.00000000000E+00 0.  1.
         11    1    3    3    0    0  0.44000886921E+00 -0.53124308920E+01  0.10951626211E+02  0.12180051179E+02  0.51100000000E-03 0. -1.
        -11    1    3    3    0    0  0.23727571783E+01 -0.55601562124E+01  0.12627771570E+02  0.14000211742E+02  0.51100000000E-03 0.  1.
        -12    1    3    3    0    0 -0.48986523950E+01  0.32753903407E+02 -0.48009223066E+00  0.33121676773E+02  0.00000000000E+00 0.  1.
</event>
<event>
 7    1  0.3755162E-013  0.5930190E+02  0.7816164E-02  0.1266605E+00
        -11   -1    0    0    0    0  0.00000000000E+00  0.00000000000E+00  0.45593999997E+02  0.45594000000E+02  0.51100000000E-03 0.  1.
         11   -1    0    0    0    0 -0.00000000000E+00 -0.00000000000E+00 -0.45593999997E+02  0.45594000000E+02  0.51100000000E-03 0. -1.
    9900012    2    1    2    0    0  0.45368214153E+01  0.29061121695E+02 -0.12312270609E+02  0.59301897224E+02  0.49999914640E+02 0.  0.
        -12    1    1    2    0    0 -0.45368214153E+01 -0.29061121695E+02  0.12312270609E+02  0.31886102776E+02  0.00000000000E+00 0.  1.
         11    1    3    3    0    0  0.14068703897E+02  0.94848187434E+01 -0.12625799563E+02  0.21149492448E+02  0.51100000000E-03 0. -1.
        -11    1    3    3    0    0  0.10561288149E+02  0.12622720497E+02 -0.26977136692E+01  0.16677875746E+02  0.51100000000E-03 0.  1.
         12    1    3    3    0    0 -0.20093170630E+02  0.69535824542E+01  0.30112426230E+01  0.21474529030E+02  0.00000000000E+00 0. -1.
</event>
<event>
 7    1  0.3755162E-013  0.5930193E+02  0.7816164E-02  0.1266605E+00
        -11   -1    0    0    0    0  0.00000000000E+00  0.00000000000E+00  0.45593999997E+02  0.45594000000E+02  0.51100000000E-03 0. -1.
         11   -1    0    0    0    0 -0.00000000000E+00 -0.00000000000E+00 -0.45593999997E+02  0.45594000000E+02  0.51100000000E-03 0.  1.
    9900012    2    1    2    0    0 -0.21562702476E+02  0.11986830723E+01  0.23459208007E+02  0.59301930635E+02  0.49999975576E+02 0.  0.
        -12    1    1    2    0    0  0.21562702476E+02 -0.11986830723E+01 -0.23459208007E+02  0.31886069365E+02  0.00000000000E+00 0.  1.
         11    1    3    3    0    0 -0.11455370552E+02 -0.72742683078E+00  0.16905375280E+02  0.20433951597E+02  0.51100000000E-03 0. -1.
        -11    1    3    3    0    0 -0.18984582374E+02 -0.10952958039E+02  0.75822884718E+01  0.23192083918E+02  0.51100000000E-03 0.  1.
         12    1    3    3    0    0  0.88772504498E+01  0.12879067942E+02 -0.10284557442E+01  0.15675895120E+02  0.00000000000E+00 0. -1.
</event>
<event>
 7    1  0.3755162E-013  0.5930221E+02  0.7816164E-02  0.1266604E+00
        -11   -1    0    0    0    0  0.00000000000E+00  0.00000000000E+00  0.45593999997E+02  0.45594000000E+02  0.51100000000E-03 0.  1.
         11   -1    0    0    0    0 -0.00000000000E+00 -0.00000000000E+00 -0.45593999997E+02  0.45594000000E+02  0.51100000000E-03 0. -1.
    9900012    2    1    2    0    0 -0.15275112599E+02 -0.26608806216E+02 -0.86802055801E+01  0.59302210029E+02  0.50000485121E+02 0.  0.
        -12    1    1    2    0    0  0.15275112599E+02  0.26608806216E+02  0.86802055801E+01  0.31885789971E+02  0.00000000000E+00 0.  1.
         11    1    3    3    0    0 -0.28651071485E+01 -0.30499307753E+02 -0.73287715356E+01  0.31498055573E+02  0.51100000000E-03 0. -1.
        -11    1    3    3    0    0 -0.48949415358E+01  0.41732408694E+01 -0.12673262759E+02  0.14212247578E+02  0.51100000000E-03 0.  1.
        -12    1    3    3    0    0 -0.75150639149E+01 -0.28273933229E+00  0.11321828714E+02  0.13591906879E+02  0.00000000000E+00 0.  1.
</event>
<event>
 7    1  0.3755162E-013  0.5930195E+02  0.7816164E-02  0.1266605E+00
        -11   -1    0    0    0    0  0.00000000000E+00  0.00000000000E+00  0.45593999997E+02  0.45594000000E+02  0.51100000000E-03 0.  1.
         11   -1    0    0    0    0 -0.00000000000E+00 -0.00000000000E+00 -0.45593999997E+02  0.45594000000E+02  0.51100000000E-03 0. -1.
    9900012    2    1    2    0    0 -0.18359439020E+01 -0.82230356623E+01 -0.30752746772E+02  0.59301946003E+02  0.50000003602E+02 0.  0.
        -12    1    1    2    0    0  0.18359439020E+01  0.82230356623E+01  0.30752746772E+02  0.31886053997E+02  0.00000000000E+00 0.  1.
         11    1    3    3    0    0 -0.13564111939E+01  0.10356424366E+02 -0.91715455723E+01  0.13900094440E+02  0.51100000000E-03 0. -1.
        -11    1    3    3    0    0  0.15588464231E+02 -0.26463466409E+01 -0.29367984028E+01  0.16081920057E+02  0.51100000000E-03 0.  1.
        -12    1    3    3    0    0 -0.16067996939E+02 -0.15933113388E+02 -0.18644402797E+02  0.29319931506E+02  0.00000000000E+00 0.  1.
</event>
<event>
 7    1  0.3755162E-013  0.5930195E+02  0.7816164E-02  0.1266605E+00
        -11   -1    0    0    0    0  0.00000000000E+00  0.00000000000E+00  0.45593999997E+02  0.45594000000E+02  0.51100000000E-03 0.  1.
         11   -1    0    0    0    0 -0.00000000000E+00 -0.00000000000E+00 -0.45593999997E+02  0.45594000000E+02  0.51100000000E-03 0. -1.
    9900012    2    1    2    0    0  0.28803125798E+02  0.22422021420E+01 -0.13493420396E+02  0.59301954146E+02  0.50000018454E+02 0.  0.
        -12    1    1    2    0    0 -0.28803125798E+02 -0.22422021420E+01  0.13493420396E+02  0.31886045854E+02  0.00000000000E+00 0.  1.
         11    1    3    3    0    0  0.65375159210E+01  0.16584207301E+02 -0.48452820148E+01  0.18473002038E+02  0.51100000000E-03 0. -1.
        -11    1    3    3    0    0 -0.61277941611E+01 -0.70996479518E+01 -0.65741516195E+01  0.11453136343E+02  0.51100000000E-03 0.  1.
         12    1    3    3    0    0  0.28393404038E+02 -0.72423572071E+01 -0.20739867614E+01  0.29375815766E+02  0.00000000000E+00 0. -1.
</event>
<event>
 7    1  0.3755162E-013  0.5930195E+02  0.7816164E-02  0.1266605E+00
        -11   -1    0    0    0    0  0.00000000000E+00  0.00000000000E+00  0.45593999997E+02  0.45594000000E+02  0.51100000000E-03 0. -1.
         11   -1    0    0    0    0 -0.00000000000E+00 -0.00000000000E+00 -0.45593999997E+02  0.45594000000E+02  0.51100000000E-03 0.  1.
    9900012    2    1    2    0    0 -0.73628972770E+01 -0.78502616593E+01  0.30014690301E+02  0.59301945081E+02  0.50000001922E+02 0.  0.
        -12    1    1    2    0    0  0.73628972770E+01  0.78502616593E+01 -0.30014690301E+02  0.31886054919E+02  0.00000000000E+00 0.  1.
         11    1    3    3    0    0 -0.22067622699E+02 -0.57495261272E-01  0.24376161310E+02  0.32881309551E+02  0.51100000000E-03 0.  1.
        -11    1    3    3    0    0  0.12112001975E+02  0.42790281603E+01  0.57480907823E+01  0.14073067247E+02  0.51100000000E-03 0. -1.
        -12    1    3    3    0    0  0.25927234471E+01 -0.12071794558E+02 -0.10956179205E+00  0.12347568284E+02  0.00000000000E+00 0.  1.
</event>
<event>
 7    1  0.3755162E-013  0.5930196E+02  0.7816164E-02  0.1266605E+00
        -11   -1    0    0    0    0  0.00000000000E+00  0.00000000000E+00  0.45593999997E+02  0.45594000000E+02  0.51100000000E-03 0.  1.
         11   -1    0    0    0    0 -0.00000000000E+00 -0.00000000000E+00 -0.45593999997E+02  0.45594000000E+02  0.51100000000E-03 0. -1.
    9900012    2    1    2    0    0  0.28004539429E+00 -0.23869555159E+02 -0.21139671603E+02  0.59301955961E+02  0.50000021764E+02 0.  0.
        -12    1    1    2    0    0 -0.28004539429E+00  0.23869555159E+02  0.21139671603E+02  0.31886044039E+02  0.00000000000E+00 0.  1.
         11    1    3    3    0    0  0.97514138623E+01 -0.26709692257E+02 -0.98764408820E+01  0.30100528526E+02  0.51100000000E-03 0. -1.
        -11    1    3    3    0    0  0.54463574725E+01 -0.52807528722E+01  0.17728577078E+01  0.77905189383E+01  0.51100000000E-03 0.  1.
        -12    1    3    3    0    0 -0.14917725941E+02  0.81208899697E+01 -0.13036088429E+02  0.21410908497E+02  0.00000000000E+00 0.  1.
</event>
<event>
 7    1  0.3755162E-013  0.5930194E+02  0.7816164E-02  0.1266605E+00
        -11   -1    0    0    0    0  0.00000000000E+00  0.00000000000E+00  0.45593999997E+02  0.45594000000E+02  0.51100000000E-03 0.  1.
         11   -1    0    0    0    0 -0.00000000000E+00 -0.00000000000E+00 -0.45593999997E+02  0.45594000000E+02  0.51100000000E-03 0. -1.
    9900012    2    1    2    0    0  0.30935174567E+02 -0.76962944869E+01  0.70912617483E+00  0.59301939813E+02  0.49999992313E+02 0.  0.
        -12    1    1    2    0    0 -0.30935174567E+02  0.76962944869E+01 -0.70912617483E+00  0.31886060187E+02  0.00000000000E+00 0.  1.
         11    1    3    3    0    0  0.75484110988E+01 -0.20499127703E+02  0.32218643156E+01  0.22081058776E+02  0.51100000000E-03 0. -1.
        -11    1    3    3    0    0  0.31875639231E+01  0.52817129866E+00 -0.11491154430E+02  0.11936756640E+02  0.51100000000E-03 0.  1.
         12    1    3    3    0    0  0.20199199545E+02  0.12274661918E+02  0.89784162893E+01  0.25284124397E+02  0.00000000000E+00 0. -1.
</event>
<event>
 7    1  0.3755162E-013  0.5930195E+02  0.7816164E-02  0.1266605E+00
        -11   -1    0    0    0    0  0.00000000000E+00  0.00000000000E+00  0.45593999997E+02  0.45594000000E+02  0.51100000000E-03 0.  1.
         11   -1    0    0    0    0 -0.00000000000E+00 -0.00000000000E+00 -0.45593999997E+02  0.45594000000E+02  0.51100000000E-03 0. -1.
    9900012    2    1    2    0    0  0.40007271016E+01  0.10968430391E+01 -0.31615049209E+02  0.59301949469E+02  0.50000009923E+02 0.  0.
        -12    1    1    2    0    0 -0.40007271016E+01 -0.10968430391E+01  0.31615049209E+02  0.31886050531E+02  0.00000000000E+00 0.  1.
         11    1    3    3    0    0 -0.11735612644E+02  0.21295371113E+01 -0.20000723421E+02  0.23287088054E+02  0.51100000000E-03 0. -1.
        -11    1    3    3    0    0 -0.79176891086E+01 -0.50060403959E+01 -0.48160973939E-02  0.93675111274E+01  0.51100000000E-03 0.  1.
         12    1    3    3    0    0  0.23654028855E+02  0.39733463237E+01 -0.11609509691E+02  0.26647350287E+02  0.00000000000E+00 0. -1.
</event>
<event>
 7    1  0.3755162E-013  0.5930196E+02  0.7816164E-02  0.1266605E+00
        -11   -1    0    0    0    0  0.00000000000E+00  0.00000000000E+00  0.45593999997E+02  0.45594000000E+02  0.51100000000E-03 0. -1.
         11   -1    0    0    0    0 -0.00000000000E+00 -0.00000000000E+00 -0.45593999997E+02  0.45594000000E+02  0.51100000000E-03 0.  1.
    9900012    2    1    2    0    0  0.11032031482E+02  0.27241042672E+02 -0.12366869237E+02  0.59301959493E+02  0.50000028205E+02 0.  0.
        -12    1    1    2    0    0 -0.11032031482E+02 -0.27241042672E+02  0.12366869237E+02  0.31886040507E+02  0.00000000000E+00 0.  1.
         11    1    3    3    0    0  0.14209667520E+02 -0.31979047399E+01 -0.13606880231E+01  0.14628489939E+02  0.51100000000E-03 0. -1.
        -11    1    3    3    0    0 -0.33729636061E+01  0.44054498226E+01 -0.17064305727E+02  0.17943673030E+02  0.51100000000E-03 0.  1.
         12    1    3    3    0    0  0.19532756867E+00  0.26033497589E+02  0.60581245127E+01  0.26729796524E+02  0.00000000000E+00 0. -1.
</event>
<event>
 7    1  0.3755162E-013  0.5930198E+02  0.7816164E-02  0.1266605E+00
        -11   -1    0    0    0    0  0.00000000000E+00  0.00000000000E+00  0.45593999997E+02  0.45594000000E+02  0.51100000000E-03 0. -1.
         11   -1    0    0    0    0 -0.00000000000E+00 -0.00000000000E+00 -0.45593999997E+02  0.45594000000E+02  0.51100000000E-03 0.  1.
    9900012    2    1    2    0    0 -0.21565714995E+01  0.15645198828E+02  0.27700099403E+02  0.59301975570E+02  0.50000057526E+02 0.  0.
        -12    1    1    2    0    0  0.21565714995E+01 -0.15645198828E+02 -0.27700099403E+02  0.31886024430E+02  0.00000000000E+00 0.  1.
         11    1    3    3    0    0 -0.14627987759E+02  0.11225755578E+02 -0.13398506707E+01  0.18487585409E+02  0.51100000000E-03 0. -1.
        -11    1    3    3    0    0  0.10252453727E+01  0.87507417798E+01 -0.51516550784E+00  0.88256447658E+01  0.51100000000E-03 0.  1.
        -12    1    3    3    0    0  0.11446170887E+02 -0.43312985301E+01  0.29555115582E+02  0.31988745395E+02  0.00000000000E+00 0.  1.
</event>
<event>
 7    1  0.3755162E-013  0.5930192E+02  0.7816164E-02  0.1266605E+00
        -11   -1    0    0    0    0  0.00000000000E+00  0.00000000000E+00  0.45593999997E+02  0.45594000000E+02  0.51100000000E-03 0. -1.
         11   -1    0    0    0    0 -0.00000000000E+00 -0.00000000000E+00 -0.45593999997E+02  0.45594000000E+02  0.51100000000E-03 0.  1.
    9900012    2    1    2    0    0  0.19040293695E+02  0.24550996842E+02  0.71719984523E+01  0.59301924798E+02  0.49999964930E+02 0.  0.
        -12    1    1    2    0    0 -0.19040293695E+02 -0.24550996842E+02 -0.71719984523E+01  0.31886075202E+02  0.00000000000E+00 0.  1.
         11    1    3    3    0    0  0.12802495451E+02  0.25506056711E+02 -0.12522483422E+02  0.31165291753E+02  0.51100000000E-03 0.  1.
        -11    1    3    3    0    0 -0.52687737141E+01  0.48736224582E+01  0.64616401068E+01  0.96573788083E+01  0.51100000000E-03 0. -1.
        -12    1    3    3    0    0  0.11506571958E+02 -0.58286823268E+01  0.13232841768E+02  0.18479254237E+02  0.00000000000E+00 0.  1.
</event>
<event>
 7    1  0.3755162E-013  0.5930194E+02  0.7816164E-02  0.1266605E+00
        -11   -1    0    0    0    0  0.00000000000E+00  0.00000000000E+00  0.45593999997E+02  0.45594000000E+02  0.51100000000E-03 0.  1.
         11   -1    0    0    0    0 -0.00000000000E+00 -0.00000000000E+00 -0.45593999997E+02  0.45594000000E+02  0.51100000000E-03 0. -1.
    9900012    2    1    2    0    0  0.98193452541E+01 -0.16577906305E+02 -0.25406183039E+02  0.59301942619E+02  0.49999997432E+02 0.  0.
        -12    1    1    2    0    0 -0.98193452541E+01  0.16577906305E+02  0.25406183039E+02  0.31886057381E+02  0.00000000000E+00 0.  1.
         11    1    3    3    0    0 -0.69080263450E+01 -0.81781831614E+01 -0.68289613359E+01  0.12697961293E+02  0.51100000000E-03 0. -1.
        -11    1    3    3    0    0 -0.12118267927E+02 -0.65087011942E+01 -0.46846345525E+01  0.14531393944E+02  0.51100000000E-03 0.  1.
         12    1    3    3    0    0  0.28845639526E+02 -0.18910219491E+01 -0.13892587151E+02  0.32072587383E+02  0.00000000000E+00 0. -1.
</event>
<event>
 7    1  0.3755162E-013  0.5930206E+02  0.7816164E-02  0.1266604E+00
        -11   -1    0    0    0    0  0.00000000000E+00  0.00000000000E+00  0.45593999997E+02  0.45594000000E+02  0.51100000000E-03 0. -1.
         11   -1    0    0    0    0 -0.00000000000E+00 -0.00000000000E+00 -0.45593999997E+02  0.45594000000E+02  0.51100000000E-03 0.  1.
    9900012    2    1    2    0    0  0.14962733660E+02  0.19022623846E+02  0.20759809644E+02  0.59302057753E+02  0.50000207407E+02 0.  0.
        -12    1    1    2    0    0 -0.14962733660E+02 -0.19022623846E+02 -0.20759809644E+02  0.31885942247E+02  0.00000000000E+00 0.  1.
         11    1    3    3    0    0  0.37294377544E+01  0.13766157709E+02  0.21969509346E+02  0.26193036197E+02  0.51100000000E-03 0. -1.
        -11    1    3    3    0    0 -0.10290308700E+02  0.45303311344E+01 -0.25589742270E+01  0.11530945437E+02  0.51100000000E-03 0.  1.
         12    1    3    3    0    0  0.21523604605E+02  0.72613500213E+00  0.13492745251E+01  0.21578076119E+02  0.00000000000E+00 0. -1.
</event>
<event>
 7    1  0.3755162E-013  0.5930197E+02  0.7816164E-02  0.1266605E+00
        -11   -1    0    0    0    0  0.00000000000E+00  0.00000000000E+00  0.45593999997E+02  0.45594000000E+02  0.51100000000E-03 0. -1.
         11   -1    0    0    0    0 -0.00000000000E+00 -0.00000000000E+00 -0.45593999997E+02  0.45594000000E+02  0.51100000000E-03 0.  1.
    9900012    2    1    2    0    0 -0.10407370702E+02 -0.22821695648E+02  0.19686949600E+02  0.59301966353E+02  0.50000040716E+02 0.  0.
        -12    1    1    2    0    0  0.10407370702E+02  0.22821695648E+02 -0.19686949600E+02  0.31886033647E+02  0.00000000000E+00 0.  1.
         11    1    3    3    0    0 -0.18035600150E+01 -0.81830722829E+01  0.19355196542E+02  0.21091209878E+02  0.51100000000E-03 0. -1.
        -11    1    3    3    0    0 -0.21524867624E+02 -0.12263837473E+02 -0.20540022945E+01  0.24858410276E+02  0.51100000000E-03 0.  1.
         12    1    3    3    0    0  0.12921056936E+02 -0.23747858920E+01  0.23857553534E+01  0.13352346198E+02  0.00000000000E+00 0. -1.
</event>
<event>
 7    1  0.3755162E-013  0.5930196E+02  0.7816164E-02  0.1266605E+00
        -11   -1    0    0    0    0  0.00000000000E+00  0.00000000000E+00  0.45593999997E+02  0.45594000000E+02  0.51100000000E-03 0.  1.
         11   -1    0    0    0    0 -0.00000000000E+00 -0.00000000000E+00 -0.45593999997E+02  0.45594000000E+02  0.51100000000E-03 0. -1.
    9900012    2    1    2    0    0  0.38819849328E+01  0.62213417893E+01 -0.31031345627E+02  0.59301963682E+02  0.50000035845E+02 0.  0.
        -12    1    1    2    0    0 -0.38819849328E+01 -0.62213417893E+01  0.31031345627E+02  0.31886036318E+02  0.00000000000E+00 0.  1.
         11    1    3    3    0    0  0.10558298848E+02 -0.11264442014E+02 -0.22680397478E+02  0.27436577018E+02  0.51100000000E-03 0. -1.
        -11    1    3    3    0    0  0.79530358277E+01  0.66253986156E+01 -0.88793471306E+01  0.13637796428E+02  0.51100000000E-03 0.  1.
         12    1    3    3    0    0 -0.14629349743E+02  0.10860385188E+02  0.52839898189E+00  0.18227590236E+02  0.00000000000E+00 0. -1.
</event>
<event>
 7    1  0.3755162E-013  0.5930200E+02  0.7816164E-02  0.1266605E+00
        -11   -1    0    0    0    0  0.00000000000E+00  0.00000000000E+00  0.45593999997E+02  0.45594000000E+02  0.51100000000E-03 0.  1.
         11   -1    0    0    0    0 -0.00000000000E+00 -0.00000000000E+00 -0.45593999997E+02  0.45594000000E+02  0.51100000000E-03 0. -1.
    9900012    2    1    2    0    0 -0.26338926237E+02  0.65520711362E+01 -0.16734651061E+02  0.59301996525E+02  0.50000095742E+02 0.  0.
        -12    1    1    2    0    0  0.26338926237E+02 -0.65520711362E+01  0.16734651061E+02  0.31886003475E+02  0.00000000000E+00 0.  1.
         11    1    3    3    0    0 -0.24343117631E+02  0.10510735312E+02 -0.72880487958E+01  0.27498701574E+02  0.51100000000E-03 0. -1.
        -11    1    3    3    0    0 -0.26001986167E+01  0.11888616850E+02  0.18813639778E+01  0.12314210252E+02  0.51100000000E-03 0.  1.
        -12    1    3    3    0    0  0.60439001033E+00 -0.15847281025E+02 -0.11327966243E+02  0.19489084699E+02  0.00000000000E+00 0.  1.
</event>
<event>
 7    1  0.3755162E-013  0.5930192E+02  0.7816164E-02  0.1266605E+00
        -11   -1    0    0    0    0  0.00000000000E+00  0.00000000000E+00  0.45593999997E+02  0.45594000000E+02  0.51100000000E-03 0. -1.
         11   -1    0    0    0    0 -0.00000000000E+00 -0.00000000000E+00 -0.45593999997E+02  0.45594000000E+02  0.51100000000E-03 0.  1.
    9900012    2    1    2    0    0 -0.21338777241E+02  0.17795671515E+02  0.15642661602E+02  0.59301918385E+02  0.49999953233E+02 0.  0.
        -12    1    1    2    0    0  0.21338777241E+02 -0.17795671515E+02 -0.15642661602E+02  0.31886081615E+02  0.00000000000E+00 0.  1.
         11    1    3    3    0    0  0.12288641228E+02 -0.24042265436E+01  0.96135748524E+01  0.15786444508E+02  0.51100000000E-03 0. -1.
        -11    1    3    3    0    0 -0.63535081741E+01  0.76790450415E-01 -0.47672003781E+01  0.79434981335E+01  0.51100000000E-03 0.  1.
         12    1    3    3    0    0 -0.27273910294E+02  0.20123107608E+02  0.10796287128E+02  0.35571975743E+02  0.00000000000E+00 0. -1.
</event>
<event>
 7    1  0.3755162E-013  0.5930194E+02  0.7816164E-02  0.1266605E+00
        -11   -1    0    0    0    0  0.00000000000E+00  0.00000000000E+00  0.45593999997E+02  0.45594000000E+02  0.51100000000E-03 0.  1.
         11   -1    0    0    0    0 -0.00000000000E+00 -0.00000000000E+00 -0.45593999997E+02  0.45594000000E+02  0.51100000000E-03 0. -1.
    9900012    2    1    2    0    0  0.20727710274E+02  0.11196523125E+02 -0.21487688929E+02  0.59301939114E+02  0.49999991039E+02 0.  0.
        -12    1    1    2    0    0 -0.20727710274E+02 -0.11196523125E+02  0.21487688929E+02  0.31886060886E+02  0.00000000000E+00 0.  1.
         11    1    3    3    0    0  0.16345050345E+02  0.48816872609E+01 -0.32170026302E+02  0.36412939099E+02  0.51100000000E-03 0. -1.
        -11    1    3    3    0    0  0.87078068789E+01  0.11129098049E+01 -0.15463071855E+01  0.89137834306E+01  0.51100000000E-03 0.  1.
         12    1    3    3    0    0 -0.43251469495E+01  0.52019260593E+01  0.12228644558E+02  0.13975216585E+02  0.00000000000E+00 0. -1.
</event>
<event>
 7    1  0.3755162E-013  0.5930183E+02  0.7816164E-02  0.1266605E+00
        -11   -1    0    0    0    0  0.00000000000E+00  0.00000000000E+00  0.45593999997E+02  0.45594000000E+02  0.51100000000E-03 0.  1.
         11   -1    0    0    0    0 -0.00000000000E+00 -0.00000000000E+00 -0.45593999997E+02  0.45594000000E+02  0.51100000000E-03 0. -1.
    9900012    2    1    2    0    0  0.19984105617E+02 -0.21308353175E+02  0.12779560447E+02  0.59301834386E+02  0.49999800039E+02 0.  0.
        -12    1    1    2    0    0 -0.19984105617E+02  0.21308353175E+02 -0.12779560447E+02  0.31886165614E+02  0.00000000000E+00 0.  1.
         11    1    3    3    0    0  0.11843931051E+02 -0.12364601899E+02 -0.11299717189E+01  0.17159222570E+02  0.51100000000E-03 0. -1.
        -11    1    3    3    0    0 -0.27607377121E+01 -0.22339009406E+02  0.80646385433E+01  0.23910069198E+02  0.51100000000E-03 0.  1.
        -12    1    3    3    0    0  0.10900912278E+02  0.13395258130E+02  0.58448936229E+01  0.18232542618E+02  0.00000000000E+00 0.  1.
</event>
<event>
 7    1  0.3755162E-013  0.5930193E+02  0.7816164E-02  0.1266605E+00
        -11   -1    0    0    0    0  0.00000000000E+00  0.00000000000E+00  0.45593999997E+02  0.45594000000E+02  0.51100000000E-03 0.  1.
         11   -1    0    0    0    0 -0.00000000000E+00 -0.00000000000E+00 -0.45593999997E+02  0.45594000000E+02  0.51100000000E-03 0. -1.
    9900012    2    1    2    0    0  0.24228630745E+01 -0.30844293635E+02 -0.77123888476E+01  0.59301926910E+02  0.49999968782E+02 0.  0.
        -12    1    1    2    0    0 -0.24228630745E+01  0.30844293635E+02  0.77123888476E+01  0.31886073090E+02  0.00000000000E+00 0.  1.
         11    1    3    3    0    0  0.86041630061E+01 -0.10558852648E+02 -0.17026071242E+02  0.21803854991E+02  0.51100000000E-03 0. -1.
        -11    1    3    3    0    0  0.83317733458E+01 -0.10630783420E+02 -0.55379864225E+01  0.14597989488E+02  0.51100000000E-03 0.  1.
        -12    1    3    3    0    0 -0.14513073278E+02 -0.96546575675E+01  0.14851668817E+02  0.22900082431E+02  0.00000000000E+00 0.  1.
</event>
<event>
 7    1  0.3755162E-013  0.5930193E+02  0.7816164E-02  0.1266605E+00
        -11   -1    0    0    0    0  0.00000000000E+00  0.00000000000E+00  0.45593999997E+02  0.45594000000E+02  0.51100000000E-03 0. -1.
         11   -1    0    0    0    0 -0.00000000000E+00 -0.00000000000E+00 -0.45593999997E+02  0.45594000000E+02  0.51100000000E-03 0.  1.
    9900012    2    1    2    0    0 -0.13732479198E+02 -0.22434935861E+02  0.18022598522E+02  0.59301931106E+02  0.49999976434E+02 0.  0.
        -12    1    1    2    0    0  0.13732479198E+02  0.22434935861E+02 -0.18022598522E+02  0.31886068894E+02  0.00000000000E+00 0.  1.
         11    1    3    3    0    0  0.80928655808E+01  0.60612568727E+01  0.13405806883E+01  0.10199532589E+02  0.51100000000E-03 0. -1.
        -11    1    3    3    0    0 -0.44270703850E+01  0.40713276694E+01 -0.35653086747E+01  0.69918586508E+01  0.51100000000E-03 0.  1.
        -12    1    3    3    0    0 -0.17398274394E+02 -0.32567520403E+02  0.20247326508E+02  0.42110539866E+02  0.00000000000E+00 0.  1.
</event>
<event>
 7    1  0.3755162E-013  0.5930197E+02  0.7816164E-02  0.1266605E+00
        -11   -1    0    0    0    0  0.00000000000E+00  0.00000000000E+00  0.45593999997E+02  0.45594000000E+02  0.51100000000E-03 0.  1.
         11   -1    0    0    0    0 -0.00000000000E+00 -0.00000000000E+00 -0.45593999997E+02  0.45594000000E+02  0.51100000000E-03 0. -1.
    9900012    2    1    2    0    0  0.16431713584E+02 -0.55630958863E+01 -0.26753875459E+02  0.59301967020E+02  0.50000041932E+02 0.  0.
        -12    1    1    2    0    0 -0.16431713584E+02  0.55630958863E+01  0.26753875459E+02  0.31886032980E+02  0.00000000000E+00 0.  1.
         11    1    3    3    0    0  0.29838146051E+01 -0.75221331807E+01 -0.32759245295E+02  0.33743944490E+02  0.51100000000E-03 0. -1.
        -11    1    3    3    0    0  0.22667070404E+01 -0.57163200084E+01 -0.51315605508E+01  0.80091940414E+01  0.51100000000E-03 0.  1.
        -12    1    3    3    0    0  0.11181191938E+02  0.76753573028E+01  0.11136930387E+02  0.17548828488E+02  0.00000000000E+00 0.  1.
</event>
<event>
 7    1  0.3755162E-013  0.5930171E+02  0.7816164E-02  0.1266606E+00
        -11   -1    0    0    0    0  0.00000000000E+00  0.00000000000E+00  0.45593999997E+02  0.45594000000E+02  0.51100000000E-03 0. -1.
         11   -1    0    0    0    0 -0.00000000000E+00 -0.00000000000E+00 -0.45593999997E+02  0.45594000000E+02  0.51100000000E-03 0.  1.
    9900012    2    1    2    0    0  0.11405779776E+02  0.14766425426E+02 -0.25857228382E+02  0.59301711540E+02  0.49999575996E+02 0.  0.
        -12    1    1    2    0    0 -0.11405779776E+02 -0.14766425426E+02  0.25857228382E+02  0.31886288460E+02  0.00000000000E+00 0.  1.
         11    1    3    3    0    0  0.92154326936E+01 -0.28819634273E+01  0.19084772379E+01  0.98423675280E+01  0.51100000000E-03 0. -1.
        -11    1    3    3    0    0  0.66404665020E+01 -0.93933961113E+01 -0.15827890941E+02  0.19566650653E+02  0.51100000000E-03 0.  1.
        -12    1    3    3    0    0 -0.44501194198E+01  0.27041784965E+02 -0.11937814679E+02  0.29892693359E+02  0.00000000000E+00 0.  1.
</event>
<event>
 7    1  0.3755162E-013  0.5930195E+02  0.7816164E-02  0.1266605E+00
        -11   -1    0    0    0    0  0.00000000000E+00  0.00000000000E+00  0.45593999997E+02  0.45594000000E+02  0.51100000000E-03 0.  1.
         11   -1    0    0    0    0 -0.00000000000E+00 -0.00000000000E+00 -0.45593999997E+02  0.45594000000E+02  0.51100000000E-03 0. -1.
    9900012    2    1    2    0    0 -0.18077634928E+02 -0.19996339601E+02 -0.17031308421E+02  0.59301953702E+02  0.50000017643E+02 0.  0.
        -12    1    1    2    0    0  0.18077634928E+02  0.19996339601E+02  0.17031308421E+02  0.31886046298E+02  0.00000000000E+00 0.  1.
         11    1    3    3    0    0  0.35882403154E+01  0.79370043889E+01 -0.37211035519E+01  0.94719649036E+01  0.51100000000E-03 0. -1.
        -11    1    3    3    0    0 -0.50460134891E+01  0.70770639472E+01  0.45322848189E+00  0.87035913601E+01  0.51100000000E-03 0.  1.
        -12    1    3    3    0    0 -0.16619861754E+02 -0.35010407937E+02 -0.13763433351E+02  0.41126397438E+02  0.00000000000E+00 0.  1.
</event>
<event>
 7    1  0.3755162E-013  0.5930193E+02  0.7816164E-02  0.1266605E+00
        -11   -1    0    0    0    0  0.00000000000E+00  0.00000000000E+00  0.45593999997E+02  0.45594000000E+02  0.51100000000E-03 0. -1.
         11   -1    0    0    0    0 -0.00000000000E+00 -0.00000000000E+00 -0.45593999997E+02  0.45594000000E+02  0.51100000000E-03 0.  1.
    9900012    2    1    2    0    0 -0.16396446974E+02 -0.18913563945E+02  0.19752343060E+02  0.59301930459E+02  0.49999975253E+02 0.  0.
        -12    1    1    2    0    0  0.16396446974E+02  0.18913563945E+02 -0.19752343060E+02  0.31886069541E+02  0.00000000000E+00 0.  1.
         11    1    3    3    0    0  0.47161933864E+01  0.35929343466E+01 -0.75274505439E+01  0.95819710513E+01  0.51100000000E-03 0. -1.
        -11    1    3    3    0    0 -0.54073691272E+01 -0.57138819325E+01 -0.55585317861E+01  0.96325159484E+01  0.51100000000E-03 0.  1.
         12    1    3    3    0    0 -0.15705271233E+02 -0.16792616359E+02  0.32838325390E+02  0.40087443459E+02  0.00000000000E+00 0. -1.
</event>
<event>
 7    1  0.3755162E-013  0.5930212E+02  0.7816164E-02  0.1266604E+00
        -11   -1    0    0    0    0  0.00000000000E+00  0.00000000000E+00  0.45593999997E+02  0.45594000000E+02  0.51100000000E-03 0.  1.
         11   -1    0    0    0    0 -0.00000000000E+00 -0.00000000000E+00 -0.45593999997E+02  0.45594000000E+02  0.51100000000E-03 0. -1.
    9900012    2    1    2    0    0 -0.19404048777E+01 -0.26988956713E+02  0.16868324932E+02  0.59302120028E+02  0.50000320982E+02 0.  0.
        -12    1    1    2    0    0  0.19404048777E+01  0.26988956713E+02 -0.16868324932E+02  0.31885879972E+02  0.00000000000E+00 0.  1.
         11    1    3    3    0    0  0.16028833668E+02 -0.89373901776E+01  0.95537496770E+01  0.20689963390E+02  0.51100000000E-03 0. -1.
        -11    1    3    3    0    0 -0.15811818761E+02 -0.32554645897E+01  0.14790777409E+02  0.21894719886E+02  0.51100000000E-03 0.  1.
         12    1    3    3    0    0 -0.21574197845E+01 -0.14796101946E+02 -0.74762021541E+01  0.16717436752E+02  0.00000000000E+00 0. -1.
</event>
<event>
 7    1  0.3755162E-013  0.5930196E+02  0.7816164E-02  0.1266605E+00
        -11   -1    0    0    0    0  0.00000000000E+00  0.00000000000E+00  0.45593999997E+02  0.45594000000E+02  0.51100000000E-03 0.  1.
         11   -1    0    0    0    0 -0.00000000000E+00 -0.00000000000E+00 -0.45593999997E+02  0.45594000000E+02  0.51100000000E-03 0. -1.
    9900012    2    1    2    0    0 -0.27381215055E+02 -0.16313405273E+02 -0.92806500498E+00  0.59301961768E+02  0.50000032354E+02 0.  0.
        -12    1    1    2    0    0  0.27381215055E+02  0.16313405273E+02  0.92806500498E+00  0.31886038232E+02  0.00000000000E+00 0.  1.
         11    1    3    3    0    0 -0.16007660937E+02  0.32232548847E+01  0.75770090158E+01  0.18001267917E+02  0.51100000000E-03 0. -1.
        -11    1    3    3    0    0 -0.14490405731E+02 -0.38743346495E+01  0.90902760918E+01  0.17538969380E+02  0.51100000000E-03 0.  1.
         12    1    3    3    0    0  0.31168516121E+01 -0.15662325508E+02 -0.17595350113E+02  0.23761724472E+02  0.00000000000E+00 0. -1.
</event>
<event>
 7    1  0.3755162E-013  0.5930194E+02  0.7816164E-02  0.1266605E+00
        -11   -1    0    0    0    0  0.00000000000E+00  0.00000000000E+00  0.45593999997E+02  0.45594000000E+02  0.51100000000E-03 0.  1.
         11   -1    0    0    0    0 -0.00000000000E+00 -0.00000000000E+00 -0.45593999997E+02  0.45594000000E+02  0.51100000000E-03 0. -1.
    9900012    2    1    2    0    0  0.16349639825E+01  0.28216141726E+02 -0.14761333865E+02  0.59301941313E+02  0.49999995050E+02 0.  0.
        -12    1    1    2    0    0 -0.16349639825E+01 -0.28216141726E+02  0.14761333865E+02  0.31886058687E+02  0.00000000000E+00 0.  1.
         11    1    3    3    0    0  0.14490275970E+01  0.10279103291E+02 -0.22841408250E+02  0.25089630857E+02  0.51100000000E-03 0. -1.
        -11    1    3    3    0    0 -0.96218828569E+01 -0.29898600214E+01  0.33840966104E+01  0.10628828853E+02  0.51100000000E-03 0.  1.
        -12    1    3    3    0    0  0.98078192424E+01  0.20926898456E+02  0.46959777745E+01  0.23583481603E+02  0.00000000000E+00 0.  1.
</event>
<event>
 7    1  0.3755162E-013  0.5930193E+02  0.7816164E-02  0.1266605E+00
        -11   -1    0    0    0    0  0.00000000000E+00  0.00000000000E+00  0.45593999997E+02  0.45594000000E+02  0.51100000000E-03 0.  1.
         11   -1    0    0    0    0 -0.00000000000E+00 -0.00000000000E+00 -0.45593999997E+02  0.45594000000E+02  0.51100000000E-03 0. -1.
    9900012    2    1    2    0    0 -0.25173415953E+02 -0.35673899826E+01 -0.19243028050E+02  0.59301932971E+02  0.49999979835E+02 0.  0.
        -12    1    1    2    0    0  0.25173415953E+02  0.35673899826E+01  0.19243028050E+02  0.31886067029E+02  0.00000000000E+00 0.  1.
         11    1    3    3    0    0 -0.15982311650E+02 -0.11750363419E+02 -0.24819982885E+02  0.31773210049E+02  0.51100000000E-03 0. -1.
        -11    1    3    3    0    0 -0.21604427830E+01 -0.29088990201E+01 -0.79124049231E+01  0.87026064174E+01  0.51100000000E-03 0.  1.
        -12    1    3    3    0    0 -0.70306615202E+01  0.11091872456E+02  0.13489359758E+02  0.18826116505E+02  0.00000000000E+00 0.  1.
</event>
<event>
 7    1  0.3755162E-013  0.5930195E+02  0.7816164E-02  0.1266605E+00
        -11   -1    0    0    0    0  0.00000000000E+00  0.00000000000E+00  0.45593999997E+02  0.45594000000E+02  0.51100000000E-03 0.  1.
         11   -1    0    0    0    0 -0.00000000000E+00 -0.00000000000E+00 -0.45593999997E+02  0.45594000000E+02  0.51100000000E-03 0. -1.
    9900012    2    1    2    0    0 -0.29848484891E+02  0.73282503969E+01 -0.84902905626E+01  0.59301947595E+02  0.50000006505E+02 0.  0.
        -12    1    1    2    0    0  0.29848484891E+02 -0.73282503969E+01  0.84902905626E+01  0.31886052405E+02  0.00000000000E+00 0.  1.
         11    1    3    3    0    0 -0.16164375921E+02 -0.81962704764E+00 -0.14297594609E+02  0.21595834073E+02  0.51100000000E-03 0. -1.
        -11    1    3    3    0    0  0.16577615973E+01 -0.37628727684E+01 -0.11174174982E+02  0.11906702809E+02  0.51100000000E-03 0.  1.
         12    1    3    3    0    0 -0.15341870567E+02  0.11910750213E+02  0.16981479029E+02  0.25799410713E+02  0.00000000000E+00 0. -1.
</event>
<event>
 7    1  0.3755162E-013  0.5930179E+02  0.7816164E-02  0.1266605E+00
        -11   -1    0    0    0    0  0.00000000000E+00  0.00000000000E+00  0.45593999997E+02  0.45594000000E+02  0.51100000000E-03 0. -1.
         11   -1    0    0    0    0 -0.00000000000E+00 -0.00000000000E+00 -0.45593999997E+02  0.45594000000E+02  0.51100000000E-03 0.  1.
    9900012    2    1    2    0    0 -0.89614210652E+01 -0.30594647941E+02 -0.62511779197E+00  0.59301791031E+02  0.49999720970E+02 0.  0.
        -12    1    1    2    0    0  0.89614210652E+01  0.30594647941E+02  0.62511779197E+00  0.31886208969E+02  0.00000000000E+00 0.  1.
         11    1    3    3    0    0  0.61268925151E+01 -0.30789023940E+02 -0.74087722172E+01  0.32255119176E+02  0.51100000000E-03 0. -1.
        -11    1    3    3    0    0 -0.12227956449E+01 -0.81700858783E+01 -0.21722949578E+01  0.85419200472E+01  0.51100000000E-03 0.  1.
        -12    1    3    3    0    0 -0.13865517935E+02  0.83644618765E+01  0.89559493830E+01  0.18504751807E+02  0.00000000000E+00 0.  1.
</event>
<event>
 7    1  0.3755162E-013  0.5930193E+02  0.7816164E-02  0.1266605E+00
        -11   -1    0    0    0    0  0.00000000000E+00  0.00000000000E+00  0.45593999997E+02  0.45594000000E+02  0.51100000000E-03 0.  1.
         11   -1    0    0    0    0 -0.00000000000E+00 -0.00000000000E+00 -0.45593999997E+02  0.45594000000E+02  0.51100000000E-03 0. -1.
    9900012    2    1    2    0    0 -0.29583298604E+02  0.44050360029E+00 -0.11889308749E+02  0.59301933102E+02  0.49999980073E+02 0.  0.
        -12    1    1    2    0    0  0.29583298604E+02 -0.44050360029E+00  0.11889308749E+02  0.31886066898E+02  0.00000000000E+00 0.  1.
         11    1    3    3    0    0 -0.43435569249E+01  0.10020448905E+02 -0.13518600610E+02  0.17378965612E+02  0.51100000000E-03 0. -1.
        -11    1    3    3    0    0 -0.46543132213E+00  0.91103886475E+01  0.54948505195E+01  0.10649375105E+02  0.51100000000E-03 0.  1.
         12    1    3    3    0    0 -0.24774310357E+02 -0.18690333953E+02 -0.38655586584E+01  0.31273592385E+02  0.00000000000E+00 0. -1.
</event>
<event>
 7    1  0.3755162E-013  0.5930199E+02  0.7816164E-02  0.1266605E+00
        -11   -1    0    0    0    0  0.00000000000E+00  0.00000000000E+00  0.45593999997E+02  0.45594000000E+02  0.51100000000E-03 0.  1.
         11   -1    0    0    0    0 -0.00000000000E+00 -0.00000000000E+00 -0.45593999997E+02  0.45594000000E+02  0.51100000000E-03 0. -1.
    9900012    2    1    2    0    0 -0.36282511159E+01 -0.13457766687E+02 -0.28678252366E+02  0.59301986622E+02  0.50000077682E+02 0.  0.
        -12    1    1    2    0    0  0.36282511159E+01  0.13457766687E+02  0.28678252366E+02  0.31886013378E+02  0.00000000000E+00 0.  1.
         11    1    3    3    0    0 -0.90374873184E+01 -0.31842755959E+01  0.17458598533E+01  0.97398056957E+01  0.51100000000E-03 0.  1.
        -11    1    3    3    0    0  0.46067181666E+01  0.13715835961E+02 -0.71921626021E+01  0.16157760102E+02  0.51100000000E-03 0. -1.
         12    1    3    3    0    0  0.80251803592E+00 -0.23989327052E+02 -0.23231949617E+02  0.33404420824E+02  0.00000000000E+00 0. -1.
</event>
<event>
 7    1  0.3755162E-013  0.5930193E+02  0.7816164E-02  0.1266605E+00
        -11   -1    0    0    0    0  0.00000000000E+00  0.00000000000E+00  0.45593999997E+02  0.45594000000E+02  0.51100000000E-03 0. -1.
         11   -1    0    0    0    0 -0.00000000000E+00 -0.00000000000E+00 -0.45593999997E+02  0.45594000000E+02  0.51100000000E-03 0.  1.
    9900012    2    1    2    0    0 -0.69238882038E+01  0.30610359075E+02  0.56379973718E+01  0.59301932118E+02  0.49999978280E+02 0.  0.
        -12    1    1    2    0    0  0.69238882038E+01 -0.30610359075E+02 -0.56379973718E+01  0.31886067882E+02  0.00000000000E+00 0.  1.
         11    1    3    3    0    0 -0.24114409518E+02  0.27712809910E+02  0.82342584984E+01  0.37647145878E+02  0.51100000000E-03 0. -1.
        -11    1    3    3    0    0  0.44166077832E+01 -0.30743944055E+01  0.33636360482E+01  0.63460517645E+01  0.51100000000E-03 0.  1.
        -12    1    3    3    0    0  0.12773913531E+02  0.59719435714E+01 -0.59598971748E+01  0.15308734476E+02  0.00000000000E+00 0.  1.
</event>
<event>
 7    1  0.3755162E-013  0.5930190E+02  0.7816164E-02  0.1266605E+00
        -11   -1    0    0    0    0  0.00000000000E+00  0.00000000000E+00  0.45593999997E+02  0.45594000000E+02  0.51100000000E-03 0.  1.
         11   -1    0    0    0    0 -0.00000000000E+00 -0.00000000000E+00 -0.45593999997E+02  0.45594000000E+02  0.51100000000E-03 0. -1.
    9900012    2    1    2    0    0 -0.21609751873E+02 -0.23037206462E+02 -0.43622309432E+01  0.59301900891E+02  0.49999921329E+02 0.  0.
        -12    1    1    2    0    0  0.21609751873E+02  0.23037206462E+02  0.43622309432E+01  0.31886099109E+02  0.00000000000E+00 0.  1.
         11    1    3    3    0    0 -0.96307822680E+01 -0.13994821918E+02  0.73530501492E+01  0.18511465484E+02  0.51100000000E-03 0. -1.
        -11    1    3    3    0    0 -0.17201374461E+02 -0.85171509075E+01  0.76976192138E+01  0.20680485602E+02  0.51100000000E-03 0.  1.
        -12    1    3    3    0    0  0.52224048562E+01 -0.52523363633E+00 -0.19412900306E+02  0.20109949805E+02  0.00000000000E+00 0.  1.
</event>
<event>
 7    1  0.3755162E-013  0.5930195E+02  0.7816164E-02  0.1266605E+00
        -11   -1    0    0    0    0  0.00000000000E+00  0.00000000000E+00  0.45593999997E+02  0.45594000000E+02  0.51100000000E-03 0.  1.
         11   -1    0    0    0    0 -0.00000000000E+00 -0.00000000000E+00 -0.45593999997E+02  0.45594000000E+02  0.51100000000E-03 0. -1.
    9900012    2    1    2    0    0  0.21272141995E+02 -0.17330842365E+02 -0.16243709230E+02  0.59301949576E+02  0.50000010118E+02 0.  0.
        -12    1    1    2    0    0 -0.21272141995E+02  0.17330842365E+02  0.16243709230E+02  0.31886050424E+02  0.00000000000E+00 0.  1.
         11    1    3    3    0    0 -0.67838858352E+01 -0.60255758981E+01 -0.15113248680E+02  0.17627789364E+02  0.51100000000E-03 0. -1.
        -11    1    3    3    0    0  0.59770002710E+01  0.55877759093E+01  0.89279489331E+01  0.12110162850E+02  0.51100000000E-03 0.  1.
         12    1    3    3    0    0  0.22079027559E+02 -0.16893042376E+02 -0.10058409482E+02  0.29563997361E+02  0.00000000000E+00 0. -1.
</event>
<event>
 7    1  0.3755162E-013  0.5930197E+02  0.7816164E-02  0.1266605E+00
        -11   -1    0    0    0    0  0.00000000000E+00  0.00000000000E+00  0.45593999997E+02  0.45594000000E+02  0.51100000000E-03 0.  1.
         11   -1    0    0    0    0 -0.00000000000E+00 -0.00000000000E+00 -0.45593999997E+02  0.45594000000E+02  0.51100000000E-03 0. -1.
    9900012    2    1    2    0    0 -0.22190588334E+01 -0.51064381797E+01 -0.31396161046E+02  0.59301970749E+02  0.50000048733E+02 0.  0.
        -12    1    1    2    0    0  0.22190588334E+01  0.51064381797E+01  0.31396161046E+02  0.31886029251E+02  0.00000000000E+00 0.  1.
         11    1    3    3    0    0 -0.15613549114E+02  0.15682680946E+02 -0.10245848637E+02  0.24386611330E+02  0.51100000000E-03 0. -1.
        -11    1    3    3    0    0  0.30669475800E+00  0.15987545999E+01 -0.24573655575E+01  0.29476641073E+01  0.51100000000E-03 0.  1.
        -12    1    3    3    0    0  0.13087795523E+02 -0.22387873725E+02 -0.18692946851E+02  0.31967695312E+02  0.00000000000E+00 0.  1.
</event>
<event>
 7    1  0.3755162E-013  0.5930196E+02  0.7816164E-02  0.1266605E+00
        -11   -1    0    0    0    0  0.00000000000E+00  0.00000000000E+00  0.45593999997E+02  0.45594000000E+02  0.51100000000E-03 0.  1.
         11   -1    0    0    0    0 -0.00000000000E+00 -0.00000000000E+00 -0.45593999997E+02  0.45594000000E+02  0.51100000000E-03 0. -1.
    9900012    2    1    2    0    0  0.24716494585E+02 -0.17219784925E+02 -0.10454342405E+02  0.59301962734E+02  0.50000034115E+02 0.  0.
        -12    1    1    2    0    0 -0.24716494585E+02  0.17219784925E+02  0.10454342405E+02  0.31886037266E+02  0.00000000000E+00 0.  1.
         11    1    3    3    0    0  0.21262209131E+01 -0.19228551635E+01  0.12566041835E+02  0.12888894251E+02  0.51100000000E-03 0. -1.
        -11    1    3    3    0    0  0.28446719334E+01 -0.82349297214E+01  0.60219498237E+01  0.10591038942E+02  0.51100000000E-03 0.  1.
         12    1    3    3    0    0  0.19745601738E+02 -0.70620000403E+01 -0.29042334064E+02  0.35822029541E+02  0.00000000000E+00 0. -1.
</event>
<event>
 7    1  0.3755162E-013  0.5930195E+02  0.7816164E-02  0.1266605E+00
        -11   -1    0    0    0    0  0.00000000000E+00  0.00000000000E+00  0.45593999997E+02  0.45594000000E+02  0.51100000000E-03 0.  1.
         11   -1    0    0    0    0 -0.00000000000E+00 -0.00000000000E+00 -0.45593999997E+02  0.45594000000E+02  0.51100000000E-03 0. -1.
    9900012    2    1    2    0    0  0.27867491870E+02  0.10483564672E+02 -0.11411312610E+02  0.59301948397E+02  0.50000007968E+02 0.  0.
        -12    1    1    2    0    0 -0.27867491870E+02 -0.10483564672E+02  0.11411312610E+02  0.31886051603E+02  0.00000000000E+00 0.  1.
         11    1    3    3    0    0 -0.72391430895E+01  0.22665205098E+01  0.32965581269E+01  0.82710098317E+01  0.51100000000E-03 0. -1.
        -11    1    3    3    0    0  0.11205525900E+02  0.17480821407E+02  0.13082870316E+01  0.20805156644E+02  0.51100000000E-03 0.  1.
        -12    1    3    3    0    0  0.23901109059E+02 -0.92637772447E+01 -0.16016157769E+02  0.30225781921E+02  0.00000000000E+00 0.  1.
</event>
<event>
 7    1  0.3755162E-013  0.5930194E+02  0.7816164E-02  0.1266605E+00
        -11   -1    0    0    0    0  0.00000000000E+00  0.00000000000E+00  0.45593999997E+02  0.45594000000E+02  0.51100000000E-03 0.  1.
         11   -1    0    0    0    0 -0.00000000000E+00 -0.00000000000E+00 -0.45593999997E+02  0.45594000000E+02  0.51100000000E-03 0. -1.
    9900012    2    1    2    0    0  0.25502345778E+02 -0.18303775289E+02 -0.55967201276E+01  0.59301935548E+02  0.49999984536E+02 0.  0.
        -12    1    1    2    0    0 -0.25502345778E+02  0.18303775289E+02  0.55967201276E+01  0.31886064452E+02  0.00000000000E+00 0.  1.
         11    1    3    3    0    0  0.26744354125E+02 -0.16626348707E+02 -0.28538085966E+01  0.31620249409E+02  0.51100000000E-03 0. -1.
        -11    1    3    3    0    0  0.67883555546E+01 -0.67724055475E-01  0.10267020758E+02  0.12308455354E+02  0.51100000000E-03 0.  1.
        -12    1    3    3    0    0 -0.80303639018E+01 -0.16097025270E+01 -0.13009932289E+02  0.15373230786E+02  0.00000000000E+00 0.  1.
</event>
<event>
 7    1  0.3755162E-013  0.5930196E+02  0.7816164E-02  0.1266605E+00
        -11   -1    0    0    0    0  0.00000000000E+00  0.00000000000E+00  0.45593999997E+02  0.45594000000E+02  0.51100000000E-03 0. -1.
         11   -1    0    0    0    0 -0.00000000000E+00 -0.00000000000E+00 -0.45593999997E+02  0.45594000000E+02  0.51100000000E-03 0.  1.
    9900012    2    1    2    0    0 -0.18756548916E+02 -0.62700457603E+01  0.25011957932E+02  0.59301958529E+02  0.50000026448E+02 0.  0.
        -12    1    1    2    0    0  0.18756548916E+02  0.62700457603E+01 -0.25011957932E+02  0.31886041471E+02  0.00000000000E+00 0.  1.
         11    1    3    3    0    0 -0.19301051443E+02  0.92193626086E+01  0.16563594337E+02  0.27053278754E+02  0.51100000000E-03 0. -1.
        -11    1    3    3    0    0  0.50097106193E+01  0.55833986391E+00  0.13848875237E+02  0.14737716563E+02  0.51100000000E-03 0.  1.
        -12    1    3    3    0    0 -0.44652080930E+01 -0.16047748233E+02 -0.54005116421E+01  0.17510963213E+02  0.00000000000E+00 0.  1.
</event>
<event>
 7    1  0.3755162E-013  0.5930193E+02  0.7816164E-02  0.1266605E+00
        -11   -1    0    0    0    0  0.00000000000E+00  0.00000000000E+00  0.45593999997E+02  0.45594000000E+02  0.51100000000E-03 0.  1.
         11   -1    0    0    0    0 -0.00000000000E+00 -0.00000000000E+00 -0.45593999997E+02  0.45594000000E+02  0.51100000000E-03 0. -1.
    9900012    2    1    2    0    0 -0.21608754347E+02  0.23367655764E+02 -0.19327736621E+01  0.59301933852E+02  0.49999981443E+02 0.  0.
        -12    1    1    2    0    0  0.21608754347E+02 -0.23367655764E+02  0.19327736621E+01  0.31886066148E+02  0.00000000000E+00 0.  1.
         11    1    3    3    0    0 -0.99375112170E+01  0.79951660491E+01  0.17186943742E+02  0.21402519590E+02  0.51100000000E-03 0. -1.
        -11    1    3    3    0    0 -0.13239003347E+02  0.37580358879E+01  0.18410855604E+01  0.13884654827E+02  0.51100000000E-03 0.  1.
         12    1    3    3    0    0  0.15677602168E+01  0.11614453827E+02 -0.20960802965E+02  0.24014759435E+02  0.00000000000E+00 0. -1.
</event>
<event>
 7    1  0.3755162E-013  0.5930188E+02  0.7816164E-02  0.1266605E+00
        -11   -1    0    0    0    0  0.00000000000E+00  0.00000000000E+00  0.45593999997E+02  0.45594000000E+02  0.51100000000E-03 0. -1.
         11   -1    0    0    0    0 -0.00000000000E+00 -0.00000000000E+00 -0.45593999997E+02  0.45594000000E+02  0.51100000000E-03 0.  1.
    9900012    2    1    2    0    0 -0.59079821677E+01 -0.24573803843E+02  0.19440893070E+02  0.59301883711E+02  0.49999889997E+02 0.  0.
        -12    1    1    2    0    0  0.59079821677E+01  0.24573803843E+02 -0.19440893070E+02  0.31886116289E+02  0.00000000000E+00 0.  1.
         11    1    3    3    0    0 -0.68466201549E+01  0.11191649797E+02  0.43247688488E+01  0.13814226673E+02  0.51100000000E-03 0. -1.
        -11    1    3    3    0    0 -0.60549703290E+01 -0.18505147501E+02 -0.27696201024E+01  0.19666569235E+02  0.51100000000E-03 0.  1.
        -12    1    3    3    0    0  0.69936083162E+01 -0.17260306140E+02  0.17885744324E+02  0.25821087803E+02  0.00000000000E+00 0.  1.
</event>
<event>
 7    1  0.3755162E-013  0.5930194E+02  0.7816164E-02  0.1266605E+00
        -11   -1    0    0    0    0  0.00000000000E+00  0.00000000000E+00  0.45593999997E+02  0.45594000000E+02  0.51100000000E-03 0. -1.
         11   -1    0    0    0    0 -0.00000000000E+00 -0.00000000000E+00 -0.45593999997E+02  0.45594000000E+02  0.51100000000E-03 0.  1.
    9900012    2    1    2    0    0  0.22538351410E+02 -0.13250128501E+02  0.18253152684E+02  0.59301940782E+02  0.49999994080E+02 0.  0.
        -12    1    1    2    0    0 -0.22538351410E+02  0.13250128501E+02 -0.18253152684E+02  0.31886059218E+02  0.00000000000E+00 0.  1.
         11    1    3    3    0    0 -0.66918299926E+00  0.13283540608E+01  0.50597050819E+00  0.15710941454E+01  0.51100000000E-03 0. -1.
        -11    1    3    3    0    0 -0.14296168470E+02 -0.23362253688E-01  0.16126873057E+01  0.14386859954E+02  0.51100000000E-03 0.  1.
         12    1    3    3    0    0  0.37503702879E+02 -0.14555120308E+02  0.16134494870E+02  0.43343986683E+02  0.00000000000E+00 0. -1.
</event>
<event>
 7    1  0.3755162E-013  0.5930194E+02  0.7816164E-02  0.1266605E+00
        -11   -1    0    0    0    0  0.00000000000E+00  0.00000000000E+00  0.45593999997E+02  0.45594000000E+02  0.51100000000E-03 0. -1.
         11   -1    0    0    0    0 -0.00000000000E+00 -0.00000000000E+00 -0.45593999997E+02  0.45594000000E+02  0.51100000000E-03 0.  1.
    9900012    2    1    2    0    0 -0.10602207325E+02 -0.17858393321E+02  0.24194869040E+02  0.59301941917E+02  0.49999996151E+02 0.  0.
        -12    1    1    2    0    0  0.10602207325E+02  0.17858393321E+02 -0.24194869040E+02  0.31886058083E+02  0.00000000000E+00 0.  1.
         11    1    3    3    0    0  0.15504966449E+02 -0.53712042851E+01  0.17304011379E+02  0.23847067538E+02  0.51100000000E-03 0. -1.
        -11    1    3    3    0    0  0.29944403325E+01 -0.28301915201E+00 -0.48678782853E+00  0.30469222826E+01  0.51100000000E-03 0.  1.
        -12    1    3    3    0    0 -0.29101614107E+02 -0.12204169884E+02  0.73776454892E+01  0.32407952097E+02  0.00000000000E+00 0.  1.
</event>
<event>
 7    1  0.3755162E-013  0.5930192E+02  0.7816164E-02  0.1266605E+00
        -11   -1    0    0    0    0  0.00000000000E+00  0.00000000000E+00  0.45593999997E+02  0.45594000000E+02  0.51100000000E-03 0.  1.
         11   -1    0    0    0    0 -0.00000000000E+00 -0.00000000000E+00 -0.45593999997E+02  0.45594000000E+02  0.51100000000E-03 0. -1.
    9900012    2    1    2    0    0  0.29144567393E+02  0.11967948798E+02 -0.49076240514E+01  0.59301915562E+02  0.49999948085E+02 0.  0.
        -12    1    1    2    0    0 -0.29144567393E+02 -0.11967948798E+02  0.49076240514E+01  0.31886084438E+02  0.00000000000E+00 0.  1.
         11    1    3    3    0    0  0.34260231424E+02 -0.32968032872E+01 -0.10229866494E+02  0.35906580704E+02  0.51100000000E-03 0. -1.
        -11    1    3    3    0    0 -0.13439752310E+00 -0.27513017801E+01  0.37282701421E+01  0.46354851626E+01  0.51100000000E-03 0.  1.
         12    1    3    3    0    0 -0.49812665074E+01  0.18016053865E+02  0.15939723007E+01  0.18759849695E+02  0.00000000000E+00 0. -1.
</event>
<event>
 7    1  0.3755162E-013  0.5930194E+02  0.7816164E-02  0.1266605E+00
        -11   -1    0    0    0    0  0.00000000000E+00  0.00000000000E+00  0.45593999997E+02  0.45594000000E+02  0.51100000000E-03 0.  1.
         11   -1    0    0    0    0 -0.00000000000E+00 -0.00000000000E+00 -0.45593999997E+02  0.45594000000E+02  0.51100000000E-03 0. -1.
    9900012    2    1    2    0    0  0.25233557067E+02 -0.68295371949E+01 -0.18257764396E+02  0.59301938134E+02  0.49999989252E+02 0.  0.
        -12    1    1    2    0    0 -0.25233557067E+02  0.68295371949E+01  0.18257764396E+02  0.31886061866E+02  0.00000000000E+00 0.  1.
         11    1    3    3    0    0  0.22374884973E+02  0.68458384658E+00 -0.44980227071E+01  0.22832790919E+02  0.51100000000E-03 0. -1.
        -11    1    3    3    0    0  0.16565380553E+02 -0.50402675426E+01 -0.14408314840E+02  0.22525888807E+02  0.51100000000E-03 0.  1.
        -12    1    3    3    0    0 -0.13706708459E+02 -0.24738534989E+01  0.64857315133E+00  0.13943258408E+02  0.00000000000E+00 0.  1.
</event>
<event>
 7    1  0.3755162E-013  0.5930190E+02  0.7816164E-02  0.1266605E+00
        -11   -1    0    0    0    0  0.00000000000E+00  0.00000000000E+00  0.45593999997E+02  0.45594000000E+02  0.51100000000E-03 0.  1.
         11   -1    0    0    0    0 -0.00000000000E+00 -0.00000000000E+00 -0.45593999997E+02  0.45594000000E+02  0.51100000000E-03 0. -1.
    9900012    2    1    2    0    0 -0.25308194511E+02  0.12765214232E+02 -0.14603686678E+02  0.59301904780E+02  0.49999928421E+02 0.  0.
        -12    1    1    2    0    0  0.25308194511E+02 -0.12765214232E+02  0.14603686678E+02  0.31886095220E+02  0.00000000000E+00 0.  1.
         11    1    3    3    0    0 -0.77546126306E+01  0.15625406571E+02  0.17471146809E+01  0.17531108280E+02  0.51100000000E-03 0.  1.
        -11    1    3    3    0    0 -0.32070380873E+01  0.91417124393E+01  0.69265582016E+01  0.11909374811E+02  0.51100000000E-03 0. -1.
         12    1    3    3    0    0 -0.14346543793E+02 -0.12001904778E+02 -0.23277359561E+02  0.29861421688E+02  0.00000000000E+00 0. -1.
</event>
<event>
 7    1  0.3755162E-013  0.5930198E+02  0.7816164E-02  0.1266605E+00
        -11   -1    0    0    0    0  0.00000000000E+00  0.00000000000E+00  0.45593999997E+02  0.45594000000E+02  0.51100000000E-03 0.  1.
         11   -1    0    0    0    0 -0.00000000000E+00 -0.00000000000E+00 -0.45593999997E+02  0.45594000000E+02  0.51100000000E-03 0. -1.
    9900012    2    1    2    0    0  0.13427407967E+02 -0.20763482498E+02 -0.20132087892E+02  0.59301977153E+02  0.50000060412E+02 0.  0.
        -12    1    1    2    0    0 -0.13427407967E+02  0.20763482498E+02  0.20132087892E+02  0.31886022847E+02  0.00000000000E+00 0.  1.
         11    1    3    3    0    0  0.16850721326E+02 -0.15501485207E+02 -0.10007474174E+02  0.24987844894E+02  0.51100000000E-03 0. -1.
        -11    1    3    3    0    0 -0.35892371806E+01 -0.10567302879E+02  0.90813243188E+01  0.14388223146E+02  0.51100000000E-03 0.  1.
         12    1    3    3    0    0  0.16592382123E+00  0.53053055877E+01 -0.19205938036E+02  0.19925909112E+02  0.00000000000E+00 0. -1.
</event>
<event>
 7    1  0.3755162E-013  0.5930194E+02  0.7816164E-02  0.1266605E+00
        -11   -1    0    0    0    0  0.00000000000E+00  0.00000000000E+00  0.45593999997E+02  0.45594000000E+02  0.51100000000E-03 0.  1.
         11   -1    0    0    0    0 -0.00000000000E+00 -0.00000000000E+00 -0.45593999997E+02  0.45594000000E+02  0.51100000000E-03 0. -1.
    9900012    2    1    2    0    0 -0.47932255321E+01  0.31292665592E+02 -0.38098290071E+01  0.59301941481E+02  0.49999995355E+02 0.  0.
        -12    1    1    2    0    0  0.47932255321E+01 -0.31292665592E+02  0.38098290071E+01  0.31886058519E+02  0.00000000000E+00 0.  1.
         11    1    3    3    0    0 -0.10372391423E+01  0.10790463268E+02  0.14638594086E+02  0.18215334190E+02  0.51100000000E-03 0. -1.
        -11    1    3    3    0    0 -0.92632282621E+01 -0.50629935916E+01 -0.50425362292E+01  0.11699080042E+02  0.51100000000E-03 0.  1.
         12    1    3    3    0    0  0.55072418723E+01  0.25565195915E+02 -0.13405886864E+02  0.29387527249E+02  0.00000000000E+00 0. -1.
</event>
<event>
 7    1  0.3755162E-013  0.5930190E+02  0.7816164E-02  0.1266605E+00
        -11   -1    0    0    0    0  0.00000000000E+00  0.00000000000E+00  0.45593999997E+02  0.45594000000E+02  0.51100000000E-03 0.  1.
         11   -1    0    0    0    0 -0.00000000000E+00 -0.00000000000E+00 -0.45593999997E+02  0.45594000000E+02  0.51100000000E-03 0. -1.
    9900012    2    1    2    0    0 -0.27279702227E+02  0.61941779755E+01 -0.15302731313E+02  0.59301896757E+02  0.49999913789E+02 0.  0.
        -12    1    1    2    0    0  0.27279702227E+02 -0.61941779755E+01  0.15302731313E+02  0.31886103243E+02  0.00000000000E+00 0.  1.
         11    1    3    3    0    0 -0.69929110407E+00  0.11249982052E+02  0.42510467486E+00  0.11279708262E+02  0.51100000000E-03 0. -1.
        -11    1    3    3    0    0  0.14567860165E+01  0.11904938199E+02 -0.78054139657E+01  0.14309935935E+02  0.51100000000E-03 0.  1.
         12    1    3    3    0    0 -0.28037197140E+02 -0.16960742276E+02 -0.79224220221E+01  0.33712252560E+02  0.00000000000E+00 0. -1.
</event>
<event>
 7    1  0.3755162E-013  0.5930195E+02  0.7816164E-02  0.1266605E+00
        -11   -1    0    0    0    0  0.00000000000E+00  0.00000000000E+00  0.45593999997E+02  0.45594000000E+02  0.51100000000E-03 0.  1.
         11   -1    0    0    0    0 -0.00000000000E+00 -0.00000000000E+00 -0.45593999997E+02  0.45594000000E+02  0.51100000000E-03 0. -1.
    9900012    2    1    2    0    0  0.26395643673E+01 -0.20902204471E+02 -0.23934302219E+02  0.59301948591E+02  0.50000008322E+02 0.  0.
        -12    1    1    2    0    0 -0.26395643673E+01  0.20902204471E+02  0.23934302219E+02  0.31886051409E+02  0.00000000000E+00 0.  1.
         11    1    3    3    0    0  0.17777565224E+02 -0.26772150389E+02 -0.18699981287E+02  0.37181704670E+02  0.51100000000E-03 0. -1.
        -11    1    3    3    0    0 -0.45604458216E+01 -0.21406475973E+01 -0.71161432060E+01  0.87189180875E+01  0.51100000000E-03 0.  1.
        -12    1    3    3    0    0 -0.10577555036E+02  0.80105935160E+01  0.18818222748E+01  0.13401325833E+02  0.00000000000E+00 0.  1.
</event>
<event>
 7    1  0.3755162E-013  0.5930194E+02  0.7816164E-02  0.1266605E+00
        -11   -1    0    0    0    0  0.00000000000E+00  0.00000000000E+00  0.45593999997E+02  0.45594000000E+02  0.51100000000E-03 0. -1.
         11   -1    0    0    0    0 -0.00000000000E+00 -0.00000000000E+00 -0.45593999997E+02  0.45594000000E+02  0.51100000000E-03 0.  1.
    9900012    2    1    2    0    0 -0.29023596494E+02  0.38392616227E+01  0.12633764679E+02  0.59301935752E+02  0.49999984907E+02 0.  0.
        -12    1    1    2    0    0  0.29023596494E+02 -0.38392616227E+01 -0.12633764679E+02  0.31886064248E+02  0.00000000000E+00 0.  1.
         11    1    3    3    0    0 -0.21872655789E+02 -0.46535411158E+01  0.17099230845E+02  0.28150527738E+02  0.51100000000E-03 0. -1.
        -11    1    3    3    0    0  0.32986961638E+01  0.10605106161E+02  0.87734793264E+01  0.14153572440E+02  0.51100000000E-03 0.  1.
        -12    1    3    3    0    0 -0.10449636869E+02 -0.21123034222E+01 -0.13238945493E+02  0.16997835574E+02  0.00000000000E+00 0.  1.
</event>
<event>
 7    1  0.3755162E-013  0.5930200E+02  0.7816164E-02  0.1266605E+00
        -11   -1    0    0    0    0  0.00000000000E+00  0.00000000000E+00  0.45593999997E+02  0.45594000000E+02  0.51100000000E-03 0. -1.
         11   -1    0    0    0    0 -0.00000000000E+00 -0.00000000000E+00 -0.45593999997E+02  0.45594000000E+02  0.51100000000E-03 0.  1.
    9900012    2    1    2    0    0  0.23782294495E+02  0.20242775529E+02  0.64303389892E+01  0.59302003825E+02  0.50000109055E+02 0.  0.
        -12    1    1    2    0    0 -0.23782294495E+02 -0.20242775529E+02 -0.64303389892E+01  0.31885996175E+02  0.00000000000E+00 0.  1.
         11    1    3    3    0    0  0.21268082911E+02  0.11595477572E+02  0.10779469862E+02  0.26513834532E+02  0.51100000000E-03 0. -1.
        -11    1    3    3    0    0 -0.57228785187E+01 -0.81982797582E+01  0.57049087914E+01  0.11511260318E+02  0.51100000000E-03 0.  1.
         12    1    3    3    0    0  0.82370901030E+01  0.16845577716E+02 -0.10054039664E+02  0.21276908975E+02  0.00000000000E+00 0. -1.
</event>
<event>
 7    1  0.3755162E-013  0.5930195E+02  0.7816164E-02  0.1266605E+00
        -11   -1    0    0    0    0  0.00000000000E+00  0.00000000000E+00  0.45593999997E+02  0.45594000000E+02  0.51100000000E-03 0.  1.
         11   -1    0    0    0    0 -0.00000000000E+00 -0.00000000000E+00 -0.45593999997E+02  0.45594000000E+02  0.51100000000E-03 0. -1.
    9900012    2    1    2    0    0 -0.32534918502E+01  0.19740519741E+02 -0.24828347079E+02  0.59301950581E+02  0.50000011952E+02 0.  0.
        -12    1    1    2    0    0  0.32534918502E+01 -0.19740519741E+02  0.24828347079E+02  0.31886049419E+02  0.00000000000E+00 0.  1.
         11    1    3    3    0    0 -0.13676907579E+02  0.90177678435E+01 -0.10915216010E+02  0.19685524596E+02  0.51100000000E-03 0. -1.
        -11    1    3    3    0    0  0.28916492018E+01  0.73474254242E+01  0.10904093120E+02  0.13462746469E+02  0.51100000000E-03 0.  1.
         12    1    3    3    0    0  0.75317665272E+01  0.33753264732E+01 -0.24817224188E+02  0.26153679516E+02  0.00000000000E+00 0. -1.
</event>
<event>
 7    1  0.3755162E-013  0.5930191E+02  0.7816164E-02  0.1266605E+00
        -11   -1    0    0    0    0  0.00000000000E+00  0.00000000000E+00  0.45593999997E+02  0.45594000000E+02  0.51100000000E-03 0. -1.
         11   -1    0    0    0    0 -0.00000000000E+00 -0.00000000000E+00 -0.45593999997E+02  0.45594000000E+02  0.51100000000E-03 0.  1.
    9900012    2    1    2    0    0 -0.27391843704E+02 -0.15961575360E+02 -0.34113900792E+01  0.59301912568E+02  0.49999942625E+02 0.  0.
        -12    1    1    2    0    0  0.27391843704E+02  0.15961575360E+02  0.34113900792E+01  0.31886087432E+02  0.00000000000E+00 0.  1.
         11    1    3    3    0    0 -0.13365974841E+02 -0.38834767764E+01 -0.42732458190E+01  0.14559921202E+02  0.51100000000E-03 0. -1.
        -11    1    3    3    0    0 -0.16010330654E+02 -0.25830359831E+02 -0.23513259307E+01  0.30480598920E+02  0.51100000000E-03 0.  1.
         12    1    3    3    0    0  0.19844617916E+01  0.13752261248E+02  0.32131816705E+01  0.14261392445E+02  0.00000000000E+00 0. -1.
</event>
<event>
 7    1  0.3755162E-013  0.5930193E+02  0.7816164E-02  0.1266605E+00
        -11   -1    0    0    0    0  0.00000000000E+00  0.00000000000E+00  0.45593999997E+02  0.45594000000E+02  0.51100000000E-03 0.  1.
         11   -1    0    0    0    0 -0.00000000000E+00 -0.00000000000E+00 -0.45593999997E+02  0.45594000000E+02  0.51100000000E-03 0. -1.
    9900012    2    1    2    0    0 -0.20544172691E+02  0.18461657902E+02  0.15931914576E+02  0.59301925514E+02  0.49999966236E+02 0.  0.
        -12    1    1    2    0    0  0.20544172691E+02 -0.18461657902E+02 -0.15931914576E+02  0.31886074486E+02  0.00000000000E+00 0.  1.
         11    1    3    3    0    0  0.60803609644E+01 -0.10529036486E+01  0.34901406240E+01  0.70894624188E+01  0.51100000000E-03 0. -1.
        -11    1    3    3    0    0  0.35682042689E+01  0.19599109193E+02  0.88780442293E+01  0.21810016792E+02  0.51100000000E-03 0.  1.
         12    1    3    3    0    0 -0.30192737925E+02 -0.84547643212E-01  0.35637297226E+01  0.30402446303E+02  0.00000000000E+00 0. -1.
</event>
<event>
 7    1  0.3755162E-013  0.5930198E+02  0.7816164E-02  0.1266605E+00
        -11   -1    0    0    0    0  0.00000000000E+00  0.00000000000E+00  0.45593999997E+02  0.45594000000E+02  0.51100000000E-03 0. -1.
         11   -1    0    0    0    0 -0.00000000000E+00 -0.00000000000E+00 -0.45593999997E+02  0.45594000000E+02  0.51100000000E-03 0.  1.
    9900012    2    1    2    0    0  0.17875870734E+02 -0.65561324355E+01 -0.25577105928E+02  0.59301984654E+02  0.50000074092E+02 0.  0.
        -12    1    1    2    0    0 -0.17875870734E+02  0.65561324355E+01  0.25577105928E+02  0.31886015346E+02  0.00000000000E+00 0.  1.
         11    1    3    3    0    0  0.14056098252E+02 -0.17785124364E+02 -0.66827527998E+01  0.23633529824E+02  0.51100000000E-03 0. -1.
        -11    1    3    3    0    0  0.17679261268E+00  0.32100747090E+00  0.71702075158E+01  0.71795666655E+01  0.51100000000E-03 0.  1.
         12    1    3    3    0    0  0.36429798687E+01  0.10907984457E+02 -0.26064560644E+02  0.28488888164E+02  0.00000000000E+00 0. -1.
</event>
<event>
 7    1  0.3755162E-013  0.5930194E+02  0.7816164E-02  0.1266605E+00
        -11   -1    0    0    0    0  0.00000000000E+00  0.00000000000E+00  0.45593999997E+02  0.45594000000E+02  0.51100000000E-03 0.  1.
         11   -1    0    0    0    0 -0.00000000000E+00 -0.00000000000E+00 -0.45593999997E+02  0.45594000000E+02  0.51100000000E-03 0. -1.
    9900012    2    1    2    0    0 -0.25868344147E+01  0.28541556787E+02 -0.13978864737E+02  0.59301939794E+02  0.49999992279E+02 0.  0.
        -12    1    1    2    0    0  0.25868344147E+01 -0.28541556787E+02  0.13978864737E+02  0.31886060206E+02  0.00000000000E+00 0.  1.
         11    1    3    3    0    0  0.15113525174E+01 -0.78963818275E+01 -0.96503398452E+00  0.80974269525E+01  0.51100000000E-03 0. -1.
        -11    1    3    3    0    0 -0.10320715291E+02  0.76373790667E+01  0.78969714003E+01  0.15073449529E+02  0.51100000000E-03 0.  1.
         12    1    3    3    0    0  0.62225283591E+01  0.28800559548E+02 -0.20910802153E+02  0.36131063313E+02  0.00000000000E+00 0. -1.
</event>
<event>
 7    1  0.3755162E-013  0.5930194E+02  0.7816164E-02  0.1266605E+00
        -11   -1    0    0    0    0  0.00000000000E+00  0.00000000000E+00  0.45593999997E+02  0.45594000000E+02  0.51100000000E-03 0.  1.
         11   -1    0    0    0    0 -0.00000000000E+00 -0.00000000000E+00 -0.45593999997E+02  0.45594000000E+02  0.51100000000E-03 0. -1.
    9900012    2    1    2    0    0 -0.19783503707E+01  0.59247123354E+01 -0.31268275129E+02  0.59301935395E+02  0.49999984256E+02 0.  0.
        -12    1    1    2    0    0  0.19783503707E+01 -0.59247123354E+01  0.31268275129E+02  0.31886064605E+02  0.00000000000E+00 0.  1.
         11    1    3    3    0    0 -0.47375302623E+01 -0.35327846164E+01 -0.59098116416E+00  0.59391934747E+01  0.51100000000E-03 0. -1.
        -11    1    3    3    0    0 -0.91206531206E+01  0.17044302508E+02  0.29533183594E+00  0.19333436903E+02  0.51100000000E-03 0.  1.
         12    1    3    3    0    0  0.11879833012E+02 -0.75868055566E+01 -0.30972625801E+02  0.34029305017E+02  0.00000000000E+00 0. -1.
</event>
<event>
 7    1  0.3755162E-013  0.5930194E+02  0.7816164E-02  0.1266605E+00
        -11   -1    0    0    0    0  0.00000000000E+00  0.00000000000E+00  0.45593999997E+02  0.45594000000E+02  0.51100000000E-03 0. -1.
         11   -1    0    0    0    0 -0.00000000000E+00 -0.00000000000E+00 -0.45593999997E+02  0.45594000000E+02  0.51100000000E-03 0.  1.
    9900012    2    1    2    0    0 -0.23819058555E+02  0.84131259078E+01  0.19457454539E+02  0.59301940740E+02  0.49999994005E+02 0.  0.
        -12    1    1    2    0    0  0.23819058555E+02 -0.84131259078E+01 -0.19457454539E+02  0.31886059260E+02  0.00000000000E+00 0.  1.
         11    1    3    3    0    0 -0.43182080723E+01  0.47573631142E+01 -0.76434757001E+01  0.99850961836E+01  0.51100000000E-03 0. -1.
        -11    1    3    3    0    0  0.79320299265E+01 -0.22738570442E+00  0.18780472719E+02  0.20388108270E+02  0.51100000000E-03 0.  1.
         12    1    3    3    0    0 -0.27432880409E+02  0.38831484980E+01  0.83204575193E+01  0.28928736286E+02  0.00000000000E+00 0. -1.
</event>
<event>
 7    1  0.3755162E-013  0.5930195E+02  0.7816164E-02  0.1266605E+00
        -11   -1    0    0    0    0  0.00000000000E+00  0.00000000000E+00  0.45593999997E+02  0.45594000000E+02  0.51100000000E-03 0. -1.
         11   -1    0    0    0    0 -0.00000000000E+00 -0.00000000000E+00 -0.45593999997E+02  0.45594000000E+02  0.51100000000E-03 0.  1.
    9900012    2    1    2    0    0 -0.66504364191E+01 -0.20098877611E+01  0.31119965723E+02  0.59301949445E+02  0.50000009880E+02 0.  0.
        -12    1    1    2    0    0  0.66504364191E+01  0.20098877611E+01 -0.31119965723E+02  0.31886050555E+02  0.00000000000E+00 0.  1.
         11    1    3    3    0    0 -0.16933720585E+01  0.60655517474E+01 -0.90722466514E+00  0.63625060930E+01  0.51100000000E-03 0. -1.
        -11    1    3    3    0    0 -0.34959167150E+01  0.16719472600E+02  0.10347534520E+02  0.19970820429E+02  0.51100000000E-03 0.  1.
         12    1    3    3    0    0 -0.14611476457E+01 -0.24794912108E+02  0.21679655869E+02  0.32968622923E+02  0.00000000000E+00 0. -1.
</event>
<event>
 7    1  0.3755162E-013  0.5930202E+02  0.7816164E-02  0.1266605E+00
        -11   -1    0    0    0    0  0.00000000000E+00  0.00000000000E+00  0.45593999997E+02  0.45594000000E+02  0.51100000000E-03 0.  1.
         11   -1    0    0    0    0 -0.00000000000E+00 -0.00000000000E+00 -0.45593999997E+02  0.45594000000E+02  0.51100000000E-03 0. -1.
    9900012    2    1    2    0    0  0.17550173424E+02  0.19142226310E+02 -0.18500876208E+02  0.59302018194E+02  0.50000135260E+02 0.  0.
        -12    1    1    2    0    0 -0.17550173424E+02 -0.19142226310E+02  0.18500876208E+02  0.31885981806E+02  0.00000000000E+00 0.  1.
         11    1    3    3    0    0  0.27707000813E+02  0.71006337511E+01 -0.21415115562E+02  0.35730995907E+02  0.51100000000E-03 0. -1.
        -11    1    3    3    0    0 -0.63831726675E+00  0.13709579625E+02  0.15511488156E+01  0.13811809633E+02  0.51100000000E-03 0.  1.
        -12    1    3    3    0    0 -0.95185101225E+01 -0.16679870656E+01  0.13630905389E+01  0.97592126537E+01  0.00000000000E+00 0.  1.
</event>
<event>
 7    1  0.3755162E-013  0.5930192E+02  0.7816164E-02  0.1266605E+00
        -11   -1    0    0    0    0  0.00000000000E+00  0.00000000000E+00  0.45593999997E+02  0.45594000000E+02  0.51100000000E-03 0.  1.
         11   -1    0    0    0    0 -0.00000000000E+00 -0.00000000000E+00 -0.45593999997E+02  0.45594000000E+02  0.51100000000E-03 0. -1.
    9900012    2    1    2    0    0 -0.27898351505E+02 -0.29944411729E+01 -0.15147186835E+02  0.59301922103E+02  0.49999960014E+02 0.  0.
        -12    1    1    2    0    0  0.27898351505E+02  0.29944411729E+01  0.15147186835E+02  0.31886077897E+02  0.00000000000E+00 0.  1.
         11    1    3    3    0    0 -0.17332852002E+02  0.70147090536E+01 -0.37501000687E+00  0.18702260142E+02  0.51100000000E-03 0.  1.
        -11    1    3    3    0    0 -0.61545141637E+01  0.11443512804E+02 -0.13384737673E+02  0.18654308691E+02  0.51100000000E-03 0. -1.
        -12    1    3    3    0    0 -0.44109853394E+01 -0.21452663030E+02 -0.13874391547E+01  0.21945353271E+02  0.00000000000E+00 0.  1.
</event>
<event>
 7    1  0.3755162E-013  0.5930230E+02  0.7816164E-02  0.1266604E+00
        -11   -1    0    0    0    0  0.00000000000E+00  0.00000000000E+00  0.45593999997E+02  0.45594000000E+02  0.51100000000E-03 0. -1.
         11   -1    0    0    0    0 -0.00000000000E+00 -0.00000000000E+00 -0.45593999997E+02  0.45594000000E+02  0.51100000000E-03 0.  1.
    9900012    2    1    2    0    0 -0.13313372098E+02  0.27451085735E+02  0.92676744462E+01  0.59302301414E+02  0.50000651783E+02 0.  0.
        -12    1    1    2    0    0  0.13313372098E+02 -0.27451085735E+02 -0.92676744462E+01  0.31885698586E+02  0.00000000000E+00 0.  1.
         11    1    3    3    0    0 -0.94328412383E+01  0.73117697333E+00  0.98466080244E+01  0.13655358049E+02  0.51100000000E-03 0.  1.
        -11    1    3    3    0    0 -0.96089613685E+01  0.12118034205E+02  0.16393007447E+02  0.22536849492E+02  0.51100000000E-03 0. -1.
        -12    1    3    3    0    0  0.57284305088E+01  0.14601874557E+02 -0.16971941026E+02  0.23110093873E+02  0.00000000000E+00 0.  1.
</event>
<event>
 7    1  0.3755162E-013  0.5930197E+02  0.7816164E-02  0.1266605E+00
        -11   -1    0    0    0    0  0.00000000000E+00  0.00000000000E+00  0.45593999997E+02  0.45594000000E+02  0.51100000000E-03 0. -1.
         11   -1    0    0    0    0 -0.00000000000E+00 -0.00000000000E+00 -0.45593999997E+02  0.45594000000E+02  0.51100000000E-03 0.  1.
    9900012    2    1    2    0    0  0.13442486653E+02 -0.27555774209E+02  0.87577429425E+01  0.59301965422E+02  0.50000039018E+02 0.  0.
        -12    1    1    2    0    0 -0.13442486653E+02  0.27555774209E+02 -0.87577429425E+01  0.31886034578E+02  0.00000000000E+00 0.  1.
         11    1    3    3    0    0  0.93630130441E+01 -0.77309211834E+00 -0.32029241916E+01  0.99258454716E+01  0.51100000000E-03 0. -1.
        -11    1    3    3    0    0  0.56588883339E+01  0.81583089249E+01 -0.42810218924E+01  0.10812408168E+02  0.51100000000E-03 0.  1.
         12    1    3    3    0    0 -0.15794147249E+01 -0.34940991015E+02  0.16241689027E+02  0.38563711782E+02  0.00000000000E+00 0. -1.
</event>
<event>
 7    1  0.3755162E-013  0.5930195E+02  0.7816164E-02  0.1266605E+00
        -11   -1    0    0    0    0  0.00000000000E+00  0.00000000000E+00  0.45593999997E+02  0.45594000000E+02  0.51100000000E-03 0.  1.
         11   -1    0    0    0    0 -0.00000000000E+00 -0.00000000000E+00 -0.45593999997E+02  0.45594000000E+02  0.51100000000E-03 0. -1.
    9900012    2    1    2    0    0 -0.54415283534E+01  0.12809682153E+02 -0.28688358317E+02  0.59301951474E+02  0.50000013581E+02 0.  0.
        -12    1    1    2    0    0  0.54415283534E+01 -0.12809682153E+02  0.28688358317E+02  0.31886048526E+02  0.00000000000E+00 0.  1.
         11    1    3    3    0    0 -0.12076497512E+02 -0.99510656252E+01 -0.14683523446E+02  0.21458596420E+02  0.51100000000E-03 0. -1.
        -11    1    3    3    0    0 -0.75817792976E+01  0.17942722998E+02 -0.42375140636E+01  0.19934422781E+02  0.51100000000E-03 0.  1.
        -12    1    3    3    0    0  0.14216748456E+02  0.48180247803E+01 -0.97673208067E+01  0.17908932274E+02  0.00000000000E+00 0.  1.
</event>
<event>
 7    1  0.3755162E-013  0.5930195E+02  0.7816164E-02  0.1266605E+00
        -11   -1    0    0    0    0  0.00000000000E+00  0.00000000000E+00  0.45593999997E+02  0.45594000000E+02  0.51100000000E-03 0.  1.
         11   -1    0    0    0    0 -0.00000000000E+00 -0.00000000000E+00 -0.45593999997E+02  0.45594000000E+02  0.51100000000E-03 0. -1.
    9900012    2    1    2    0    0  0.15319571877E+02 -0.20010851197E+00 -0.27964099975E+02  0.59301949550E+02  0.50000010071E+02 0.  0.
        -12    1    1    2    0    0 -0.15319571877E+02  0.20010851197E+00  0.27964099975E+02  0.31886050450E+02  0.00000000000E+00 0.  1.
         11    1    3    3    0    0  0.10181257826E+01 -0.75701871936E+01 -0.39118830696E+01  0.85817914019E+01  0.51100000000E-03 0. -1.
        -11    1    3    3    0    0 -0.10320386261E+02  0.18694383959E+01  0.55169313829E+01  0.11850810294E+02  0.51100000000E-03 0.  1.
         12    1    3    3    0    0  0.24621832355E+02  0.55006402857E+01 -0.29569148288E+02  0.38869347854E+02  0.00000000000E+00 0. -1.
</event>
<event>
 7    1  0.3755162E-013  0.5930195E+02  0.7816164E-02  0.1266605E+00
        -11   -1    0    0    0    0  0.00000000000E+00  0.00000000000E+00  0.45593999997E+02  0.45594000000E+02  0.51100000000E-03 0.  1.
         11   -1    0    0    0    0 -0.00000000000E+00 -0.00000000000E+00 -0.45593999997E+02  0.45594000000E+02  0.51100000000E-03 0. -1.
    9900012    2    1    2    0    0 -0.18639792276E+02  0.42913553834E+01 -0.25512010838E+02  0.59301948440E+02  0.50000008046E+02 0.  0.
        -12    1    1    2    0    0  0.18639792276E+02 -0.42913553834E+01  0.25512010838E+02  0.31886051560E+02  0.00000000000E+00 0.  1.
         11    1    3    3    0    0 -0.24249891454E+02 -0.57113621744E+01 -0.25969270487E+02  0.35987218610E+02  0.51100000000E-03 0. -1.
        -11    1    3    3    0    0  0.57920554140E+00  0.33936669301E+01 -0.96422520726E+01  0.10238431500E+02  0.51100000000E-03 0.  1.
        -12    1    3    3    0    0  0.50308936365E+01  0.66090506277E+01  0.10099511722E+02  0.13076298329E+02  0.00000000000E+00 0.  1.
</event>
<event>
 7    1  0.3755162E-013  0.5930190E+02  0.7816164E-02  0.1266605E+00
        -11   -1    0    0    0    0  0.00000000000E+00  0.00000000000E+00  0.45593999997E+02  0.45594000000E+02  0.51100000000E-03 0.  1.
         11   -1    0    0    0    0 -0.00000000000E+00 -0.00000000000E+00 -0.45593999997E+02  0.45594000000E+02  0.51100000000E-03 0. -1.
    9900012    2    1    2    0    0 -0.31177325773E+02 -0.53552753611E+01 -0.40023133019E+01  0.59301903840E+02  0.49999926707E+02 0.  0.
        -12    1    1    2    0    0  0.31177325773E+02  0.53552753611E+01  0.40023133019E+01  0.31886096160E+02  0.00000000000E+00 0.  1.
         11    1    3    3    0    0 -0.16797187765E+02 -0.45619583288E+01 -0.82699673154E+01  0.19270426572E+02  0.51100000000E-03 0. -1.
        -11    1    3    3    0    0 -0.22180226725E+02  0.10751464627E+01 -0.94560748864E+01  0.24135777386E+02  0.51100000000E-03 0.  1.
        -12    1    3    3    0    0  0.78000887170E+01 -0.18684634950E+01  0.13723728900E+02  0.15895699882E+02  0.00000000000E+00 0.  1.
</event>
<event>
 7    1  0.3755162E-013  0.5930195E+02  0.7816164E-02  0.1266605E+00
        -11   -1    0    0    0    0  0.00000000000E+00  0.00000000000E+00  0.45593999997E+02  0.45594000000E+02  0.51100000000E-03 0.  1.
         11   -1    0    0    0    0 -0.00000000000E+00 -0.00000000000E+00 -0.45593999997E+02  0.45594000000E+02  0.51100000000E-03 0. -1.
    9900012    2    1    2    0    0 -0.31159728472E+02 -0.64524462767E+01 -0.20389408609E+01  0.59301952562E+02  0.50000015564E+02 0.  0.
        -12    1    1    2    0    0  0.31159728472E+02  0.64524462767E+01  0.20389408609E+01  0.31886047438E+02  0.00000000000E+00 0.  1.
         11    1    3    3    0    0  0.11240464031E+01  0.50967204443E+01 -0.59187417018E+01  0.78912320456E+01  0.51100000000E-03 0. -1.
        -11    1    3    3    0    0 -0.14578860054E+02 -0.19800492315E+01  0.20552765115E+02  0.25276073856E+02  0.51100000000E-03 0.  1.
         12    1    3    3    0    0 -0.17704914821E+02 -0.95691174895E+01 -0.16672964274E+02  0.26134646660E+02  0.00000000000E+00 0. -1.
</event>
<event>
 7    1  0.3755162E-013  0.5930194E+02  0.7816164E-02  0.1266605E+00
        -11   -1    0    0    0    0  0.00000000000E+00  0.00000000000E+00  0.45593999997E+02  0.45594000000E+02  0.51100000000E-03 0.  1.
         11   -1    0    0    0    0 -0.00000000000E+00 -0.00000000000E+00 -0.45593999997E+02  0.45594000000E+02  0.51100000000E-03 0. -1.
    9900012    2    1    2    0    0 -0.31380142455E+01 -0.30892793988E+02 -0.72463014611E+01  0.59301941312E+02  0.49999995047E+02 0.  0.
        -12    1    1    2    0    0  0.31380142455E+01  0.30892793988E+02  0.72463014611E+01  0.31886058688E+02  0.00000000000E+00 0.  1.
         11    1    3    3    0    0  0.25214634718E+01  0.22288220543E+01  0.90614424682E+01  0.96661867174E+01  0.51100000000E-03 0. -1.
        -11    1    3    3    0    0  0.10123637997E+02 -0.66868693439E+00 -0.71273334827E+01  0.12398954446E+02  0.51100000000E-03 0.  1.
         12    1    3    3    0    0 -0.15783115714E+02 -0.32452929108E+02 -0.91804104466E+01  0.37236800149E+02  0.00000000000E+00 0. -1.
</event>
<event>
 7    1  0.3755162E-013  0.5930192E+02  0.7816164E-02  0.1266605E+00
        -11   -1    0    0    0    0  0.00000000000E+00  0.00000000000E+00  0.45593999997E+02  0.45594000000E+02  0.51100000000E-03 0.  1.
         11   -1    0    0    0    0 -0.00000000000E+00 -0.00000000000E+00 -0.45593999997E+02  0.45594000000E+02  0.51100000000E-03 0. -1.
    9900012    2    1    2    0    0  0.11519016098E+02  0.20173747455E+02 -0.21841567586E+02  0.59301923213E+02  0.49999962039E+02 0.  0.
        -12    1    1    2    0    0 -0.11519016098E+02 -0.20173747455E+02  0.21841567586E+02  0.31886076787E+02  0.00000000000E+00 0.  1.
         11    1    3    3    0    0  0.10527030652E+02  0.76434342138E+01  0.53165818512E+01  0.14053700715E+02  0.51100000000E-03 0. -1.
        -11    1    3    3    0    0  0.41333292383E+01 -0.23674011009E+01  0.66441842061E+01  0.81752175868E+01  0.51100000000E-03 0.  1.
         12    1    3    3    0    0 -0.31413437921E+01  0.14897714342E+02 -0.33802333644E+02  0.37073004912E+02  0.00000000000E+00 0. -1.
</event>
<event>
 7    1  0.3755162E-013  0.5930194E+02  0.7816164E-02  0.1266605E+00
        -11   -1    0    0    0    0  0.00000000000E+00  0.00000000000E+00  0.45593999997E+02  0.45594000000E+02  0.51100000000E-03 0. -1.
         11   -1    0    0    0    0 -0.00000000000E+00 -0.00000000000E+00 -0.45593999997E+02  0.45594000000E+02  0.51100000000E-03 0.  1.
    9900012    2    1    2    0    0 -0.10403090506E+02  0.29264179379E+02  0.72183219289E+01  0.59301942573E+02  0.49999997346E+02 0.  0.
        -12    1    1    2    0    0  0.10403090506E+02 -0.29264179379E+02 -0.72183219289E+01  0.31886057427E+02  0.00000000000E+00 0.  1.
         11    1    3    3    0    0 -0.29217658122E+01  0.51145393701E+01  0.10581270840E+02  0.12110265120E+02  0.51100000000E-03 0. -1.
        -11    1    3    3    0    0 -0.99857361470E+01 -0.66878846741E+00  0.13702511713E+02  0.16968235969E+02  0.51100000000E-03 0.  1.
        -12    1    3    3    0    0  0.25044114530E+01  0.24818428476E+02 -0.17065460624E+02  0.30223441483E+02  0.00000000000E+00 0.  1.
</event>
<event>
 7    1  0.3755162E-013  0.5930193E+02  0.7816164E-02  0.1266605E+00
        -11   -1    0    0    0    0  0.00000000000E+00  0.00000000000E+00  0.45593999997E+02  0.45594000000E+02  0.51100000000E-03 0.  1.
         11   -1    0    0    0    0 -0.00000000000E+00 -0.00000000000E+00 -0.45593999997E+02  0.45594000000E+02  0.51100000000E-03 0. -1.
    9900012    2    1    2    0    0 -0.64390211874E+01  0.29931874014E+02 -0.89074785228E+01  0.59301933302E+02  0.49999980439E+02 0.  0.
        -12    1    1    2    0    0  0.64390211874E+01 -0.29931874014E+02  0.89074785228E+01  0.31886066698E+02  0.00000000000E+00 0.  1.
         11    1    3    3    0    0 -0.12614783810E+01  0.40221029151E+01  0.64117837348E+01  0.76733050564E+01  0.51100000000E-03 0. -1.
        -11    1    3    3    0    0  0.10598313291E+00  0.23444484163E+02  0.10115725027E+02  0.25533957061E+02  0.51100000000E-03 0.  1.
         12    1    3    3    0    0 -0.52835259394E+01  0.24652869355E+01 -0.25434987285E+02  0.26094671184E+02  0.00000000000E+00 0. -1.
</event>
<event>
 7    1  0.3755162E-013  0.5930201E+02  0.7816164E-02  0.1266605E+00
        -11   -1    0    0    0    0  0.00000000000E+00  0.00000000000E+00  0.45593999997E+02  0.45594000000E+02  0.51100000000E-03 0.  1.
         11   -1    0    0    0    0 -0.00000000000E+00 -0.00000000000E+00 -0.45593999997E+02  0.45594000000E+02  0.51100000000E-03 0. -1.
    9900012    2    1    2    0    0 -0.85967857862E+01  0.22912546363E+02 -0.20440818587E+02  0.59302006662E+02  0.50000114229E+02 0.  0.
        -12    1    1    2    0    0  0.85967857862E+01 -0.22912546363E+02  0.20440818587E+02  0.31885993338E+02  0.00000000000E+00 0.  1.
         11    1    3    3    0    0  0.64501473010E+01  0.22856280532E+02 -0.11534658682E+02  0.26401937640E+02  0.51100000000E-03 0. -1.
        -11    1    3    3    0    0  0.25508047903E+00  0.44503337181E+00  0.91865931618E+01  0.92009029412E+01  0.51100000000E-03 0.  1.
        -12    1    3    3    0    0 -0.15302013566E+02 -0.38876754152E+00 -0.18092753066E+02  0.23699166080E+02  0.00000000000E+00 0.  1.
</event>
<event>
 7    1  0.3755162E-013  0.5930195E+02  0.7816164E-02  0.1266605E+00
        -11   -1    0    0    0    0  0.00000000000E+00  0.00000000000E+00  0.45593999997E+02  0.45594000000E+02  0.51100000000E-03 0. -1.
         11   -1    0    0    0    0 -0.00000000000E+00 -0.00000000000E+00 -0.45593999997E+02  0.45594000000E+02  0.51100000000E-03 0.  1.
    9900012    2    1    2    0    0 -0.25016902028E+02  0.19929999685E+01  0.19669837220E+02  0.59301953958E+02  0.50000018110E+02 0.  0.
        -12    1    1    2    0    0  0.25016902028E+02 -0.19929999685E+01 -0.19669837220E+02  0.31886046042E+02  0.00000000000E+00 0.  1.
         11    1    3    3    0    0 -0.94814954562E+01  0.11123796566E+02 -0.14831959416E+01  0.14691408258E+02  0.51100000000E-03 0. -1.
        -11    1    3    3    0    0  0.11212803591E+02 -0.38335885439E+01  0.82848058386E+01  0.14458954787E+02  0.51100000000E-03 0.  1.
         12    1    3    3    0    0 -0.26748210163E+02 -0.52972080539E+01  0.12868227323E+02  0.30151590912E+02  0.00000000000E+00 0. -1.
</event>
<event>
 7    1  0.3755162E-013  0.5930214E+02  0.7816164E-02  0.1266604E+00
        -11   -1    0    0    0    0  0.00000000000E+00  0.00000000000E+00  0.45593999997E+02  0.45594000000E+02  0.51100000000E-03 0. -1.
         11   -1    0    0    0    0 -0.00000000000E+00 -0.00000000000E+00 -0.45593999997E+02  0.45594000000E+02  0.51100000000E-03 0.  1.
    9900012    2    1    2    0    0 -0.16607687806E+02  0.88308659702E+01  0.25747009411E+02  0.59302141353E+02  0.50000359873E+02 0.  0.
        -12    1    1    2    0    0  0.16607687806E+02 -0.88308659702E+01 -0.25747009411E+02  0.31885858647E+02  0.00000000000E+00 0.  1.
         11    1    3    3    0    0 -0.11027036692E+02  0.16176549678E+02 -0.98001792508E-01  0.19577688891E+02  0.51100000000E-03 0. -1.
        -11    1    3    3    0    0  0.87064734463E+01  0.21374411686E+01  0.31561004997E+00  0.89705598814E+01  0.51100000000E-03 0.  1.
        -12    1    3    3    0    0 -0.14287124560E+02 -0.94831248761E+01  0.25529401154E+02  0.30753892581E+02  0.00000000000E+00 0.  1.
</event>
<event>
 7    1  0.3755162E-013  0.5930196E+02  0.7816164E-02  0.1266605E+00
        -11   -1    0    0    0    0  0.00000000000E+00  0.00000000000E+00  0.45593999997E+02  0.45594000000E+02  0.51100000000E-03 0.  1.
         11   -1    0    0    0    0 -0.00000000000E+00 -0.00000000000E+00 -0.45593999997E+02  0.45594000000E+02  0.51100000000E-03 0. -1.
    9900012    2    1    2    0    0  0.28243324948E+02  0.14358141461E+02  0.35885817111E+01  0.59301959966E+02  0.50000029067E+02 0.  0.
        -12    1    1    2    0    0 -0.28243324948E+02 -0.14358141461E+02 -0.35885817111E+01  0.31886040034E+02  0.00000000000E+00 0.  1.
         11    1    3    3    0    0  0.16374329150E+02  0.36212479394E+01  0.76071511840E+01  0.18414690906E+02  0.51100000000E-03 0. -1.
        -11    1    3    3    0    0  0.22220941961E+02  0.16622025655E+02 -0.69847255415E+01  0.28615527073E+02  0.51100000000E-03 0.  1.
         12    1    3    3    0    0 -0.10351946163E+02 -0.58851321331E+01  0.29661560686E+01  0.12271741987E+02  0.00000000000E+00 0. -1.
</event>
<event>
 7    1  0.3755162E-013  0.5930194E+02  0.7816164E-02  0.1266605E+00
        -11   -1    0    0    0    0  0.00000000000E+00  0.00000000000E+00  0.45593999997E+02  0.45594000000E+02  0.51100000000E-03 0.  1.
         11   -1    0    0    0    0 -0.00000000000E+00 -0.00000000000E+00 -0.45593999997E+02  0.45594000000E+02  0.51100000000E-03 0. -1.
    9900012    2    1    2    0    0  0.22667134556E+02  0.21668456399E+02 -0.57792456466E+01  0.59301942358E+02  0.49999996955E+02 0.  0.
        -12    1    1    2    0    0 -0.22667134556E+02 -0.21668456399E+02  0.57792456466E+01  0.31886057642E+02  0.00000000000E+00 0.  1.
         11    1    3    3    0    0  0.11342067733E+02  0.28075622438E+02 -0.74822510019E+01  0.31190818457E+02  0.51100000000E-03 0. -1.
        -11    1    3    3    0    0 -0.77812270657E+01  0.96700148429E-02 -0.70320846676E+00  0.78129437836E+01  0.51100000000E-03 0.  1.
         12    1    3    3    0    0  0.19106293889E+02 -0.64168360535E+01  0.24062138220E+01  0.20298180117E+02  0.00000000000E+00 0. -1.
</event>
<event>
 7    1  0.3755162E-013  0.5930195E+02  0.7816164E-02  0.1266605E+00
        -11   -1    0    0    0    0  0.00000000000E+00  0.00000000000E+00  0.45593999997E+02  0.45594000000E+02  0.51100000000E-03 0.  1.
         11   -1    0    0    0    0 -0.00000000000E+00 -0.00000000000E+00 -0.45593999997E+02  0.45594000000E+02  0.51100000000E-03 0. -1.
    9900012    2    1    2    0    0 -0.17371120522E+02 -0.22871047483E+02 -0.13852055999E+02  0.59301951381E+02  0.50000013411E+02 0.  0.
        -12    1    1    2    0    0  0.17371120522E+02  0.22871047483E+02  0.13852055999E+02  0.31886048619E+02  0.00000000000E+00 0.  1.
         11    1    3    3    0    0  0.12691453201E+02 -0.95127688442E+01 -0.10877022981E+02  0.19232144566E+02  0.51100000000E-03 0. -1.
        -11    1    3    3    0    0  0.13515653920E+01  0.23137213134E+01  0.34623088411E+01  0.43780838385E+01  0.51100000000E-03 0.  1.
         12    1    3    3    0    0 -0.31414139115E+02 -0.15671999952E+02 -0.64373418592E+01  0.35691722976E+02  0.00000000000E+00 0. -1.
</event>
<event>
 7    1  0.3755162E-013  0.5930194E+02  0.7816164E-02  0.1266605E+00
        -11   -1    0    0    0    0  0.00000000000E+00  0.00000000000E+00  0.45593999997E+02  0.45594000000E+02  0.51100000000E-03 0. -1.
         11   -1    0    0    0    0 -0.00000000000E+00 -0.00000000000E+00 -0.45593999997E+02  0.45594000000E+02  0.51100000000E-03 0.  1.
    9900012    2    1    2    0    0 -0.38113348367E+01  0.24784707888E+02  0.19695494040E+02  0.59301944995E+02  0.50000001764E+02 0.  0.
        -12    1    1    2    0    0  0.38113348367E+01 -0.24784707888E+02 -0.19695494040E+02  0.31886055005E+02  0.00000000000E+00 0.  1.
         11    1    3    3    0    0 -0.16908068700E+01 -0.30935192265E-01 -0.41118622563E+01  0.44460315263E+01  0.51100000000E-03 0. -1.
        -11    1    3    3    0    0  0.48982367353E+01  0.67504025540E+01 -0.11720814641E+02  0.14385345108E+02  0.51100000000E-03 0.  1.
         12    1    3    3    0    0 -0.70187647020E+01  0.18065240526E+02  0.35528170938E+02  0.40470568360E+02  0.00000000000E+00 0. -1.
</event>
<event>
 7    1  0.3755162E-013  0.5930196E+02  0.7816164E-02  0.1266605E+00
        -11   -1    0    0    0    0  0.00000000000E+00  0.00000000000E+00  0.45593999997E+02  0.45594000000E+02  0.51100000000E-03 0. -1.
         11   -1    0    0    0    0 -0.00000000000E+00 -0.00000000000E+00 -0.45593999997E+02  0.45594000000E+02  0.51100000000E-03 0.  1.
    9900012    2    1    2    0    0 -0.82727082094E+01 -0.30472202569E+02  0.44414982169E+01  0.59301957020E+02  0.50000023695E+02 0.  0.
        -12    1    1    2    0    0  0.82727082094E+01  0.30472202569E+02 -0.44414982169E+01  0.31886042980E+02  0.00000000000E+00 0.  1.
         11    1    3    3    0    0  0.73412548617E+01 -0.20048546529E+01  0.15287463435E+01  0.77621215378E+01  0.51100000000E-03 0. -1.
        -11    1    3    3    0    0  0.39268817665E+01 -0.30944649840E+02  0.54980325621E+01  0.31673650191E+02  0.51100000000E-03 0.  1.
        -12    1    3    3    0    0 -0.19540844838E+02  0.24773019242E+01 -0.25852806886E+01  0.19866185291E+02  0.00000000000E+00 0.  1.
</event>
<event>
 7    1  0.3755162E-013  0.5930195E+02  0.7816164E-02  0.1266605E+00
        -11   -1    0    0    0    0  0.00000000000E+00  0.00000000000E+00  0.45593999997E+02  0.45594000000E+02  0.51100000000E-03 0. -1.
         11   -1    0    0    0    0 -0.00000000000E+00 -0.00000000000E+00 -0.45593999997E+02  0.45594000000E+02  0.51100000000E-03 0.  1.
    9900012    2    1    2    0    0 -0.99587053422E+00 -0.26820235818E+02  0.17216378607E+02  0.59301945057E+02  0.50000001878E+02 0.  0.
        -12    1    1    2    0    0  0.99587053422E+00  0.26820235818E+02 -0.17216378607E+02  0.31886054943E+02  0.00000000000E+00 0.  1.
         11    1    3    3    0    0 -0.12412305520E+02 -0.22820913371E+02  0.24235414929E+02  0.35527661792E+02  0.51100000000E-03 0. -1.
        -11    1    3    3    0    0 -0.26247387600E+01 -0.75922736893E+01 -0.39819135168E+01  0.89659081441E+01  0.51100000000E-03 0.  1.
        -12    1    3    3    0    0  0.14041173746E+02  0.35929512419E+01 -0.30371228052E+01  0.14808375121E+02  0.00000000000E+00 0.  1.
</event>
<event>
 7    1  0.3755162E-013  0.5930195E+02  0.7816164E-02  0.1266605E+00
        -11   -1    0    0    0    0  0.00000000000E+00  0.00000000000E+00  0.45593999997E+02  0.45594000000E+02  0.51100000000E-03 0.  1.
         11   -1    0    0    0    0 -0.00000000000E+00 -0.00000000000E+00 -0.45593999997E+02  0.45594000000E+02  0.51100000000E-03 0. -1.
    9900012    2    1    2    0    0  0.20876808598E+02 -0.54675014666E+01 -0.23473082182E+02  0.59301948243E+02  0.50000007687E+02 0.  0.
        -12    1    1    2    0    0 -0.20876808598E+02  0.54675014666E+01  0.23473082182E+02  0.31886051757E+02  0.00000000000E+00 0.  1.
         11    1    3    3    0    0 -0.39985087886E+01 -0.20876012689E+02 -0.87418972388E+01  0.22982966430E+02  0.51100000000E-03 0. -1.
        -11    1    3    3    0    0  0.17002064945E+01  0.15172766735E+01  0.31725119852E+01  0.39061058851E+01  0.51100000000E-03 0.  1.
         12    1    3    3    0    0  0.23175110892E+02  0.13891234549E+02 -0.17903696929E+02  0.32412875927E+02  0.00000000000E+00 0. -1.
</event>
<event>
 7    1  0.3755162E-013  0.5930195E+02  0.7816164E-02  0.1266605E+00
        -11   -1    0    0    0    0  0.00000000000E+00  0.00000000000E+00  0.45593999997E+02  0.45594000000E+02  0.51100000000E-03 0.  1.
         11   -1    0    0    0    0 -0.00000000000E+00 -0.00000000000E+00 -0.45593999997E+02  0.45594000000E+02  0.51100000000E-03 0. -1.
    9900012    2    1    2    0    0 -0.10229880419E+02  0.26923240628E+02 -0.13682419601E+02  0.59301953751E+02  0.50000017732E+02 0.  0.
        -12    1    1    2    0    0  0.10229880419E+02 -0.26923240628E+02  0.13682419601E+02  0.31886046249E+02  0.00000000000E+00 0.  1.
         11    1    3    3    0    0 -0.19598593502E+02  0.25490270294E+02 -0.12444332719E+02  0.34477821335E+02  0.51100000000E-03 0. -1.
        -11    1    3    3    0    0 -0.14649673705E+01 -0.12374944826E+01 -0.10283206721E+02  0.10460490559E+02  0.51100000000E-03 0.  1.
         12    1    3    3    0    0  0.10833680454E+02  0.26704648163E+01  0.90451198389E+01  0.14363641857E+02  0.00000000000E+00 0. -1.
</event>
<event>
 7    1  0.3755162E-013  0.5930197E+02  0.7816164E-02  0.1266605E+00
        -11   -1    0    0    0    0  0.00000000000E+00  0.00000000000E+00  0.45593999997E+02  0.45594000000E+02  0.51100000000E-03 0.  1.
         11   -1    0    0    0    0 -0.00000000000E+00 -0.00000000000E+00 -0.45593999997E+02  0.45594000000E+02  0.51100000000E-03 0. -1.
    9900012    2    1    2    0    0 -0.47450955174E+01  0.10593109350E+02 -0.29698300392E+02  0.59301969463E+02  0.50000046389E+02 0.  0.
        -12    1    1    2    0    0  0.47450955174E+01 -0.10593109350E+02  0.29698300392E+02  0.31886030537E+02  0.00000000000E+00 0.  1.
         11    1    3    3    0    0  0.76376078755E+01  0.16466181799E+02 -0.52286559659E+01  0.18889336689E+02  0.51100000000E-03 0. -1.
        -11    1    3    3    0    0 -0.15596834149E+02 -0.36187666566E+01 -0.39087001353E+00  0.16015913561E+02  0.51100000000E-03 0.  1.
        -12    1    3    3    0    0  0.32141307559E+01 -0.22543057918E+01 -0.24078774413E+02  0.24396719213E+02  0.00000000000E+00 0.  1.
</event>
<event>
 7    1  0.3755162E-013  0.5930195E+02  0.7816164E-02  0.1266605E+00
        -11   -1    0    0    0    0  0.00000000000E+00  0.00000000000E+00  0.45593999997E+02  0.45594000000E+02  0.51100000000E-03 0.  1.
         11   -1    0    0    0    0 -0.00000000000E+00 -0.00000000000E+00 -0.45593999997E+02  0.45594000000E+02  0.51100000000E-03 0. -1.
    9900012    2    1    2    0    0  0.31385210593E+02 -0.31870041958E+01  0.46401998971E+01  0.59301954545E+02  0.50000019180E+02 0.  0.
        -12    1    1    2    0    0 -0.31385210593E+02  0.31870041958E+01 -0.46401998971E+01  0.31886045455E+02  0.00000000000E+00 0.  1.
         11    1    3    3    0    0  0.18249163763E+02 -0.80970456922E+01 -0.60543650971E+01  0.20862633199E+02  0.51100000000E-03 0. -1.
        -11    1    3    3    0    0  0.25993689035E+01 -0.83472854885E+01 -0.89443339253E+01  0.12507397945E+02  0.51100000000E-03 0.  1.
         12    1    3    3    0    0  0.10536677926E+02  0.13257326985E+02  0.19638898919E+02  0.25931923401E+02  0.00000000000E+00 0. -1.
</event>
<event>
 7    1  0.3755162E-013  0.5930197E+02  0.7816164E-02  0.1266605E+00
        -11   -1    0    0    0    0  0.00000000000E+00  0.00000000000E+00  0.45593999997E+02  0.45594000000E+02  0.51100000000E-03 0.  1.
         11   -1    0    0    0    0 -0.00000000000E+00 -0.00000000000E+00 -0.45593999997E+02  0.45594000000E+02  0.51100000000E-03 0. -1.
    9900012    2    1    2    0    0 -0.18099505943E+02 -0.20248884874E+02 -0.16706565709E+02  0.59301971840E+02  0.50000050723E+02 0.  0.
        -12    1    1    2    0    0  0.18099505943E+02  0.20248884874E+02  0.16706565709E+02  0.31886028160E+02  0.00000000000E+00 0.  1.
         11    1    3    3    0    0  0.37588288178E+01 -0.12713003013E+02 -0.67336150603E+01  0.14869122763E+02  0.51100000000E-03 0. -1.
        -11    1    3    3    0    0 -0.10705161453E+01  0.95618175546E+01  0.76232905359E+01  0.12275541480E+02  0.51100000000E-03 0.  1.
         12    1    3    3    0    0 -0.20787818616E+02 -0.17097699415E+02 -0.17596241185E+02  0.32157307597E+02  0.00000000000E+00 0. -1.
</event>
<event>
 7    1  0.3755162E-013  0.5930194E+02  0.7816164E-02  0.1266605E+00
        -11   -1    0    0    0    0  0.00000000000E+00  0.00000000000E+00  0.45593999997E+02  0.45594000000E+02  0.51100000000E-03 0.  1.
         11   -1    0    0    0    0 -0.00000000000E+00 -0.00000000000E+00 -0.45593999997E+02  0.45594000000E+02  0.51100000000E-03 0. -1.
    9900012    2    1    2    0    0  0.93095108100E+01  0.16443705282E+02 -0.25683820048E+02  0.59301936474E+02  0.49999986224E+02 0.  0.
        -12    1    1    2    0    0 -0.93095108100E+01 -0.16443705282E+02  0.25683820048E+02  0.31886063526E+02  0.00000000000E+00 0.  1.
         11    1    3    3    0    0  0.36212003621E+01 -0.66620745759E+01  0.38039547006E+01  0.84833013233E+01  0.51100000000E-03 0. -1.
        -11    1    3    3    0    0 -0.67142891135E+01  0.22338187263E+02 -0.57479157440E+01  0.24023214277E+02  0.51100000000E-03 0.  1.
         12    1    3    3    0    0  0.12402599561E+02  0.76759259478E+00 -0.23739859004E+02  0.26795420874E+02  0.00000000000E+00 0. -1.
</event>
<event>
 7    1  0.3755162E-013  0.5930196E+02  0.7816164E-02  0.1266605E+00
        -11   -1    0    0    0    0  0.00000000000E+00  0.00000000000E+00  0.45593999997E+02  0.45594000000E+02  0.51100000000E-03 0. -1.
         11   -1    0    0    0    0 -0.00000000000E+00 -0.00000000000E+00 -0.45593999997E+02  0.45594000000E+02  0.51100000000E-03 0.  1.
    9900012    2    1    2    0    0  0.23422726200E+02 -0.21560593700E+02  0.17988964398E+01  0.59301963374E+02  0.50000035283E+02 0.  0.
        -12    1    1    2    0    0 -0.23422726200E+02  0.21560593700E+02 -0.17988964398E+01  0.31886036626E+02  0.00000000000E+00 0.  1.
         11    1    3    3    0    0  0.14402716977E+01 -0.48084422010E+01  0.80717092039E+01  0.95051559007E+01  0.51100000000E-03 0. -1.
        -11    1    3    3    0    0  0.87576738365E+01 -0.28744709027E+02 -0.97844905440E+01  0.31602079101E+02  0.51100000000E-03 0.  1.
        -12    1    3    3    0    0  0.13224780666E+02  0.11992557528E+02  0.35116777799E+01  0.18194728372E+02  0.00000000000E+00 0.  1.
</event>
<event>
 7    1  0.3755162E-013  0.5930194E+02  0.7816164E-02  0.1266605E+00
        -11   -1    0    0    0    0  0.00000000000E+00  0.00000000000E+00  0.45593999997E+02  0.45594000000E+02  0.51100000000E-03 0. -1.
         11   -1    0    0    0    0 -0.00000000000E+00 -0.00000000000E+00 -0.45593999997E+02  0.45594000000E+02  0.51100000000E-03 0.  1.
    9900012    2    1    2    0    0 -0.22233095445E+02 -0.22184684971E+02 -0.54999889216E+01  0.59301942569E+02  0.49999997340E+02 0.  0.
        -12    1    1    2    0    0  0.22233095445E+02  0.22184684971E+02  0.54999889216E+01  0.31886057431E+02  0.00000000000E+00 0.  1.
         11    1    3    3    0    0 -0.18014301455E+02 -0.24402728397E+02  0.89802312228E+01  0.31633096011E+02  0.51100000000E-03 0. -1.
        -11    1    3    3    0    0 -0.11411258346E+02 -0.55949843541E+01 -0.98710068900E+01  0.16092154742E+02  0.51100000000E-03 0.  1.
         12    1    3    3    0    0  0.71924643552E+01  0.78130277806E+01 -0.46092132544E+01  0.11576691817E+02  0.00000000000E+00 0. -1.
</event>
<event>
 7    1  0.3755162E-013  0.5930191E+02  0.7816164E-02  0.1266605E+00
        -11   -1    0    0    0    0  0.00000000000E+00  0.00000000000E+00  0.45593999997E+02  0.45594000000E+02  0.51100000000E-03 0.  1.
         11   -1    0    0    0    0 -0.00000000000E+00 -0.00000000000E+00 -0.45593999997E+02  0.45594000000E+02  0.51100000000E-03 0. -1.
    9900012    2    1    2    0    0 -0.94219324601E+01  0.18805468206E+02 -0.23964650505E+02  0.59301907113E+02  0.49999932677E+02 0.  0.
        -12    1    1    2    0    0  0.94219324601E+01 -0.18805468206E+02  0.23964650505E+02  0.31886092887E+02  0.00000000000E+00 0.  1.
         11    1    3    3    0    0  0.19725176405E+01  0.72506248826E+01 -0.70993554889E+01  0.10337467565E+02  0.51100000000E-03 0. -1.
        -11    1    3    3    0    0  0.12462607914E+02  0.11968144052E+02  0.34584710439E+01  0.17621409997E+02  0.51100000000E-03 0.  1.
         12    1    3    3    0    0 -0.23857058015E+02 -0.41330072830E+00 -0.20323766060E+02  0.31343029552E+02  0.00000000000E+00 0. -1.
</event>
<event>
 7    1  0.3755162E-013  0.5930193E+02  0.7816164E-02  0.1266605E+00
        -11   -1    0    0    0    0  0.00000000000E+00  0.00000000000E+00  0.45593999997E+02  0.45594000000E+02  0.51100000000E-03 0. -1.
         11   -1    0    0    0    0 -0.00000000000E+00 -0.00000000000E+00 -0.45593999997E+02  0.45594000000E+02  0.51100000000E-03 0.  1.
    9900012    2    1    2    0    0  0.12012369620E+01 -0.24552776212E+02  0.20308618408E+02  0.59301925114E+02  0.49999965507E+02 0.  0.
        -12    1    1    2    0    0 -0.12012369620E+01  0.24552776212E+02 -0.20308618408E+02  0.31886074886E+02  0.00000000000E+00 0.  1.
         11    1    3    3    0    0 -0.73225015773E+01 -0.93859492867E+01  0.17216050856E+02  0.20931017192E+02  0.51100000000E-03 0. -1.
        -11    1    3    3    0    0 -0.49034701756E+01 -0.22410949158E+02  0.91276841914E+00  0.22959264108E+02  0.51100000000E-03 0.  1.
        -12    1    3    3    0    0  0.13427208715E+02  0.72441222330E+01  0.21797991336E+01  0.15411643814E+02  0.00000000000E+00 0.  1.
</event>
<event>
 7    1  0.3755162E-013  0.5930194E+02  0.7816164E-02  0.1266605E+00
        -11   -1    0    0    0    0  0.00000000000E+00  0.00000000000E+00  0.45593999997E+02  0.45594000000E+02  0.51100000000E-03 0.  1.
         11   -1    0    0    0    0 -0.00000000000E+00 -0.00000000000E+00 -0.45593999997E+02  0.45594000000E+02  0.51100000000E-03 0. -1.
    9900012    2    1    2    0    0 -0.78896226888E+01 -0.26470563708E+02 -0.15930594548E+02  0.59301941418E+02  0.49999995241E+02 0.  0.
        -12    1    1    2    0    0  0.78896226888E+01  0.26470563708E+02  0.15930594548E+02  0.31886058582E+02  0.00000000000E+00 0.  1.
         11    1    3    3    0    0  0.14721884936E+02 -0.15216736098E+02  0.36787208890E+01  0.21489903239E+02  0.51100000000E-03 0. -1.
        -11    1    3    3    0    0 -0.19870148943E+00 -0.20275284843E+01  0.36752225047E+01  0.42020964716E+01  0.51100000000E-03 0.  1.
         12    1    3    3    0    0 -0.22412806136E+02 -0.92262991259E+01 -0.23284537942E+02  0.33609941708E+02  0.00000000000E+00 0. -1.
</event>
<event>
 7    1  0.3755162E-013  0.5930198E+02  0.7816164E-02  0.1266605E+00
        -11   -1    0    0    0    0  0.00000000000E+00  0.00000000000E+00  0.45593999997E+02  0.45594000000E+02  0.51100000000E-03 0.  1.
         11   -1    0    0    0    0 -0.00000000000E+00 -0.00000000000E+00 -0.45593999997E+02  0.45594000000E+02  0.51100000000E-03 0. -1.
    9900012    2    1    2    0    0  0.10079217665E+02  0.20668326013E+02  0.22089543329E+02  0.59301980283E+02  0.50000066121E+02 0.  0.
        -12    1    1    2    0    0 -0.10079217665E+02 -0.20668326013E+02 -0.22089543329E+02  0.31886019717E+02  0.00000000000E+00 0.  1.
         11    1    3    3    0    0 -0.48831743083E+01  0.69397112574E+01 -0.44436199344E+01  0.95786607647E+01  0.51100000000E-03 0. -1.
        -11    1    3    3    0    0  0.16328356633E+02  0.41253810590E+00 -0.36222549511E+01  0.16730395967E+02  0.51100000000E-03 0.  1.
        -12    1    3    3    0    0 -0.13659646595E+01  0.13316076650E+02  0.30155418214E+02  0.32992923551E+02  0.00000000000E+00 0.  1.
</event>
<event>
 7    1  0.3755162E-013  0.5930192E+02  0.7816164E-02  0.1266605E+00
        -11   -1    0    0    0    0  0.00000000000E+00  0.00000000000E+00  0.45593999997E+02  0.45594000000E+02  0.51100000000E-03 0. -1.
         11   -1    0    0    0    0 -0.00000000000E+00 -0.00000000000E+00 -0.45593999997E+02  0.45594000000E+02  0.51100000000E-03 0.  1.
    9900012    2    1    2    0    0 -0.16538866120E+02  0.27258446853E+02  0.40632613699E+00  0.59301919678E+02  0.49999955591E+02 0.  0.
        -12    1    1    2    0    0  0.16538866120E+02 -0.27258446853E+02 -0.40632613699E+00  0.31886080322E+02  0.00000000000E+00 0.  1.
         11    1    3    3    0    0 -0.79530678283E+01  0.74786770144E+01  0.11275433887E+02  0.15694499271E+02  0.51100000000E-03 0. -1.
        -11    1    3    3    0    0 -0.89272272363E+01  0.44895692780E+01  0.12298900675E+02  0.15846595108E+02  0.51100000000E-03 0.  1.
        -12    1    3    3    0    0  0.34142894466E+00  0.15290200561E+02 -0.23168008425E+02  0.27760825299E+02  0.00000000000E+00 0.  1.
</event>
<event>
 7    1  0.3755162E-013  0.5930196E+02  0.7816164E-02  0.1266605E+00
        -11   -1    0    0    0    0  0.00000000000E+00  0.00000000000E+00  0.45593999997E+02  0.45594000000E+02  0.51100000000E-03 0.  1.
         11   -1    0    0    0    0 -0.00000000000E+00 -0.00000000000E+00 -0.45593999997E+02  0.45594000000E+02  0.51100000000E-03 0. -1.
    9900012    2    1    2    0    0 -0.24849485936E+02 -0.19877194984E+02  0.20297150848E+01  0.59301959559E+02  0.50000028325E+02 0.  0.
        -12    1    1    2    0    0  0.24849485936E+02  0.19877194984E+02 -0.20297150848E+01  0.31886040441E+02  0.00000000000E+00 0.  1.
         11    1    3    3    0    0 -0.13975691257E+02 -0.18220984805E+01 -0.16424656813E+02  0.21642766475E+02  0.51100000000E-03 0. -1.
        -11    1    3    3    0    0 -0.18029035794E+02 -0.11634045874E+02  0.67098319184E+01  0.22481525742E+02  0.51100000000E-03 0.  1.
        -12    1    3    3    0    0  0.71552411152E+01 -0.64210506300E+01  0.11744539980E+02  0.15177667342E+02  0.00000000000E+00 0.  1.
</event>
<event>
 7    1  0.3755162E-013  0.5930189E+02  0.7816164E-02  0.1266605E+00
        -11   -1    0    0    0    0  0.00000000000E+00  0.00000000000E+00  0.45593999997E+02  0.45594000000E+02  0.51100000000E-03 0. -1.
         11   -1    0    0    0    0 -0.00000000000E+00 -0.00000000000E+00 -0.45593999997E+02  0.45594000000E+02  0.51100000000E-03 0.  1.
    9900012    2    1    2    0    0 -0.18664531558E+02  0.23166945674E+02  0.11473973912E+02  0.59301887232E+02  0.49999896418E+02 0.  0.
        -12    1    1    2    0    0  0.18664531558E+02 -0.23166945674E+02 -0.11473973912E+02  0.31886112768E+02  0.00000000000E+00 0.  1.
         11    1    3    3    0    0  0.37855099219E+01  0.12649258408E+01  0.36881770633E+01  0.54344064131E+01  0.51100000000E-03 0.  1.
        -11    1    3    3    0    0 -0.18493584399E+02 -0.62494660149E+01  0.14905907466E+02  0.24561241154E+02  0.51100000000E-03 0. -1.
         12    1    3    3    0    0 -0.39564570808E+01  0.28151485848E+02 -0.71201106178E+01  0.29306239665E+02  0.00000000000E+00 0. -1.
</event>
<event>
 7    1  0.3755162E-013  0.5930170E+02  0.7816164E-02  0.1266606E+00
        -11   -1    0    0    0    0  0.00000000000E+00  0.00000000000E+00  0.45593999997E+02  0.45594000000E+02  0.51100000000E-03 0. -1.
         11   -1    0    0    0    0 -0.00000000000E+00 -0.00000000000E+00 -0.45593999997E+02  0.45594000000E+02  0.51100000000E-03 0.  1.
    9900012    2    1    2    0    0  0.23142703980E+02  0.21450595441E+02 -0.45851191663E+01  0.59301700277E+02  0.49999555454E+02 0.  0.
        -12    1    1    2    0    0 -0.23142703980E+02 -0.21450595441E+02  0.45851191663E+01  0.31886299723E+02  0.00000000000E+00 0.  1.
         11    1    3    3    0    0  0.35498610677E+01  0.48041091639E+01  0.55818580704E+01  0.81754582891E+01  0.51100000000E-03 0. -1.
        -11    1    3    3    0    0  0.16821049226E+02  0.94022452888E+01  0.15235717060E+02  0.24565768625E+02  0.51100000000E-03 0.  1.
        -12    1    3    3    0    0  0.27717936865E+01  0.72442409885E+01 -0.25402694296E+02  0.26560473363E+02  0.00000000000E+00 0.  1.
</event>
<event>
 7    1  0.3755162E-013  0.5930194E+02  0.7816164E-02  0.1266605E+00
        -11   -1    0    0    0    0  0.00000000000E+00  0.00000000000E+00  0.45593999997E+02  0.45594000000E+02  0.51100000000E-03 0.  1.
         11   -1    0    0    0    0 -0.00000000000E+00 -0.00000000000E+00 -0.45593999997E+02  0.45594000000E+02  0.51100000000E-03 0. -1.
    9900012    2    1    2    0    0 -0.28628053457E+02  0.12433412902E+02  0.65242532996E+01  0.59301935924E+02  0.49999985221E+02 0.  0.
        -12    1    1    2    0    0  0.28628053457E+02 -0.12433412902E+02 -0.65242532996E+01  0.31886064076E+02  0.00000000000E+00 0.  1.
         11    1    3    3    0    0  0.39882872490E+01  0.51822004317E+01  0.79425778946E+01  0.10288157287E+02  0.51100000000E-03 0. -1.
        -11    1    3    3    0    0  0.47656765645E+01  0.54335519779E+01 -0.82512435779E+01  0.10968964448E+02  0.51100000000E-03 0.  1.
         12    1    3    3    0    0 -0.37382017270E+02  0.18176604929E+01  0.68329189829E+01  0.38044814189E+02  0.00000000000E+00 0. -1.
</event>
<event>
 7    1  0.3755162E-013  0.5930195E+02  0.7816164E-02  0.1266605E+00
        -11   -1    0    0    0    0  0.00000000000E+00  0.00000000000E+00  0.45593999997E+02  0.45594000000E+02  0.51100000000E-03 0.  1.
         11   -1    0    0    0    0 -0.00000000000E+00 -0.00000000000E+00 -0.45593999997E+02  0.45594000000E+02  0.51100000000E-03 0. -1.
    9900012    2    1    2    0    0  0.21094107424E+02  0.14977838666E+02 -0.18639296868E+02  0.59301946515E+02  0.50000004536E+02 0.  0.
        -12    1    1    2    0    0 -0.21094107424E+02 -0.14977838666E+02  0.18639296868E+02  0.31886053485E+02  0.00000000000E+00 0.  1.
         11    1    3    3    0    0  0.23818977501E+02  0.15425803451E+02 -0.24105499283E+02  0.37234046210E+02  0.51100000000E-03 0. -1.
        -11    1    3    3    0    0 -0.79150458671E+01 -0.36370638900E+01 -0.49369321241E+01  0.10012466423E+02  0.51100000000E-03 0.  1.
        -12    1    3    3    0    0  0.51901757905E+01  0.31890991049E+01  0.10403134538E+02  0.12055433881E+02  0.00000000000E+00 0.  1.
</event>
<event>
 7    1  0.3755162E-013  0.5930195E+02  0.7816164E-02  0.1266605E+00
        -11   -1    0    0    0    0  0.00000000000E+00  0.00000000000E+00  0.45593999997E+02  0.45594000000E+02  0.51100000000E-03 0.  1.
         11   -1    0    0    0    0 -0.00000000000E+00 -0.00000000000E+00 -0.45593999997E+02  0.45594000000E+02  0.51100000000E-03 0. -1.
    9900012    2    1    2    0    0  0.22142548411E+02  0.72715513295E+01  0.21761261915E+02  0.59301946168E+02  0.50000003903E+02 0.  0.
        -12    1    1    2    0    0 -0.22142548411E+02 -0.72715513295E+01 -0.21761261915E+02  0.31886053832E+02  0.00000000000E+00 0.  1.
         11    1    3    3    0    0 -0.11517599435E+01  0.62388023473E+01  0.18300089797E+01  0.66028886726E+01  0.51100000000E-03 0.  1.
        -11    1    3    3    0    0  0.94276774449E+01  0.20766752889E+02  0.25052952022E+01  0.22943749298E+02  0.51100000000E-03 0. -1.
        -12    1    3    3    0    0  0.13866630910E+02 -0.19734003907E+02  0.17425957733E+02  0.29755308197E+02  0.00000000000E+00 0.  1.
</event>
<event>
 7    1  0.3755162E-013  0.5930190E+02  0.7816164E-02  0.1266605E+00
        -11   -1    0    0    0    0  0.00000000000E+00  0.00000000000E+00  0.45593999997E+02  0.45594000000E+02  0.51100000000E-03 0. -1.
         11   -1    0    0    0    0 -0.00000000000E+00 -0.00000000000E+00 -0.45593999997E+02  0.45594000000E+02  0.51100000000E-03 0.  1.
    9900012    2    1    2    0    0  0.14604813199E+02 -0.45147750125E+00 -0.28341122292E+02  0.59301896235E+02  0.49999912838E+02 0.  0.
        -12    1    1    2    0    0 -0.14604813199E+02  0.45147750125E+00  0.28341122292E+02  0.31886103765E+02  0.00000000000E+00 0.  1.
         11    1    3    3    0    0  0.80055226835E+01  0.28531820649E+01  0.35367040757E+01  0.92052874649E+01  0.51100000000E-03 0. -1.
        -11    1    3    3    0    0 -0.93267898800E+00  0.16687098906E+02 -0.18299795168E+02  0.24783294040E+02  0.51100000000E-03 0.  1.
        -12    1    3    3    0    0  0.75319695034E+01 -0.19991758472E+02 -0.13578031200E+02  0.25313314731E+02  0.00000000000E+00 0.  1.
</event>
<event>
 7    1  0.3755162E-013  0.5930194E+02  0.7816164E-02  0.1266605E+00
        -11   -1    0    0    0    0  0.00000000000E+00  0.00000000000E+00  0.45593999997E+02  0.45594000000E+02  0.51100000000E-03 0.  1.
         11   -1    0    0    0    0 -0.00000000000E+00 -0.00000000000E+00 -0.45593999997E+02  0.45594000000E+02  0.51100000000E-03 0. -1.
    9900012    2    1    2    0    0 -0.10748517305E+02 -0.24369416722E+02 -0.17530591252E+02  0.59301941522E+02  0.49999995431E+02 0.  0.
        -12    1    1    2    0    0  0.10748517305E+02  0.24369416722E+02  0.17530591252E+02  0.31886058478E+02  0.00000000000E+00 0.  1.
         11    1    3    3    0    0 -0.88959862627E+01 -0.94169298590E+01 -0.24834105142E+02  0.28009818243E+02  0.51100000000E-03 0. -1.
        -11    1    3    3    0    0  0.31289653729E+01 -0.16367318814E+02 -0.54459820071E+01  0.17531065848E+02  0.51100000000E-03 0.  1.
         12    1    3    3    0    0 -0.49814964151E+01  0.14148319518E+01  0.12749495898E+02  0.13761057431E+02  0.00000000000E+00 0. -1.
</event>
<event>
 7    1  0.3755162E-013  0.5930189E+02  0.7816164E-02  0.1266605E+00
        -11   -1    0    0    0    0  0.00000000000E+00  0.00000000000E+00  0.45593999997E+02  0.45594000000E+02  0.51100000000E-03 0. -1.
         11   -1    0    0    0    0 -0.00000000000E+00 -0.00000000000E+00 -0.45593999997E+02  0.45594000000E+02  0.51100000000E-03 0.  1.
    9900012    2    1    2    0    0 -0.57872787946E+01 -0.55963230710E+01  0.30853083175E+02  0.59301887519E+02  0.49999896942E+02 0.  0.
        -12    1    1    2    0    0  0.57872787946E+01  0.55963230710E+01 -0.30853083175E+02  0.31886112481E+02  0.00000000000E+00 0.  1.
         11    1    3    3    0    0 -0.50275469133E+01  0.98310612553E+00 -0.13657998314E+01  0.53017105787E+01  0.51100000000E-03 0. -1.
        -11    1    3    3    0    0 -0.10706449801E+01  0.47995555488E+01 -0.95317790552E+01  0.10725522195E+02  0.51100000000E-03 0.  1.
         12    1    3    3    0    0  0.31091309880E+00 -0.11378984745E+02  0.41750662061E+02  0.43274654745E+02  0.00000000000E+00 0. -1.
</event>
<event>
 7    1  0.3755162E-013  0.5930195E+02  0.7816164E-02  0.1266605E+00
        -11   -1    0    0    0    0  0.00000000000E+00  0.00000000000E+00  0.45593999997E+02  0.45594000000E+02  0.51100000000E-03 0. -1.
         11   -1    0    0    0    0 -0.00000000000E+00 -0.00000000000E+00 -0.45593999997E+02  0.45594000000E+02  0.51100000000E-03 0.  1.
    9900012    2    1    2    0    0 -0.11535792242E+01  0.31575446238E+02  0.42872762765E+01  0.59301948378E+02  0.50000007934E+02 0.  0.
        -12    1    1    2    0    0  0.11535792242E+01 -0.31575446238E+02 -0.42872762765E+01  0.31886051622E+02  0.00000000000E+00 0.  1.
         11    1    3    3    0    0  0.17704077130E+01  0.72259877047E+01 -0.19699332274E+01  0.76960950462E+01  0.51100000000E-03 0. -1.
        -11    1    3    3    0    0 -0.26937503294E+01  0.19041039094E+02 -0.18260430210E+02  0.26519064319E+02  0.51100000000E-03 0.  1.
         12    1    3    3    0    0 -0.23023660779E+00  0.53084194398E+01  0.24517639714E+02  0.25086789013E+02  0.00000000000E+00 0. -1.
</event>
<event>
 7    1  0.3755162E-013  0.5930192E+02  0.7816164E-02  0.1266605E+00
        -11   -1    0    0    0    0  0.00000000000E+00  0.00000000000E+00  0.45593999997E+02  0.45594000000E+02  0.51100000000E-03 0.  1.
         11   -1    0    0    0    0 -0.00000000000E+00 -0.00000000000E+00 -0.45593999997E+02  0.45594000000E+02  0.51100000000E-03 0. -1.
    9900012    2    1    2    0    0 -0.31219728592E+02  0.15149393914E+01  0.63052178673E+01  0.59301917345E+02  0.49999951337E+02 0.  0.
        -12    1    1    2    0    0  0.31219728592E+02 -0.15149393914E+01 -0.63052178673E+01  0.31886082655E+02  0.00000000000E+00 0.  1.
         11    1    3    3    0    0 -0.78032381299E+01 -0.62872778838E+01 -0.79015635430E+01  0.12761469163E+02  0.51100000000E-03 0. -1.
        -11    1    3    3    0    0 -0.51593387478E+01 -0.84443361472E+01 -0.86015323214E+01  0.13111519661E+02  0.51100000000E-03 0.  1.
        -12    1    3    3    0    0 -0.18257151714E+02  0.16246553422E+02  0.22808313732E+02  0.33428928522E+02  0.00000000000E+00 0.  1.
</event>
<event>
 7    1  0.3755162E-013  0.5930196E+02  0.7816164E-02  0.1266605E+00
        -11   -1    0    0    0    0  0.00000000000E+00  0.00000000000E+00  0.45593999997E+02  0.45594000000E+02  0.51100000000E-03 0. -1.
         11   -1    0    0    0    0 -0.00000000000E+00 -0.00000000000E+00 -0.45593999997E+02  0.45594000000E+02  0.51100000000E-03 0.  1.
    9900012    2    1    2    0    0 -0.14790781849E+02  0.11270882197E+02  0.25902117338E+02  0.59301957665E+02  0.50000024871E+02 0.  0.
        -12    1    1    2    0    0  0.14790781849E+02 -0.11270882197E+02 -0.25902117338E+02  0.31886042335E+02  0.00000000000E+00 0.  1.
         11    1    3    3    0    0 -0.18214394818E+02  0.15799555939E+01  0.97179806810E+01  0.20705061870E+02  0.51100000000E-03 0.  1.
        -11    1    3    3    0    0  0.15053063031E+02 -0.28453271738E+01  0.39841761962E+00  0.15324794622E+02  0.51100000000E-03 0. -1.
         12    1    3    3    0    0 -0.11629450061E+02  0.12536253777E+02  0.15785719038E+02  0.23272101173E+02  0.00000000000E+00 0. -1.
</event>
<event>
 7    1  0.3755162E-013  0.5930194E+02  0.7816164E-02  0.1266605E+00
        -11   -1    0    0    0    0  0.00000000000E+00  0.00000000000E+00  0.45593999997E+02  0.45594000000E+02  0.51100000000E-03 0.  1.
         11   -1    0    0    0    0 -0.00000000000E+00 -0.00000000000E+00 -0.45593999997E+02  0.45594000000E+02  0.51100000000E-03 0. -1.
    9900012    2    1    2    0    0  0.16015099308E+02  0.21568871338E+02 -0.17176177798E+02  0.59301941912E+02  0.49999996141E+02 0.  0.
        -12    1    1    2    0    0 -0.16015099308E+02 -0.21568871338E+02  0.17176177798E+02  0.31886058088E+02  0.00000000000E+00 0.  1.
         11    1    3    3    0    0  0.33003208937E+01  0.20927098894E+02 -0.63722525308E+00  0.21195321239E+02  0.51100000000E-03 0. -1.
        -11    1    3    3    0    0  0.22613240709E+02  0.70180160837E+00 -0.55068953775E+01  0.23284696215E+02  0.51100000000E-03 0.  1.
         12    1    3    3    0    0 -0.98984622949E+01 -0.60029164299E-01 -0.11032057167E+02  0.14821924458E+02  0.00000000000E+00 0. -1.
</event>
<event>
 7    1  0.3755162E-013  0.5930194E+02  0.7816164E-02  0.1266605E+00
        -11   -1    0    0    0    0  0.00000000000E+00  0.00000000000E+00  0.45593999997E+02  0.45594000000E+02  0.51100000000E-03 0. -1.
         11   -1    0    0    0    0 -0.00000000000E+00 -0.00000000000E+00 -0.45593999997E+02  0.45594000000E+02  0.51100000000E-03 0.  1.
    9900012    2    1    2    0    0  0.16858273149E+02  0.28056506885E+01  0.26919281807E+02  0.59301940626E+02  0.49999993797E+02 0.  0.
        -12    1    1    2    0    0 -0.16858273149E+02 -0.28056506885E+01 -0.26919281807E+02  0.31886059374E+02  0.00000000000E+00 0.  1.
         11    1    3    3    0    0 -0.52620211468E+01 -0.52033349402E+01  0.19514510984E+00  0.74028131763E+01  0.51100000000E-03 0. -1.
        -11    1    3    3    0    0  0.44817287191E+01  0.39031150114E+01 -0.96114540920E+01  0.11300453492E+02  0.51100000000E-03 0.  1.
         12    1    3    3    0    0  0.17638565577E+02  0.41058706173E+01  0.36335590790E+02  0.40598673958E+02  0.00000000000E+00 0. -1.
</event>
<event>
 7    1  0.3755162E-013  0.5930195E+02  0.7816164E-02  0.1266605E+00
        -11   -1    0    0    0    0  0.00000000000E+00  0.00000000000E+00  0.45593999997E+02  0.45594000000E+02  0.51100000000E-03 0.  1.
         11   -1    0    0    0    0 -0.00000000000E+00 -0.00000000000E+00 -0.45593999997E+02  0.45594000000E+02  0.51100000000E-03 0. -1.
    9900012    2    1    2    0    0 -0.15950908020E+02  0.42772353721E+01 -0.27276258302E+02  0.59301945430E+02  0.50000002557E+02 0.  0.
        -12    1    1    2    0    0  0.15950908020E+02 -0.42772353721E+01  0.27276258302E+02  0.31886054570E+02  0.00000000000E+00 0.  1.
         11    1    3    3    0    0  0.23838338645E+01 -0.50228088242E+01 -0.35577260994E+01  0.66006581216E+01  0.51100000000E-03 0. -1.
        -11    1    3    3    0    0  0.10522886616E+02 -0.34827416609E+01  0.28506736370E+01  0.11444954026E+02  0.51100000000E-03 0.  1.
         12    1    3    3    0    0 -0.28857628500E+02  0.12782785857E+02 -0.26569205840E+02  0.41256333282E+02  0.00000000000E+00 0. -1.
</event>
<event>
 7    1  0.3755162E-013  0.5930194E+02  0.7816164E-02  0.1266605E+00
        -11   -1    0    0    0    0  0.00000000000E+00  0.00000000000E+00  0.45593999997E+02  0.45594000000E+02  0.51100000000E-03 0.  1.
         11   -1    0    0    0    0 -0.00000000000E+00 -0.00000000000E+00 -0.45593999997E+02  0.45594000000E+02  0.51100000000E-03 0. -1.
    9900012    2    1    2    0    0  0.17962853303E+02 -0.24375315351E+02 -0.99950296580E+01  0.59301941681E+02  0.49999995720E+02 0.  0.
        -12    1    1    2    0    0 -0.17962853303E+02  0.24375315351E+02  0.99950296580E+01  0.31886058319E+02  0.00000000000E+00 0.  1.
         11    1    3    3    0    0  0.21301013637E+02 -0.26962679838E+02  0.57069809552E+00  0.34366335018E+02  0.51100000000E-03 0. -1.
        -11    1    3    3    0    0  0.52005732211E+01  0.48503307941E+01  0.38062789723E+01  0.80659426304E+01  0.51100000000E-03 0.  1.
        -12    1    3    3    0    0 -0.85387335555E+01 -0.22629663074E+01 -0.14372006726E+02  0.16869664032E+02  0.00000000000E+00 0.  1.
</event>
<event>
 7    1  0.3755162E-013  0.5930197E+02  0.7816164E-02  0.1266605E+00
        -11   -1    0    0    0    0  0.00000000000E+00  0.00000000000E+00  0.45593999997E+02  0.45594000000E+02  0.51100000000E-03 0. -1.
         11   -1    0    0    0    0 -0.00000000000E+00 -0.00000000000E+00 -0.45593999997E+02  0.45594000000E+02  0.51100000000E-03 0.  1.
    9900012    2    1    2    0    0 -0.31200358678E+02  0.62174439136E+01 -0.21447911601E+01  0.59301966701E+02  0.50000041350E+02 0.  0.
        -12    1    1    2    0    0  0.31200358678E+02 -0.62174439136E+01  0.21447911601E+01  0.31886033299E+02  0.00000000000E+00 0.  1.
         11    1    3    3    0    0 -0.56289763251E+01 -0.47196745316E+01 -0.61891881173E+01  0.96055583890E+01  0.51100000000E-03 0. -1.
        -11    1    3    3    0    0 -0.10684788692E+02 -0.13501003422E+02 -0.75774307929E+01  0.18811147240E+02  0.51100000000E-03 0.  1.
         12    1    3    3    0    0 -0.14886593661E+02  0.24438121867E+02  0.11621827750E+02  0.30885261072E+02  0.00000000000E+00 0. -1.
</event>
<event>
 7    1  0.3755162E-013  0.5930187E+02  0.7816164E-02  0.1266605E+00
        -11   -1    0    0    0    0  0.00000000000E+00  0.00000000000E+00  0.45593999997E+02  0.45594000000E+02  0.51100000000E-03 0.  1.
         11   -1    0    0    0    0 -0.00000000000E+00 -0.00000000000E+00 -0.45593999997E+02  0.45594000000E+02  0.51100000000E-03 0. -1.
    9900012    2    1    2    0    0 -0.23136112241E+02  0.21871528169E+02 -0.17554707693E+01  0.59301872739E+02  0.49999869987E+02 0.  0.
        -12    1    1    2    0    0  0.23136112241E+02 -0.21871528169E+02  0.17554707693E+01  0.31886127261E+02  0.00000000000E+00 0.  1.
         11    1    3    3    0    0  0.70738210021E+01 -0.28653388322E+01  0.86256346234E+01  0.11517407829E+02  0.51100000000E-03 0. -1.
        -11    1    3    3    0    0  0.45904794950E+01  0.38859886256E+01 -0.21636781530E+01  0.63917848057E+01  0.51100000000E-03 0.  1.
         12    1    3    3    0    0 -0.34800412738E+02  0.20850878376E+02 -0.82174272396E+01  0.41392680104E+02  0.00000000000E+00 0. -1.
</event>
<event>
 7    1  0.3755162E-013  0.5930189E+02  0.7816164E-02  0.1266605E+00
        -11   -1    0    0    0    0  0.00000000000E+00  0.00000000000E+00  0.45593999997E+02  0.45594000000E+02  0.51100000000E-03 0.  1.
         11   -1    0    0    0    0 -0.00000000000E+00 -0.00000000000E+00 -0.45593999997E+02  0.45594000000E+02  0.51100000000E-03 0. -1.
    9900012    2    1    2    0    0  0.13972926132E+02 -0.24670561364E+02 -0.14589206206E+02  0.59301887029E+02  0.49999896047E+02 0.  0.
        -12    1    1    2    0    0 -0.13972926132E+02  0.24670561364E+02  0.14589206206E+02  0.31886112971E+02  0.00000000000E+00 0.  1.
         11    1    3    3    0    0 -0.19986126052E+00 -0.80561036775E+01 -0.12941750667E+02  0.15245644019E+02  0.51100000000E-03 0. -1.
        -11    1    3    3    0    0 -0.10660593428E+02  0.37611878733E+01 -0.36281922827E+01  0.11872597271E+02  0.51100000000E-03 0.  1.
         12    1    3    3    0    0  0.24833380821E+02 -0.20375645560E+02  0.19807367435E+01  0.32183645738E+02  0.00000000000E+00 0. -1.
</event>
<event>
 7    1  0.3755162E-013  0.5930195E+02  0.7816164E-02  0.1266605E+00
        -11   -1    0    0    0    0  0.00000000000E+00  0.00000000000E+00  0.45593999997E+02  0.45594000000E+02  0.51100000000E-03 0. -1.
         11   -1    0    0    0    0 -0.00000000000E+00 -0.00000000000E+00 -0.45593999997E+02  0.45594000000E+02  0.51100000000E-03 0.  1.
    9900012    2    1    2    0    0  0.18513823683E+02 -0.48497538717E+01  0.25503692401E+02  0.59301951232E+02  0.50000013138E+02 0.  0.
        -12    1    1    2    0    0 -0.18513823683E+02  0.48497538717E+01 -0.25503692401E+02  0.31886048768E+02  0.00000000000E+00 0.  1.
         11    1    3    3    0    0 -0.23852434259E+01  0.10208210389E+02  0.10768552379E+02  0.15028594950E+02  0.51100000000E-03 0. -1.
        -11    1    3    3    0    0  0.17931565598E+02  0.55299779176E+01 -0.30034418009E-01  0.18764930133E+02  0.51100000000E-03 0.  1.
        -12    1    3    3    0    0  0.29675015106E+01 -0.20587942179E+02  0.14765174440E+02  0.25508426149E+02  0.00000000000E+00 0.  1.
</event>
<event>
 7    1  0.3755162E-013  0.5930186E+02  0.7816164E-02  0.1266605E+00
        -11   -1    0    0    0    0  0.00000000000E+00  0.00000000000E+00  0.45593999997E+02  0.45594000000E+02  0.51100000000E-03 0. -1.
         11   -1    0    0    0    0 -0.00000000000E+00 -0.00000000000E+00 -0.45593999997E+02  0.45594000000E+02  0.51100000000E-03 0.  1.
    9900012    2    1    2    0    0  0.22003256664E+01  0.12931167287E+02  0.29063199785E+02  0.59301857208E+02  0.49999841661E+02 0.  0.
        -12    1    1    2    0    0 -0.22003256664E+01 -0.12931167287E+02 -0.29063199785E+02  0.31886142792E+02  0.00000000000E+00 0.  1.
         11    1    3    3    0    0  0.10964918251E+02 -0.11434804578E+02 -0.29218478290E+01  0.16109667377E+02  0.51100000000E-03 0. -1.
        -11    1    3    3    0    0 -0.52966268364E+01  0.11601642852E+01  0.77631374167E+01  0.94692417767E+01  0.51100000000E-03 0.  1.
        -12    1    3    3    0    0 -0.34679657487E+01  0.23205807579E+02  0.24221910197E+02  0.33722948054E+02  0.00000000000E+00 0.  1.
</event>
<event>
 7    1  0.3755162E-013  0.5930195E+02  0.7816164E-02  0.1266605E+00
        -11   -1    0    0    0    0  0.00000000000E+00  0.00000000000E+00  0.45593999997E+02  0.45594000000E+02  0.51100000000E-03 0. -1.
         11   -1    0    0    0    0 -0.00000000000E+00 -0.00000000000E+00 -0.45593999997E+02  0.45594000000E+02  0.51100000000E-03 0.  1.
    9900012    2    1    2    0    0  0.31110348886E+01  0.30978286965E+02 -0.68838434870E+01  0.59301951287E+02  0.50000013239E+02 0.  0.
        -12    1    1    2    0    0 -0.31110348886E+01 -0.30978286965E+02  0.68838434870E+01  0.31886048713E+02  0.00000000000E+00 0.  1.
         11    1    3    3    0    0 -0.32524815925E+01  0.23015851593E+02  0.12610103646E+02  0.26444711670E+02  0.51100000000E-03 0. -1.
        -11    1    3    3    0    0 -0.98202466644E-01  0.32612806990E+01  0.56222980191E+01  0.65004485075E+01  0.51100000000E-03 0.  1.
        -12    1    3    3    0    0  0.64617189478E+01  0.47011546732E+01 -0.25116245153E+02  0.26356791109E+02  0.00000000000E+00 0.  1.
</event>
<event>
 7    1  0.3755162E-013  0.5930191E+02  0.7816164E-02  0.1266605E+00
        -11   -1    0    0    0    0  0.00000000000E+00  0.00000000000E+00  0.45593999997E+02  0.45594000000E+02  0.51100000000E-03 0. -1.
         11   -1    0    0    0    0 -0.00000000000E+00 -0.00000000000E+00 -0.45593999997E+02  0.45594000000E+02  0.51100000000E-03 0.  1.
    9900012    2    1    2    0    0 -0.12492693425E+02  0.10272152443E+02  0.27479773237E+02  0.59301914603E+02  0.49999946336E+02 0.  0.
        -12    1    1    2    0    0  0.12492693425E+02 -0.10272152443E+02 -0.27479773237E+02  0.31886085397E+02  0.00000000000E+00 0.  1.
         11    1    3    3    0    0  0.49651733447E-01  0.25154246934E+02  0.16479186823E+02  0.30071617893E+02  0.51100000000E-03 0. -1.
        -11    1    3    3    0    0 -0.23746427547E+01 -0.12167534131E+00  0.11053865508E+02  0.11306709336E+02  0.51100000000E-03 0.  1.
        -12    1    3    3    0    0 -0.10167702404E+02 -0.14760419150E+02 -0.53279093362E-01  0.17923587373E+02  0.00000000000E+00 0.  1.
</event>
<event>
 7    1  0.3755162E-013  0.5930197E+02  0.7816164E-02  0.1266605E+00
        -11   -1    0    0    0    0  0.00000000000E+00  0.00000000000E+00  0.45593999997E+02  0.45594000000E+02  0.51100000000E-03 0.  1.
         11   -1    0    0    0    0 -0.00000000000E+00 -0.00000000000E+00 -0.45593999997E+02  0.45594000000E+02  0.51100000000E-03 0. -1.
    9900012    2    1    2    0    0  0.80821282651E+01  0.30592624059E+02 -0.39356706815E+01  0.59301969393E+02  0.50000046261E+02 0.  0.
        -12    1    1    2    0    0 -0.80821282651E+01 -0.30592624059E+02  0.39356706815E+01  0.31886030607E+02  0.00000000000E+00 0.  1.
         11    1    3    3    0    0  0.11712554697E+02  0.19009247224E+02  0.18678425705E+01  0.22405897743E+02  0.51100000000E-03 0. -1.
        -11    1    3    3    0    0 -0.46655013025E+01  0.19178584964E+02  0.78470172701E+01  0.21240543871E+02  0.51100000000E-03 0.  1.
        -12    1    3    3    0    0  0.10350748701E+01 -0.75952081289E+01 -0.13650530522E+02  0.15655527779E+02  0.00000000000E+00 0.  1.
</event>
<event>
 7    1  0.3755162E-013  0.5930195E+02  0.7816164E-02  0.1266605E+00
        -11   -1    0    0    0    0  0.00000000000E+00  0.00000000000E+00  0.45593999997E+02  0.45594000000E+02  0.51100000000E-03 0.  1.
         11   -1    0    0    0    0 -0.00000000000E+00 -0.00000000000E+00 -0.45593999997E+02  0.45594000000E+02  0.51100000000E-03 0. -1.
    9900012    2    1    2    0    0  0.18850645527E+01 -0.45071192454E+01 -0.31509562081E+02  0.59301951409E+02  0.50000013461E+02 0.  0.
        -12    1    1    2    0    0 -0.18850645527E+01  0.45071192454E+01  0.31509562081E+02  0.31886048591E+02  0.00000000000E+00 0.  1.
         11    1    3    3    0    0 -0.73058556364E+01 -0.19832811347E+01 -0.82050540742E+01  0.11163863277E+02  0.51100000000E-03 0. -1.
        -11    1    3    3    0    0 -0.50469771632E+00 -0.20859315876E+02 -0.79360954092E+01  0.22323695689E+02  0.51100000000E-03 0.  1.
        -12    1    3    3    0    0  0.96956179054E+01  0.18335477765E+02 -0.15368412597E+02  0.25814392443E+02  0.00000000000E+00 0.  1.
</event>
<event>
 7    1  0.3755162E-013  0.5930197E+02  0.7816164E-02  0.1266605E+00
        -11   -1    0    0    0    0  0.00000000000E+00  0.00000000000E+00  0.45593999997E+02  0.45594000000E+02  0.51100000000E-03 0.  1.
         11   -1    0    0    0    0 -0.00000000000E+00 -0.00000000000E+00 -0.45593999997E+02  0.45594000000E+02  0.51100000000E-03 0. -1.
    9900012    2    1    2    0    0  0.51143866507E+01 -0.19510196007E+02 -0.24696444309E+02  0.59301967626E+02  0.50000043037E+02 0.  0.
        -12    1    1    2    0    0 -0.51143866507E+01  0.19510196007E+02  0.24696444309E+02  0.31886032374E+02  0.00000000000E+00 0.  1.
         11    1    3    3    0    0  0.53278396252E+01 -0.16459745504E+02  0.19421252385E+01  0.17409220196E+02  0.51100000000E-03 0. -1.
        -11    1    3    3    0    0 -0.11226088584E+01 -0.72808617668E+01  0.56696705603E+01  0.92960401914E+01  0.51100000000E-03 0.  1.
        -12    1    3    3    0    0  0.90915588393E+00  0.42304112643E+01 -0.32308240108E+02  0.32596707238E+02  0.00000000000E+00 0.  1.
</event>
<event>
 7    1  0.3755162E-013  0.5930193E+02  0.7816164E-02  0.1266605E+00
        -11   -1    0    0    0    0  0.00000000000E+00  0.00000000000E+00  0.45593999997E+02  0.45594000000E+02  0.51100000000E-03 0.  1.
         11   -1    0    0    0    0 -0.00000000000E+00 -0.00000000000E+00 -0.45593999997E+02  0.45594000000E+02  0.51100000000E-03 0. -1.
    9900012    2    1    2    0    0 -0.16967916831E+02 -0.14542069299E+02 -0.22745104826E+02  0.59301925067E+02  0.49999965420E+02 0.  0.
        -12    1    1    2    0    0  0.16967916831E+02  0.14542069299E+02  0.22745104826E+02  0.31886074933E+02  0.00000000000E+00 0.  1.
         11    1    3    3    0    0 -0.21277369543E+02 -0.88116615121E+01  0.27936972081E+01  0.23198633098E+02  0.51100000000E-03 0. -1.
        -11    1    3    3    0    0 -0.66831373544E+01  0.61982871591E+01 -0.11309625268E+02  0.14525519356E+02  0.51100000000E-03 0.  1.
         12    1    3    3    0    0  0.10992590066E+02 -0.11928694946E+02 -0.14229176766E+02  0.21577772612E+02  0.00000000000E+00 0. -1.
</event>
<event>
 7    1  0.3755162E-013  0.5930195E+02  0.7816164E-02  0.1266605E+00
        -11   -1    0    0    0    0  0.00000000000E+00  0.00000000000E+00  0.45593999997E+02  0.45594000000E+02  0.51100000000E-03 0.  1.
         11   -1    0    0    0    0 -0.00000000000E+00 -0.00000000000E+00 -0.45593999997E+02  0.45594000000E+02  0.51100000000E-03 0. -1.
    9900012    2    1    2    0    0 -0.14127463307E+02 -0.23443624472E+02 -0.16356391677E+02  0.59301948244E+02  0.50000007690E+02 0.  0.
        -12    1    1    2    0    0  0.14127463307E+02  0.23443624472E+02  0.16356391677E+02  0.31886051756E+02  0.00000000000E+00 0.  1.
         11    1    3    3    0    0 -0.20823690976E+02 -0.15966187871E+02 -0.49867402138E+01  0.26709789202E+02  0.51100000000E-03 0. -1.
        -11    1    3    3    0    0 -0.42933035374E+01 -0.11580305083E+02 -0.15798811405E+02  0.20053387822E+02  0.51100000000E-03 0.  1.
        -12    1    3    3    0    0  0.10989531207E+02  0.41028684811E+01  0.44291599423E+01  0.12538771220E+02  0.00000000000E+00 0.  1.
</event>
<event>
 7    1  0.3755162E-013  0.5930195E+02  0.7816164E-02  0.1266605E+00
        -11   -1    0    0    0    0  0.00000000000E+00  0.00000000000E+00  0.45593999997E+02  0.45594000000E+02  0.51100000000E-03 0. -1.
         11   -1    0    0    0    0 -0.00000000000E+00 -0.00000000000E+00 -0.45593999997E+02  0.45594000000E+02  0.51100000000E-03 0.  1.
    9900012    2    1    2    0    0  0.28562566362E+02 -0.20959179604E+01 -0.14018095301E+02  0.59301951873E+02  0.50000014308E+02 0.  0.
        -12    1    1    2    0    0 -0.28562566362E+02  0.20959179604E+01  0.14018095301E+02  0.31886048127E+02  0.00000000000E+00 0.  1.
         11    1    3    3    0    0 -0.10398402208E+02 -0.19106365099E+00  0.41010496813E+01  0.11179529621E+02  0.51100000000E-03 0. -1.
        -11    1    3    3    0    0 -0.19730667082E+01 -0.15532690439E+01  0.12849761449E+01  0.28207801955E+01  0.51100000000E-03 0.  1.
        -12    1    3    3    0    0  0.40934035278E+02 -0.35158526549E+00 -0.19404121127E+02  0.45301642057E+02  0.00000000000E+00 0.  1.
</event>
<event>
 7    1  0.3755162E-013  0.5930195E+02  0.7816164E-02  0.1266605E+00
        -11   -1    0    0    0    0  0.00000000000E+00  0.00000000000E+00  0.45593999997E+02  0.45594000000E+02  0.51100000000E-03 0.  1.
         11   -1    0    0    0    0 -0.00000000000E+00 -0.00000000000E+00 -0.45593999997E+02  0.45594000000E+02  0.51100000000E-03 0. -1.
    9900012    2    1    2    0    0 -0.21482635429E+02 -0.23392831248E+02  0.28270350009E+01  0.59301948101E+02  0.50000007430E+02 0.  0.
        -12    1    1    2    0    0  0.21482635429E+02  0.23392831248E+02 -0.28270350009E+01  0.31886051899E+02  0.00000000000E+00 0.  1.
         11    1    3    3    0    0 -0.20714718377E+02  0.49857030480E+01  0.14704757829E+02  0.25887964296E+02  0.51100000000E-03 0. -1.
        -11    1    3    3    0    0  0.34460943563E+01 -0.14531684686E+01 -0.14541484342E+00  0.37427811382E+01  0.51100000000E-03 0.  1.
        -12    1    3    3    0    0 -0.42140114084E+01 -0.26925365828E+02 -0.11732307984E+02  0.29671202668E+02  0.00000000000E+00 0.  1.
</event>
<event>
 7    1  0.3755162E-013  0.5930195E+02  0.7816164E-02  0.1266605E+00
        -11   -1    0    0    0    0  0.00000000000E+00  0.00000000000E+00  0.45593999997E+02  0.45594000000E+02  0.51100000000E-03 0.  1.
         11   -1    0    0    0    0 -0.00000000000E+00 -0.00000000000E+00 -0.45593999997E+02  0.45594000000E+02  0.51100000000E-03 0. -1.
    9900012    2    1    2    0    0 -0.87313403883E+01 -0.64880146994E+01 -0.29973147291E+02  0.59301949787E+02  0.50000010503E+02 0.  0.
        -12    1    1    2    0    0  0.87313403883E+01  0.64880146994E+01  0.29973147291E+02  0.31886050213E+02  0.00000000000E+00 0.  1.
         11    1    3    3    0    0  0.75333015406E+01  0.15256605882E+01 -0.28159033336E+02  0.29189200589E+02  0.51100000000E-03 0. -1.
        -11    1    3    3    0    0  0.43133293577E+00  0.72572748117E+01  0.89375433467E+00  0.73248128212E+01  0.51100000000E-03 0.  1.
        -12    1    3    3    0    0 -0.16695974865E+02 -0.15270950099E+02 -0.27078682889E+01  0.22787936376E+02  0.00000000000E+00 0.  1.
</event>
<event>
 7    1  0.3755162E-013  0.5930195E+02  0.7816164E-02  0.1266605E+00
        -11   -1    0    0    0    0  0.00000000000E+00  0.00000000000E+00  0.45593999997E+02  0.45594000000E+02  0.51100000000E-03 0.  1.
         11   -1    0    0    0    0 -0.00000000000E+00 -0.00000000000E+00 -0.45593999997E+02  0.45594000000E+02  0.51100000000E-03 0. -1.
    9900012    2    1    2    0    0 -0.26561856896E+02  0.15335467011E+02 -0.87184417036E+01  0.59301952644E+02  0.50000015714E+02 0.  0.
        -12    1    1    2    0    0  0.26561856896E+02 -0.15335467011E+02  0.87184417036E+01  0.31886047356E+02  0.00000000000E+00 0.  1.
         11    1    3    3    0    0  0.26277681993E+01 -0.70891388927E+01 -0.36097263866E+00  0.75691054595E+01  0.51100000000E-03 0. -1.
        -11    1    3    3    0    0 -0.22741952486E+02 -0.52582803809E+00 -0.14675258827E+02  0.27070946048E+02  0.51100000000E-03 0.  1.
        -12    1    3    3    0    0 -0.64476726093E+01  0.22950433942E+02  0.63177897620E+01  0.24661901137E+02  0.00000000000E+00 0.  1.
</event>
<event>
 7    1  0.3755162E-013  0.5930195E+02  0.7816164E-02  0.1266605E+00
        -11   -1    0    0    0    0  0.00000000000E+00  0.00000000000E+00  0.45593999997E+02  0.45594000000E+02  0.51100000000E-03 0.  1.
         11   -1    0    0    0    0 -0.00000000000E+00 -0.00000000000E+00 -0.45593999997E+02  0.45594000000E+02  0.51100000000E-03 0. -1.
    9900012    2    1    2    0    0 -0.28623846851E+02 -0.21497489010E+01 -0.13884318161E+02  0.59301947882E+02  0.50000007030E+02 0.  0.
        -12    1    1    2    0    0  0.28623846851E+02  0.21497489010E+01  0.13884318161E+02  0.31886052118E+02  0.00000000000E+00 0.  1.
         11    1    3    3    0    0 -0.18226487683E+00 -0.17793076525E+00 -0.17682569521E+01  0.17865085368E+01  0.51100000000E-03 0. -1.
        -11    1    3    3    0    0  0.12908237610E+02  0.42628837057E+01 -0.72771276902E+01  0.15419188155E+02  0.51100000000E-03 0.  1.
        -12    1    3    3    0    0 -0.41349819584E+02 -0.62347018414E+01 -0.48389335185E+01  0.42096251190E+02  0.00000000000E+00 0.  1.
</event>
<event>
 7    1  0.3755162E-013  0.5930194E+02  0.7816164E-02  0.1266605E+00
        -11   -1    0    0    0    0  0.00000000000E+00  0.00000000000E+00  0.45593999997E+02  0.45594000000E+02  0.51100000000E-03 0. -1.
         11   -1    0    0    0    0 -0.00000000000E+00 -0.00000000000E+00 -0.45593999997E+02  0.45594000000E+02  0.51100000000E-03 0.  1.
    9900012    2    1    2    0    0  0.19227508657E+02  0.12241723412E+02  0.22297178008E+02  0.59301936769E+02  0.49999986762E+02 0.  0.
        -12    1    1    2    0    0 -0.19227508657E+02 -0.12241723412E+02 -0.22297178008E+02  0.31886063231E+02  0.00000000000E+00 0.  1.
         11    1    3    3    0    0 -0.29801099173E+01  0.15713910321E+02  0.74728196871E+01  0.17653641750E+02  0.51100000000E-03 0. -1.
        -11    1    3    3    0    0 -0.16635020514E+00  0.79671013384E+01 -0.52013007014E+01  0.95160866628E+01  0.51100000000E-03 0.  1.
        -12    1    3    3    0    0  0.22373968780E+02 -0.11439288248E+02  0.20025659022E+02  0.32132208356E+02  0.00000000000E+00 0.  1.
</event>
<event>
 7    1  0.3755162E-013  0.5930195E+02  0.7816164E-02  0.1266605E+00
        -11   -1    0    0    0    0  0.00000000000E+00  0.00000000000E+00  0.45593999997E+02  0.45594000000E+02  0.51100000000E-03 0.  1.
         11   -1    0    0    0    0 -0.00000000000E+00 -0.00000000000E+00 -0.45593999997E+02  0.45594000000E+02  0.51100000000E-03 0. -1.
    9900012    2    1    2    0    0 -0.25370219941E+02 -0.16214706132E+02 -0.10495507367E+02  0.59301946157E+02  0.50000003883E+02 0.  0.
        -12    1    1    2    0    0  0.25370219941E+02  0.16214706132E+02  0.10495507367E+02  0.31886053843E+02  0.00000000000E+00 0.  1.
         11    1    3    3    0    0 -0.19484068065E+02 -0.80977811259E+01  0.31921506694E+01  0.21339934247E+02  0.51100000000E-03 0. -1.
        -11    1    3    3    0    0 -0.16082105852E+02 -0.36069032211E-01  0.34475533326E+01  0.16447524247E+02  0.51100000000E-03 0.  1.
         12    1    3    3    0    0  0.10195953976E+02 -0.80808559735E+01 -0.17135211369E+02  0.21514487663E+02  0.00000000000E+00 0. -1.
</event>
<event>
 7    1  0.3755162E-013  0.5930195E+02  0.7816164E-02  0.1266605E+00
        -11   -1    0    0    0    0  0.00000000000E+00  0.00000000000E+00  0.45593999997E+02  0.45594000000E+02  0.51100000000E-03 0.  1.
         11   -1    0    0    0    0 -0.00000000000E+00 -0.00000000000E+00 -0.45593999997E+02  0.45594000000E+02  0.51100000000E-03 0. -1.
    9900012    2    1    2    0    0  0.87594288758E+01  0.17789324768E+02 -0.24970638399E+02  0.59301945807E+02  0.50000003245E+02 0.  0.
        -12    1    1    2    0    0 -0.87594288758E+01 -0.17789324768E+02  0.24970638399E+02  0.31886054193E+02  0.00000000000E+00 0.  1.
         11    1    3    3    0    0 -0.13603410404E+02 -0.23129518911E+00 -0.78927267718E+01  0.15728998959E+02  0.51100000000E-03 0. -1.
        -11    1    3    3    0    0 -0.51628554633E+01  0.10263394373E+02 -0.48570542790E+01  0.12473304178E+02  0.51100000000E-03 0.  1.
         12    1    3    3    0    0  0.27525694743E+02  0.77572255846E+01 -0.12220857348E+02  0.31099642670E+02  0.00000000000E+00 0. -1.
</event>
<event>
 7    1  0.3755162E-013  0.5930194E+02  0.7816164E-02  0.1266605E+00
        -11   -1    0    0    0    0  0.00000000000E+00  0.00000000000E+00  0.45593999997E+02  0.45594000000E+02  0.51100000000E-03 0. -1.
         11   -1    0    0    0    0 -0.00000000000E+00 -0.00000000000E+00 -0.45593999997E+02  0.45594000000E+02  0.51100000000E-03 0.  1.
    9900012    2    1    2    0    0 -0.19039755012E+02  0.25560878218E+02 -0.92181510483E+00  0.59301944909E+02  0.50000001607E+02 0.  0.
        -12    1    1    2    0    0  0.19039755012E+02 -0.25560878218E+02  0.92181510483E+00  0.31886055091E+02  0.00000000000E+00 0.  1.
         11    1    3    3    0    0 -0.24453809771E+02  0.51356694377E+01 -0.77703173825E+01  0.26167570491E+02  0.51100000000E-03 0. -1.
        -11    1    3    3    0    0 -0.92278380832E+01  0.31227937151E+01  0.24506430343E+01  0.10045421237E+02  0.51100000000E-03 0.  1.
        -12    1    3    3    0    0  0.14641892842E+02  0.17302415065E+02  0.43978592433E+01  0.23088953181E+02  0.00000000000E+00 0.  1.
</event>
<event>
 7    1  0.3755162E-013  0.5930194E+02  0.7816164E-02  0.1266605E+00
        -11   -1    0    0    0    0  0.00000000000E+00  0.00000000000E+00  0.45593999997E+02  0.45594000000E+02  0.51100000000E-03 0.  1.
         11   -1    0    0    0    0 -0.00000000000E+00 -0.00000000000E+00 -0.45593999997E+02  0.45594000000E+02  0.51100000000E-03 0. -1.
    9900012    2    1    2    0    0 -0.15778407444E+02  0.22323737815E+02 -0.16413808949E+02  0.59301944494E+02  0.50000000850E+02 0.  0.
        -12    1    1    2    0    0  0.15778407444E+02 -0.22323737815E+02  0.16413808949E+02  0.31886055506E+02  0.00000000000E+00 0.  1.
         11    1    3    3    0    0  0.20581952215E+01  0.24129093316E+02 -0.16637726899E+02  0.29381342183E+02  0.51100000000E-03 0. -1.
        -11    1    3    3    0    0  0.14994303461E+01 -0.54918203140E+01  0.70724177665E+01  0.90789578173E+01  0.51100000000E-03 0.  1.
        -12    1    3    3    0    0 -0.19336033012E+02  0.36864648128E+01 -0.68484998171E+01  0.20841644494E+02  0.00000000000E+00 0.  1.
</event>
<event>
 7    1  0.3755162E-013  0.5930195E+02  0.7816164E-02  0.1266605E+00
        -11   -1    0    0    0    0  0.00000000000E+00  0.00000000000E+00  0.45593999997E+02  0.45594000000E+02  0.51100000000E-03 0. -1.
         11   -1    0    0    0    0 -0.00000000000E+00 -0.00000000000E+00 -0.45593999997E+02  0.45594000000E+02  0.51100000000E-03 0.  1.
    9900012    2    1    2    0    0 -0.99864066206E+01  0.53132953424E+01  0.29812094424E+02  0.59301946645E+02  0.50000004773E+02 0.  0.
        -12    1    1    2    0    0  0.99864066206E+01 -0.53132953424E+01 -0.29812094424E+02  0.31886053355E+02  0.00000000000E+00 0.  1.
         11    1    3    3    0    0  0.39453286918E+01 -0.10634642837E+02  0.16296315835E+01  0.11459360633E+02  0.51100000000E-03 0. -1.
        -11    1    3    3    0    0  0.10141068572E+01  0.30621291392E+01 -0.68854262646E+01  0.76035611847E+01  0.51100000000E-03 0.  1.
         12    1    3    3    0    0 -0.14945842170E+02  0.12885809040E+02  0.35067889105E+02  0.40239024828E+02  0.00000000000E+00 0. -1.
</event>
<event>
 7    1  0.3755162E-013  0.5930194E+02  0.7816164E-02  0.1266605E+00
        -11   -1    0    0    0    0  0.00000000000E+00  0.00000000000E+00  0.45593999997E+02  0.45594000000E+02  0.51100000000E-03 0.  1.
         11   -1    0    0    0    0 -0.00000000000E+00 -0.00000000000E+00 -0.45593999997E+02  0.45594000000E+02  0.51100000000E-03 0. -1.
    9900012    2    1    2    0    0  0.23713170408E+02 -0.19864953571E+02 -0.77323975915E+01  0.59301940292E+02  0.49999993187E+02 0.  0.
        -12    1    1    2    0    0 -0.23713170408E+02  0.19864953571E+02  0.77323975915E+01  0.31886059708E+02  0.00000000000E+00 0.  1.
         11    1    3    3    0    0 -0.11224174289E+01 -0.34339863045E+00 -0.55130859776E-02  0.11737862494E+01  0.51100000000E-03 0.  1.
        -11    1    3    3    0    0  0.86283811747E+01 -0.34273707571E+02 -0.78842988316E+01  0.36211851108E+02  0.51100000000E-03 0. -1.
         12    1    3    3    0    0  0.16207206662E+02  0.14752152631E+02  0.15741432609E+00  0.21916302934E+02  0.00000000000E+00 0. -1.
</event>
<event>
 7    1  0.3755162E-013  0.5930195E+02  0.7816164E-02  0.1266605E+00
        -11   -1    0    0    0    0  0.00000000000E+00  0.00000000000E+00  0.45593999997E+02  0.45594000000E+02  0.51100000000E-03 0. -1.
         11   -1    0    0    0    0 -0.00000000000E+00 -0.00000000000E+00 -0.45593999997E+02  0.45594000000E+02  0.51100000000E-03 0.  1.
    9900012    2    1    2    0    0  0.61104063953E+01 -0.30929704223E+02  0.47682753540E+01  0.59301951021E+02  0.50000012755E+02 0.  0.
        -12    1    1    2    0    0 -0.61104063953E+01  0.30929704223E+02 -0.47682753540E+01  0.31886048979E+02  0.00000000000E+00 0.  1.
         11    1    3    3    0    0  0.21571218128E+01 -0.17327122059E+02  0.22544048719E+01  0.17605813669E+02  0.51100000000E-03 0.  1.
        -11    1    3    3    0    0 -0.87073992099E+01 -0.22862387378E+02  0.68815306397E+01  0.25413835244E+02  0.51100000000E-03 0. -1.
        -12    1    3    3    0    0  0.12660683792E+02  0.92598052140E+01 -0.43676601577E+01  0.16282302108E+02  0.00000000000E+00 0.  1.
</event>
<event>
 7    1  0.3755162E-013  0.5930194E+02  0.7816164E-02  0.1266605E+00
        -11   -1    0    0    0    0  0.00000000000E+00  0.00000000000E+00  0.45593999997E+02  0.45594000000E+02  0.51100000000E-03 0.  1.
         11   -1    0    0    0    0 -0.00000000000E+00 -0.00000000000E+00 -0.45593999997E+02  0.45594000000E+02  0.51100000000E-03 0. -1.
    9900012    2    1    2    0    0  0.15706945857E+02  0.16297486230E+02 -0.22458961095E+02  0.59301935033E+02  0.49999983596E+02 0.  0.
        -12    1    1    2    0    0 -0.15706945857E+02 -0.16297486230E+02  0.22458961095E+02  0.31886064967E+02  0.00000000000E+00 0.  1.
         11    1    3    3    0    0  0.22138400441E+02  0.22669772131E+02 -0.12474003010E+02  0.34053312525E+02  0.51100000000E-03 0. -1.
        -11    1    3    3    0    0  0.15900817574E+01 -0.29119769170E+00 -0.14231867817E+02  0.14323380115E+02  0.51100000000E-03 0.  1.
        -12    1    3    3    0    0 -0.80215363412E+01 -0.60810882091E+01  0.42469097323E+01  0.10925242393E+02  0.00000000000E+00 0.  1.
</event>
<event>
 7    1  0.3755162E-013  0.5930195E+02  0.7816164E-02  0.1266605E+00
        -11   -1    0    0    0    0  0.00000000000E+00  0.00000000000E+00  0.45593999997E+02  0.45594000000E+02  0.51100000000E-03 0. -1.
         11   -1    0    0    0    0 -0.00000000000E+00 -0.00000000000E+00 -0.45593999997E+02  0.45594000000E+02  0.51100000000E-03 0.  1.
    9900012    2    1    2    0    0  0.41887587094E+01 -0.70973114055E+01  0.30802640668E+02  0.59301949745E+02  0.50000010427E+02 0.  0.
        -12    1    1    2    0    0 -0.41887587094E+01  0.70973114055E+01 -0.30802640668E+02  0.31886050255E+02  0.00000000000E+00 0.  1.
         11    1    3    3    0    0  0.31202459704E+01 -0.19089887448E+01  0.71425257722E+00  0.37269732960E+01  0.51100000000E-03 0. -1.
        -11    1    3    3    0    0  0.19010713105E+02 -0.64806924951E+01  0.31686037502E+02  0.37515484280E+02  0.51100000000E-03 0.  1.
        -12    1    3    3    0    0 -0.17942200366E+02  0.12923698344E+01 -0.15976494108E+01  0.18059492169E+02  0.00000000000E+00 0.  1.
</event>
<event>
 7    1  0.3755162E-013  0.5930197E+02  0.7816164E-02  0.1266605E+00
        -11   -1    0    0    0    0  0.00000000000E+00  0.00000000000E+00  0.45593999997E+02  0.45594000000E+02  0.51100000000E-03 0. -1.
         11   -1    0    0    0    0 -0.00000000000E+00 -0.00000000000E+00 -0.45593999997E+02  0.45594000000E+02  0.51100000000E-03 0.  1.
    9900012    2    1    2    0    0  0.27097296032E+02 -0.43646992882E+01  0.16229759182E+02  0.59301966455E+02  0.50000040902E+02 0.  0.
        -12    1    1    2    0    0 -0.27097296032E+02  0.43646992882E+01 -0.16229759182E+02  0.31886033545E+02  0.00000000000E+00 0.  1.
         11    1    3    3    0    0  0.20248335807E+02  0.63204027581E+00  0.23170489887E+02  0.30777689642E+02  0.51100000000E-03 0. -1.
        -11    1    3    3    0    0  0.12551849879E+02  0.53227111193E+01  0.19296881374E+01  0.13769672676E+02  0.51100000000E-03 0.  1.
        -12    1    3    3    0    0 -0.57028896539E+01 -0.10319450683E+02 -0.88704188418E+01  0.14754604137E+02  0.00000000000E+00 0.  1.
</event>
<event>
 7    1  0.3755162E-013  0.5930193E+02  0.7816164E-02  0.1266605E+00
        -11   -1    0    0    0    0  0.00000000000E+00  0.00000000000E+00  0.45593999997E+02  0.45594000000E+02  0.51100000000E-03 0. -1.
         11   -1    0    0    0    0 -0.00000000000E+00 -0.00000000000E+00 -0.45593999997E+02  0.45594000000E+02  0.51100000000E-03 0.  1.
    9900012    2    1    2    0    0  0.82098417314E+01  0.25270487030E+02  0.17627324312E+02  0.59301928144E+02  0.49999971033E+02 0.  0.
        -12    1    1    2    0    0 -0.82098417314E+01 -0.25270487030E+02 -0.17627324312E+02  0.31886071856E+02  0.00000000000E+00 0.  1.
         11    1    3    3    0    0 -0.11695238898E+01 -0.75037429295E+01 -0.92215790384E+01  0.11946190368E+02  0.51100000000E-03 0.  1.
        -11    1    3    3    0    0  0.13600492752E+01  0.33601404632E+01 -0.29877275227E+01  0.46975306252E+01  0.51100000000E-03 0. -1.
         12    1    3    3    0    0  0.80193163460E+01  0.29414089496E+02  0.29836630873E+02  0.42658207152E+02  0.00000000000E+00 0. -1.
</event>
<event>
 7    1  0.3755162E-013  0.5930196E+02  0.7816164E-02  0.1266605E+00
        -11   -1    0    0    0    0  0.00000000000E+00  0.00000000000E+00  0.45593999997E+02  0.45594000000E+02  0.51100000000E-03 0.  1.
         11   -1    0    0    0    0 -0.00000000000E+00 -0.00000000000E+00 -0.45593999997E+02  0.45594000000E+02  0.51100000000E-03 0. -1.
    9900012    2    1    2    0    0  0.18881976206E+02 -0.17220850049E+01 -0.25636403849E+02  0.59301955960E+02  0.50000021762E+02 0.  0.
        -12    1    1    2    0    0 -0.18881976206E+02  0.17220850049E+01  0.25636403849E+02  0.31886044040E+02  0.00000000000E+00 0.  1.
         11    1    3    3    0    0  0.13544626460E+02 -0.11356365303E+02 -0.20404113857E+01  0.17792897957E+02  0.51100000000E-03 0. -1.
        -11    1    3    3    0    0  0.31530683008E+01  0.41316382402E+01  0.79028257752E+01  0.94586959858E+01  0.51100000000E-03 0.  1.
        -12    1    3    3    0    0  0.21842814456E+01  0.55026420575E+01 -0.31498818238E+02  0.32050362018E+02  0.00000000000E+00 0.  1.
</event>
<event>
 7    1  0.3755162E-013  0.5930223E+02  0.7816164E-02  0.1266604E+00
        -11   -1    0    0    0    0  0.00000000000E+00  0.00000000000E+00  0.45593999997E+02  0.45594000000E+02  0.51100000000E-03 0.  1.
         11   -1    0    0    0    0 -0.00000000000E+00 -0.00000000000E+00 -0.45593999997E+02  0.45594000000E+02  0.51100000000E-03 0. -1.
    9900012    2    1    2    0    0 -0.80057937042E+01  0.10314686158E+02 -0.29089808041E+02  0.59302228640E+02  0.50000519061E+02 0.  0.
        -12    1    1    2    0    0  0.80057937042E+01 -0.10314686158E+02  0.29089808041E+02  0.31885771360E+02  0.00000000000E+00 0.  1.
         11    1    3    3    0    0 -0.20532320179E+02  0.17406293999E+02 -0.94534539980E+01  0.28529336401E+02  0.51100000000E-03 0. -1.
        -11    1    3    3    0    0  0.53350794530E+01  0.20159591819E+01  0.21448468819E+01  0.60932366277E+01  0.51100000000E-03 0.  1.
         12    1    3    3    0    0  0.71914470212E+01 -0.91075670236E+01 -0.21781200925E+02  0.24679655611E+02  0.00000000000E+00 0. -1.
</event>
<event>
 7    1  0.3755162E-013  0.5930193E+02  0.7816164E-02  0.1266605E+00
        -11   -1    0    0    0    0  0.00000000000E+00  0.00000000000E+00  0.45593999997E+02  0.45594000000E+02  0.51100000000E-03 0.  1.
         11   -1    0    0    0    0 -0.00000000000E+00 -0.00000000000E+00 -0.45593999997E+02  0.45594000000E+02  0.51100000000E-03 0. -1.
    9900012    2    1    2    0    0 -0.24220996734E+02 -0.20576459255E+02  0.25834726687E+01  0.59301926405E+02  0.49999967860E+02 0.  0.
        -12    1    1    2    0    0  0.24220996734E+02  0.20576459255E+02 -0.25834726687E+01  0.31886073595E+02  0.00000000000E+00 0.  1.
         11    1    3    3    0    0 -0.18654868151E+02  0.48340011878E+01  0.62344067110E+01  0.20254369912E+02  0.51100000000E-03 0. -1.
        -11    1    3    3    0    0  0.37022844636E-01 -0.17663690798E+02  0.11539379749E+02  0.21098924820E+02  0.51100000000E-03 0.  1.
         12    1    3    3    0    0 -0.56031514277E+01 -0.77467696449E+01 -0.15190313792E+02  0.17948631673E+02  0.00000000000E+00 0. -1.
</event>
<event>
 7    1  0.3755162E-013  0.5930201E+02  0.7816164E-02  0.1266605E+00
        -11   -1    0    0    0    0  0.00000000000E+00  0.00000000000E+00  0.45593999997E+02  0.45594000000E+02  0.51100000000E-03 0. -1.
         11   -1    0    0    0    0 -0.00000000000E+00 -0.00000000000E+00 -0.45593999997E+02  0.45594000000E+02  0.51100000000E-03 0.  1.
    9900012    2    1    2    0    0 -0.87703022085E+01  0.22007182879E+01  0.30577038221E+02  0.59302005768E+02  0.50000112600E+02 0.  0.
        -12    1    1    2    0    0  0.87703022085E+01 -0.22007182879E+01 -0.30577038221E+02  0.31885994232E+02  0.00000000000E+00 0.  1.
         11    1    3    3    0    0  0.64266126906E+01 -0.16039531668E+01  0.78805153783E+01  0.10294490727E+02  0.51100000000E-03 0. -1.
        -11    1    3    3    0    0  0.38073888465E+01  0.81411199308E+01 -0.84030994506E+01  0.12303906867E+02  0.51100000000E-03 0.  1.
        -12    1    3    3    0    0 -0.19004303746E+02 -0.43364484761E+01  0.31099622293E+02  0.36703608174E+02  0.00000000000E+00 0.  1.
</event>
<event>
 7    1  0.3755162E-013  0.5930198E+02  0.7816164E-02  0.1266605E+00
        -11   -1    0    0    0    0  0.00000000000E+00  0.00000000000E+00  0.45593999997E+02  0.45594000000E+02  0.51100000000E-03 0. -1.
         11   -1    0    0    0    0 -0.00000000000E+00 -0.00000000000E+00 -0.45593999997E+02  0.45594000000E+02  0.51100000000E-03 0.  1.
    9900012    2    1    2    0    0  0.25225952389E+02  0.97865905183E+01  0.16869871125E+02  0.59301975167E+02  0.50000056790E+02 0.  0.
        -12    1    1    2    0    0 -0.25225952389E+02 -0.97865905183E+01 -0.16869871125E+02  0.31886024833E+02  0.00000000000E+00 0.  1.
         11    1    3    3    0    0  0.92275419848E+01 -0.48104822532E+01 -0.91871560880E+01  0.13881358285E+02  0.51100000000E-03 0. -1.
        -11    1    3    3    0    0  0.57098320119E+01  0.12520671290E+02 -0.33784467980E+01  0.14169802193E+02  0.51100000000E-03 0.  1.
         12    1    3    3    0    0  0.10288578392E+02  0.20764014814E+01  0.29435474011E+02  0.31250814689E+02  0.00000000000E+00 0. -1.
</event>
<event>
 7    1  0.3755162E-013  0.5930198E+02  0.7816164E-02  0.1266605E+00
        -11   -1    0    0    0    0  0.00000000000E+00  0.00000000000E+00  0.45593999997E+02  0.45594000000E+02  0.51100000000E-03 0.  1.
         11   -1    0    0    0    0 -0.00000000000E+00 -0.00000000000E+00 -0.45593999997E+02  0.45594000000E+02  0.51100000000E-03 0. -1.
    9900012    2    1    2    0    0 -0.30075754197E+02  0.97390118797E+01 -0.41615777164E+01  0.59301983127E+02  0.50000071308E+02 0.  0.
        -12    1    1    2    0    0  0.30075754197E+02 -0.97390118797E+01  0.41615777164E+01  0.31886016873E+02  0.00000000000E+00 0.  1.
         11    1    3    3    0    0 -0.15291141455E+02  0.11678198327E+02  0.12870824564E+01  0.19283565663E+02  0.51100000000E-03 0. -1.
        -11    1    3    3    0    0  0.70750072411E+01  0.11182013971E+02  0.21702798478E+01  0.13409074494E+02  0.51100000000E-03 0.  1.
        -12    1    3    3    0    0 -0.21859619983E+02 -0.13121200419E+02 -0.76189400206E+01  0.26609342970E+02  0.00000000000E+00 0.  1.
</event>
<event>
 7    1  0.3755162E-013  0.5930193E+02  0.7816164E-02  0.1266605E+00
        -11   -1    0    0    0    0  0.00000000000E+00  0.00000000000E+00  0.45593999997E+02  0.45594000000E+02  0.51100000000E-03 0.  1.
         11   -1    0    0    0    0 -0.00000000000E+00 -0.00000000000E+00 -0.45593999997E+02  0.45594000000E+02  0.51100000000E-03 0. -1.
    9900012    2    1    2    0    0  0.22639264995E+01  0.30360394717E+02 -0.94785152357E+01  0.59301934366E+02  0.49999982379E+02 0.  0.
        -12    1    1    2    0    0 -0.22639264995E+01 -0.30360394717E+02  0.94785152357E+01  0.31886065634E+02  0.00000000000E+00 0.  1.
         11    1    3    3    0    0 -0.33842205979E+01  0.40465994865E+01 -0.26804794124E+01  0.59171687994E+01  0.51100000000E-03 0. -1.
        -11    1    3    3    0    0 -0.17201432498E+02  0.10509648724E+02 -0.14170833461E+02  0.24640505627E+02  0.51100000000E-03 0.  1.
         12    1    3    3    0    0  0.22849579595E+02  0.15804146506E+02  0.73727976382E+01  0.28744259940E+02  0.00000000000E+00 0. -1.
</event>
<event>
 7    1  0.3755162E-013  0.5930195E+02  0.7816164E-02  0.1266605E+00
        -11   -1    0    0    0    0  0.00000000000E+00  0.00000000000E+00  0.45593999997E+02  0.45594000000E+02  0.51100000000E-03 0.  1.
         11   -1    0    0    0    0 -0.00000000000E+00 -0.00000000000E+00 -0.45593999997E+02  0.45594000000E+02  0.51100000000E-03 0. -1.
    9900012    2    1    2    0    0 -0.21001021762E+02  0.15427467153E+02 -0.18375813015E+02  0.59301950358E+02  0.50000011545E+02 0.  0.
        -12    1    1    2    0    0  0.21001021762E+02 -0.15427467153E+02  0.18375813015E+02  0.31886049642E+02  0.00000000000E+00 0.  1.
         11    1    3    3    0    0 -0.17758371332E+02 -0.34906870571E+01 -0.24015595369E+02  0.30071472689E+02  0.51100000000E-03 0. -1.
        -11    1    3    3    0    0  0.16331383697E+00 -0.38626708378E+01  0.48239255812E+01  0.61820025627E+01  0.51100000000E-03 0.  1.
        -12    1    3    3    0    0 -0.34059642672E+01  0.22780825048E+02  0.81585677277E+00  0.23048475106E+02  0.00000000000E+00 0.  1.
</event>
<event>
 7    1  0.3755162E-013  0.5930194E+02  0.7816164E-02  0.1266605E+00
        -11   -1    0    0    0    0  0.00000000000E+00  0.00000000000E+00  0.45593999997E+02  0.45594000000E+02  0.51100000000E-03 0. -1.
         11   -1    0    0    0    0 -0.00000000000E+00 -0.00000000000E+00 -0.45593999997E+02  0.45594000000E+02  0.51100000000E-03 0.  1.
    9900012    2    1    2    0    0  0.13955146824E+02  0.11200662331E+02  0.26391663834E+02  0.59301939104E+02  0.49999991020E+02 0.  0.
        -12    1    1    2    0    0 -0.13955146824E+02 -0.11200662331E+02 -0.26391663834E+02  0.31886060896E+02  0.00000000000E+00 0.  1.
         11    1    3    3    0    0 -0.19313839486E+01  0.13030733678E+02  0.18564423378E+02  0.22763305554E+02  0.51100000000E-03 0. -1.
        -11    1    3    3    0    0  0.23254119281E+02  0.58814349355E+01  0.93912022634E+01  0.25759270577E+02  0.51100000000E-03 0.  1.
        -12    1    3    3    0    0 -0.73675885085E+01 -0.77115062816E+01 -0.15639618072E+01  0.10779362973E+02  0.00000000000E+00 0.  1.
</event>
<event>
 7    1  0.3755162E-013  0.5930207E+02  0.7816164E-02  0.1266604E+00
        -11   -1    0    0    0    0  0.00000000000E+00  0.00000000000E+00  0.45593999997E+02  0.45594000000E+02  0.51100000000E-03 0.  1.
         11   -1    0    0    0    0 -0.00000000000E+00 -0.00000000000E+00 -0.45593999997E+02  0.45594000000E+02  0.51100000000E-03 0. -1.
    9900012    2    1    2    0    0  0.29408474396E+02 -0.12314895143E+02  0.44424916236E+00  0.59302072603E+02  0.50000234490E+02 0.  0.
        -12    1    1    2    0    0 -0.29408474396E+02  0.12314895143E+02 -0.44424916236E+00  0.31885927397E+02  0.00000000000E+00 0.  1.
         11    1    3    3    0    0  0.33230593311E+02 -0.69606739766E+01  0.11088752594E+02  0.35716715252E+02  0.51100000000E-03 0.  1.
        -11    1    3    3    0    0 -0.17043187519E+01 -0.12253091764E+02 -0.23524422127E+01  0.12592733810E+02  0.51100000000E-03 0. -1.
        -12    1    3    3    0    0 -0.21178001637E+01  0.68988705982E+01 -0.82920612185E+01  0.10992623541E+02  0.00000000000E+00 0.  1.
</event>
<event>
 7    1  0.3755162E-013  0.5930214E+02  0.7816164E-02  0.1266604E+00
        -11   -1    0    0    0    0  0.00000000000E+00  0.00000000000E+00  0.45593999997E+02  0.45594000000E+02  0.51100000000E-03 0.  1.
         11   -1    0    0    0    0 -0.00000000000E+00 -0.00000000000E+00 -0.45593999997E+02  0.45594000000E+02  0.51100000000E-03 0. -1.
    9900012    2    1    2    0    0 -0.16656050683E+02 -0.20043882833E+02 -0.18371908996E+02  0.59302136306E+02  0.50000350668E+02 0.  0.
        -12    1    1    2    0    0  0.16656050683E+02  0.20043882833E+02  0.18371908996E+02  0.31885863694E+02  0.00000000000E+00 0.  1.
         11    1    3    3    0    0 -0.59587488635E+01 -0.18568490170E+02 -0.20712099707E+01  0.19610849706E+02  0.51100000000E-03 0. -1.
        -11    1    3    3    0    0  0.43454881244E+01 -0.14880930528E+02 -0.10499947491E+02  0.18723628334E+02  0.51100000000E-03 0.  1.
         12    1    3    3    0    0 -0.15042789944E+02  0.13405537865E+02 -0.58007515344E+01  0.20967658265E+02  0.00000000000E+00 0. -1.
</event>
<event>
 7    1  0.3755162E-013  0.5930195E+02  0.7816164E-02  0.1266605E+00
        -11   -1    0    0    0    0  0.00000000000E+00  0.00000000000E+00  0.45593999997E+02  0.45594000000E+02  0.51100000000E-03 0. -1.
         11   -1    0    0    0    0 -0.00000000000E+00 -0.00000000000E+00 -0.45593999997E+02  0.45594000000E+02  0.51100000000E-03 0.  1.
    9900012    2    1    2    0    0  0.11714415417E+02 -0.21769131965E+02  0.20139447440E+02  0.59301953236E+02  0.50000016793E+02 0.  0.
        -12    1    1    2    0    0 -0.11714415417E+02  0.21769131965E+02 -0.20139447440E+02  0.31886046764E+02  0.00000000000E+00 0.  1.
         11    1    3    3    0    0 -0.33164861780E+01  0.42428338255E+01  0.26405761872E+01  0.59977797810E+01  0.51100000000E-03 0. -1.
        -11    1    3    3    0    0  0.42291145322E+01  0.10931042552E+02  0.57903306050E+01  0.13072912062E+02  0.51100000000E-03 0.  1.
         12    1    3    3    0    0  0.10801787063E+02 -0.36943008342E+02  0.11708540648E+02  0.40231261393E+02  0.00000000000E+00 0. -1.
</event>
<event>
 7    1  0.3755162E-013  0.5930194E+02  0.7816164E-02  0.1266605E+00
        -11   -1    0    0    0    0  0.00000000000E+00  0.00000000000E+00  0.45593999997E+02  0.45594000000E+02  0.51100000000E-03 0.  1.
         11   -1    0    0    0    0 -0.00000000000E+00 -0.00000000000E+00 -0.45593999997E+02  0.45594000000E+02  0.51100000000E-03 0. -1.
    9900012    2    1    2    0    0  0.21157747711E+02  0.49995749368E+01 -0.23325416001E+02  0.59301936127E+02  0.49999985590E+02 0.  0.
        -12    1    1    2    0    0 -0.21157747711E+02 -0.49995749368E+01  0.23325416001E+02  0.31886063873E+02  0.00000000000E+00 0.  1.
         11    1    3    3    0    0  0.66028268920E+01 -0.88627689839E+01 -0.17008391276E+01  0.11182077223E+02  0.51100000000E-03 0. -1.
        -11    1    3    3    0    0  0.19859334361E+02 -0.45027232795E+01 -0.15847470614E+01  0.20424962710E+02  0.51100000000E-03 0.  1.
        -12    1    3    3    0    0 -0.53044135420E+01  0.18365067200E+02 -0.20039829812E+02  0.27694896194E+02  0.00000000000E+00 0.  1.
</event>
<event>
 7    1  0.3755162E-013  0.5930197E+02  0.7816164E-02  0.1266605E+00
        -11   -1    0    0    0    0  0.00000000000E+00  0.00000000000E+00  0.45593999997E+02  0.45594000000E+02  0.51100000000E-03 0.  1.
         11   -1    0    0    0    0 -0.00000000000E+00 -0.00000000000E+00 -0.45593999997E+02  0.45594000000E+02  0.51100000000E-03 0. -1.
    9900012    2    1    2    0    0  0.14089817088E+02 -0.27667844429E+01 -0.28469996493E+02  0.59301972621E+02  0.50000052146E+02 0.  0.
        -12    1    1    2    0    0 -0.14089817088E+02  0.27667844429E+01  0.28469996493E+02  0.31886027379E+02  0.00000000000E+00 0.  1.
         11    1    3    3    0    0  0.12909863041E+02 -0.31510590351E+01 -0.11301013725E+02  0.17444387300E+02  0.51100000000E-03 0. -1.
        -11    1    3    3    0    0  0.21296923333E+01 -0.12736908977E+02 -0.23835809437E+02  0.27109228161E+02  0.51100000000E-03 0.  1.
        -12    1    3    3    0    0 -0.94973828668E+00  0.13121183569E+02  0.66668266695E+01  0.14748357159E+02  0.00000000000E+00 0.  1.
</event>
<event>
 7    1  0.3755162E-013  0.5930190E+02  0.7816164E-02  0.1266605E+00
        -11   -1    0    0    0    0  0.00000000000E+00  0.00000000000E+00  0.45593999997E+02  0.45594000000E+02  0.51100000000E-03 0.  1.
         11   -1    0    0    0    0 -0.00000000000E+00 -0.00000000000E+00 -0.45593999997E+02  0.45594000000E+02  0.51100000000E-03 0. -1.
    9900012    2    1    2    0    0  0.19302331893E+02 -0.19421012824E+02 -0.16339152194E+02  0.59301895659E+02  0.49999911788E+02 0.  0.
        -12    1    1    2    0    0 -0.19302331893E+02  0.19421012824E+02  0.16339152194E+02  0.31886104341E+02  0.00000000000E+00 0.  1.
         11    1    3    3    0    0  0.58708247935E+01  0.44843149574E+01 -0.21290452387E+02  0.22535727800E+02  0.51100000000E-03 0. -1.
        -11    1    3    3    0    0  0.10471270946E+02 -0.61102006584E+01 -0.80296103857E+01  0.14541551173E+02  0.51100000000E-03 0.  1.
        -12    1    3    3    0    0  0.29602361533E+01 -0.17795127123E+02  0.12980910579E+02  0.22224616686E+02  0.00000000000E+00 0.  1.
</event>
<event>
 7    1  0.3755162E-013  0.5930200E+02  0.7816164E-02  0.1266605E+00
        -11   -1    0    0    0    0  0.00000000000E+00  0.00000000000E+00  0.45593999997E+02  0.45594000000E+02  0.51100000000E-03 0. -1.
         11   -1    0    0    0    0 -0.00000000000E+00 -0.00000000000E+00 -0.45593999997E+02  0.45594000000E+02  0.51100000000E-03 0.  1.
    9900012    2    1    2    0    0 -0.66444283554E+00 -0.34676646901E+01  0.31689916148E+02  0.59302000437E+02  0.50000102876E+02 0.  0.
        -12    1    1    2    0    0  0.66444283554E+00  0.34676646901E+01 -0.31689916148E+02  0.31885999563E+02  0.00000000000E+00 0.  1.
         11    1    3    3    0    0 -0.59684364442E+01  0.84407815623E+01  0.33735799929E+01  0.10874284767E+02  0.51100000000E-03 0. -1.
        -11    1    3    3    0    0 -0.10713571583E+02 -0.35481443157E+01  0.28183422115E+02  0.30359104508E+02  0.51100000000E-03 0.  1.
        -12    1    3    3    0    0  0.16017565192E+02 -0.83603019367E+01  0.13291403987E+00  0.18068611161E+02  0.00000000000E+00 0.  1.
</event>
<event>
 7    1  0.3755162E-013  0.5930193E+02  0.7816164E-02  0.1266605E+00
        -11   -1    0    0    0    0  0.00000000000E+00  0.00000000000E+00  0.45593999997E+02  0.45594000000E+02  0.51100000000E-03 0. -1.
         11   -1    0    0    0    0 -0.00000000000E+00 -0.00000000000E+00 -0.45593999997E+02  0.45594000000E+02  0.51100000000E-03 0.  1.
    9900012    2    1    2    0    0 -0.15940181301E+02  0.21180393062E+02  0.17720689688E+02  0.59301932930E+02  0.49999979760E+02 0.  0.
        -12    1    1    2    0    0  0.15940181301E+02 -0.21180393062E+02 -0.17720689688E+02  0.31886067070E+02  0.00000000000E+00 0.  1.
         11    1    3    3    0    0 -0.13537546237E+02  0.32322367982E+02  0.21129789020E+02  0.40920271436E+02  0.51100000000E-03 0. -1.
        -11    1    3    3    0    0 -0.63353180190E+01 -0.35690726542E+00  0.19841277196E+00  0.63484647819E+01  0.51100000000E-03 0.  1.
        -12    1    3    3    0    0  0.39326829546E+01 -0.10785067654E+02 -0.36075121040E+01  0.12033196712E+02  0.00000000000E+00 0.  1.
</event>
<event>
 7    1  0.3755162E-013  0.5930194E+02  0.7816164E-02  0.1266605E+00
        -11   -1    0    0    0    0  0.00000000000E+00  0.00000000000E+00  0.45593999997E+02  0.45594000000E+02  0.51100000000E-03 0.  1.
         11   -1    0    0    0    0 -0.00000000000E+00 -0.00000000000E+00 -0.45593999997E+02  0.45594000000E+02  0.51100000000E-03 0. -1.
    9900012    2    1    2    0    0 -0.21822124713E+02  0.19799268795E+02  0.12186244319E+02  0.59301941567E+02  0.49999995512E+02 0.  0.
        -12    1    1    2    0    0  0.21822124713E+02 -0.19799268795E+02 -0.12186244319E+02  0.31886058433E+02  0.00000000000E+00 0.  1.
         11    1    3    3    0    0 -0.24723193269E+02  0.29092004486E+02  0.15655929597E+02  0.41263654010E+02  0.51100000000E-03 0. -1.
        -11    1    3    3    0    0  0.52399673353E+01 -0.33734080172E+01  0.46108159240E+01  0.77522102057E+01  0.51100000000E-03 0.  1.
        -12    1    3    3    0    0 -0.23388987792E+01 -0.59193276735E+01 -0.80805012021E+01  0.10286077352E+02  0.00000000000E+00 0.  1.
</event>
<event>
 7    1  0.3755162E-013  0.5930195E+02  0.7816164E-02  0.1266605E+00
        -11   -1    0    0    0    0  0.00000000000E+00  0.00000000000E+00  0.45593999997E+02  0.45594000000E+02  0.51100000000E-03 0.  1.
         11   -1    0    0    0    0 -0.00000000000E+00 -0.00000000000E+00 -0.45593999997E+02  0.45594000000E+02  0.51100000000E-03 0. -1.
    9900012    2    1    2    0    0 -0.19177410104E+02  0.19575855011E+02 -0.16301327761E+02  0.59301945925E+02  0.50000003460E+02 0.  0.
        -12    1    1    2    0    0  0.19177410104E+02 -0.19575855011E+02  0.16301327761E+02  0.31886054075E+02  0.00000000000E+00 0.  1.
         11    1    3    3    0    0 -0.33573668104E+01  0.21059679089E+02  0.24504171414E+01  0.21465939058E+02  0.51100000000E-03 0. -1.
        -11    1    3    3    0    0 -0.20934867415E+02  0.48272473530E+01 -0.53107406777E+01  0.22130859846E+02  0.51100000000E-03 0.  1.
        -12    1    3    3    0    0  0.51148241214E+01 -0.63110714308E+01 -0.13441004225E+02  0.15705147021E+02  0.00000000000E+00 0.  1.
</event>
<event>
 7    1  0.3755162E-013  0.5930194E+02  0.7816164E-02  0.1266605E+00
        -11   -1    0    0    0    0  0.00000000000E+00  0.00000000000E+00  0.45593999997E+02  0.45594000000E+02  0.51100000000E-03 0. -1.
         11   -1    0    0    0    0 -0.00000000000E+00 -0.00000000000E+00 -0.45593999997E+02  0.45594000000E+02  0.51100000000E-03 0.  1.
    9900012    2    1    2    0    0  0.31177064096E+02 -0.62700738422E+01  0.23233191516E+01  0.59301937786E+02  0.49999988617E+02 0.  0.
        -12    1    1    2    0    0 -0.31177064096E+02  0.62700738422E+01 -0.23233191516E+01  0.31886062214E+02  0.00000000000E+00 0.  1.
         11    1    3    3    0    0  0.23256014626E+02  0.51348386079E+01  0.11159921266E+02  0.26301190595E+02  0.51100000000E-03 0. -1.
        -11    1    3    3    0    0  0.24028248483E+01  0.19615066074E+01  0.93007243080E+01  0.98043127417E+01  0.51100000000E-03 0.  1.
        -12    1    3    3    0    0  0.55182246216E+01 -0.13366419058E+02 -0.18137326422E+02  0.23196434449E+02  0.00000000000E+00 0.  1.
</event>
<event>
 7    1  0.3755162E-013  0.5930194E+02  0.7816164E-02  0.1266605E+00
        -11   -1    0    0    0    0  0.00000000000E+00  0.00000000000E+00  0.45593999997E+02  0.45594000000E+02  0.51100000000E-03 0.  1.
         11   -1    0    0    0    0 -0.00000000000E+00 -0.00000000000E+00 -0.45593999997E+02  0.45594000000E+02  0.51100000000E-03 0. -1.
    9900012    2    1    2    0    0  0.12285121762E+02  0.13528800840E+02 -0.26129833548E+02  0.59301939251E+02  0.49999991288E+02 0.  0.
        -12    1    1    2    0    0 -0.12285121762E+02 -0.13528800840E+02  0.26129833548E+02  0.31886060749E+02  0.00000000000E+00 0.  1.
         11    1    3    3    0    0  0.57119290754E+01  0.12206527308E+02 -0.13702576828E+02  0.19219418687E+02  0.51100000000E-03 0. -1.
        -11    1    3    3    0    0  0.16523300244E+02  0.13453827390E+02 -0.23547976673E+01  0.21437583696E+02  0.51100000000E-03 0.  1.
        -12    1    3    3    0    0 -0.99501075580E+01 -0.12131553858E+02 -0.10072459053E+02  0.18644936868E+02  0.00000000000E+00 0.  1.
</event>
<event>
 7    1  0.3755162E-013  0.5930194E+02  0.7816164E-02  0.1266605E+00
        -11   -1    0    0    0    0  0.00000000000E+00  0.00000000000E+00  0.45593999997E+02  0.45594000000E+02  0.51100000000E-03 0. -1.
         11   -1    0    0    0    0 -0.00000000000E+00 -0.00000000000E+00 -0.45593999997E+02  0.45594000000E+02  0.51100000000E-03 0.  1.
    9900012    2    1    2    0    0  0.24956841719E+02 -0.11049377312E+02  0.16485998175E+02  0.59301939983E+02  0.49999992623E+02 0.  0.
        -12    1    1    2    0    0 -0.24956841719E+02  0.11049377312E+02 -0.16485998175E+02  0.31886060017E+02  0.00000000000E+00 0.  1.
         11    1    3    3    0    0 -0.50437633135E+01  0.25821203929E+01  0.15273158441E+02  0.16290373326E+02  0.51100000000E-03 0. -1.
        -11    1    3    3    0    0  0.10757930799E+02 -0.54631520946E+01  0.14019005721E+02  0.18496259826E+02  0.51100000000E-03 0.  1.
        -12    1    3    3    0    0  0.19242674234E+02 -0.81683456103E+01 -0.12806165988E+02  0.24515306830E+02  0.00000000000E+00 0.  1.
</event>
<event>
 7    1  0.3755162E-013  0.5930190E+02  0.7816164E-02  0.1266605E+00
        -11   -1    0    0    0    0  0.00000000000E+00  0.00000000000E+00  0.45593999997E+02  0.45594000000E+02  0.51100000000E-03 0. -1.
         11   -1    0    0    0    0 -0.00000000000E+00 -0.00000000000E+00 -0.45593999997E+02  0.45594000000E+02  0.51100000000E-03 0.  1.
    9900012    2    1    2    0    0  0.14846475298E+02  0.14283019676E+02  0.24337232235E+02  0.59301900321E+02  0.49999920290E+02 0.  0.
        -12    1    1    2    0    0 -0.14846475298E+02 -0.14283019676E+02 -0.24337232235E+02  0.31886099679E+02  0.00000000000E+00 0.  1.
         11    1    3    3    0    0 -0.66835540962E+01  0.82815613608E+01  0.27765135460E+02  0.29734775958E+02  0.51100000000E-03 0. -1.
        -11    1    3    3    0    0 -0.28483124459E+01  0.31598670108E+00  0.25440407701E+01  0.38320849529E+01  0.51100000000E-03 0.  1.
        -12    1    3    3    0    0  0.24378341840E+02  0.56854716142E+01 -0.59719439947E+01  0.25735039410E+02  0.00000000000E+00 0.  1.
</event>
<event>
 7    1  0.3755162E-013  0.5930194E+02  0.7816164E-02  0.1266605E+00
        -11   -1    0    0    0    0  0.00000000000E+00  0.00000000000E+00  0.45593999997E+02  0.45594000000E+02  0.51100000000E-03 0.  1.
         11   -1    0    0    0    0 -0.00000000000E+00 -0.00000000000E+00 -0.45593999997E+02  0.45594000000E+02  0.51100000000E-03 0. -1.
    9900012    2    1    2    0    0  0.26969174943E+02 -0.13934300529E+02 -0.97580577357E+01  0.59301940050E+02  0.49999992746E+02 0.  0.
        -12    1    1    2    0    0 -0.26969174943E+02  0.13934300529E+02  0.97580577357E+01  0.31886059950E+02  0.00000000000E+00 0.  1.
         11    1    3    3    0    0 -0.34935190915E+01  0.58733367015E+01 -0.84422149552E+01  0.10861480252E+02  0.51100000000E-03 0. -1.
        -11    1    3    3    0    0  0.89399534594E+01  0.32034061894E+01 -0.11879732275E+02  0.15208965062E+02  0.51100000000E-03 0.  1.
        -12    1    3    3    0    0  0.21522740575E+02 -0.23011043420E+02  0.10563889495E+02  0.33231494736E+02  0.00000000000E+00 0.  1.
</event>
<event>
 7    1  0.3755162E-013  0.5930195E+02  0.7816164E-02  0.1266605E+00
        -11   -1    0    0    0    0  0.00000000000E+00  0.00000000000E+00  0.45593999997E+02  0.45594000000E+02  0.51100000000E-03 0. -1.
         11   -1    0    0    0    0 -0.00000000000E+00 -0.00000000000E+00 -0.45593999997E+02  0.45594000000E+02  0.51100000000E-03 0.  1.
    9900012    2    1    2    0    0  0.13386040952E+02  0.24013352210E+02  0.16152192398E+02  0.59301945117E+02  0.50000001986E+02 0.  0.
        -12    1    1    2    0    0 -0.13386040952E+02 -0.24013352210E+02 -0.16152192398E+02  0.31886054883E+02  0.00000000000E+00 0.  1.
         11    1    3    3    0    0  0.74943297434E+00 -0.11313221180E+02  0.43746190650E+01  0.12152691697E+02  0.51100000000E-03 0. -1.
        -11    1    3    3    0    0  0.78662767077E+01  0.21293440448E+01 -0.50898885998E+01  0.96082975351E+01  0.51100000000E-03 0.  1.
         12    1    3    3    0    0  0.47703312702E+01  0.33197229346E+02  0.16867461933E+02  0.37540955885E+02  0.00000000000E+00 0. -1.
</event>
<event>
 7    1  0.3755162E-013  0.5930194E+02  0.7816164E-02  0.1266605E+00
        -11   -1    0    0    0    0  0.00000000000E+00  0.00000000000E+00  0.45593999997E+02  0.45594000000E+02  0.51100000000E-03 0. -1.
         11   -1    0    0    0    0 -0.00000000000E+00 -0.00000000000E+00 -0.45593999997E+02  0.45594000000E+02  0.51100000000E-03 0.  1.
    9900012    2    1    2    0    0 -0.17603141946E+02  0.23813343374E+02  0.11822630088E+02  0.59301944878E+02  0.50000001551E+02 0.  0.
        -12    1    1    2    0    0  0.17603141946E+02 -0.23813343374E+02 -0.11822630088E+02  0.31886055122E+02  0.00000000000E+00 0.  1.
         11    1    3    3    0    0  0.72868462037E+01  0.11640076655E+02 -0.51057052534E+01  0.14651202631E+02  0.51100000000E-03 0. -1.
        -11    1    3    3    0    0  0.60660551868E+01  0.60740406604E+01 -0.51307968145E+00  0.85996654873E+01  0.51100000000E-03 0.  1.
         12    1    3    3    0    0 -0.30956043337E+02  0.60992260587E+01  0.17441415023E+02  0.36051076760E+02  0.00000000000E+00 0. -1.
</event>
<event>
 7    1  0.3755162E-013  0.5930195E+02  0.7816164E-02  0.1266605E+00
        -11   -1    0    0    0    0  0.00000000000E+00  0.00000000000E+00  0.45593999997E+02  0.45594000000E+02  0.51100000000E-03 0.  1.
         11   -1    0    0    0    0 -0.00000000000E+00 -0.00000000000E+00 -0.45593999997E+02  0.45594000000E+02  0.51100000000E-03 0. -1.
    9900012    2    1    2    0    0 -0.17098640702E+02  0.42214208865E+01 -0.26580745052E+02  0.59301954217E+02  0.50000018583E+02 0.  0.
        -12    1    1    2    0    0  0.17098640702E+02 -0.42214208865E+01  0.26580745052E+02  0.31886045783E+02  0.00000000000E+00 0.  1.
         11    1    3    3    0    0 -0.95018559299E+01 -0.39424002861E+01  0.44330711151E+01  0.11201781372E+02  0.51100000000E-03 0.  1.
        -11    1    3    3    0    0 -0.21444953613E+02  0.23986483773E+01 -0.15881057565E+02  0.26792676969E+02  0.51100000000E-03 0. -1.
        -12    1    3    3    0    0  0.13848168841E+02  0.57651727952E+01 -0.15132758602E+02  0.21307495876E+02  0.00000000000E+00 0.  1.
</event>
<event>
 7    1  0.3755162E-013  0.5930196E+02  0.7816164E-02  0.1266605E+00
        -11   -1    0    0    0    0  0.00000000000E+00  0.00000000000E+00  0.45593999997E+02  0.45594000000E+02  0.51100000000E-03 0.  1.
         11   -1    0    0    0    0 -0.00000000000E+00 -0.00000000000E+00 -0.45593999997E+02  0.45594000000E+02  0.51100000000E-03 0. -1.
    9900012    2    1    2    0    0 -0.87011530115E+01  0.16933099279E+02 -0.25578893647E+02  0.59301957362E+02  0.50000024318E+02 0.  0.
        -12    1    1    2    0    0  0.87011530115E+01 -0.16933099279E+02  0.25578893647E+02  0.31886042638E+02  0.00000000000E+00 0.  1.
         11    1    3    3    0    0  0.85510250272E+00 -0.91199039266E+01 -0.22688780768E+02  0.24468032632E+02  0.51100000000E-03 0. -1.
        -11    1    3    3    0    0 -0.21730066556E+01  0.71302215196E+01  0.86929778424E+01  0.11451195609E+02  0.51100000000E-03 0.  1.
         12    1    3    3    0    0 -0.73832488586E+01  0.18922781686E+02 -0.11583090722E+02  0.23382729120E+02  0.00000000000E+00 0. -1.
</event>
<event>
 7    1  0.3755162E-013  0.5930195E+02  0.7816164E-02  0.1266605E+00
        -11   -1    0    0    0    0  0.00000000000E+00  0.00000000000E+00  0.45593999997E+02  0.45594000000E+02  0.51100000000E-03 0. -1.
         11   -1    0    0    0    0 -0.00000000000E+00 -0.00000000000E+00 -0.45593999997E+02  0.45594000000E+02  0.51100000000E-03 0.  1.
    9900012    2    1    2    0    0  0.10117727428E+02 -0.27724089206E+02  0.12071723048E+02  0.59301952456E+02  0.50000015371E+02 0.  0.
        -12    1    1    2    0    0 -0.10117727428E+02  0.27724089206E+02 -0.12071723048E+02  0.31886047544E+02  0.00000000000E+00 0.  1.
         11    1    3    3    0    0  0.17815065650E-01  0.79610728122E+00  0.37190866881E-01  0.79717476219E+00  0.51100000000E-03 0. -1.
        -11    1    3    3    0    0  0.36857684934E+01 -0.24103184018E+02  0.30156081946E+02  0.38780634959E+02  0.51100000000E-03 0.  1.
         12    1    3    3    0    0  0.64141438691E+01 -0.44170124697E+01 -0.18121549765E+02  0.19724142735E+02  0.00000000000E+00 0. -1.
</event>
<event>
 7    1  0.3755162E-013  0.5930192E+02  0.7816164E-02  0.1266605E+00
        -11   -1    0    0    0    0  0.00000000000E+00  0.00000000000E+00  0.45593999997E+02  0.45594000000E+02  0.51100000000E-03 0. -1.
         11   -1    0    0    0    0 -0.00000000000E+00 -0.00000000000E+00 -0.45593999997E+02  0.45594000000E+02  0.51100000000E-03 0.  1.
    9900012    2    1    2    0    0 -0.29917871326E+02 -0.79011434551E+01 -0.76951124654E+01  0.59301923910E+02  0.49999963310E+02 0.  0.
        -12    1    1    2    0    0  0.29917871326E+02  0.79011434551E+01  0.76951124654E+01  0.31886076090E+02  0.00000000000E+00 0.  1.
         11    1    3    3    0    0 -0.12512499399E+02 -0.12388903363E+02 -0.32194844015E+00  0.17611110664E+02  0.51100000000E-03 0. -1.
        -11    1    3    3    0    0 -0.22177882444E+02 -0.35753050085E+01  0.78660628190E+01  0.23801601209E+02  0.51100000000E-03 0.  1.
        -12    1    3    3    0    0  0.47725105171E+01  0.80630649166E+01 -0.15239226844E+02  0.17889212037E+02  0.00000000000E+00 0.  1.
</event>
<event>
 7    1  0.3755162E-013  0.5930205E+02  0.7816164E-02  0.1266604E+00
        -11   -1    0    0    0    0  0.00000000000E+00  0.00000000000E+00  0.45593999997E+02  0.45594000000E+02  0.51100000000E-03 0. -1.
         11   -1    0    0    0    0 -0.00000000000E+00 -0.00000000000E+00 -0.45593999997E+02  0.45594000000E+02  0.51100000000E-03 0.  1.
    9900012    2    1    2    0    0 -0.21947300085E+02  0.14862619994E+02  0.17723781232E+02  0.59302048936E+02  0.50000191326E+02 0.  0.
        -12    1    1    2    0    0  0.21947300085E+02 -0.14862619994E+02 -0.17723781232E+02  0.31885951064E+02  0.00000000000E+00 0.  1.
         11    1    3    3    0    0 -0.11511181347E+02 -0.62549163053E+01  0.12808417788E+02  0.18321758662E+02  0.51100000000E-03 0. -1.
        -11    1    3    3    0    0  0.50709773504E+01 -0.49170403886E+01  0.78208079573E+01  0.10538364903E+02  0.51100000000E-03 0.  1.
         12    1    3    3    0    0 -0.15507096088E+02  0.26034576688E+02 -0.29054445126E+01  0.30441925370E+02  0.00000000000E+00 0. -1.
</event>
<event>
 7    1  0.3755162E-013  0.5930198E+02  0.7816164E-02  0.1266605E+00
        -11   -1    0    0    0    0  0.00000000000E+00  0.00000000000E+00  0.45593999997E+02  0.45594000000E+02  0.51100000000E-03 0.  1.
         11   -1    0    0    0    0 -0.00000000000E+00 -0.00000000000E+00 -0.45593999997E+02  0.45594000000E+02  0.51100000000E-03 0. -1.
    9900012    2    1    2    0    0  0.14748355443E+02 -0.10908130451E+02 -0.26080971343E+02  0.59301978542E+02  0.50000062946E+02 0.  0.
        -12    1    1    2    0    0 -0.14748355443E+02  0.10908130451E+02  0.26080971343E+02  0.31886021458E+02  0.00000000000E+00 0.  1.
         11    1    3    3    0    0  0.78413462843E+01 -0.24496759205E+01 -0.24137149138E+02  0.25496854560E+02  0.51100000000E-03 0. -1.
        -11    1    3    3    0    0  0.14874020738E+02 -0.15194209521E+02 -0.67640172768E+01  0.22312606881E+02  0.51100000000E-03 0.  1.
         12    1    3    3    0    0 -0.79670115786E+01  0.67357549900E+01  0.48201950723E+01  0.11492517101E+02  0.00000000000E+00 0. -1.
</event>
<event>
 7    1  0.3755162E-013  0.5930194E+02  0.7816164E-02  0.1266605E+00
        -11   -1    0    0    0    0  0.00000000000E+00  0.00000000000E+00  0.45593999997E+02  0.45594000000E+02  0.51100000000E-03 0.  1.
         11   -1    0    0    0    0 -0.00000000000E+00 -0.00000000000E+00 -0.45593999997E+02  0.45594000000E+02  0.51100000000E-03 0. -1.
    9900012    2    1    2    0    0  0.81033532390E+01  0.22365783830E+02 -0.21232719496E+02  0.59301937257E+02  0.49999987652E+02 0.  0.
        -12    1    1    2    0    0 -0.81033532390E+01 -0.22365783830E+02  0.21232719496E+02  0.31886062743E+02  0.00000000000E+00 0.  1.
         11    1    3    3    0    0  0.69568096671E+01  0.14701900583E+02 -0.22207431473E+02  0.27526588863E+02  0.51100000000E-03 0. -1.
        -11    1    3    3    0    0 -0.58336708886E+01 -0.93157495296E+01 -0.55227569790E+01  0.12301046713E+02  0.51100000000E-03 0.  1.
        -12    1    3    3    0    0  0.69802144605E+01  0.16979632776E+02  0.64974689561E+01  0.19474301681E+02  0.00000000000E+00 0.  1.
</event>
<event>
 7    1  0.3755162E-013  0.5930161E+02  0.7816164E-02  0.1266606E+00
        -11   -1    0    0    0    0  0.00000000000E+00  0.00000000000E+00  0.45593999997E+02  0.45594000000E+02  0.51100000000E-03 0.  1.
         11   -1    0    0    0    0 -0.00000000000E+00 -0.00000000000E+00 -0.45593999997E+02  0.45594000000E+02  0.51100000000E-03 0. -1.
    9900012    2    1    2    0    0 -0.40678121069E+01 -0.15188874361E+02 -0.27739737948E+02  0.59301606959E+02  0.49999385264E+02 0.  0.
        -12    1    1    2    0    0  0.40678121069E+01  0.15188874361E+02  0.27739737948E+02  0.31886393041E+02  0.00000000000E+00 0.  1.
         11    1    3    3    0    0  0.87542908018E+01  0.30049421441E+01 -0.17929762385E+00  0.92573988048E+01  0.51100000000E-03 0. -1.
        -11    1    3    3    0    0  0.10000127715E+02 -0.41967767700E+00  0.11617924487E+00  0.10009604466E+02  0.51100000000E-03 0.  1.
         12    1    3    3    0    0 -0.22822230624E+02 -0.17774138828E+02 -0.27676619569E+02  0.40034603689E+02  0.00000000000E+00 0. -1.
</event>
<event>
 7    1  0.3755162E-013  0.5930199E+02  0.7816164E-02  0.1266605E+00
        -11   -1    0    0    0    0  0.00000000000E+00  0.00000000000E+00  0.45593999997E+02  0.45594000000E+02  0.51100000000E-03 0. -1.
         11   -1    0    0    0    0 -0.00000000000E+00 -0.00000000000E+00 -0.45593999997E+02  0.45594000000E+02  0.51100000000E-03 0.  1.
    9900012    2    1    2    0    0 -0.29372914539E+02 -0.12360168357E+02  0.10844315141E+01  0.59301986420E+02  0.50000077313E+02 0.  0.
        -12    1    1    2    0    0  0.29372914539E+02  0.12360168357E+02 -0.10844315141E+01  0.31886013580E+02  0.00000000000E+00 0.  1.
         11    1    3    3    0    0 -0.46398362246E+01  0.98882680575E+01  0.12915281107E+02  0.16914798601E+02  0.51100000000E-03 0. -1.
        -11    1    3    3    0    0 -0.19437221134E+00  0.79238907925E+00  0.47814709585E+01  0.48505799444E+01  0.51100000000E-03 0.  1.
        -12    1    3    3    0    0 -0.24538706103E+02 -0.23040825493E+02 -0.16612320551E+02  0.37536607875E+02  0.00000000000E+00 0.  1.
</event>
<event>
 7    1  0.3755162E-013  0.5930213E+02  0.7816164E-02  0.1266604E+00
        -11   -1    0    0    0    0  0.00000000000E+00  0.00000000000E+00  0.45593999997E+02  0.45594000000E+02  0.51100000000E-03 0. -1.
         11   -1    0    0    0    0 -0.00000000000E+00 -0.00000000000E+00 -0.45593999997E+02  0.45594000000E+02  0.51100000000E-03 0.  1.
    9900012    2    1    2    0    0 -0.20773899155E+02  0.15429772230E+02 -0.18629979994E+02  0.59302126769E+02  0.50000333274E+02 0.  0.
        -12    1    1    2    0    0  0.20773899155E+02 -0.15429772230E+02  0.18629979994E+02  0.31885873231E+02  0.00000000000E+00 0.  1.
         11    1    3    3    0    0 -0.31091512123E+01 -0.51273630495E+01 -0.67348818490E+01  0.90175000351E+01  0.51100000000E-03 0. -1.
        -11    1    3    3    0    0 -0.19378842003E+01 -0.12287681664E+02 -0.32279498990E+01  0.12851543746E+02  0.51100000000E-03 0.  1.
         12    1    3    3    0    0 -0.15726863743E+02  0.32844816943E+02 -0.86671482456E+01  0.37433082987E+02  0.00000000000E+00 0. -1.
</event>
<event>
 7    1  0.3755162E-013  0.5930197E+02  0.7816164E-02  0.1266605E+00
        -11   -1    0    0    0    0  0.00000000000E+00  0.00000000000E+00  0.45593999997E+02  0.45594000000E+02  0.51100000000E-03 0. -1.
         11   -1    0    0    0    0 -0.00000000000E+00 -0.00000000000E+00 -0.45593999997E+02  0.45594000000E+02  0.51100000000E-03 0.  1.
    9900012    2    1    2    0    0 -0.24435157495E+01  0.24149529871E+02  0.20677243519E+02  0.59301969176E+02  0.50000045864E+02 0.  0.
        -12    1    1    2    0    0  0.24435157495E+01 -0.24149529871E+02 -0.20677243519E+02  0.31886030824E+02  0.00000000000E+00 0.  1.
         11    1    3    3    0    0  0.64485773478E+01 -0.38425868082E+01  0.54462425338E+01  0.92742213251E+01  0.51100000000E-03 0. -1.
        -11    1    3    3    0    0  0.75063399958E+01 -0.36875221719E+01 -0.42517233114E+01  0.93819033932E+01  0.51100000000E-03 0.  1.
         12    1    3    3    0    0 -0.16398433093E+02  0.31679638851E+02  0.19482724297E+02  0.40645844457E+02  0.00000000000E+00 0. -1.
</event>
<event>
 7    1  0.3755162E-013  0.5930196E+02  0.7816164E-02  0.1266605E+00
        -11   -1    0    0    0    0  0.00000000000E+00  0.00000000000E+00  0.45593999997E+02  0.45594000000E+02  0.51100000000E-03 0.  1.
         11   -1    0    0    0    0 -0.00000000000E+00 -0.00000000000E+00 -0.45593999997E+02  0.45594000000E+02  0.51100000000E-03 0. -1.
    9900012    2    1    2    0    0 -0.29453989036E+01  0.46991488758E+01 -0.31400030932E+02  0.59301963598E+02  0.50000035692E+02 0.  0.
        -12    1    1    2    0    0  0.29453989036E+01 -0.46991488758E+01  0.31400030932E+02  0.31886036402E+02  0.00000000000E+00 0.  1.
         11    1    3    3    0    0 -0.13336115838E+02 -0.86113466873E+00  0.88087390376E+00  0.13392889070E+02  0.51100000000E-03 0. -1.
        -11    1    3    3    0    0 -0.40178874788E+01 -0.58784772607E+01  0.16523608429E+01  0.73095972060E+01  0.51100000000E-03 0.  1.
         12    1    3    3    0    0  0.14408604413E+02  0.11438760805E+02 -0.33933265679E+02  0.38599477322E+02  0.00000000000E+00 0. -1.
</event>
<event>
 7    1  0.3755162E-013  0.5930194E+02  0.7816164E-02  0.1266605E+00
        -11   -1    0    0    0    0  0.00000000000E+00  0.00000000000E+00  0.45593999997E+02  0.45594000000E+02  0.51100000000E-03 0. -1.
         11   -1    0    0    0    0 -0.00000000000E+00 -0.00000000000E+00 -0.45593999997E+02  0.45594000000E+02  0.51100000000E-03 0.  1.
    9900012    2    1    2    0    0 -0.21714366344E+02 -0.11372397683E+02  0.20393036967E+02  0.59301935779E+02  0.49999984956E+02 0.  0.
        -12    1    1    2    0    0  0.21714366344E+02  0.11372397683E+02 -0.20393036967E+02  0.31886064221E+02  0.00000000000E+00 0.  1.
         11    1    3    3    0    0 -0.66389986714E+01 -0.46194958715E+01 -0.85627135268E+01  0.11778629320E+02  0.51100000000E-03 0. -1.
        -11    1    3    3    0    0 -0.54083510314E+01 -0.11753607282E+02 -0.34071035346E+01  0.13379308643E+02  0.51100000000E-03 0.  1.
         12    1    3    3    0    0 -0.96670166408E+01  0.50007054707E+01  0.32362854028E+02  0.34143997815E+02  0.00000000000E+00 0. -1.
</event>
<event>
 7    1  0.3755162E-013  0.5930195E+02  0.7816164E-02  0.1266605E+00
        -11   -1    0    0    0    0  0.00000000000E+00  0.00000000000E+00  0.45593999997E+02  0.45594000000E+02  0.51100000000E-03 0.  1.
         11   -1    0    0    0    0 -0.00000000000E+00 -0.00000000000E+00 -0.45593999997E+02  0.45594000000E+02  0.51100000000E-03 0. -1.
    9900012    2    1    2    0    0 -0.16039504618E+02 -0.25373414259E+02  0.10753806790E+02  0.59301949444E+02  0.50000009879E+02 0.  0.
        -12    1    1    2    0    0  0.16039504618E+02  0.25373414259E+02 -0.10753806790E+02  0.31886050556E+02  0.00000000000E+00 0.  1.
         11    1    3    3    0    0  0.16270132070E+02 -0.58203381926E+01  0.63351836199E+01  0.18404566988E+02  0.51100000000E-03 0.  1.
        -11    1    3    3    0    0 -0.80672956906E+01 -0.91829809766E+01 -0.45558725794E+01  0.13044706765E+02  0.51100000000E-03 0. -1.
        -12    1    3    3    0    0 -0.24242340997E+02 -0.10370095090E+02  0.89744957500E+01  0.27852675691E+02  0.00000000000E+00 0.  1.
</event>
<event>
 7    1  0.3755162E-013  0.5930196E+02  0.7816164E-02  0.1266605E+00
        -11   -1    0    0    0    0  0.00000000000E+00  0.00000000000E+00  0.45593999997E+02  0.45594000000E+02  0.51100000000E-03 0. -1.
         11   -1    0    0    0    0 -0.00000000000E+00 -0.00000000000E+00 -0.45593999997E+02  0.45594000000E+02  0.51100000000E-03 0.  1.
    9900012    2    1    2    0    0  0.73461357131E+00  0.30226991886E+02  0.10124676957E+02  0.59301956360E+02  0.50000022491E+02 0.  0.
        -12    1    1    2    0    0 -0.73461357131E+00 -0.30226991886E+02 -0.10124676957E+02  0.31886043640E+02  0.00000000000E+00 0.  1.
         11    1    3    3    0    0 -0.48938473654E+01 -0.41200419345E+01  0.10823953101E+02  0.12573084290E+02  0.51100000000E-03 0. -1.
        -11    1    3    3    0    0 -0.52075204320E+01 -0.38935954013E+01  0.22321921030E+01  0.68746662497E+01  0.51100000000E-03 0.  1.
        -12    1    3    3    0    0  0.10835981369E+02  0.38240629221E+02 -0.29314682465E+01  0.39854205820E+02  0.00000000000E+00 0.  1.
</event>
<event>
 7    1  0.3755162E-013  0.5930194E+02  0.7816164E-02  0.1266605E+00
        -11   -1    0    0    0    0  0.00000000000E+00  0.00000000000E+00  0.45593999997E+02  0.45594000000E+02  0.51100000000E-03 0. -1.
         11   -1    0    0    0    0 -0.00000000000E+00 -0.00000000000E+00 -0.45593999997E+02  0.45594000000E+02  0.51100000000E-03 0.  1.
    9900012    2    1    2    0    0  0.19200498361E+00  0.24738974328E+02  0.20116342673E+02  0.59301937853E+02  0.49999988739E+02 0.  0.
        -12    1    1    2    0    0 -0.19200498361E+00 -0.24738974328E+02 -0.20116342673E+02  0.31886062147E+02  0.00000000000E+00 0.  1.
         11    1    3    3    0    0 -0.42276305950E+01  0.32840428075E+02  0.20278992459E+02  0.38827878027E+02  0.51100000000E-03 0. -1.
        -11    1    3    3    0    0  0.90342691817E+01  0.16373651313E+01 -0.23502193928E+01  0.94774741190E+01  0.51100000000E-03 0.  1.
        -12    1    3    3    0    0 -0.46146336031E+01 -0.97388188786E+01  0.21875696062E+01  0.10996585707E+02  0.00000000000E+00 0.  1.
</event>
<event>
 7    1  0.3755162E-013  0.5930193E+02  0.7816164E-02  0.1266605E+00
        -11   -1    0    0    0    0  0.00000000000E+00  0.00000000000E+00  0.45593999997E+02  0.45594000000E+02  0.51100000000E-03 0. -1.
         11   -1    0    0    0    0 -0.00000000000E+00 -0.00000000000E+00 -0.45593999997E+02  0.45594000000E+02  0.51100000000E-03 0.  1.
    9900012    2    1    2    0    0 -0.92337961141E+01  0.30293409828E+02 -0.37104838907E+01  0.59301931563E+02  0.49999977268E+02 0.  0.
        -12    1    1    2    0    0  0.92337961141E+01 -0.30293409828E+02  0.37104838907E+01  0.31886068437E+02  0.00000000000E+00 0.  1.
         11    1    3    3    0    0 -0.45065861064E+01  0.82551913675E+01 -0.34620412610E+01  0.10022137137E+02  0.51100000000E-03 0. -1.
        -11    1    3    3    0    0  0.19332615790E+02  0.13085757721E+02 -0.26568029600E+01  0.23495652590E+02  0.51100000000E-03 0.  1.
         12    1    3    3    0    0 -0.24059825798E+02  0.89524607395E+01  0.24083603303E+01  0.25784141835E+02  0.00000000000E+00 0. -1.
</event>
<event>
 7    1  0.3755162E-013  0.5930195E+02  0.7816164E-02  0.1266605E+00
        -11   -1    0    0    0    0  0.00000000000E+00  0.00000000000E+00  0.45593999997E+02  0.45594000000E+02  0.51100000000E-03 0. -1.
         11   -1    0    0    0    0 -0.00000000000E+00 -0.00000000000E+00 -0.45593999997E+02  0.45594000000E+02  0.51100000000E-03 0.  1.
    9900012    2    1    2    0    0  0.12228968010E+02 -0.13421422362E+02  0.26211412116E+02  0.59301947220E+02  0.50000005821E+02 0.  0.
        -12    1    1    2    0    0 -0.12228968010E+02  0.13421422362E+02 -0.26211412116E+02  0.31886052780E+02  0.00000000000E+00 0.  1.
         11    1    3    3    0    0  0.89395632592E+01  0.42593066752E+01 -0.12409801824E+01  0.99798555447E+01  0.51100000000E-03 0. -1.
        -11    1    3    3    0    0  0.17227943178E+02  0.11426560850E+01  0.87929722344E+01  0.19375862562E+02  0.51100000000E-03 0.  1.
         12    1    3    3    0    0 -0.13938538427E+02 -0.18823385123E+02  0.18659420064E+02  0.29946229113E+02  0.00000000000E+00 0. -1.
</event>
<event>
 7    1  0.3755162E-013  0.5930195E+02  0.7816164E-02  0.1266605E+00
        -11   -1    0    0    0    0  0.00000000000E+00  0.00000000000E+00  0.45593999997E+02  0.45594000000E+02  0.51100000000E-03 0.  1.
         11   -1    0    0    0    0 -0.00000000000E+00 -0.00000000000E+00 -0.45593999997E+02  0.45594000000E+02  0.51100000000E-03 0. -1.
    9900012    2    1    2    0    0  0.37285503993E+01  0.15030137874E+02 -0.27873160605E+02  0.59301949528E+02  0.50000010032E+02 0.  0.
        -12    1    1    2    0    0 -0.37285503993E+01 -0.15030137874E+02  0.27873160605E+02  0.31886050472E+02  0.00000000000E+00 0.  1.
         11    1    3    3    0    0  0.15817986391E+02  0.20521420665E+02 -0.20162107700E+02  0.32830595285E+02  0.51100000000E-03 0. -1.
        -11    1    3    3    0    0 -0.14591038157E+01  0.74285648802E+00  0.70526708211E+01  0.72402338138E+01  0.51100000000E-03 0.  1.
         12    1    3    3    0    0 -0.10630332176E+02 -0.62341392796E+01 -0.14763723726E+02  0.19231120430E+02  0.00000000000E+00 0. -1.
</event>
<event>
 7    1  0.3755162E-013  0.5930193E+02  0.7816164E-02  0.1266605E+00
        -11   -1    0    0    0    0  0.00000000000E+00  0.00000000000E+00  0.45593999997E+02  0.45594000000E+02  0.51100000000E-03 0.  1.
         11   -1    0    0    0    0 -0.00000000000E+00 -0.00000000000E+00 -0.45593999997E+02  0.45594000000E+02  0.51100000000E-03 0. -1.
    9900012    2    1    2    0    0  0.72973421738E+00 -0.24044879018E+02 -0.20929225846E+02  0.59301933865E+02  0.49999981466E+02 0.  0.
        -12    1    1    2    0    0 -0.72973421738E+00  0.24044879018E+02  0.20929225846E+02  0.31886066135E+02  0.00000000000E+00 0.  1.
         11    1    3    3    0    0  0.28600472783E+01  0.72491714464E+01 -0.10911392225E+01  0.78689860946E+01  0.51100000000E-03 0. -1.
        -11    1    3    3    0    0  0.28754769750E+01 -0.17867871642E+02  0.82588519830E+01  0.19893160663E+02  0.51100000000E-03 0.  1.
         12    1    3    3    0    0 -0.50057900359E+01 -0.13426178823E+02 -0.28096938607E+02  0.31539787107E+02  0.00000000000E+00 0. -1.
</event>
<event>
 7    1  0.3755162E-013  0.5930193E+02  0.7816164E-02  0.1266605E+00
        -11   -1    0    0    0    0  0.00000000000E+00  0.00000000000E+00  0.45593999997E+02  0.45594000000E+02  0.51100000000E-03 0.  1.
         11   -1    0    0    0    0 -0.00000000000E+00 -0.00000000000E+00 -0.45593999997E+02  0.45594000000E+02  0.51100000000E-03 0. -1.
    9900012    2    1    2    0    0 -0.30884930228E+02  0.41710610069E+01 -0.67412646797E+01  0.59301932280E+02  0.49999978576E+02 0.  0.
        -12    1    1    2    0    0  0.30884930228E+02 -0.41710610069E+01  0.67412646797E+01  0.31886067720E+02  0.00000000000E+00 0.  1.
         11    1    3    3    0    0 -0.18016964072E+02  0.25612455631E+01  0.75244433550E+01  0.19692339152E+02  0.51100000000E-03 0. -1.
        -11    1    3    3    0    0 -0.20557131570E+02 -0.57004384665E+01 -0.18450216449E+02  0.28204629839E+02  0.51100000000E-03 0.  1.
        -12    1    3    3    0    0  0.76891654129E+01  0.73102539103E+01  0.41845084140E+01  0.11404963290E+02  0.00000000000E+00 0.  1.
</event>
<event>
 7    1  0.3755162E-013  0.5930184E+02  0.7816164E-02  0.1266605E+00
        -11   -1    0    0    0    0  0.00000000000E+00  0.00000000000E+00  0.45593999997E+02  0.45594000000E+02  0.51100000000E-03 0.  1.
         11   -1    0    0    0    0 -0.00000000000E+00 -0.00000000000E+00 -0.45593999997E+02  0.45594000000E+02  0.51100000000E-03 0. -1.
    9900012    2    1    2    0    0 -0.16795686517E+02  0.25763436989E+02 -0.84188545211E+01  0.59301844971E+02  0.49999819344E+02 0.  0.
        -12    1    1    2    0    0  0.16795686517E+02 -0.25763436989E+02  0.84188545211E+01  0.31886155029E+02  0.00000000000E+00 0.  1.
         11    1    3    3    0    0 -0.11572790121E+02  0.43783412232E+01  0.13770977669E+02  0.18513216071E+02  0.51100000000E-03 0.  1.
        -11    1    3    3    0    0 -0.13605092260E+02  0.20182268533E+02 -0.10882168138E+02  0.26661659404E+02  0.51100000000E-03 0. -1.
        -12    1    3    3    0    0  0.83821958633E+01  0.12028272331E+01 -0.11307664052E+02  0.14126969497E+02  0.00000000000E+00 0.  1.
</event>
<event>
 7    1  0.3755162E-013  0.5930201E+02  0.7816164E-02  0.1266605E+00
        -11   -1    0    0    0    0  0.00000000000E+00  0.00000000000E+00  0.45593999997E+02  0.45594000000E+02  0.51100000000E-03 0. -1.
         11   -1    0    0    0    0 -0.00000000000E+00 -0.00000000000E+00 -0.45593999997E+02  0.45594000000E+02  0.51100000000E-03 0.  1.
    9900012    2    1    2    0    0 -0.19924194589E+02 -0.24849731814E+02  0.14945473471E+01  0.59302009769E+02  0.50000119897E+02 0.  0.
        -12    1    1    2    0    0  0.19924194589E+02  0.24849731814E+02 -0.14945473471E+01  0.31885990231E+02  0.00000000000E+00 0.  1.
         11    1    3    3    0    0 -0.59450082682E+01  0.72938270269E+01  0.87525957369E+00  0.94503500247E+01  0.51100000000E-03 0. -1.
        -11    1    3    3    0    0 -0.67346196990E+01 -0.25797558068E+02 -0.15671621065E+02  0.30926829967E+02  0.51100000000E-03 0.  1.
         12    1    3    3    0    0 -0.72445666212E+01 -0.63460007732E+01  0.16290908838E+02  0.18924829778E+02  0.00000000000E+00 0. -1.
</event>
<event>
 7    1  0.3755162E-013  0.5930195E+02  0.7816164E-02  0.1266605E+00
        -11   -1    0    0    0    0  0.00000000000E+00  0.00000000000E+00  0.45593999997E+02  0.45594000000E+02  0.51100000000E-03 0.  1.
         11   -1    0    0    0    0 -0.00000000000E+00 -0.00000000000E+00 -0.45593999997E+02  0.45594000000E+02  0.51100000000E-03 0. -1.
    9900012    2    1    2    0    0 -0.19960928169E+02 -0.11907092262E+02 -0.21828948197E+02  0.59301945385E+02  0.50000002475E+02 0.  0.
        -12    1    1    2    0    0  0.19960928169E+02  0.11907092262E+02  0.21828948197E+02  0.31886054615E+02  0.00000000000E+00 0.  1.
         11    1    3    3    0    0 -0.23871667257E+01  0.60384332351E+01 -0.11684275084E+02  0.13367255717E+02  0.51100000000E-03 0. -1.
        -11    1    3    3    0    0 -0.93725043473E+01  0.92368996412E+01  0.46021469199E+01  0.13940728433E+02  0.51100000000E-03 0.  1.
         12    1    3    3    0    0 -0.82012570962E+01 -0.27182425139E+02 -0.14746820033E+02  0.31993961234E+02  0.00000000000E+00 0. -1.
</event>
<event>
 7    1  0.3755162E-013  0.5930192E+02  0.7816164E-02  0.1266605E+00
        -11   -1    0    0    0    0  0.00000000000E+00  0.00000000000E+00  0.45593999997E+02  0.45594000000E+02  0.51100000000E-03 0. -1.
         11   -1    0    0    0    0 -0.00000000000E+00 -0.00000000000E+00 -0.45593999997E+02  0.45594000000E+02  0.51100000000E-03 0.  1.
    9900012    2    1    2    0    0  0.73509605495E+01  0.28646374210E+02 -0.11919344311E+02  0.59301919257E+02  0.49999954824E+02 0.  0.
        -12    1    1    2    0    0 -0.73509605495E+01 -0.28646374210E+02  0.11919344311E+02  0.31886080743E+02  0.00000000000E+00 0.  1.
         11    1    3    3    0    0 -0.14746488411E+02  0.17436952659E+02 -0.91599254065E+01  0.24605090372E+02  0.51100000000E-03 0. -1.
        -11    1    3    3    0    0  0.49487777232E+01 -0.72385191402E+01 -0.36401607190E+01  0.94940681806E+01  0.51100000000E-03 0.  1.
         12    1    3    3    0    0  0.17148671238E+02  0.18447940691E+02  0.88074181492E+00  0.25202760704E+02  0.00000000000E+00 0. -1.
</event>
<event>
 7    1  0.3755162E-013  0.5930199E+02  0.7816164E-02  0.1266605E+00
        -11   -1    0    0    0    0  0.00000000000E+00  0.00000000000E+00  0.45593999997E+02  0.45594000000E+02  0.51100000000E-03 0. -1.
         11   -1    0    0    0    0 -0.00000000000E+00 -0.00000000000E+00 -0.45593999997E+02  0.45594000000E+02  0.51100000000E-03 0.  1.
    9900012    2    1    2    0    0 -0.83058987601E+01 -0.19830958413E+02  0.23547034056E+02  0.59301989296E+02  0.50000082558E+02 0.  0.
        -12    1    1    2    0    0  0.83058987601E+01  0.19830958413E+02 -0.23547034056E+02  0.31886010704E+02  0.00000000000E+00 0.  1.
         11    1    3    3    0    0  0.14092256200E+02 -0.13615073003E+00  0.20169876095E+02  0.24605570990E+02  0.51100000000E-03 0. -1.
        -11    1    3    3    0    0  0.27779922950E+01 -0.50258046750E+00 -0.23970727486E+00  0.28332469282E+01  0.51100000000E-03 0.  1.
        -12    1    3    3    0    0 -0.25176147255E+02 -0.19192227215E+02  0.36168652363E+01  0.31863171377E+02  0.00000000000E+00 0.  1.
</event>
<event>
 7    1  0.3755162E-013  0.5930201E+02  0.7816164E-02  0.1266605E+00
        -11   -1    0    0    0    0  0.00000000000E+00  0.00000000000E+00  0.45593999997E+02  0.45594000000E+02  0.51100000000E-03 0.  1.
         11   -1    0    0    0    0 -0.00000000000E+00 -0.00000000000E+00 -0.45593999997E+02  0.45594000000E+02  0.51100000000E-03 0. -1.
    9900012    2    1    2    0    0  0.84649011759E+01 -0.65929799774E+01 -0.30026566393E+02  0.59302005798E+02  0.50000112654E+02 0.  0.
        -12    1    1    2    0    0 -0.84649011759E+01  0.65929799774E+01  0.30026566393E+02  0.31885994202E+02  0.00000000000E+00 0.  1.
         11    1    3    3    0    0 -0.10468624363E+02 -0.35357388150E+01 -0.19136527650E+02  0.22097516507E+02  0.51100000000E-03 0. -1.
        -11    1    3    3    0    0  0.93947775507E+01 -0.15267809711E+02 -0.12153833541E+02  0.21658336238E+02  0.51100000000E-03 0.  1.
        -12    1    3    3    0    0  0.95387479885E+01  0.12210568548E+02  0.12637947983E+01  0.15546153053E+02  0.00000000000E+00 0.  1.
</event>
<event>
 7    1  0.3755162E-013  0.5930196E+02  0.7816164E-02  0.1266605E+00
        -11   -1    0    0    0    0  0.00000000000E+00  0.00000000000E+00  0.45593999997E+02  0.45594000000E+02  0.51100000000E-03 0.  1.
         11   -1    0    0    0    0 -0.00000000000E+00 -0.00000000000E+00 -0.45593999997E+02  0.45594000000E+02  0.51100000000E-03 0. -1.
    9900012    2    1    2    0    0  0.69453010644E+01  0.31982097276E+01 -0.30955679346E+02  0.59301955464E+02  0.50000020857E+02 0.  0.
        -12    1    1    2    0    0 -0.69453010644E+01 -0.31982097276E+01  0.30955679346E+02  0.31886044536E+02  0.00000000000E+00 0.  1.
         11    1    3    3    0    0  0.10559379802E+02 -0.19363869813E+01 -0.10187135672E+02  0.14799588839E+02  0.51100000000E-03 0. -1.
        -11    1    3    3    0    0 -0.13494529353E+02 -0.12822536717E+02 -0.12382379104E+02  0.22357170725E+02  0.51100000000E-03 0.  1.
         12    1    3    3    0    0  0.98804506155E+01  0.17957133426E+02 -0.83861645707E+01  0.22145195900E+02  0.00000000000E+00 0. -1.
</event>
<event>
 7    1  0.3755162E-013  0.5930199E+02  0.7816164E-02  0.1266605E+00
        -11   -1    0    0    0    0  0.00000000000E+00  0.00000000000E+00  0.45593999997E+02  0.45594000000E+02  0.51100000000E-03 0. -1.
         11   -1    0    0    0    0 -0.00000000000E+00 -0.00000000000E+00 -0.45593999997E+02  0.45594000000E+02  0.51100000000E-03 0.  1.
    9900012    2    1    2    0    0 -0.44451526444E+01  0.17271398042E+02  0.26432115836E+02  0.59301994920E+02  0.50000092816E+02 0.  0.
        -12    1    1    2    0    0  0.44451526444E+01 -0.17271398042E+02 -0.26432115836E+02  0.31886005080E+02  0.00000000000E+00 0.  1.
         11    1    3    3    0    0  0.31292580998E+01  0.10617853777E+02  0.11673698365E+02  0.16087458123E+02  0.51100000000E-03 0. -1.
        -11    1    3    3    0    0 -0.20703053064E+01  0.22235393719E+02  0.21624940399E+01  0.22436026356E+02  0.51100000000E-03 0.  1.
        -12    1    3    3    0    0 -0.55041054379E+01 -0.15581849454E+02  0.12595923431E+02  0.20778510441E+02  0.00000000000E+00 0.  1.
</event>
<event>
 7    1  0.3755162E-013  0.5930192E+02  0.7816164E-02  0.1266605E+00
        -11   -1    0    0    0    0  0.00000000000E+00  0.00000000000E+00  0.45593999997E+02  0.45594000000E+02  0.51100000000E-03 0.  1.
         11   -1    0    0    0    0 -0.00000000000E+00 -0.00000000000E+00 -0.45593999997E+02  0.45594000000E+02  0.51100000000E-03 0. -1.
    9900012    2    1    2    0    0  0.62427677470E+01 -0.30873155068E+02 -0.49596558978E+01  0.59301920912E+02  0.49999957842E+02 0.  0.
        -12    1    1    2    0    0 -0.62427677470E+01  0.30873155068E+02  0.49596558978E+01  0.31886079088E+02  0.00000000000E+00 0.  1.
         11    1    3    3    0    0  0.12665577907E+02 -0.11322876294E+02  0.30192176633E+01  0.17255146098E+02  0.51100000000E-03 0. -1.
        -11    1    3    3    0    0  0.68664571795E+01  0.31919515892E+01  0.81785967839E+01  0.11145682337E+02  0.51100000000E-03 0.  1.
         12    1    3    3    0    0 -0.13289267339E+02 -0.22742230363E+02 -0.16157470345E+02  0.30901092477E+02  0.00000000000E+00 0. -1.
</event>
<event>
 7    1  0.3755162E-013  0.5930194E+02  0.7816164E-02  0.1266605E+00
        -11   -1    0    0    0    0  0.00000000000E+00  0.00000000000E+00  0.45593999997E+02  0.45594000000E+02  0.51100000000E-03 0. -1.
         11   -1    0    0    0    0 -0.00000000000E+00 -0.00000000000E+00 -0.45593999997E+02  0.45594000000E+02  0.51100000000E-03 0.  1.
    9900012    2    1    2    0    0  0.21626679696E+02  0.22884322820E+02 -0.50314346165E+01  0.59301939725E+02  0.49999992152E+02 0.  0.
        -12    1    1    2    0    0 -0.21626679696E+02 -0.22884322820E+02  0.50314346165E+01  0.31886060275E+02  0.00000000000E+00 0.  1.
         11    1    3    3    0    0  0.10840524440E+02  0.18822767902E+02 -0.20390028805E+02  0.29792059958E+02  0.51100000000E-03 0.  1.
        -11    1    3    3    0    0  0.10210431285E+02 -0.65234861329E+01  0.17229401791E+01  0.12238353708E+02  0.51100000000E-03 0. -1.
        -12    1    3    3    0    0  0.57572397075E+00  0.10585041051E+02  0.13635654009E+02  0.17271526059E+02  0.00000000000E+00 0.  1.
</event>
<event>
 7    1  0.3755162E-013  0.5930194E+02  0.7816164E-02  0.1266605E+00
        -11   -1    0    0    0    0  0.00000000000E+00  0.00000000000E+00  0.45593999997E+02  0.45594000000E+02  0.51100000000E-03 0.  1.
         11   -1    0    0    0    0 -0.00000000000E+00 -0.00000000000E+00 -0.45593999997E+02  0.45594000000E+02  0.51100000000E-03 0. -1.
    9900012    2    1    2    0    0 -0.38580218158E+01 -0.31546737095E+02 -0.25767964859E+01  0.59301939820E+02  0.49999992326E+02 0.  0.
        -12    1    1    2    0    0  0.38580218158E+01  0.31546737095E+02  0.25767964859E+01  0.31886060180E+02  0.00000000000E+00 0.  1.
         11    1    3    3    0    0 -0.23918467034E+02 -0.13216975849E+02 -0.81158194181E+01  0.28506982319E+02  0.51100000000E-03 0. -1.
        -11    1    3    3    0    0  0.10235412444E+02 -0.35148990435E+01 -0.27718482951E+01  0.11171451402E+02  0.51100000000E-03 0.  1.
        -12    1    3    3    0    0  0.98250327736E+01 -0.14814862203E+02  0.83108712273E+01  0.19623506100E+02  0.00000000000E+00 0.  1.
</event>
<event>
 7    1  0.3755162E-013  0.5930205E+02  0.7816164E-02  0.1266604E+00
        -11   -1    0    0    0    0  0.00000000000E+00  0.00000000000E+00  0.45593999997E+02  0.45594000000E+02  0.51100000000E-03 0. -1.
         11   -1    0    0    0    0 -0.00000000000E+00 -0.00000000000E+00 -0.45593999997E+02  0.45594000000E+02  0.51100000000E-03 0.  1.
    9900012    2    1    2    0    0  0.12356507077E+02 -0.29393307947E+02  0.25286297895E+00  0.59302050760E+02  0.50000194655E+02 0.  0.
        -12    1    1    2    0    0 -0.12356507077E+02  0.29393307947E+02 -0.25286297895E+00  0.31885949240E+02  0.00000000000E+00 0.  1.
         11    1    3    3    0    0 -0.96857656184E+01  0.19126794947E+01 -0.72464606104E+01  0.12246778764E+02  0.51100000000E-03 0. -1.
        -11    1    3    3    0    0 -0.26925376913E+01  0.20712777853E+01 -0.26284459134E+01  0.42951925526E+01  0.51100000000E-03 0.  1.
         12    1    3    3    0    0  0.24734810387E+02 -0.33377265227E+02  0.10127769503E+02  0.42760079443E+02  0.00000000000E+00 0. -1.
</event>
<event>
 7    1  0.3755162E-013  0.5930194E+02  0.7816164E-02  0.1266605E+00
        -11   -1    0    0    0    0  0.00000000000E+00  0.00000000000E+00  0.45593999997E+02  0.45594000000E+02  0.51100000000E-03 0. -1.
         11   -1    0    0    0    0 -0.00000000000E+00 -0.00000000000E+00 -0.45593999997E+02  0.45594000000E+02  0.51100000000E-03 0.  1.
    9900012    2    1    2    0    0  0.23882764172E+02  0.21088944722E+02  0.12612069034E+01  0.59301942595E+02  0.49999997387E+02 0.  0.
        -12    1    1    2    0    0 -0.23882764172E+02 -0.21088944722E+02 -0.12612069034E+01  0.31886057405E+02  0.00000000000E+00 0.  1.
         11    1    3    3    0    0  0.18628262859E+02  0.32420777456E+02 -0.76819977975E+01  0.38172399432E+02  0.51100000000E-03 0. -1.
        -11    1    3    3    0    0  0.76569872582E+01 -0.31152728926E+01 -0.62586039577E+00  0.82901194541E+01  0.51100000000E-03 0.  1.
        -12    1    3    3    0    0 -0.24024859450E+01 -0.82165598414E+01  0.95690650967E+01  0.12839423709E+02  0.00000000000E+00 0.  1.
</event>
<event>
 7    1  0.3755162E-013  0.5930196E+02  0.7816164E-02  0.1266605E+00
        -11   -1    0    0    0    0  0.00000000000E+00  0.00000000000E+00  0.45593999997E+02  0.45594000000E+02  0.51100000000E-03 0.  1.
         11   -1    0    0    0    0 -0.00000000000E+00 -0.00000000000E+00 -0.45593999997E+02  0.45594000000E+02  0.51100000000E-03 0. -1.
    9900012    2    1    2    0    0 -0.11338147855E+02 -0.27423637564E+02 -0.11666629906E+02  0.59301956856E+02  0.50000023396E+02 0.  0.
        -12    1    1    2    0    0  0.11338147855E+02  0.27423637564E+02  0.11666629906E+02  0.31886043144E+02  0.00000000000E+00 0.  1.
         11    1    3    3    0    0 -0.10379688264E+02 -0.31115413023E+02  0.78200489851E+01  0.33720320616E+02  0.51100000000E-03 0. -1.
        -11    1    3    3    0    0 -0.48399217751E+01 -0.37260985843E+00  0.44327272977E+00  0.48744406725E+01  0.51100000000E-03 0.  1.
         12    1    3    3    0    0  0.38814621843E+01  0.40643853173E+01 -0.19929951620E+02  0.20707195568E+02  0.00000000000E+00 0. -1.
</event>
<event>
 7    1  0.3755162E-013  0.5930193E+02  0.7816164E-02  0.1266605E+00
        -11   -1    0    0    0    0  0.00000000000E+00  0.00000000000E+00  0.45593999997E+02  0.45594000000E+02  0.51100000000E-03 0.  1.
         11   -1    0    0    0    0 -0.00000000000E+00 -0.00000000000E+00 -0.45593999997E+02  0.45594000000E+02  0.51100000000E-03 0. -1.
    9900012    2    1    2    0    0  0.30853531975E+02 -0.41959335447E+01 -0.68683973963E+01  0.59301934447E+02  0.49999982528E+02 0.  0.
        -12    1    1    2    0    0 -0.30853531975E+02  0.41959335447E+01  0.68683973963E+01  0.31886065553E+02  0.00000000000E+00 0.  1.
         11    1    3    3    0    0  0.34760980163E+02 -0.10394298469E+02 -0.18955217269E+02  0.40934917180E+02  0.51100000000E-03 0. -1.
        -11    1    3    3    0    0  0.37483822477E+01  0.23594548508E+01  0.73462229221E+01  0.85781343047E+01  0.51100000000E-03 0.  1.
        -12    1    3    3    0    0 -0.76558304353E+01  0.38389100736E+01  0.47405969510E+01  0.97888829628E+01  0.00000000000E+00 0.  1.
</event>
<event>
 7    1  0.3755162E-013  0.5930194E+02  0.7816164E-02  0.1266605E+00
        -11   -1    0    0    0    0  0.00000000000E+00  0.00000000000E+00  0.45593999997E+02  0.45594000000E+02  0.51100000000E-03 0.  1.
         11   -1    0    0    0    0 -0.00000000000E+00 -0.00000000000E+00 -0.45593999997E+02  0.45594000000E+02  0.51100000000E-03 0. -1.
    9900012    2    1    2    0    0  0.25121571754E+02 -0.18421068032E+02  0.68038239538E+01  0.59301935093E+02  0.49999983705E+02 0.  0.
        -12    1    1    2    0    0 -0.25121571754E+02  0.18421068032E+02 -0.68038239538E+01  0.31886064907E+02  0.00000000000E+00 0.  1.
         11    1    3    3    0    0  0.23793928091E+02 -0.16357683390E+02  0.13361163778E+02  0.31815806098E+02  0.51100000000E-03 0. -1.
        -11    1    3    3    0    0  0.10969867298E+02 -0.67051533373E+01  0.29281538311E+01  0.13186021194E+02  0.51100000000E-03 0.  1.
         12    1    3    3    0    0 -0.96422236352E+01  0.46417686948E+01 -0.94854936550E+01  0.14300107801E+02  0.00000000000E+00 0. -1.
</event>
<event>
 7    1  0.3755162E-013  0.5930194E+02  0.7816164E-02  0.1266605E+00
        -11   -1    0    0    0    0  0.00000000000E+00  0.00000000000E+00  0.45593999997E+02  0.45594000000E+02  0.51100000000E-03 0.  1.
         11   -1    0    0    0    0 -0.00000000000E+00 -0.00000000000E+00 -0.45593999997E+02  0.45594000000E+02  0.51100000000E-03 0. -1.
    9900012    2    1    2    0    0  0.17712581483E+02  0.18347234140E+02 -0.19140644257E+02  0.59301940256E+02  0.49999993122E+02 0.  0.
        -12    1    1    2    0    0 -0.17712581483E+02 -0.18347234140E+02  0.19140644257E+02  0.31886059744E+02  0.00000000000E+00 0.  1.
         11    1    3    3    0    0  0.26956547743E+01  0.13898933643E+02 -0.23492330086E+02  0.27428752874E+02  0.51100000000E-03 0. -1.
        -11    1    3    3    0    0  0.19967154917E+01  0.96288539349E+01 -0.83952560215E+01  0.12929888816E+02  0.51100000000E-03 0.  1.
        -12    1    3    3    0    0  0.13020211217E+02 -0.51805534374E+01  0.12746941851E+02  0.18943298567E+02  0.00000000000E+00 0.  1.
</event>
<event>
 7    1  0.3755162E-013  0.5930192E+02  0.7816164E-02  0.1266605E+00
        -11   -1    0    0    0    0  0.00000000000E+00  0.00000000000E+00  0.45593999997E+02  0.45594000000E+02  0.51100000000E-03 0.  1.
         11   -1    0    0    0    0 -0.00000000000E+00 -0.00000000000E+00 -0.45593999997E+02  0.45594000000E+02  0.51100000000E-03 0. -1.
    9900012    2    1    2    0    0  0.26370935913E+02  0.14695153769E+02 -0.10263938825E+02  0.59301917684E+02  0.49999951956E+02 0.  0.
        -12    1    1    2    0    0 -0.26370935913E+02 -0.14695153769E+02  0.10263938825E+02  0.31886082316E+02  0.00000000000E+00 0.  1.
         11    1    3    3    0    0 -0.65204902573E+00 -0.68472401487E+01 -0.54656526389E+01  0.87853983755E+01  0.51100000000E-03 0. -1.
        -11    1    3    3    0    0 -0.61141200067E+01 -0.44811141883E+01  0.19941386801E+01  0.78383312740E+01  0.51100000000E-03 0.  1.
         12    1    3    3    0    0  0.33137104946E+02  0.26023508106E+02 -0.67924248658E+01  0.42678188035E+02  0.00000000000E+00 0. -1.
</event>
<event>
 7    1  0.3755162E-013  0.5930203E+02  0.7816164E-02  0.1266604E+00
        -11   -1    0    0    0    0  0.00000000000E+00  0.00000000000E+00  0.45593999997E+02  0.45594000000E+02  0.51100000000E-03 0.  1.
         11   -1    0    0    0    0 -0.00000000000E+00 -0.00000000000E+00 -0.45593999997E+02  0.45594000000E+02  0.51100000000E-03 0. -1.
    9900012    2    1    2    0    0  0.23478065305E+02  0.92554440464E+01 -0.19489293419E+02  0.59302025765E+02  0.50000149068E+02 0.  0.
        -12    1    1    2    0    0 -0.23478065305E+02 -0.92554440464E+01  0.19489293419E+02  0.31885974235E+02  0.00000000000E+00 0.  1.
         11    1    3    3    0    0  0.75975352886E+01 -0.10038184285E+02  0.10362657061E+01  0.12631766823E+02  0.51100000000E-03 0.  1.
        -11    1    3    3    0    0  0.65517329663E+00 -0.93835098784E+01 -0.54695701263E+01  0.10880979152E+02  0.51100000000E-03 0. -1.
         12    1    3    3    0    0  0.15225356720E+02  0.28677138209E+02 -0.15055988999E+02  0.35789279789E+02  0.00000000000E+00 0. -1.
</event>
<event>
 7    1  0.3755162E-013  0.5930196E+02  0.7816164E-02  0.1266605E+00
        -11   -1    0    0    0    0  0.00000000000E+00  0.00000000000E+00  0.45593999997E+02  0.45594000000E+02  0.51100000000E-03 0. -1.
         11   -1    0    0    0    0 -0.00000000000E+00 -0.00000000000E+00 -0.45593999997E+02  0.45594000000E+02  0.51100000000E-03 0.  1.
    9900012    2    1    2    0    0  0.15723190906E+02 -0.21104402684E+02  0.18002910142E+02  0.59301963581E+02  0.50000035660E+02 0.  0.
        -12    1    1    2    0    0 -0.15723190906E+02  0.21104402684E+02 -0.18002910142E+02  0.31886036419E+02  0.00000000000E+00 0.  1.
         11    1    3    3    0    0  0.13859096470E+02 -0.24626993035E+01  0.85914120907E+01  0.16490961306E+02  0.51100000000E-03 0. -1.
        -11    1    3    3    0    0  0.13648888458E+02 -0.36575713063E+01 -0.86355366867E+01  0.16560268057E+02  0.51100000000E-03 0.  1.
         12    1    3    3    0    0 -0.11784794021E+02 -0.14984132075E+02  0.18047034738E+02  0.26250734218E+02  0.00000000000E+00 0. -1.
</event>
<event>
 7    1  0.3755162E-013  0.5930194E+02  0.7816164E-02  0.1266605E+00
        -11   -1    0    0    0    0  0.00000000000E+00  0.00000000000E+00  0.45593999997E+02  0.45594000000E+02  0.51100000000E-03 0.  1.
         11   -1    0    0    0    0 -0.00000000000E+00 -0.00000000000E+00 -0.45593999997E+02  0.45594000000E+02  0.51100000000E-03 0. -1.
    9900012    2    1    2    0    0 -0.25028379716E+02 -0.10640183214E+02 -0.16645940607E+02  0.59301943036E+02  0.49999998191E+02 0.  0.
        -12    1    1    2    0    0  0.25028379716E+02  0.10640183214E+02  0.16645940607E+02  0.31886056964E+02  0.00000000000E+00 0.  1.
         11    1    3    3    0    0 -0.24735327027E+01  0.12618804063E+02 -0.13265696116E+02  0.18475152874E+02  0.51100000000E-03 0.  1.
        -11    1    3    3    0    0 -0.59586704957E+01  0.28251794322E+01  0.55797109573E+01  0.86383197167E+01  0.51100000000E-03 0. -1.
         12    1    3    3    0    0 -0.16596176518E+02 -0.26084166710E+02 -0.89599554485E+01  0.32188470445E+02  0.00000000000E+00 0. -1.
</event>
<event>
 7    1  0.3755162E-013  0.5930204E+02  0.7816164E-02  0.1266604E+00
        -11   -1    0    0    0    0  0.00000000000E+00  0.00000000000E+00  0.45593999997E+02  0.45594000000E+02  0.51100000000E-03 0. -1.
         11   -1    0    0    0    0 -0.00000000000E+00 -0.00000000000E+00 -0.45593999997E+02  0.45594000000E+02  0.51100000000E-03 0.  1.
    9900012    2    1    2    0    0 -0.15591400951E+02  0.27704698874E+02  0.24642093744E+01  0.59302039906E+02  0.50000174858E+02 0.  0.
        -12    1    1    2    0    0  0.15591400951E+02 -0.27704698874E+02 -0.24642093744E+01  0.31885960094E+02  0.00000000000E+00 0.  1.
         11    1    3    3    0    0  0.67724178320E+01 -0.65023126156E+01  0.57831263176E+01  0.11026797491E+02  0.51100000000E-03 0. -1.
        -11    1    3    3    0    0 -0.33441771510E+00  0.92372475580E+01 -0.10729748794E+02  0.14162135683E+02  0.51100000000E-03 0.  1.
         12    1    3    3    0    0 -0.22029401068E+02  0.24969763931E+02  0.74108318509E+01  0.34113106732E+02  0.00000000000E+00 0. -1.
</event>
<event>
 7    1  0.3755162E-013  0.5930196E+02  0.7816164E-02  0.1266605E+00
        -11   -1    0    0    0    0  0.00000000000E+00  0.00000000000E+00  0.45593999997E+02  0.45594000000E+02  0.51100000000E-03 0.  1.
         11   -1    0    0    0    0 -0.00000000000E+00 -0.00000000000E+00 -0.45593999997E+02  0.45594000000E+02  0.51100000000E-03 0. -1.
    9900012    2    1    2    0    0  0.99453427812E+01  0.26406132376E+02 -0.14850124249E+02  0.59301955086E+02  0.50000020167E+02 0.  0.
        -12    1    1    2    0    0 -0.99453427812E+01 -0.26406132376E+02  0.14850124249E+02  0.31886044914E+02  0.00000000000E+00 0.  1.
         11    1    3    3    0    0 -0.31445270786E+01 -0.48726840806E+01 -0.20382084678E+01  0.61469825701E+01  0.51100000000E-03 0. -1.
        -11    1    3    3    0    0 -0.90048172085E+01 -0.40202022230E+01 -0.12808658601E+01  0.99443137764E+01  0.51100000000E-03 0.  1.
         12    1    3    3    0    0  0.22094687068E+02  0.35299018680E+02 -0.11531049921E+02  0.43210658739E+02  0.00000000000E+00 0. -1.
</event>
<event>
 7    1  0.3755162E-013  0.5930195E+02  0.7816164E-02  0.1266605E+00
        -11   -1    0    0    0    0  0.00000000000E+00  0.00000000000E+00  0.45593999997E+02  0.45594000000E+02  0.51100000000E-03 0.  1.
         11   -1    0    0    0    0 -0.00000000000E+00 -0.00000000000E+00 -0.45593999997E+02  0.45594000000E+02  0.51100000000E-03 0. -1.
    9900012    2    1    2    0    0  0.10745531239E+02 -0.24534761259E+02 -0.17300268693E+02  0.59301948998E+02  0.50000009065E+02 0.  0.
        -12    1    1    2    0    0 -0.10745531239E+02  0.24534761259E+02  0.17300268693E+02  0.31886051002E+02  0.00000000000E+00 0.  1.
         11    1    3    3    0    0 -0.45304555323E+01  0.99780730912E+01 -0.58027672210E+01  0.12399962807E+02  0.51100000000E-03 0. -1.
        -11    1    3    3    0    0 -0.23534390992E+01  0.27244616019E+01 -0.33226441970E+01  0.48991153625E+01  0.51100000000E-03 0.  1.
         12    1    3    3    0    0  0.17629425871E+02 -0.37237295952E+02 -0.81748572749E+01  0.42002870828E+02  0.00000000000E+00 0. -1.
</event>
<event>
 7    1  0.3755162E-013  0.5930193E+02  0.7816164E-02  0.1266605E+00
        -11   -1    0    0    0    0  0.00000000000E+00  0.00000000000E+00  0.45593999997E+02  0.45594000000E+02  0.51100000000E-03 0.  1.
         11   -1    0    0    0    0 -0.00000000000E+00 -0.00000000000E+00 -0.45593999997E+02  0.45594000000E+02  0.51100000000E-03 0. -1.
    9900012    2    1    2    0    0  0.10153778611E+02  0.29937476754E+02  0.41677354378E+01  0.59301925403E+02  0.49999966034E+02 0.  0.
        -12    1    1    2    0    0 -0.10153778611E+02 -0.29937476754E+02 -0.41677354378E+01  0.31886074597E+02  0.00000000000E+00 0.  1.
         11    1    3    3    0    0 -0.50262443176E+01  0.34265211954E+01  0.39993544134E+01  0.72800422682E+01  0.51100000000E-03 0. -1.
        -11    1    3    3    0    0 -0.64401805095E+01  0.46677478174E+00  0.14030243133E+02  0.15444789618E+02  0.51100000000E-03 0.  1.
        -12    1    3    3    0    0  0.21620203438E+02  0.26044180777E+02 -0.13861862109E+02  0.36577093518E+02  0.00000000000E+00 0.  1.
</event>
<event>
 7    1  0.3755162E-013  0.5930191E+02  0.7816164E-02  0.1266605E+00
        -11   -1    0    0    0    0  0.00000000000E+00  0.00000000000E+00  0.45593999997E+02  0.45594000000E+02  0.51100000000E-03 0.  1.
         11   -1    0    0    0    0 -0.00000000000E+00 -0.00000000000E+00 -0.45593999997E+02  0.45594000000E+02  0.51100000000E-03 0. -1.
    9900012    2    1    2    0    0  0.12584378381E+02  0.22750020865E+01 -0.29209256669E+02  0.59301907594E+02  0.49999933554E+02 0.  0.
        -12    1    1    2    0    0 -0.12584378381E+02 -0.22750020865E+01  0.29209256669E+02  0.31886092406E+02  0.00000000000E+00 0.  1.
         11    1    3    3    0    0 -0.45534039792E+01  0.25118201304E+01  0.11401344767E+01  0.53237801469E+01  0.51100000000E-03 0. -1.
        -11    1    3    3    0    0  0.23765665758E+02 -0.59820559368E+01 -0.23295203089E+01  0.24617443557E+02  0.51100000000E-03 0.  1.
         12    1    3    3    0    0 -0.66278833975E+01  0.57452378928E+01 -0.28019870837E+02  0.29360683890E+02  0.00000000000E+00 0. -1.
</event>
<event>
 7    1  0.3755162E-013  0.5930189E+02  0.7816164E-02  0.1266605E+00
        -11   -1    0    0    0    0  0.00000000000E+00  0.00000000000E+00  0.45593999997E+02  0.45594000000E+02  0.51100000000E-03 0. -1.
         11   -1    0    0    0    0 -0.00000000000E+00 -0.00000000000E+00 -0.45593999997E+02  0.45594000000E+02  0.51100000000E-03 0.  1.
    9900012    2    1    2    0    0 -0.20011292232E+02  0.14338338877E+01 -0.24783383069E+02  0.59301893735E+02  0.49999908278E+02 0.  0.
        -12    1    1    2    0    0  0.20011292232E+02 -0.14338338877E+01  0.24783383069E+02  0.31886106265E+02  0.00000000000E+00 0.  1.
         11    1    3    3    0    0 -0.28786655854E+02  0.47305873816E+01 -0.13315022265E+02  0.32067738155E+02  0.51100000000E-03 0.  1.
        -11    1    3    3    0    0 -0.65599317935E+01 -0.42945257703E+01 -0.85336349190E+01  0.11588726501E+02  0.51100000000E-03 0. -1.
         12    1    3    3    0    0  0.15335295416E+02  0.99777227643E+00 -0.29347258858E+01  0.15645429078E+02  0.00000000000E+00 0. -1.
</event>
<event>
 7    1  0.3755162E-013  0.5930193E+02  0.7816164E-02  0.1266605E+00
        -11   -1    0    0    0    0  0.00000000000E+00  0.00000000000E+00  0.45593999997E+02  0.45594000000E+02  0.51100000000E-03 0.  1.
         11   -1    0    0    0    0 -0.00000000000E+00 -0.00000000000E+00 -0.45593999997E+02  0.45594000000E+02  0.51100000000E-03 0. -1.
    9900012    2    1    2    0    0  0.25366170524E+02 -0.16838693124E+02 -0.94729796110E+01  0.59301928811E+02  0.49999972248E+02 0.  0.
        -12    1    1    2    0    0 -0.25366170524E+02  0.16838693124E+02  0.94729796110E+01  0.31886071189E+02  0.00000000000E+00 0.  1.
         11    1    3    3    0    0  0.20177719260E+02 -0.14919699124E+02 -0.41059832982E+01  0.25428269221E+02  0.51100000000E-03 0. -1.
        -11    1    3    3    0    0  0.87158515023E+01 -0.16170622926E+02 -0.39919701179E+00  0.18374288333E+02  0.51100000000E-03 0.  1.
         12    1    3    3    0    0 -0.35274002384E+01  0.14251628926E+02 -0.49677993010E+01  0.15499371257E+02  0.00000000000E+00 0. -1.
</event>
<event>
 7    1  0.3755162E-013  0.5930195E+02  0.7816164E-02  0.1266605E+00
        -11   -1    0    0    0    0  0.00000000000E+00  0.00000000000E+00  0.45593999997E+02  0.45594000000E+02  0.51100000000E-03 0.  1.
         11   -1    0    0    0    0 -0.00000000000E+00 -0.00000000000E+00 -0.45593999997E+02  0.45594000000E+02  0.51100000000E-03 0. -1.
    9900012    2    1    2    0    0 -0.31473077804E+02 -0.34118802638E+01 -0.38111036046E+01  0.59301951890E+02  0.50000014339E+02 0.  0.
        -12    1    1    2    0    0  0.31473077804E+02  0.34118802638E+01  0.38111036046E+01  0.31886048110E+02  0.00000000000E+00 0.  1.
         11    1    3    3    0    0  0.40215783313E+01  0.53979881197E+00  0.36592556933E+01  0.54639388285E+01  0.51100000000E-03 0. -1.
        -11    1    3    3    0    0  0.30912348664E+01 -0.87936834562E+01  0.77050083766E+01  0.12093459227E+02  0.51100000000E-03 0.  1.
         12    1    3    3    0    0 -0.38585891002E+02  0.48420043805E+01 -0.15175367675E+02  0.41744553835E+02  0.00000000000E+00 0. -1.
</event>
<event>
 7    1  0.3755162E-013  0.5930194E+02  0.7816164E-02  0.1266605E+00
        -11   -1    0    0    0    0  0.00000000000E+00  0.00000000000E+00  0.45593999997E+02  0.45594000000E+02  0.51100000000E-03 0.  1.
         11   -1    0    0    0    0 -0.00000000000E+00 -0.00000000000E+00 -0.45593999997E+02  0.45594000000E+02  0.51100000000E-03 0. -1.
    9900012    2    1    2    0    0 -0.30310876239E+02 -0.38324462012E+01 -0.91259995039E+01  0.59301941460E+02  0.49999995317E+02 0.  0.
        -12    1    1    2    0    0  0.30310876239E+02  0.38324462012E+01  0.91259995039E+01  0.31886058540E+02  0.00000000000E+00 0.  1.
         11    1    3    3    0    0  0.34145448738E+01 -0.14453957319E+02  0.23056299824E+01  0.15029701553E+02  0.51100000000E-03 0. -1.
        -11    1    3    3    0    0 -0.46179246213E+01  0.79857283567E+00 -0.12688436927E+02  0.13526247754E+02  0.51100000000E-03 0.  1.
        -12    1    3    3    0    0 -0.29107496492E+02  0.98229382825E+01  0.12568074411E+01  0.30745992153E+02  0.00000000000E+00 0.  1.
</event>
<event>
 7    1  0.3755162E-013  0.5930194E+02  0.7816164E-02  0.1266605E+00
        -11   -1    0    0    0    0  0.00000000000E+00  0.00000000000E+00  0.45593999997E+02  0.45594000000E+02  0.51100000000E-03 0. -1.
         11   -1    0    0    0    0 -0.00000000000E+00 -0.00000000000E+00 -0.45593999997E+02  0.45594000000E+02  0.51100000000E-03 0.  1.
    9900012    2    1    2    0    0  0.24725811902E+02 -0.19104018147E+02  0.63554213692E+01  0.59301942477E+02  0.49999997173E+02 0.  0.
        -12    1    1    2    0    0 -0.24725811902E+02  0.19104018147E+02 -0.63554213692E+01  0.31886057523E+02  0.00000000000E+00 0.  1.
         11    1    3    3    0    0  0.11392596605E+02  0.23927227472E+01 -0.49379904299E+00  0.11651618656E+02  0.51100000000E-03 0. -1.
        -11    1    3    3    0    0  0.21663764670E+02 -0.69150854695E+01  0.16669818934E+02  0.28196098494E+02  0.51100000000E-03 0.  1.
        -12    1    3    3    0    0 -0.83305493730E+01 -0.14581655424E+02 -0.98205985220E+01  0.19454225328E+02  0.00000000000E+00 0.  1.
</event>
<event>
 7    1  0.3755162E-013  0.5930194E+02  0.7816164E-02  0.1266605E+00
        -11   -1    0    0    0    0  0.00000000000E+00  0.00000000000E+00  0.45593999997E+02  0.45594000000E+02  0.51100000000E-03 0.  1.
         11   -1    0    0    0    0 -0.00000000000E+00 -0.00000000000E+00 -0.45593999997E+02  0.45594000000E+02  0.51100000000E-03 0. -1.
    9900012    2    1    2    0    0 -0.17448921439E+02 -0.48086061251E+01 -0.26251343576E+02  0.59301943615E+02  0.49999999247E+02 0.  0.
        -12    1    1    2    0    0  0.17448921439E+02  0.48086061251E+01  0.26251343576E+02  0.31886056385E+02  0.00000000000E+00 0.  1.
         11    1    3    3    0    0 -0.27429020105E+02 -0.96459564426E+01 -0.22495750503E+02  0.36762132835E+02  0.51100000000E-03 0. -1.
        -11    1    3    3    0    0 -0.52405165703E+01  0.43987636386E+01 -0.24081897910E+01  0.72533794746E+01  0.51100000000E-03 0.  1.
        -12    1    3    3    0    0  0.15220615236E+02  0.43858667893E+00 -0.13474032818E+01  0.15286431305E+02  0.00000000000E+00 0.  1.
</event>
<event>
 7    1  0.3755162E-013  0.5930195E+02  0.7816164E-02  0.1266605E+00
        -11   -1    0    0    0    0  0.00000000000E+00  0.00000000000E+00  0.45593999997E+02  0.45594000000E+02  0.51100000000E-03 0.  1.
         11   -1    0    0    0    0 -0.00000000000E+00 -0.00000000000E+00 -0.45593999997E+02  0.45594000000E+02  0.51100000000E-03 0. -1.
    9900012    2    1    2    0    0  0.87893390768E+01 -0.24233671454E+01 -0.30554785304E+02  0.59301951410E+02  0.50000013464E+02 0.  0.
        -12    1    1    2    0    0 -0.87893390768E+01  0.24233671454E+01  0.30554785304E+02  0.31886048590E+02  0.00000000000E+00 0.  1.
         11    1    3    3    0    0  0.25111888774E+02 -0.76375134446E+01 -0.90661453137E+01  0.27769291682E+02  0.51100000000E-03 0. -1.
        -11    1    3    3    0    0 -0.19013283765E+01  0.21952186359E+01 -0.15264175449E+02  0.15537988507E+02  0.51100000000E-03 0.  1.
        -12    1    3    3    0    0 -0.14421221321E+02  0.30189276634E+01 -0.62244645409E+01  0.15994671220E+02  0.00000000000E+00 0.  1.
</event>
<event>
 7    1  0.3755162E-013  0.5930194E+02  0.7816164E-02  0.1266605E+00
        -11   -1    0    0    0    0  0.00000000000E+00  0.00000000000E+00  0.45593999997E+02  0.45594000000E+02  0.51100000000E-03 0.  1.
         11   -1    0    0    0    0 -0.00000000000E+00 -0.00000000000E+00 -0.45593999997E+02  0.45594000000E+02  0.51100000000E-03 0. -1.
    9900012    2    1    2    0    0 -0.71896892088E+01  0.24782478878E+02  0.18731199485E+02  0.59301941536E+02  0.49999995455E+02 0.  0.
        -12    1    1    2    0    0  0.71896892088E+01 -0.24782478878E+02 -0.18731199485E+02  0.31886058464E+02  0.00000000000E+00 0.  1.
         11    1    3    3    0    0 -0.25225378467E+01  0.23025730197E+02 -0.78166324689E+01  0.24446823755E+02  0.51100000000E-03 0. -1.
        -11    1    3    3    0    0  0.49889268339E+00  0.11354128386E+02  0.16469505514E+02  0.20010240815E+02  0.51100000000E-03 0.  1.
        -12    1    3    3    0    0 -0.51660440455E+01 -0.95973797060E+01  0.10078326440E+02  0.14844876966E+02  0.00000000000E+00 0.  1.
</event>
<event>
 7    1  0.3755162E-013  0.5930194E+02  0.7816164E-02  0.1266605E+00
        -11   -1    0    0    0    0  0.00000000000E+00  0.00000000000E+00  0.45593999997E+02  0.45594000000E+02  0.51100000000E-03 0.  1.
         11   -1    0    0    0    0 -0.00000000000E+00 -0.00000000000E+00 -0.45593999997E+02  0.45594000000E+02  0.51100000000E-03 0. -1.
    9900012    2    1    2    0    0 -0.65388455715E+01  0.57145915912E+00 -0.31203167107E+02  0.59301941848E+02  0.49999996024E+02 0.  0.
        -12    1    1    2    0    0  0.65388455715E+01 -0.57145915912E+00  0.31203167107E+02  0.31886058152E+02  0.00000000000E+00 0.  1.
         11    1    3    3    0    0 -0.82043920291E+01 -0.13045857433E+02 -0.19094282026E+02  0.24537686343E+02  0.51100000000E-03 0. -1.
        -11    1    3    3    0    0 -0.10511242005E+02  0.44700688279E+01  0.44574204854E+01  0.12261171293E+02  0.51100000000E-03 0.  1.
        -12    1    3    3    0    0  0.12176788463E+02  0.91472477642E+01 -0.16566305567E+02  0.22503084212E+02  0.00000000000E+00 0.  1.
</event>
<event>
 7    1  0.3755162E-013  0.5930197E+02  0.7816164E-02  0.1266605E+00
        -11   -1    0    0    0    0  0.00000000000E+00  0.00000000000E+00  0.45593999997E+02  0.45594000000E+02  0.51100000000E-03 0.  1.
         11   -1    0    0    0    0 -0.00000000000E+00 -0.00000000000E+00 -0.45593999997E+02  0.45594000000E+02  0.51100000000E-03 0. -1.
    9900012    2    1    2    0    0  0.24213132979E+02 -0.39997656437E+01 -0.20357919085E+02  0.59301971659E+02  0.50000050393E+02 0.  0.
        -12    1    1    2    0    0 -0.24213132979E+02  0.39997656437E+01  0.20357919085E+02  0.31886028341E+02  0.00000000000E+00 0.  1.
         11    1    3    3    0    0  0.95665569204E+01  0.16353514455E+02 -0.15679497863E+02  0.24592744862E+02  0.51100000000E-03 0. -1.
        -11    1    3    3    0    0 -0.52809224200E+01 -0.48804361797E+01  0.37494131747E+01  0.81095559882E+01  0.51100000000E-03 0.  1.
        -12    1    3    3    0    0  0.19927498479E+02 -0.15472843919E+02 -0.84278343959E+01  0.26599670809E+02  0.00000000000E+00 0.  1.
</event>
<event>
 7    1  0.3755162E-013  0.5930192E+02  0.7816164E-02  0.1266605E+00
        -11   -1    0    0    0    0  0.00000000000E+00  0.00000000000E+00  0.45593999997E+02  0.45594000000E+02  0.51100000000E-03 0. -1.
         11   -1    0    0    0    0 -0.00000000000E+00 -0.00000000000E+00 -0.45593999997E+02  0.45594000000E+02  0.51100000000E-03 0.  1.
    9900012    2    1    2    0    0 -0.16295388024E+02  0.71427949096E+01  0.26460586176E+02  0.59301924501E+02  0.49999964387E+02 0.  0.
        -12    1    1    2    0    0  0.16295388024E+02 -0.71427949096E+01 -0.26460586176E+02  0.31886075499E+02  0.00000000000E+00 0.  1.
         11    1    3    3    0    0 -0.13467986521E+01  0.12629914702E+02 -0.40076985619E+01  0.13318793489E+02  0.51100000000E-03 0. -1.
        -11    1    3    3    0    0 -0.14282702981E+02 -0.78520766972E+01  0.91134708621E+00  0.16324253939E+02  0.51100000000E-03 0.  1.
         12    1    3    3    0    0 -0.66588639081E+00  0.23649569049E+01  0.29556937652E+02  0.29658877072E+02  0.00000000000E+00 0. -1.
</event>
<event>
 7    1  0.3755162E-013  0.5930194E+02  0.7816164E-02  0.1266605E+00
        -11   -1    0    0    0    0  0.00000000000E+00  0.00000000000E+00  0.45593999997E+02  0.45594000000E+02  0.51100000000E-03 0.  1.
         11   -1    0    0    0    0 -0.00000000000E+00 -0.00000000000E+00 -0.45593999997E+02  0.45594000000E+02  0.51100000000E-03 0. -1.
    9900012    2    1    2    0    0  0.22518641444E+02 -0.94262726759E+01 -0.20512842987E+02  0.59301944169E+02  0.50000000258E+02 0.  0.
        -12    1    1    2    0    0 -0.22518641444E+02  0.94262726759E+01  0.20512842987E+02  0.31886055831E+02  0.00000000000E+00 0.  1.
         11    1    3    3    0    0 -0.46036041406E+01  0.15624349995E+01 -0.15773959472E+02  0.16506125284E+02  0.51100000000E-03 0. -1.
        -11    1    3    3    0    0 -0.34946047804E+01  0.55754735859E+01 -0.45230670826E+01  0.79847544968E+01  0.51100000000E-03 0.  1.
         12    1    3    3    0    0  0.30616850365E+02 -0.16564181261E+02 -0.21581643232E+00  0.34811064388E+02  0.00000000000E+00 0. -1.
</event>
<event>
 7    1  0.3755162E-013  0.5930195E+02  0.7816164E-02  0.1266605E+00
        -11   -1    0    0    0    0  0.00000000000E+00  0.00000000000E+00  0.45593999997E+02  0.45594000000E+02  0.51100000000E-03 0.  1.
         11   -1    0    0    0    0 -0.00000000000E+00 -0.00000000000E+00 -0.45593999997E+02  0.45594000000E+02  0.51100000000E-03 0. -1.
    9900012    2    1    2    0    0  0.25632878852E+02 -0.18850551797E+02 -0.20814266260E+01  0.59301951043E+02  0.50000012795E+02 0.  0.
        -12    1    1    2    0    0 -0.25632878852E+02  0.18850551797E+02  0.20814266260E+01  0.31886048957E+02  0.00000000000E+00 0.  1.
         11    1    3    3    0    0  0.10730389809E+02 -0.39110504832E+00  0.37722688356E+01  0.11380871717E+02  0.51100000000E-03 0. -1.
        -11    1    3    3    0    0 -0.77179028852E+01 -0.55174424887E+01  0.12756281079E+02  0.15897512503E+02  0.51100000000E-03 0.  1.
         12    1    3    3    0    0  0.22620391928E+02 -0.12942004260E+02 -0.18609976540E+02  0.32023566823E+02  0.00000000000E+00 0. -1.
</event>
<event>
 7    1  0.3755162E-013  0.5930195E+02  0.7816164E-02  0.1266605E+00
        -11   -1    0    0    0    0  0.00000000000E+00  0.00000000000E+00  0.45593999997E+02  0.45594000000E+02  0.51100000000E-03 0. -1.
         11   -1    0    0    0    0 -0.00000000000E+00 -0.00000000000E+00 -0.45593999997E+02  0.45594000000E+02  0.51100000000E-03 0.  1.
    9900012    2    1    2    0    0 -0.73201249841E+01  0.80178447535E+01  0.29980826987E+02  0.59301952093E+02  0.50000014709E+02 0.  0.
        -12    1    1    2    0    0  0.73201249841E+01 -0.80178447535E+01 -0.29980826987E+02  0.31886047907E+02  0.00000000000E+00 0.  1.
         11    1    3    3    0    0 -0.13755699295E+02 -0.14373330026E+01  0.36463503444E+00  0.13835394762E+02  0.51100000000E-03 0. -1.
        -11    1    3    3    0    0 -0.72964771860E+01  0.12411064019E+02  0.20691043317E+01  0.14544905720E+02  0.51100000000E-03 0.  1.
         12    1    3    3    0    0  0.13732051497E+02 -0.29558862633E+01  0.27547087621E+02  0.30921651611E+02  0.00000000000E+00 0. -1.
</event>
<event>
 7    1  0.3755162E-013  0.5930195E+02  0.7816164E-02  0.1266605E+00
        -11   -1    0    0    0    0  0.00000000000E+00  0.00000000000E+00  0.45593999997E+02  0.45594000000E+02  0.51100000000E-03 0. -1.
         11   -1    0    0    0    0 -0.00000000000E+00 -0.00000000000E+00 -0.45593999997E+02  0.45594000000E+02  0.51100000000E-03 0.  1.
    9900012    2    1    2    0    0  0.25553087497E+02 -0.77819387823E+01  0.17412681693E+02  0.59301947633E+02  0.50000006575E+02 0.  0.
        -12    1    1    2    0    0 -0.25553087497E+02  0.77819387823E+01 -0.17412681693E+02  0.31886052367E+02  0.00000000000E+00 0.  1.
         11    1    3    3    0    0 -0.59914650534E-01  0.74063973751E+01  0.58437439422E+01  0.94343868569E+01  0.51100000000E-03 0. -1.
        -11    1    3    3    0    0  0.16965392065E+02 -0.11923722122E+00  0.23359515125E+02  0.28870498655E+02  0.51100000000E-03 0.  1.
        -12    1    3    3    0    0  0.86476100825E+01 -0.15069098936E+02 -0.11790577375E+02  0.20997062121E+02  0.00000000000E+00 0.  1.
</event>
<event>
 7    1  0.3755162E-013  0.5930199E+02  0.7816164E-02  0.1266605E+00
        -11   -1    0    0    0    0  0.00000000000E+00  0.00000000000E+00  0.45593999997E+02  0.45594000000E+02  0.51100000000E-03 0.  1.
         11   -1    0    0    0    0 -0.00000000000E+00 -0.00000000000E+00 -0.45593999997E+02  0.45594000000E+02  0.51100000000E-03 0. -1.
    9900012    2    1    2    0    0 -0.27534634555E+02  0.77958024967E+01 -0.14063686684E+02  0.59301985514E+02  0.50000075662E+02 0.  0.
        -12    1    1    2    0    0  0.27534634555E+02 -0.77958024967E+01  0.14063686684E+02  0.31886014486E+02  0.00000000000E+00 0.  1.
         11    1    3    3    0    0 -0.47469084669E+01  0.32388291449E+01 -0.18221589362E+02  0.19106267908E+02  0.51100000000E-03 0. -1.
        -11    1    3    3    0    0 -0.34406243068E+01 -0.43411077841E+01 -0.12163398222E+02  0.13365304672E+02  0.51100000000E-03 0.  1.
        -12    1    3    3    0    0 -0.19347101781E+02  0.88980811359E+01  0.16321300899E+02  0.26830412935E+02  0.00000000000E+00 0.  1.
</event>
<event>
 7    1  0.3755162E-013  0.5930194E+02  0.7816164E-02  0.1266605E+00
        -11   -1    0    0    0    0  0.00000000000E+00  0.00000000000E+00  0.45593999997E+02  0.45594000000E+02  0.51100000000E-03 0.  1.
         11   -1    0    0    0    0 -0.00000000000E+00 -0.00000000000E+00 -0.45593999997E+02  0.45594000000E+02  0.51100000000E-03 0. -1.
    9900012    2    1    2    0    0  0.26066340044E+02 -0.62030875762E+01 -0.17285498292E+02  0.59301939880E+02  0.49999992436E+02 0.  0.
        -12    1    1    2    0    0 -0.26066340044E+02  0.62030875762E+01  0.17285498292E+02  0.31886060120E+02  0.00000000000E+00 0.  1.
         11    1    3    3    0    0 -0.15927340423E+00  0.46645801320E+01  0.88399715475E+01  0.99964380180E+01  0.51100000000E-03 0. -1.
        -11    1    3    3    0    0 -0.69130988200E+01 -0.21580994198E+01 -0.24016245478E+01  0.76299494841E+01  0.51100000000E-03 0.  1.
         12    1    3    3    0    0  0.33138712269E+02 -0.87095682884E+01 -0.23723845291E+02  0.41675552378E+02  0.00000000000E+00 0. -1.
</event>
<event>
 7    1  0.3755162E-013  0.5930194E+02  0.7816164E-02  0.1266605E+00
        -11   -1    0    0    0    0  0.00000000000E+00  0.00000000000E+00  0.45593999997E+02  0.45594000000E+02  0.51100000000E-03 0. -1.
         11   -1    0    0    0    0 -0.00000000000E+00 -0.00000000000E+00 -0.45593999997E+02  0.45594000000E+02  0.51100000000E-03 0.  1.
    9900012    2    1    2    0    0  0.21599909184E+02  0.20752319027E+02 -0.10931878121E+02  0.59301940648E+02  0.49999993835E+02 0.  0.
        -12    1    1    2    0    0 -0.21599909184E+02 -0.20752319027E+02  0.10931878121E+02  0.31886059352E+02  0.00000000000E+00 0.  1.
         11    1    3    3    0    0  0.22645016140E+00  0.86875699895E+01  0.84766450956E+01  0.12139961464E+02  0.51100000000E-03 0. -1.
        -11    1    3    3    0    0  0.11449955994E+02  0.23847041846E+02 -0.69529760609E+01  0.27351906212E+02  0.51100000000E-03 0.  1.
         12    1    3    3    0    0  0.99235030293E+01 -0.11782292809E+02 -0.12455547156E+02  0.19810072972E+02  0.00000000000E+00 0. -1.
</event>
<event>
 7    1  0.3755162E-013  0.5930213E+02  0.7816164E-02  0.1266604E+00
        -11   -1    0    0    0    0  0.00000000000E+00  0.00000000000E+00  0.45593999997E+02  0.45594000000E+02  0.51100000000E-03 0. -1.
         11   -1    0    0    0    0 -0.00000000000E+00 -0.00000000000E+00 -0.45593999997E+02  0.45594000000E+02  0.51100000000E-03 0.  1.
    9900012    2    1    2    0    0  0.30296916051E+02  0.17272613453E+01  0.97888865554E+01  0.59302127674E+02  0.50000334926E+02 0.  0.
        -12    1    1    2    0    0 -0.30296916051E+02 -0.17272613453E+01 -0.97888865554E+01  0.31885872326E+02  0.00000000000E+00 0.  1.
         11    1    3    3    0    0  0.83526953624E+01  0.12823202022E+02 -0.37286233888E+01  0.15751338437E+02  0.51100000000E-03 0. -1.
        -11    1    3    3    0    0  0.13792647370E+02  0.54908034854E+00  0.22743486362E+02  0.26604600783E+02  0.51100000000E-03 0.  1.
        -12    1    3    3    0    0  0.81515733186E+01 -0.11645021026E+02 -0.92259764174E+01  0.16946188454E+02  0.00000000000E+00 0.  1.
</event>
<event>
 7    1  0.3755162E-013  0.5930195E+02  0.7816164E-02  0.1266605E+00
        -11   -1    0    0    0    0  0.00000000000E+00  0.00000000000E+00  0.45593999997E+02  0.45594000000E+02  0.51100000000E-03 0.  1.
         11   -1    0    0    0    0 -0.00000000000E+00 -0.00000000000E+00 -0.45593999997E+02  0.45594000000E+02  0.51100000000E-03 0. -1.
    9900012    2    1    2    0    0  0.36105404262E+01 -0.14447044904E+02 -0.28195160364E+02  0.59301950126E+02  0.50000011122E+02 0.  0.
        -12    1    1    2    0    0 -0.36105404262E+01  0.14447044904E+02  0.28195160364E+02  0.31886049874E+02  0.00000000000E+00 0.  1.
         11    1    3    3    0    0  0.62538991748E+01 -0.17488413088E+02  0.35083914373E+01  0.18901445923E+02  0.51100000000E-03 0. -1.
        -11    1    3    3    0    0 -0.62572062577E+01 -0.85328102839E+01 -0.64637118073E+01  0.12399235947E+02  0.51100000000E-03 0.  1.
         12    1    3    3    0    0  0.36138475091E+01  0.11574178468E+02 -0.25239839994E+02  0.28001268256E+02  0.00000000000E+00 0. -1.
</event>
<event>
 7    1  0.3755162E-013  0.5930193E+02  0.7816164E-02  0.1266605E+00
        -11   -1    0    0    0    0  0.00000000000E+00  0.00000000000E+00  0.45593999997E+02  0.45594000000E+02  0.51100000000E-03 0. -1.
         11   -1    0    0    0    0 -0.00000000000E+00 -0.00000000000E+00 -0.45593999997E+02  0.45594000000E+02  0.51100000000E-03 0.  1.
    9900012    2    1    2    0    0 -0.12375049178E+02  0.25746577967E+02  0.14166631432E+02  0.59301928350E+02  0.49999971407E+02 0.  0.
        -12    1    1    2    0    0  0.12375049178E+02 -0.25746577967E+02 -0.14166631432E+02  0.31886071650E+02  0.00000000000E+00 0.  1.
         11    1    3    3    0    0  0.46884647338E-01 -0.10584860608E+01  0.14793705743E+02  0.14831598727E+02  0.51100000000E-03 0. -1.
        -11    1    3    3    0    0 -0.18701410912E+01 -0.57642278283E+01  0.71393795840E+01  0.93645336917E+01  0.51100000000E-03 0.  1.
         12    1    3    3    0    0 -0.10551792734E+02  0.32569291856E+02 -0.77664538951E+01  0.35105795932E+02  0.00000000000E+00 0. -1.
</event>
<event>
 7    1  0.3755162E-013  0.5930194E+02  0.7816164E-02  0.1266605E+00
        -11   -1    0    0    0    0  0.00000000000E+00  0.00000000000E+00  0.45593999997E+02  0.45594000000E+02  0.51100000000E-03 0. -1.
         11   -1    0    0    0    0 -0.00000000000E+00 -0.00000000000E+00 -0.45593999997E+02  0.45594000000E+02  0.51100000000E-03 0.  1.
    9900012    2    1    2    0    0 -0.26102363983E+02 -0.18282993985E+02  0.10580876107E+01  0.59301939974E+02  0.49999992608E+02 0.  0.
        -12    1    1    2    0    0  0.26102363983E+02  0.18282993985E+02 -0.10580876107E+01  0.31886060026E+02  0.00000000000E+00 0.  1.
         11    1    3    3    0    0  0.42693853476E+00  0.25105632151E+01  0.11488668032E+02  0.11767527250E+02  0.51100000000E-03 0. -1.
        -11    1    3    3    0    0 -0.68241973187E+01 -0.39511276254E+01  0.11251665860E+02  0.13739762132E+02  0.51100000000E-03 0.  1.
        -12    1    3    3    0    0 -0.19705105199E+02 -0.16842429575E+02 -0.21682246281E+02  0.33794650593E+02  0.00000000000E+00 0.  1.
</event>
<event>
 7    1  0.3755162E-013  0.5930184E+02  0.7816164E-02  0.1266605E+00
        -11   -1    0    0    0    0  0.00000000000E+00  0.00000000000E+00  0.45593999997E+02  0.45594000000E+02  0.51100000000E-03 0.  1.
         11   -1    0    0    0    0 -0.00000000000E+00 -0.00000000000E+00 -0.45593999997E+02  0.45594000000E+02  0.51100000000E-03 0. -1.
    9900012    2    1    2    0    0 -0.16296247750E+01  0.12934229986E+02 -0.29099436236E+02  0.59301840440E+02  0.49999811081E+02 0.  0.
        -12    1    1    2    0    0  0.16296247750E+01 -0.12934229986E+02  0.29099436236E+02  0.31886159560E+02  0.00000000000E+00 0.  1.
         11    1    3    3    0    0  0.93328666616E+01 -0.44230942913E+01 -0.10848284702E+02  0.14978365881E+02  0.51100000000E-03 0. -1.
        -11    1    3    3    0    0  0.80010644286E+01 -0.62117595644E+01 -0.50327733982E+01  0.11310693932E+02  0.51100000000E-03 0.  1.
         12    1    3    3    0    0 -0.18963555865E+02  0.23569083842E+02 -0.13218378135E+02  0.33012780627E+02  0.00000000000E+00 0. -1.
</event>
<event>
 7    1  0.3755162E-013  0.5930199E+02  0.7816164E-02  0.1266605E+00
        -11   -1    0    0    0    0  0.00000000000E+00  0.00000000000E+00  0.45593999997E+02  0.45594000000E+02  0.51100000000E-03 0. -1.
         11   -1    0    0    0    0 -0.00000000000E+00 -0.00000000000E+00 -0.45593999997E+02  0.45594000000E+02  0.51100000000E-03 0.  1.
    9900012    2    1    2    0    0 -0.27226318488E+02 -0.16523915783E+02 -0.15510323898E+01  0.59301985625E+02  0.50000075864E+02 0.  0.
        -12    1    1    2    0    0  0.27226318488E+02  0.16523915783E+02  0.15510323898E+01  0.31886014375E+02  0.00000000000E+00 0.  1.
         11    1    3    3    0    0 -0.29489120073E+02 -0.16215816454E+02 -0.61771208337E+01  0.34215752630E+02  0.51100000000E-03 0. -1.
        -11    1    3    3    0    0 -0.14966850146E+01 -0.11478148461E+02  0.63056837646E+01  0.13181411386E+02  0.51100000000E-03 0.  1.
        -12    1    3    3    0    0  0.37594865994E+01  0.11170049132E+02 -0.16795953207E+01  0.11904821609E+02  0.00000000000E+00 0.  1.
</event>
<event>
 7    1  0.3755162E-013  0.5930209E+02  0.7816164E-02  0.1266604E+00
        -11   -1    0    0    0    0  0.00000000000E+00  0.00000000000E+00  0.45593999997E+02  0.45594000000E+02  0.51100000000E-03 0. -1.
         11   -1    0    0    0    0 -0.00000000000E+00 -0.00000000000E+00 -0.45593999997E+02  0.45594000000E+02  0.51100000000E-03 0.  1.
    9900012    2    1    2    0    0  0.93982427738E+01  0.22240859103E+02  0.20826152611E+02  0.59302087540E+02  0.50000261731E+02 0.  0.
        -12    1    1    2    0    0 -0.93982427738E+01 -0.22240859103E+02 -0.20826152611E+02  0.31885912460E+02  0.00000000000E+00 0.  1.
         11    1    3    3    0    0 -0.38124137103E+01  0.29964409234E+02  0.71301577585E+01  0.31036099448E+02  0.51100000000E-03 0. -1.
        -11    1    3    3    0    0 -0.49548017698E+01 -0.70516242719E+00  0.44977593443E+01  0.67288300623E+01  0.51100000000E-03 0.  1.
        -12    1    3    3    0    0  0.18165458254E+02 -0.70183877039E+01  0.91982355078E+01  0.21537158030E+02  0.00000000000E+00 0.  1.
</event>
<event>
 7    1  0.3755162E-013  0.5930195E+02  0.7816164E-02  0.1266605E+00
        -11   -1    0    0    0    0  0.00000000000E+00  0.00000000000E+00  0.45593999997E+02  0.45594000000E+02  0.51100000000E-03 0.  1.
         11   -1    0    0    0    0 -0.00000000000E+00 -0.00000000000E+00 -0.45593999997E+02  0.45594000000E+02  0.51100000000E-03 0. -1.
    9900012    2    1    2    0    0 -0.12402110483E+02 -0.19008152295E+02 -0.22396387368E+02  0.59301947168E+02  0.50000005727E+02 0.  0.
        -12    1    1    2    0    0  0.12402110483E+02  0.19008152295E+02  0.22396387368E+02  0.31886052832E+02  0.00000000000E+00 0.  1.
         11    1    3    3    0    0 -0.10110250436E+02 -0.29140071784E+01  0.92480428566E+00  0.10562379701E+02  0.51100000000E-03 0. -1.
        -11    1    3    3    0    0 -0.16923650101E+02 -0.72590507793E+01  0.16394394125E+01  0.18487604301E+02  0.51100000000E-03 0.  1.
         12    1    3    3    0    0  0.14631790055E+02 -0.88350943370E+01 -0.24960631066E+02  0.30251963165E+02  0.00000000000E+00 0. -1.
</event>
<event>
 7    1  0.3755162E-013  0.5930193E+02  0.7816164E-02  0.1266605E+00
        -11   -1    0    0    0    0  0.00000000000E+00  0.00000000000E+00  0.45593999997E+02  0.45594000000E+02  0.51100000000E-03 0.  1.
         11   -1    0    0    0    0 -0.00000000000E+00 -0.00000000000E+00 -0.45593999997E+02  0.45594000000E+02  0.51100000000E-03 0. -1.
    9900012    2    1    2    0    0 -0.15859831352E+02 -0.22065204584E+02 -0.16682742642E+02  0.59301930849E+02  0.49999975966E+02 0.  0.
        -12    1    1    2    0    0  0.15859831352E+02  0.22065204584E+02  0.16682742642E+02  0.31886069151E+02  0.00000000000E+00 0.  1.
         11    1    3    3    0    0 -0.22118997761E+02 -0.23538523040E+02 -0.17421509081E+02  0.36699061402E+02  0.51100000000E-03 0. -1.
        -11    1    3    3    0    0  0.61514668479E+01  0.23357937827E+00 -0.10026753825E+02  0.11765665992E+02  0.51100000000E-03 0.  1.
        -12    1    3    3    0    0  0.10769956147E+00  0.12397390783E+01  0.10765520264E+02  0.10837203455E+02  0.00000000000E+00 0.  1.
</event>
<event>
 7    1  0.3755162E-013  0.5930195E+02  0.7816164E-02  0.1266605E+00
        -11   -1    0    0    0    0  0.00000000000E+00  0.00000000000E+00  0.45593999997E+02  0.45594000000E+02  0.51100000000E-03 0.  1.
         11   -1    0    0    0    0 -0.00000000000E+00 -0.00000000000E+00 -0.45593999997E+02  0.45594000000E+02  0.51100000000E-03 0. -1.
    9900012    2    1    2    0    0 -0.31256803632E+01  0.28920954573E+02 -0.13058667893E+02  0.59301948217E+02  0.50000007641E+02 0.  0.
        -12    1    1    2    0    0  0.31256803632E+01 -0.28920954573E+02  0.13058667893E+02  0.31886051783E+02  0.00000000000E+00 0.  1.
         11    1    3    3    0    0 -0.96320960693E+01 -0.20861318176E+01 -0.62049027448E+01  0.11646031040E+02  0.51100000000E-03 0. -1.
        -11    1    3    3    0    0  0.50688075963E+00  0.11428892883E+02 -0.20199380476E+02  0.23214036541E+02  0.51100000000E-03 0.  1.
         12    1    3    3    0    0  0.59995349465E+01  0.19578193508E+02  0.13345615328E+02  0.24441880637E+02  0.00000000000E+00 0. -1.
</event>
<event>
 7    1  0.3755162E-013  0.5930196E+02  0.7816164E-02  0.1266605E+00
        -11   -1    0    0    0    0  0.00000000000E+00  0.00000000000E+00  0.45593999997E+02  0.45594000000E+02  0.51100000000E-03 0.  1.
         11   -1    0    0    0    0 -0.00000000000E+00 -0.00000000000E+00 -0.45593999997E+02  0.45594000000E+02  0.51100000000E-03 0. -1.
    9900012    2    1    2    0    0 -0.15121045545E+02 -0.24579181131E+02 -0.13562353507E+02  0.59301959229E+02  0.50000027723E+02 0.  0.
        -12    1    1    2    0    0  0.15121045545E+02  0.24579181131E+02  0.13562353507E+02  0.31886040771E+02  0.00000000000E+00 0.  1.
         11    1    3    3    0    0  0.40148883311E+01 -0.22416064210E+02 -0.47518910489E+01  0.23263270014E+02  0.51100000000E-03 0. -1.
        -11    1    3    3    0    0  0.67574557235E+00  0.36691328996E+01  0.83768433908E+01  0.91700967153E+01  0.51100000000E-03 0.  1.
         12    1    3    3    0    0 -0.19811679448E+02 -0.58322498210E+01 -0.17187305849E+02  0.26868592499E+02  0.00000000000E+00 0. -1.
</event>
<event>
 7    1  0.3755162E-013  0.5930193E+02  0.7816164E-02  0.1266605E+00
        -11   -1    0    0    0    0  0.00000000000E+00  0.00000000000E+00  0.45593999997E+02  0.45594000000E+02  0.51100000000E-03 0. -1.
         11   -1    0    0    0    0 -0.00000000000E+00 -0.00000000000E+00 -0.45593999997E+02  0.45594000000E+02  0.51100000000E-03 0.  1.
    9900012    2    1    2    0    0  0.74998284855E+01 -0.30723472080E+02 -0.40671863304E+01  0.59301934570E+02  0.49999982751E+02 0.  0.
        -12    1    1    2    0    0 -0.74998284855E+01  0.30723472080E+02  0.40671863304E+01  0.31886065430E+02  0.00000000000E+00 0.  1.
         11    1    3    3    0    0  0.53189636577E+01 -0.53410299311E+01 -0.60548828773E+01  0.96684839575E+01  0.51100000000E-03 0. -1.
        -11    1    3    3    0    0  0.22040534222E+02 -0.17226269420E+02  0.30398592633E+01  0.28138412384E+02  0.51100000000E-03 0.  1.
         12    1    3    3    0    0 -0.19859669394E+02 -0.81561727293E+01 -0.10521627165E+01  0.21495038228E+02  0.00000000000E+00 0. -1.
</event>
<event>
 7    1  0.3755162E-013  0.5930197E+02  0.7816164E-02  0.1266605E+00
        -11   -1    0    0    0    0  0.00000000000E+00  0.00000000000E+00  0.45593999997E+02  0.45594000000E+02  0.51100000000E-03 0. -1.
         11   -1    0    0    0    0 -0.00000000000E+00 -0.00000000000E+00 -0.45593999997E+02  0.45594000000E+02  0.51100000000E-03 0.  1.
    9900012    2    1    2    0    0 -0.15362620636E+02  0.25627372161E+02  0.11133143162E+02  0.59301965544E+02  0.50000039240E+02 0.  0.
        -12    1    1    2    0    0  0.15362620636E+02 -0.25627372161E+02 -0.11133143162E+02  0.31886034456E+02  0.00000000000E+00 0.  1.
         11    1    3    3    0    0  0.25168751361E+01  0.91455218174E+01 -0.30757543170E+01  0.99717347860E+01  0.51100000000E-03 0. -1.
        -11    1    3    3    0    0  0.67259871487E+01  0.19197578372E+02 -0.84166728732E+00  0.20359133639E+02  0.51100000000E-03 0.  1.
         12    1    3    3    0    0 -0.24605482921E+02 -0.27157280281E+01  0.15050564766E+02  0.28971097119E+02  0.00000000000E+00 0. -1.
</event>
<event>
 7    1  0.3755162E-013  0.5930190E+02  0.7816164E-02  0.1266605E+00
        -11   -1    0    0    0    0  0.00000000000E+00  0.00000000000E+00  0.45593999997E+02  0.45594000000E+02  0.51100000000E-03 0.  1.
         11   -1    0    0    0    0 -0.00000000000E+00 -0.00000000000E+00 -0.45593999997E+02  0.45594000000E+02  0.51100000000E-03 0. -1.
    9900012    2    1    2    0    0 -0.14779464958E+02 -0.26657597298E+02 -0.93628519294E+01  0.59301904685E+02  0.49999928249E+02 0.  0.
        -12    1    1    2    0    0  0.14779464958E+02  0.26657597298E+02  0.93628519294E+01  0.31886095315E+02  0.00000000000E+00 0.  1.
         11    1    3    3    0    0  0.44628049016E+01 -0.86313361030E+01 -0.15638571537E+02  0.18411450526E+02  0.51100000000E-03 0. -1.
        -11    1    3    3    0    0  0.14286053811E+01 -0.16924637007E+02  0.10213293441E+02  0.19819071984E+02  0.51100000000E-03 0.  1.
         12    1    3    3    0    0 -0.20670875240E+02 -0.11016241889E+01 -0.39375738339E+01  0.21071382175E+02  0.00000000000E+00 0. -1.
</event>
<event>
 7    1  0.3755162E-013  0.5930156E+02  0.7816164E-02  0.1266606E+00
        -11   -1    0    0    0    0  0.00000000000E+00  0.00000000000E+00  0.45593999997E+02  0.45594000000E+02  0.51100000000E-03 0.  1.
         11   -1    0    0    0    0 -0.00000000000E+00 -0.00000000000E+00 -0.45593999997E+02  0.45594000000E+02  0.51100000000E-03 0. -1.
    9900012    2    1    2    0    0 -0.11793059045E+02 -0.66578293521E+01 -0.28867670011E+02  0.59301556091E+02  0.49999292491E+02 0.  0.
        -12    1    1    2    0    0  0.11793059045E+02  0.66578293521E+01  0.28867670011E+02  0.31886443909E+02  0.00000000000E+00 0.  1.
         11    1    3    3    0    0  0.67817376448E+01  0.64417162810E+01 -0.91604976765E+01  0.13092073635E+02  0.51100000000E-03 0. -1.
        -11    1    3    3    0    0 -0.14422559421E+02 -0.10634523911E+02  0.68745073778E+01  0.19192763507E+02  0.51100000000E-03 0.  1.
         12    1    3    3    0    0 -0.41522372693E+01 -0.24650217217E+01 -0.26581679712E+02  0.27016718949E+02  0.00000000000E+00 0. -1.
</event>
<event>
 7    1  0.3755162E-013  0.5930186E+02  0.7816164E-02  0.1266605E+00
        -11   -1    0    0    0    0  0.00000000000E+00  0.00000000000E+00  0.45593999997E+02  0.45594000000E+02  0.51100000000E-03 0. -1.
         11   -1    0    0    0    0 -0.00000000000E+00 -0.00000000000E+00 -0.45593999997E+02  0.45594000000E+02  0.51100000000E-03 0.  1.
    9900012    2    1    2    0    0  0.40831609361E+01  0.13243821229E+02  0.28716803976E+02  0.59301861403E+02  0.49999849313E+02 0.  0.
        -12    1    1    2    0    0 -0.40831609361E+01 -0.13243821229E+02 -0.28716803976E+02  0.31886138597E+02  0.00000000000E+00 0.  1.
         11    1    3    3    0    0 -0.84510275673E+01 -0.51079098072E+01  0.81132990534E+01  0.12780306387E+02  0.51100000000E-03 0. -1.
        -11    1    3    3    0    0  0.19760086935E+02  0.75039432199E+01 -0.11432863856E+01  0.21167836534E+02  0.51100000000E-03 0.  1.
         12    1    3    3    0    0 -0.72258984316E+01  0.10847787817E+02  0.21746791309E+02  0.25353718482E+02  0.00000000000E+00 0. -1.
</event>
<event>
 7    1  0.3755162E-013  0.5930195E+02  0.7816164E-02  0.1266605E+00
        -11   -1    0    0    0    0  0.00000000000E+00  0.00000000000E+00  0.45593999997E+02  0.45594000000E+02  0.51100000000E-03 0. -1.
         11   -1    0    0    0    0 -0.00000000000E+00 -0.00000000000E+00 -0.45593999997E+02  0.45594000000E+02  0.51100000000E-03 0.  1.
    9900012    2    1    2    0    0  0.27354848700E+02 -0.92839717797E+01 -0.13499632542E+02  0.59301953551E+02  0.50000017367E+02 0.  0.
        -12    1    1    2    0    0 -0.27354848700E+02  0.92839717797E+01  0.13499632542E+02  0.31886046449E+02  0.00000000000E+00 0.  1.
         11    1    3    3    0    0  0.30914390464E+02  0.71674359362E+00 -0.19860764757E+02  0.36751370534E+02  0.51100000000E-03 0. -1.
        -11    1    3    3    0    0  0.90685762908E+00 -0.16747005174E+01 -0.63971717396E+01  0.66746399985E+01  0.51100000000E-03 0.  1.
         12    1    3    3    0    0 -0.44663993937E+01 -0.83260148559E+01  0.12758303954E+02  0.15875943018E+02  0.00000000000E+00 0. -1.
</event>
<event>
 7    1  0.3755162E-013  0.5930195E+02  0.7816164E-02  0.1266605E+00
        -11   -1    0    0    0    0  0.00000000000E+00  0.00000000000E+00  0.45593999997E+02  0.45594000000E+02  0.51100000000E-03 0. -1.
         11   -1    0    0    0    0 -0.00000000000E+00 -0.00000000000E+00 -0.45593999997E+02  0.45594000000E+02  0.51100000000E-03 0.  1.
    9900012    2    1    2    0    0  0.16992861050E+02  0.93491923196E+01  0.25309192145E+02  0.59301953981E+02  0.50000018152E+02 0.  0.
        -12    1    1    2    0    0 -0.16992861050E+02 -0.93491923196E+01 -0.25309192145E+02  0.31886046019E+02  0.00000000000E+00 0.  1.
         11    1    3    3    0    0 -0.66077173328E+01 -0.15269648915E+01  0.18499488568E+02  0.19703416650E+02  0.51100000000E-03 0. -1.
        -11    1    3    3    0    0 -0.37143420808E+01 -0.54822510131E+01  0.37576548909E+01  0.76138941288E+01  0.51100000000E-03 0.  1.
        -12    1    3    3    0    0  0.27314920464E+02  0.16358408224E+02  0.30520486860E+01  0.31984643202E+02  0.00000000000E+00 0.  1.
</event>
<event>
 7    1  0.3755162E-013  0.5930230E+02  0.7816164E-02  0.1266604E+00
        -11   -1    0    0    0    0  0.00000000000E+00  0.00000000000E+00  0.45593999997E+02  0.45594000000E+02  0.51100000000E-03 0. -1.
         11   -1    0    0    0    0 -0.00000000000E+00 -0.00000000000E+00 -0.45593999997E+02  0.45594000000E+02  0.51100000000E-03 0.  1.
    9900012    2    1    2    0    0 -0.42766527266E+01 -0.19152494233E+02  0.25131457154E+02  0.59302298932E+02  0.50000647256E+02 0.  0.
        -12    1    1    2    0    0  0.42766527266E+01  0.19152494233E+02 -0.25131457154E+02  0.31885701068E+02  0.00000000000E+00 0.  1.
         11    1    3    3    0    0 -0.52541298766E+01  0.81495271757E+01  0.51556208768E+00  0.97101224747E+01  0.51100000000E-03 0. -1.
        -11    1    3    3    0    0 -0.14555923659E+02 -0.11054841866E+02  0.32203443371E+01  0.18559500536E+02  0.51100000000E-03 0.  1.
         12    1    3    3    0    0  0.15533400809E+02 -0.16247179543E+02  0.21395550730E+02  0.31032675921E+02  0.00000000000E+00 0. -1.
</event>
<event>
 7    1  0.3755162E-013  0.5930194E+02  0.7816164E-02  0.1266605E+00
        -11   -1    0    0    0    0  0.00000000000E+00  0.00000000000E+00  0.45593999997E+02  0.45594000000E+02  0.51100000000E-03 0. -1.
         11   -1    0    0    0    0 -0.00000000000E+00 -0.00000000000E+00 -0.45593999997E+02  0.45594000000E+02  0.51100000000E-03 0.  1.
    9900012    2    1    2    0    0  0.20074960365E+02  0.17795452848E+02  0.17234807067E+02  0.59301941129E+02  0.49999994713E+02 0.  0.
        -12    1    1    2    0    0 -0.20074960365E+02 -0.17795452848E+02 -0.17234807067E+02  0.31886058871E+02  0.00000000000E+00 0.  1.
         11    1    3    3    0    0 -0.63600671871E+00  0.30516999331E+01  0.19388768532E+00  0.31232946905E+01  0.51100000000E-03 0. -1.
        -11    1    3    3    0    0  0.20501868393E+02  0.26479072829E+02 -0.22866906693E+01  0.33566305427E+02  0.51100000000E-03 0.  1.
         12    1    3    3    0    0  0.20909868987E+00 -0.11735319914E+02  0.19327610051E+02  0.22612341012E+02  0.00000000000E+00 0. -1.
</event>
<event>
 7    1  0.3755162E-013  0.5930188E+02  0.7816164E-02  0.1266605E+00
        -11   -1    0    0    0    0  0.00000000000E+00  0.00000000000E+00  0.45593999997E+02  0.45594000000E+02  0.51100000000E-03 0.  1.
         11   -1    0    0    0    0 -0.00000000000E+00 -0.00000000000E+00 -0.45593999997E+02  0.45594000000E+02  0.51100000000E-03 0. -1.
    9900012    2    1    2    0    0  0.29953586257E+02  0.10744238653E+02 -0.20171646455E+01  0.59301875320E+02  0.49999874693E+02 0.  0.
        -12    1    1    2    0    0 -0.29953586257E+02 -0.10744238653E+02  0.20171646455E+01  0.31886124680E+02  0.00000000000E+00 0.  1.
         11    1    3    3    0    0  0.16650728039E+02 -0.92760779936E+01 -0.58918877974E+01  0.19950105495E+02  0.51100000000E-03 0. -1.
        -11    1    3    3    0    0  0.70202288813E+01 -0.78722977002E+01  0.46936229846E+00  0.10558266233E+02  0.51100000000E-03 0.  1.
         12    1    3    3    0    0  0.62826293368E+01  0.27892614347E+02  0.34053608535E+01  0.28793503591E+02  0.00000000000E+00 0. -1.
</event>
<event>
 7    1  0.3755162E-013  0.5930193E+02  0.7816164E-02  0.1266605E+00
        -11   -1    0    0    0    0  0.00000000000E+00  0.00000000000E+00  0.45593999997E+02  0.45594000000E+02  0.51100000000E-03 0. -1.
         11   -1    0    0    0    0 -0.00000000000E+00 -0.00000000000E+00 -0.45593999997E+02  0.45594000000E+02  0.51100000000E-03 0.  1.
    9900012    2    1    2    0    0 -0.31558977095E+02 -0.29236843235E+01 -0.34934817041E+01  0.59301931259E+02  0.49999976713E+02 0.  0.
        -12    1    1    2    0    0  0.31558977095E+02  0.29236843235E+01  0.34934817041E+01  0.31886068741E+02  0.00000000000E+00 0.  1.
         11    1    3    3    0    0 -0.18200487638E+02 -0.15097361322E+02 -0.42720077255E+01  0.24029942144E+02  0.51100000000E-03 0. -1.
        -11    1    3    3    0    0 -0.11790647007E+01  0.65541312717E+01  0.14578418782E+02  0.16027386709E+02  0.51100000000E-03 0.  1.
         12    1    3    3    0    0 -0.12179424756E+02  0.56195457273E+01 -0.13799892760E+02  0.19244602406E+02  0.00000000000E+00 0. -1.
</event>
<event>
 7    1  0.3755162E-013  0.5930194E+02  0.7816164E-02  0.1266605E+00
        -11   -1    0    0    0    0  0.00000000000E+00  0.00000000000E+00  0.45593999997E+02  0.45594000000E+02  0.51100000000E-03 0.  1.
         11   -1    0    0    0    0 -0.00000000000E+00 -0.00000000000E+00 -0.45593999997E+02  0.45594000000E+02  0.51100000000E-03 0. -1.
    9900012    2    1    2    0    0 -0.25056591245E+02  0.16262855754E+02 -0.11153800540E+02  0.59301944920E+02  0.50000001628E+02 0.  0.
        -12    1    1    2    0    0  0.25056591245E+02 -0.16262855754E+02  0.11153800540E+02  0.31886055080E+02  0.00000000000E+00 0.  1.
         11    1    3    3    0    0 -0.88565149848E+01  0.21673435071E+02  0.25906400809E+00  0.23414584341E+02  0.51100000000E-03 0. -1.
        -11    1    3    3    0    0 -0.94559659057E+01  0.11462661847E+02 -0.88313874336E+00  0.14885826888E+02  0.51100000000E-03 0.  1.
        -12    1    3    3    0    0 -0.67441103543E+01 -0.16873241164E+02 -0.10529725804E+02  0.21001533691E+02  0.00000000000E+00 0.  1.
</event>
<event>
 7    1  0.3755162E-013  0.5930192E+02  0.7816164E-02  0.1266605E+00
        -11   -1    0    0    0    0  0.00000000000E+00  0.00000000000E+00  0.45593999997E+02  0.45594000000E+02  0.51100000000E-03 0.  1.
         11   -1    0    0    0    0 -0.00000000000E+00 -0.00000000000E+00 -0.45593999997E+02  0.45594000000E+02  0.51100000000E-03 0. -1.
    9900012    2    1    2    0    0 -0.29555218445E+02  0.88952486935E+01 -0.80053440082E+01  0.59301922798E+02  0.49999961281E+02 0.  0.
        -12    1    1    2    0    0  0.29555218445E+02 -0.88952486935E+01  0.80053440082E+01  0.31886077202E+02  0.00000000000E+00 0.  1.
         11    1    3    3    0    0 -0.28479625114E+01  0.20363230017E+02 -0.16584974614E+01  0.20628200146E+02  0.51100000000E-03 0. -1.
        -11    1    3    3    0    0  0.75114182726E+00 -0.29308542843E+01  0.65074607398E+01  0.71764313152E+01  0.51100000000E-03 0.  1.
        -12    1    3    3    0    0 -0.27458397761E+02 -0.85371270392E+01 -0.12854307287E+02  0.31497291336E+02  0.00000000000E+00 0.  1.
</event>
<event>
 7    1  0.3755162E-013  0.5930195E+02  0.7816164E-02  0.1266605E+00
        -11   -1    0    0    0    0  0.00000000000E+00  0.00000000000E+00  0.45593999997E+02  0.45594000000E+02  0.51100000000E-03 0.  1.
         11   -1    0    0    0    0 -0.00000000000E+00 -0.00000000000E+00 -0.45593999997E+02  0.45594000000E+02  0.51100000000E-03 0. -1.
    9900012    2    1    2    0    0 -0.19038160638E+02  0.23119199891E+02  0.10944005427E+02  0.59301949463E+02  0.50000009913E+02 0.  0.
        -12    1    1    2    0    0  0.19038160638E+02 -0.23119199891E+02 -0.10944005427E+02  0.31886050537E+02  0.00000000000E+00 0.  1.
         11    1    3    3    0    0 -0.46777477069E+00 -0.27647931400E+01 -0.68408059796E+01  0.73932077649E+01  0.51100000000E-03 0. -1.
        -11    1    3    3    0    0 -0.31697328999E+00 -0.59232091343E+00  0.19682625615E+02  0.19694087120E+02  0.51100000000E-03 0.  1.
         12    1    3    3    0    0 -0.18253412577E+02  0.26476313944E+02 -0.18978142088E+01  0.32214654578E+02  0.00000000000E+00 0. -1.
</event>
<event>
 7    1  0.3755162E-013  0.5930197E+02  0.7816164E-02  0.1266605E+00
        -11   -1    0    0    0    0  0.00000000000E+00  0.00000000000E+00  0.45593999997E+02  0.45594000000E+02  0.51100000000E-03 0.  1.
         11   -1    0    0    0    0 -0.00000000000E+00 -0.00000000000E+00 -0.45593999997E+02  0.45594000000E+02  0.51100000000E-03 0. -1.
    9900012    2    1    2    0    0 -0.16557261948E+02 -0.21847181136E+02 -0.16287315101E+02  0.59301970457E+02  0.50000048201E+02 0.  0.
        -12    1    1    2    0    0  0.16557261948E+02  0.21847181136E+02  0.16287315101E+02  0.31886029543E+02  0.00000000000E+00 0.  1.
         11    1    3    3    0    0 -0.21801634846E+02 -0.13764938826E+02 -0.16731286301E+02  0.30736310195E+02  0.51100000000E-03 0. -1.
        -11    1    3    3    0    0 -0.64693456117E+01 -0.13787048546E+02  0.23101893708E+01  0.15403639682E+02  0.51100000000E-03 0.  1.
         12    1    3    3    0    0  0.11713718510E+02  0.57048062358E+01 -0.18662181706E+01  0.13162020581E+02  0.00000000000E+00 0. -1.
</event>
<event>
 7    1  0.3755162E-013  0.5930195E+02  0.7816164E-02  0.1266605E+00
        -11   -1    0    0    0    0  0.00000000000E+00  0.00000000000E+00  0.45593999997E+02  0.45594000000E+02  0.51100000000E-03 0.  1.
         11   -1    0    0    0    0 -0.00000000000E+00 -0.00000000000E+00 -0.45593999997E+02  0.45594000000E+02  0.51100000000E-03 0. -1.
    9900012    2    1    2    0    0 -0.28261049098E+02 -0.46072246422E-01 -0.14765887203E+02  0.59301945938E+02  0.50000003484E+02 0.  0.
        -12    1    1    2    0    0  0.28261049098E+02  0.46072246422E-01  0.14765887203E+02  0.31886054062E+02  0.00000000000E+00 0.  1.
         11    1    3    3    0    0 -0.31169552326E+02  0.17941815510E+02 -0.14720762769E+02  0.38860656103E+02  0.51100000000E-03 0. -1.
        -11    1    3    3    0    0 -0.31160163906E+01 -0.38372763120E+01 -0.95583536580E+00  0.50346667367E+01  0.51100000000E-03 0.  1.
        -12    1    3    3    0    0  0.60245196193E+01 -0.14150611444E+02  0.91071093183E+00  0.15406623098E+02  0.00000000000E+00 0.  1.
</event>
<event>
 7    1  0.3755162E-013  0.5930197E+02  0.7816164E-02  0.1266605E+00
        -11   -1    0    0    0    0  0.00000000000E+00  0.00000000000E+00  0.45593999997E+02  0.45594000000E+02  0.51100000000E-03 0.  1.
         11   -1    0    0    0    0 -0.00000000000E+00 -0.00000000000E+00 -0.45593999997E+02  0.45594000000E+02  0.51100000000E-03 0. -1.
    9900012    2    1    2    0    0  0.87135055851E+01 -0.30670663671E+02 -0.32236737632E+00  0.59301973118E+02  0.50000053054E+02 0.  0.
        -12    1    1    2    0    0 -0.87135055851E+01  0.30670663671E+02  0.32236737632E+00  0.31886026882E+02  0.00000000000E+00 0.  1.
         11    1    3    3    0    0  0.88386069144E+01 -0.10658264978E+02 -0.13281208501E+02  0.19186195142E+02  0.51100000000E-03 0. -1.
        -11    1    3    3    0    0  0.10901229093E+02 -0.21402499987E+01 -0.52809153656E+01  0.12300631413E+02  0.51100000000E-03 0.  1.
        -12    1    3    3    0    0 -0.11026330422E+02 -0.17872148695E+02  0.18239756490E+02  0.27815146564E+02  0.00000000000E+00 0.  1.
</event>
<event>
 7    1  0.3755162E-013  0.5930196E+02  0.7816164E-02  0.1266605E+00
        -11   -1    0    0    0    0  0.00000000000E+00  0.00000000000E+00  0.45593999997E+02  0.45594000000E+02  0.51100000000E-03 0. -1.
         11   -1    0    0    0    0 -0.00000000000E+00 -0.00000000000E+00 -0.45593999997E+02  0.45594000000E+02  0.51100000000E-03 0.  1.
    9900012    2    1    2    0    0 -0.17753481475E+02  0.26228906210E+01  0.26356283335E+02  0.59301963386E+02  0.50000035305E+02 0.  0.
        -12    1    1    2    0    0  0.17753481475E+02 -0.26228906210E+01 -0.26356283335E+02  0.31886036614E+02  0.00000000000E+00 0.  1.
         11    1    3    3    0    0 -0.16461032647E+02 -0.87815385294E+01 -0.17951596129E+01  0.18743095076E+02  0.51100000000E-03 0. -1.
        -11    1    3    3    0    0 -0.79990684645E+01  0.12301418430E+02  0.36227771968E+01  0.15114049973E+02  0.51100000000E-03 0.  1.
         12    1    3    3    0    0  0.67066196357E+01 -0.89698927978E+00  0.24528665751E+02  0.25444818338E+02  0.00000000000E+00 0. -1.
</event>
<event>
 7    1  0.3755162E-013  0.5930195E+02  0.7816164E-02  0.1266605E+00
        -11   -1    0    0    0    0  0.00000000000E+00  0.00000000000E+00  0.45593999997E+02  0.45594000000E+02  0.51100000000E-03 0.  1.
         11   -1    0    0    0    0 -0.00000000000E+00 -0.00000000000E+00 -0.45593999997E+02  0.45594000000E+02  0.51100000000E-03 0. -1.
    9900012    2    1    2    0    0 -0.19393503340E+01  0.28979447224E+02 -0.13158679359E+02  0.59301948448E+02  0.50000008061E+02 0.  0.
        -12    1    1    2    0    0  0.19393503340E+01 -0.28979447224E+02  0.13158679359E+02  0.31886051552E+02  0.00000000000E+00 0.  1.
         11    1    3    3    0    0  0.71638933612E+01  0.18182172559E+02 -0.15492226383E+02  0.24938360925E+02  0.51100000000E-03 0. -1.
        -11    1    3    3    0    0 -0.56151665162E+01 -0.10818106827E+02 -0.94195818970E+00  0.12224926005E+02  0.51100000000E-03 0.  1.
         12    1    3    3    0    0 -0.34880771790E+01  0.21615381491E+02  0.32755052133E+01  0.22138661518E+02  0.00000000000E+00 0. -1.
</event>
<event>
 7    1  0.3755162E-013  0.5930194E+02  0.7816164E-02  0.1266605E+00
        -11   -1    0    0    0    0  0.00000000000E+00  0.00000000000E+00  0.45593999997E+02  0.45594000000E+02  0.51100000000E-03 0. -1.
         11   -1    0    0    0    0 -0.00000000000E+00 -0.00000000000E+00 -0.45593999997E+02  0.45594000000E+02  0.51100000000E-03 0.  1.
    9900012    2    1    2    0    0 -0.33822704969E+01  0.30060349681E+02 -0.10082484388E+02  0.59301939283E+02  0.49999991346E+02 0.  0.
        -12    1    1    2    0    0  0.33822704969E+01 -0.30060349681E+02  0.10082484388E+02  0.31886060717E+02  0.00000000000E+00 0.  1.
         11    1    3    3    0    0 -0.15862452693E+02  0.22708718268E+02 -0.13301129351E+02  0.30728217213E+02  0.51100000000E-03 0.  1.
        -11    1    3    3    0    0 -0.14323690282E+01 -0.76004576778E+01 -0.74149503872E+00  0.77697138364E+01  0.51100000000E-03 0. -1.
        -12    1    3    3    0    0  0.13912551224E+02  0.14952089090E+02  0.39601400022E+01  0.20804008233E+02  0.00000000000E+00 0.  1.
</event>
<event>
 7    1  0.3755162E-013  0.5930206E+02  0.7816164E-02  0.1266604E+00
        -11   -1    0    0    0    0  0.00000000000E+00  0.00000000000E+00  0.45593999997E+02  0.45594000000E+02  0.51100000000E-03 0.  1.
         11   -1    0    0    0    0 -0.00000000000E+00 -0.00000000000E+00 -0.45593999997E+02  0.45594000000E+02  0.51100000000E-03 0. -1.
    9900012    2    1    2    0    0 -0.98926391914E+01  0.21129040745E+02 -0.21735050246E+02  0.59302061372E+02  0.50000214008E+02 0.  0.
        -12    1    1    2    0    0  0.98926391914E+01 -0.21129040745E+02  0.21735050246E+02  0.31885938628E+02  0.00000000000E+00 0.  1.
         11    1    3    3    0    0 -0.65259689591E+00  0.19676128327E+02 -0.22383315818E+01  0.19813784020E+02  0.51100000000E-03 0. -1.
        -11    1    3    3    0    0  0.12438449830E+02  0.81408462299E+00 -0.51646770168E+01  0.13492651959E+02  0.51100000000E-03 0.  1.
         12    1    3    3    0    0 -0.21678492126E+02  0.63882779500E+00 -0.14332041647E+02  0.25995625393E+02  0.00000000000E+00 0. -1.
</event>
<event>
 7    1  0.3755162E-013  0.5930190E+02  0.7816164E-02  0.1266605E+00
        -11   -1    0    0    0    0  0.00000000000E+00  0.00000000000E+00  0.45593999997E+02  0.45594000000E+02  0.51100000000E-03 0.  1.
         11   -1    0    0    0    0 -0.00000000000E+00 -0.00000000000E+00 -0.45593999997E+02  0.45594000000E+02  0.51100000000E-03 0. -1.
    9900012    2    1    2    0    0 -0.14956355569E+02 -0.18607169629E+02 -0.21137741436E+02  0.59301898850E+02  0.49999917607E+02 0.  0.
        -12    1    1    2    0    0  0.14956355569E+02  0.18607169629E+02  0.21137741436E+02  0.31886101150E+02  0.00000000000E+00 0.  1.
         11    1    3    3    0    0  0.88281123019E+01  0.71399560350E+00  0.41320190168E+00  0.88665716378E+01  0.51100000000E-03 0. -1.
        -11    1    3    3    0    0 -0.23033410340E+02 -0.20380749728E+02 -0.19778898286E+01  0.30819231006E+02  0.51100000000E-03 0.  1.
         12    1    3    3    0    0 -0.75105753160E+00  0.10595844951E+01 -0.19573053509E+02  0.19616096207E+02  0.00000000000E+00 0. -1.
</event>
<event>
 7    1  0.3755162E-013  0.5930192E+02  0.7816164E-02  0.1266605E+00
        -11   -1    0    0    0    0  0.00000000000E+00  0.00000000000E+00  0.45593999997E+02  0.45594000000E+02  0.51100000000E-03 0. -1.
         11   -1    0    0    0    0 -0.00000000000E+00 -0.00000000000E+00 -0.45593999997E+02  0.45594000000E+02  0.51100000000E-03 0.  1.
    9900012    2    1    2    0    0  0.17089455640E+02  0.13301354696E+02  0.23403991531E+02  0.59301916038E+02  0.49999948954E+02 0.  0.
        -12    1    1    2    0    0 -0.17089455640E+02 -0.13301354696E+02 -0.23403991531E+02  0.31886083962E+02  0.00000000000E+00 0.  1.
         11    1    3    3    0    0  0.18324015095E+02  0.91250187164E+01  0.15799681114E+00  0.20470966246E+02  0.51100000000E-03 0. -1.
        -11    1    3    3    0    0 -0.26553234291E+01  0.16715351504E+02  0.71382716992E+01  0.18368686440E+02  0.51100000000E-03 0.  1.
         12    1    3    3    0    0  0.14207639741E+01 -0.12539015524E+02  0.16107723021E+02  0.20462263352E+02  0.00000000000E+00 0. -1.
</event>
<event>
 7    1  0.3755162E-013  0.5930199E+02  0.7816164E-02  0.1266605E+00
        -11   -1    0    0    0    0  0.00000000000E+00  0.00000000000E+00  0.45593999997E+02  0.45594000000E+02  0.51100000000E-03 0.  1.
         11   -1    0    0    0    0 -0.00000000000E+00 -0.00000000000E+00 -0.45593999997E+02  0.45594000000E+02  0.51100000000E-03 0. -1.
    9900012    2    1    2    0    0 -0.17497480327E+02 -0.19406843636E+02 -0.18273755121E+02  0.59301991722E+02  0.50000086982E+02 0.  0.
        -12    1    1    2    0    0  0.17497480327E+02  0.19406843636E+02  0.18273755121E+02  0.31886008278E+02  0.00000000000E+00 0.  1.
         11    1    3    3    0    0  0.42850724472E+01 -0.11986792665E+02  0.89647902078E+01  0.15569602050E+02  0.51100000000E-03 0. -1.
        -11    1    3    3    0    0 -0.15476285296E+02  0.38453297254E+01 -0.29380117815E+01  0.16215236068E+02  0.51100000000E-03 0.  1.
         12    1    3    3    0    0 -0.63062674787E+01 -0.11265380697E+02 -0.24300533548E+02  0.27517153604E+02  0.00000000000E+00 0. -1.
</event>
<event>
 7    1  0.3755162E-013  0.5930194E+02  0.7816164E-02  0.1266605E+00
        -11   -1    0    0    0    0  0.00000000000E+00  0.00000000000E+00  0.45593999997E+02  0.45594000000E+02  0.51100000000E-03 0.  1.
         11   -1    0    0    0    0 -0.00000000000E+00 -0.00000000000E+00 -0.45593999997E+02  0.45594000000E+02  0.51100000000E-03 0. -1.
    9900012    2    1    2    0    0  0.80719185812E+00  0.27390684481E+02  0.16303971649E+02  0.59301942756E+02  0.49999997680E+02 0.  0.
        -12    1    1    2    0    0 -0.80719185812E+00 -0.27390684481E+02 -0.16303971649E+02  0.31886057244E+02  0.00000000000E+00 0.  1.
         11    1    3    3    0    0 -0.12290194874E+02  0.33780100668E+01  0.57517487246E+01  0.13983649584E+02  0.51100000000E-03 0. -1.
        -11    1    3    3    0    0  0.22611018091E+00  0.58785910109E+01  0.20228501182E+02  0.21066590100E+02  0.51100000000E-03 0.  1.
         12    1    3    3    0    0  0.12871276551E+02  0.18134083404E+02 -0.96762782579E+01  0.24251703071E+02  0.00000000000E+00 0. -1.
</event>
<event>
 7    1  0.3755162E-013  0.5930188E+02  0.7816164E-02  0.1266605E+00
        -11   -1    0    0    0    0  0.00000000000E+00  0.00000000000E+00  0.45593999997E+02  0.45594000000E+02  0.51100000000E-03 0.  1.
         11   -1    0    0    0    0 -0.00000000000E+00 -0.00000000000E+00 -0.45593999997E+02  0.45594000000E+02  0.51100000000E-03 0. -1.
    9900012    2    1    2    0    0 -0.97458809736E+01 -0.29620137324E+02 -0.66625676972E+01  0.59301881714E+02  0.49999886354E+02 0.  0.
        -12    1    1    2    0    0  0.97458809736E+01  0.29620137324E+02  0.66625676972E+01  0.31886118286E+02  0.00000000000E+00 0.  1.
         11    1    3    3    0    0  0.18386624927E+01 -0.16535219565E+02 -0.20105982497E+02  0.26096833108E+02  0.51100000000E-03 0. -1.
        -11    1    3    3    0    0  0.59052372764E+01 -0.21941611156E+01 -0.28724988585E+01  0.69236854525E+01  0.51100000000E-03 0.  1.
        -12    1    3    3    0    0 -0.17489780743E+02 -0.10890756644E+02  0.16315913659E+02  0.26281363154E+02  0.00000000000E+00 0.  1.
</event>
<event>
 7    1  0.3755162E-013  0.5930195E+02  0.7816164E-02  0.1266605E+00
        -11   -1    0    0    0    0  0.00000000000E+00  0.00000000000E+00  0.45593999997E+02  0.45594000000E+02  0.51100000000E-03 0.  1.
         11   -1    0    0    0    0 -0.00000000000E+00 -0.00000000000E+00 -0.45593999997E+02  0.45594000000E+02  0.51100000000E-03 0. -1.
    9900012    2    1    2    0    0 -0.10027578569E+02 -0.29884020438E+02 -0.48076202397E+01  0.59301949416E+02  0.50000009826E+02 0.  0.
        -12    1    1    2    0    0  0.10027578569E+02  0.29884020438E+02  0.48076202397E+01  0.31886050584E+02  0.00000000000E+00 0.  1.
         11    1    3    3    0    0 -0.84995658231E+01 -0.58767425192E+01 -0.67065741117E+01  0.12318963365E+02  0.51100000000E-03 0. -1.
        -11    1    3    3    0    0 -0.20339059705E+02 -0.10265061474E+02 -0.35516771579E+01  0.23057824001E+02  0.51100000000E-03 0.  1.
        -12    1    3    3    0    0  0.18811046959E+02 -0.13742216444E+02  0.54506310299E+01  0.23925162050E+02  0.00000000000E+00 0.  1.
</event>
<event>
 7    1  0.3755162E-013  0.5930190E+02  0.7816164E-02  0.1266605E+00
        -11   -1    0    0    0    0  0.00000000000E+00  0.00000000000E+00  0.45593999997E+02  0.45594000000E+02  0.51100000000E-03 0.  1.
         11   -1    0    0    0    0 -0.00000000000E+00 -0.00000000000E+00 -0.45593999997E+02  0.45594000000E+02  0.51100000000E-03 0. -1.
    9900012    2    1    2    0    0 -0.29289981093E+02 -0.10384405517E+02 -0.71403551160E+01  0.59301897361E+02  0.49999914891E+02 0.  0.
        -12    1    1    2    0    0  0.29289981093E+02  0.10384405517E+02  0.71403551160E+01  0.31886102639E+02  0.00000000000E+00 0.  1.
         11    1    3    3    0    0 -0.22305445757E+02  0.60307475992E+01 -0.86168938988E+01  0.24660772245E+02  0.51100000000E-03 0. -1.
        -11    1    3    3    0    0 -0.15416377992E+02 -0.17876624971E+02 -0.47232047439E+01  0.24073784373E+02  0.51100000000E-03 0.  1.
        -12    1    3    3    0    0  0.84318426562E+01  0.14614718552E+01  0.61997435267E+01  0.10567340742E+02  0.00000000000E+00 0.  1.
</event>
<event>
 7    1  0.3755162E-013  0.5930195E+02  0.7816164E-02  0.1266605E+00
        -11   -1    0    0    0    0  0.00000000000E+00  0.00000000000E+00  0.45593999997E+02  0.45594000000E+02  0.51100000000E-03 0.  1.
         11   -1    0    0    0    0 -0.00000000000E+00 -0.00000000000E+00 -0.45593999997E+02  0.45594000000E+02  0.51100000000E-03 0. -1.
    9900012    2    1    2    0    0 -0.11509513268E+02 -0.12436670234E+02 -0.27010745271E+02  0.59301952545E+02  0.50000015533E+02 0.  0.
        -12    1    1    2    0    0  0.11509513268E+02  0.12436670234E+02  0.27010745271E+02  0.31886047455E+02  0.00000000000E+00 0.  1.
         11    1    3    3    0    0  0.53206689640E+01 -0.71482111658E+00  0.21091068260E+01  0.57679129083E+01  0.51100000000E-03 0. -1.
        -11    1    3    3    0    0  0.10674843455E+02  0.59175983850E+01 -0.89451161905E+01  0.15132262136E+02  0.51100000000E-03 0.  1.
         12    1    3    3    0    0 -0.27505025687E+02 -0.17639447503E+02 -0.20174735907E+02  0.38401777500E+02  0.00000000000E+00 0. -1.
</event>
<event>
 7    1  0.3755162E-013  0.5930195E+02  0.7816164E-02  0.1266605E+00
        -11   -1    0    0    0    0  0.00000000000E+00  0.00000000000E+00  0.45593999997E+02  0.45594000000E+02  0.51100000000E-03 0. -1.
         11   -1    0    0    0    0 -0.00000000000E+00 -0.00000000000E+00 -0.45593999997E+02  0.45594000000E+02  0.51100000000E-03 0.  1.
    9900012    2    1    2    0    0  0.27331176917E+02 -0.78770017693E+01  0.14411097754E+02  0.59301950903E+02  0.50000012539E+02 0.  0.
        -12    1    1    2    0    0 -0.27331176917E+02  0.78770017693E+01 -0.14411097754E+02  0.31886049097E+02  0.00000000000E+00 0.  1.
         11    1    3    3    0    0 -0.95663719511E+01  0.19649256650E+01  0.16308694167E+01  0.99013201388E+01  0.51100000000E-03 0. -1.
        -11    1    3    3    0    0  0.14783560273E+02  0.91573156852E+01 -0.42407028058E+00  0.17395111979E+02  0.51100000000E-03 0.  1.
         12    1    3    3    0    0  0.22113988595E+02 -0.18999243119E+02  0.13204298618E+02  0.32005518785E+02  0.00000000000E+00 0. -1.
</event>
<event>
 7    1  0.3755162E-013  0.5930197E+02  0.7816164E-02  0.1266605E+00
        -11   -1    0    0    0    0  0.00000000000E+00  0.00000000000E+00  0.45593999997E+02  0.45594000000E+02  0.51100000000E-03 0.  1.
         11   -1    0    0    0    0 -0.00000000000E+00 -0.00000000000E+00 -0.45593999997E+02  0.45594000000E+02  0.51100000000E-03 0. -1.
    9900012    2    1    2    0    0 -0.26747143688E+02 -0.12587474747E+02 -0.11952601062E+02  0.59301970330E+02  0.50000047969E+02 0.  0.
        -12    1    1    2    0    0  0.26747143688E+02  0.12587474747E+02  0.11952601062E+02  0.31886029670E+02  0.00000000000E+00 0.  1.
         11    1    3    3    0    0  0.56635866289E+01  0.87837929147E+01 -0.57607273280E+01  0.11933868236E+02  0.51100000000E-03 0. -1.
        -11    1    3    3    0    0  0.45743586145E+00 -0.88328932758E+01  0.53592275879E+01  0.10341690954E+02  0.51100000000E-03 0.  1.
         12    1    3    3    0    0 -0.32868166178E+02 -0.12538374386E+02 -0.11551101322E+02  0.37026411140E+02  0.00000000000E+00 0. -1.
</event>
<event>
 7    1  0.3755162E-013  0.5930192E+02  0.7816164E-02  0.1266605E+00
        -11   -1    0    0    0    0  0.00000000000E+00  0.00000000000E+00  0.45593999997E+02  0.45594000000E+02  0.51100000000E-03 0.  1.
         11   -1    0    0    0    0 -0.00000000000E+00 -0.00000000000E+00 -0.45593999997E+02  0.45594000000E+02  0.51100000000E-03 0. -1.
    9900012    2    1    2    0    0  0.23839161523E+02 -0.14719303786E+02 -0.15223617074E+02  0.59301920861E+02  0.49999957749E+02 0.  0.
        -12    1    1    2    0    0 -0.23839161523E+02  0.14719303786E+02  0.15223617074E+02  0.31886079139E+02  0.00000000000E+00 0.  1.
         11    1    3    3    0    0  0.10473663466E+02 -0.17339051392E+01  0.95215111870E+01  0.14260547990E+02  0.51100000000E-03 0. -1.
        -11    1    3    3    0    0  0.19484382758E+02 -0.57097568159E+01 -0.20152353421E+01  0.20403520973E+02  0.51100000000E-03 0.  1.
         12    1    3    3    0    0 -0.61188847006E+01 -0.72756418305E+01 -0.22729892919E+02  0.24637851898E+02  0.00000000000E+00 0. -1.
</event>
<event>
 7    1  0.3755162E-013  0.5930193E+02  0.7816164E-02  0.1266605E+00
        -11   -1    0    0    0    0  0.00000000000E+00  0.00000000000E+00  0.45593999997E+02  0.45594000000E+02  0.51100000000E-03 0.  1.
         11   -1    0    0    0    0 -0.00000000000E+00 -0.00000000000E+00 -0.45593999997E+02  0.45594000000E+02  0.51100000000E-03 0. -1.
    9900012    2    1    2    0    0  0.17296537407E+02 -0.11740229110E+02 -0.24077335041E+02  0.59301933318E+02  0.49999980467E+02 0.  0.
        -12    1    1    2    0    0 -0.17296537407E+02  0.11740229110E+02  0.24077335041E+02  0.31886066682E+02  0.00000000000E+00 0.  1.
         11    1    3    3    0    0  0.57993775052E+01 -0.67149120380E+01 -0.18826013693E+02  0.20812054559E+02  0.51100000000E-03 0. -1.
        -11    1    3    3    0    0  0.91864386812E+00 -0.18867697127E+02  0.31455945022E+01  0.19150161004E+02  0.51100000000E-03 0.  1.
         12    1    3    3    0    0  0.10578516034E+02  0.13842380055E+02 -0.83969158495E+01  0.19339717755E+02  0.00000000000E+00 0. -1.
</event>
<event>
 7    1  0.3755162E-013  0.5930193E+02  0.7816164E-02  0.1266605E+00
        -11   -1    0    0    0    0  0.00000000000E+00  0.00000000000E+00  0.45593999997E+02  0.45594000000E+02  0.51100000000E-03 0.  1.
         11   -1    0    0    0    0 -0.00000000000E+00 -0.00000000000E+00 -0.45593999997E+02  0.45594000000E+02  0.51100000000E-03 0. -1.
    9900012    2    1    2    0    0 -0.89511442259E+01 -0.45602916323E+01 -0.30262220966E+02  0.59301933129E+02  0.49999980123E+02 0.  0.
        -12    1    1    2    0    0  0.89511442259E+01  0.45602916323E+01  0.30262220966E+02  0.31886066871E+02  0.00000000000E+00 0.  1.
         11    1    3    3    0    0 -0.20837666945E+01  0.16502913818E+02 -0.18641961621E+02  0.24984214645E+02  0.51100000000E-03 0. -1.
        -11    1    3    3    0    0 -0.30107435550E+01 -0.13343665558E+02 -0.18690782963E+02  0.23161678595E+02  0.51100000000E-03 0.  1.
        -12    1    3    3    0    0 -0.38566339764E+01 -0.77195398920E+01  0.70705236177E+01  0.11156039889E+02  0.00000000000E+00 0.  1.
</event>
<event>
 7    1  0.3755162E-013  0.5930192E+02  0.7816164E-02  0.1266605E+00
        -11   -1    0    0    0    0  0.00000000000E+00  0.00000000000E+00  0.45593999997E+02  0.45594000000E+02  0.51100000000E-03 0.  1.
         11   -1    0    0    0    0 -0.00000000000E+00 -0.00000000000E+00 -0.45593999997E+02  0.45594000000E+02  0.51100000000E-03 0. -1.
    9900012    2    1    2    0    0  0.36083913136E+01  0.28026933630E+02 -0.14771347237E+02  0.59301918463E+02  0.49999953376E+02 0.  0.
        -12    1    1    2    0    0 -0.36083913136E+01 -0.28026933630E+02  0.14771347237E+02  0.31886081537E+02  0.00000000000E+00 0.  1.
         11    1    3    3    0    0 -0.10105893930E+02  0.13029269996E+02 -0.17284271969E+02  0.23888010099E+02  0.51100000000E-03 0. -1.
        -11    1    3    3    0    0  0.84754763142E+01 -0.61942655946E+01 -0.58727798037E+01  0.12028805755E+02  0.51100000000E-03 0.  1.
        -12    1    3    3    0    0  0.52388089295E+01  0.21191929229E+02  0.83857045353E+01  0.23385102608E+02  0.00000000000E+00 0.  1.
</event>
<event>
 7    1  0.3755162E-013  0.5930193E+02  0.7816164E-02  0.1266605E+00
        -11   -1    0    0    0    0  0.00000000000E+00  0.00000000000E+00  0.45593999997E+02  0.45594000000E+02  0.51100000000E-03 0.  1.
         11   -1    0    0    0    0 -0.00000000000E+00 -0.00000000000E+00 -0.45593999997E+02  0.45594000000E+02  0.51100000000E-03 0. -1.
    9900012    2    1    2    0    0 -0.29170855500E+02  0.58093665030E+01 -0.11490587673E+02  0.59301934786E+02  0.49999983145E+02 0.  0.
        -12    1    1    2    0    0  0.29170855500E+02 -0.58093665030E+01  0.11490587673E+02  0.31886065214E+02  0.00000000000E+00 0.  1.
         11    1    3    3    0    0  0.40182265922E+01  0.14779760216E+02 -0.82227556781E+01  0.17383934198E+02  0.51100000000E-03 0. -1.
        -11    1    3    3    0    0 -0.24035149536E+02 -0.33490446155E+00  0.76836198253E+01  0.25235661039E+02  0.51100000000E-03 0.  1.
         12    1    3    3    0    0 -0.91539325562E+01 -0.86354892514E+01 -0.10951451821E+02  0.16682339549E+02  0.00000000000E+00 0. -1.
</event>
<event>
 7    1  0.3755162E-013  0.5930197E+02  0.7816164E-02  0.1266605E+00
        -11   -1    0    0    0    0  0.00000000000E+00  0.00000000000E+00  0.45593999997E+02  0.45594000000E+02  0.51100000000E-03 0.  1.
         11   -1    0    0    0    0 -0.00000000000E+00 -0.00000000000E+00 -0.45593999997E+02  0.45594000000E+02  0.51100000000E-03 0. -1.
    9900012    2    1    2    0    0 -0.20858904253E+02 -0.23942291046E+02 -0.28967945111E+01  0.59301974760E+02  0.50000056048E+02 0.  0.
        -12    1    1    2    0    0  0.20858904253E+02  0.23942291046E+02  0.28967945111E+01  0.31886025240E+02  0.00000000000E+00 0.  1.
         11    1    3    3    0    0 -0.12370236493E+02 -0.21391720202E+02  0.16833403117E+02  0.29899697404E+02  0.51100000000E-03 0. -1.
        -11    1    3    3    0    0  0.33782230503E+01 -0.22625456870E+01  0.20829878455E+01  0.45684070078E+01  0.51100000000E-03 0.  1.
        -12    1    3    3    0    0 -0.11866890810E+02 -0.28802515763E+00 -0.21813185473E+02  0.24833870349E+02  0.00000000000E+00 0.  1.
</event>
<event>
 7    1  0.3755162E-013  0.5930197E+02  0.7816164E-02  0.1266605E+00
        -11   -1    0    0    0    0  0.00000000000E+00  0.00000000000E+00  0.45593999997E+02  0.45594000000E+02  0.51100000000E-03 0.  1.
         11   -1    0    0    0    0 -0.00000000000E+00 -0.00000000000E+00 -0.45593999997E+02  0.45594000000E+02  0.51100000000E-03 0. -1.
    9900012    2    1    2    0    0 -0.12620675174E+02  0.90818866823E+01 -0.27838041539E+02  0.59301973839E+02  0.50000054369E+02 0.  0.
        -12    1    1    2    0    0  0.12620675174E+02 -0.90818866823E+01  0.27838041539E+02  0.31886026161E+02  0.00000000000E+00 0.  1.
         11    1    3    3    0    0 -0.12323555927E+01  0.27862345404E+00 -0.15315049331E+02  0.15367077393E+02  0.51100000000E-03 0.  1.
        -11    1    3    3    0    0 -0.37597800430E+01  0.20243416709E+02 -0.19637684720E+02  0.28452952877E+02  0.51100000000E-03 0. -1.
         12    1    3    3    0    0 -0.76285395386E+01 -0.11440153480E+02  0.71146925116E+01  0.15481943569E+02  0.00000000000E+00 0. -1.
</event>
<event>
 7    1  0.3755162E-013  0.5930192E+02  0.7816164E-02  0.1266605E+00
        -11   -1    0    0    0    0  0.00000000000E+00  0.00000000000E+00  0.45593999997E+02  0.45594000000E+02  0.51100000000E-03 0. -1.
         11   -1    0    0    0    0 -0.00000000000E+00 -0.00000000000E+00 -0.45593999997E+02  0.45594000000E+02  0.51100000000E-03 0.  1.
    9900012    2    1    2    0    0  0.56790186185E+01 -0.48234665060E+01  0.31003306732E+02  0.59301919810E+02  0.49999955832E+02 0.  0.
        -12    1    1    2    0    0 -0.56790186185E+01  0.48234665060E+01 -0.31003306732E+02  0.31886080190E+02  0.00000000000E+00 0.  1.
         11    1    3    3    0    0 -0.40340639464E+01  0.49460655834E+01  0.58878358812E+01  0.86835389274E+01  0.51100000000E-03 0. -1.
        -11    1    3    3    0    0 -0.15563736168E+02 -0.10181907892E+02  0.92454597522E+01  0.20769681224E+02  0.51100000000E-03 0.  1.
         12    1    3    3    0    0  0.25276818733E+02  0.41237580285E+00  0.15870011098E+02  0.29848699659E+02  0.00000000000E+00 0. -1.
</event>
<event>
 7    1  0.3755162E-013  0.5930195E+02  0.7816164E-02  0.1266605E+00
        -11   -1    0    0    0    0  0.00000000000E+00  0.00000000000E+00  0.45593999997E+02  0.45594000000E+02  0.51100000000E-03 0. -1.
         11   -1    0    0    0    0 -0.00000000000E+00 -0.00000000000E+00 -0.45593999997E+02  0.45594000000E+02  0.51100000000E-03 0.  1.
    9900012    2    1    2    0    0  0.25080249003E+02  0.19288549679E+02  0.39563791520E+01  0.59301953290E+02  0.50000016892E+02 0.  0.
        -12    1    1    2    0    0 -0.25080249003E+02 -0.19288549679E+02 -0.39563791520E+01  0.31886046710E+02  0.00000000000E+00 0.  1.
         11    1    3    3    0    0  0.12994650572E+02  0.14223890960E+02 -0.78017812120E+00  0.19281822935E+02  0.51100000000E-03 0. -1.
        -11    1    3    3    0    0  0.15721371501E+02  0.19283828063E+02  0.48220911922E+01  0.25343245852E+02  0.51100000000E-03 0.  1.
        -12    1    3    3    0    0 -0.36357730696E+01 -0.14219169344E+02 -0.85533918959E-01  0.14676884502E+02  0.00000000000E+00 0.  1.
</event>
<event>
 7    1  0.3755162E-013  0.5930191E+02  0.7816164E-02  0.1266605E+00
        -11   -1    0    0    0    0  0.00000000000E+00  0.00000000000E+00  0.45593999997E+02  0.45594000000E+02  0.51100000000E-03 0. -1.
         11   -1    0    0    0    0 -0.00000000000E+00 -0.00000000000E+00 -0.45593999997E+02  0.45594000000E+02  0.51100000000E-03 0.  1.
    9900012    2    1    2    0    0 -0.21859782033E+02 -0.32003310465E+01  0.22991964717E+02  0.59301911640E+02  0.49999940932E+02 0.  0.
        -12    1    1    2    0    0  0.21859782033E+02  0.32003310465E+01 -0.22991964717E+02  0.31886088360E+02  0.00000000000E+00 0.  1.
         11    1    3    3    0    0 -0.28963058961E+02 -0.13613758539E+02  0.23156834741E+02  0.39502306280E+02  0.51100000000E-03 0. -1.
        -11    1    3    3    0    0  0.48173684823E+01 -0.27151510957E+00  0.56435528408E+01  0.74249881130E+01  0.51100000000E-03 0.  1.
        -12    1    3    3    0    0  0.22859084459E+01  0.10684942602E+02 -0.58084228646E+01  0.12374617247E+02  0.00000000000E+00 0.  1.
</event>
<event>
 7    1  0.3755162E-013  0.5930196E+02  0.7816164E-02  0.1266605E+00
        -11   -1    0    0    0    0  0.00000000000E+00  0.00000000000E+00  0.45593999997E+02  0.45594000000E+02  0.51100000000E-03 0. -1.
         11   -1    0    0    0    0 -0.00000000000E+00 -0.00000000000E+00 -0.45593999997E+02  0.45594000000E+02  0.51100000000E-03 0.  1.
    9900012    2    1    2    0    0  0.61272400477E+01  0.62376629114E+01  0.30663795138E+02  0.59301955380E+02  0.50000020704E+02 0.  0.
        -12    1    1    2    0    0 -0.61272400477E+01 -0.62376629114E+01 -0.30663795138E+02  0.31886044620E+02  0.00000000000E+00 0.  1.
         11    1    3    3    0    0 -0.21750785995E+01  0.16798098418E+01 -0.66373205635E+01  0.71837839989E+01  0.51100000000E-03 0. -1.
        -11    1    3    3    0    0 -0.11456178395E+02  0.98998171432E+01  0.10636590300E+02  0.18503714664E+02  0.51100000000E-03 0.  1.
         12    1    3    3    0    0  0.19758497042E+02 -0.53419640736E+01  0.26664525402E+02  0.33614456718E+02  0.00000000000E+00 0. -1.
</event>
<event>
 7    1  0.3755162E-013  0.5930192E+02  0.7816164E-02  0.1266605E+00
        -11   -1    0    0    0    0  0.00000000000E+00  0.00000000000E+00  0.45593999997E+02  0.45594000000E+02  0.51100000000E-03 0. -1.
         11   -1    0    0    0    0 -0.00000000000E+00 -0.00000000000E+00 -0.45593999997E+02  0.45594000000E+02  0.51100000000E-03 0.  1.
    9900012    2    1    2    0    0  0.13002742491E+02 -0.23156053848E+02  0.17647880412E+02  0.59301924275E+02  0.49999963977E+02 0.  0.
        -12    1    1    2    0    0 -0.13002742491E+02  0.23156053848E+02 -0.17647880412E+02  0.31886075725E+02  0.00000000000E+00 0.  1.
         11    1    3    3    0    0 -0.97069115793E+01 -0.21168846003E+02 -0.43920624854E+00  0.23292425290E+02  0.51100000000E-03 0. -1.
        -11    1    3    3    0    0  0.78515202940E+01  0.48299879320E+00 -0.43474419641E+01  0.89877644970E+01  0.51100000000E-03 0.  1.
         12    1    3    3    0    0  0.14858133777E+02 -0.24702066379E+01  0.22434528625E+02  0.27021734488E+02  0.00000000000E+00 0. -1.
</event>
<event>
 7    1  0.3755162E-013  0.5930193E+02  0.7816164E-02  0.1266605E+00
        -11   -1    0    0    0    0  0.00000000000E+00  0.00000000000E+00  0.45593999997E+02  0.45594000000E+02  0.51100000000E-03 0. -1.
         11   -1    0    0    0    0 -0.00000000000E+00 -0.00000000000E+00 -0.45593999997E+02  0.45594000000E+02  0.51100000000E-03 0.  1.
    9900012    2    1    2    0    0 -0.29552291696E+02  0.16555375872E+01 -0.11859289693E+02  0.59301929354E+02  0.49999973239E+02 0.  0.
        -12    1    1    2    0    0  0.29552291696E+02 -0.16555375872E+01  0.11859289693E+02  0.31886070646E+02  0.00000000000E+00 0.  1.
         11    1    3    3    0    0  0.20421059258E+01  0.15286489059E+02 -0.10179857712E+02  0.18479081353E+02  0.51100000000E-03 0. -1.
        -11    1    3    3    0    0 -0.92536368933E+01  0.58397559788E+01 -0.23011437536E+01  0.11181583451E+02  0.51100000000E-03 0.  1.
        -12    1    3    3    0    0 -0.22340760729E+02 -0.19470707451E+02  0.62171177302E+00  0.29641264550E+02  0.00000000000E+00 0.  1.
</event>
<event>
 7    1  0.3755162E-013  0.5930193E+02  0.7816164E-02  0.1266605E+00
        -11   -1    0    0    0    0  0.00000000000E+00  0.00000000000E+00  0.45593999997E+02  0.45594000000E+02  0.51100000000E-03 0. -1.
         11   -1    0    0    0    0 -0.00000000000E+00 -0.00000000000E+00 -0.45593999997E+02  0.45594000000E+02  0.51100000000E-03 0.  1.
    9900012    2    1    2    0    0 -0.11238148061E+01  0.82454120482E+01  0.30781029401E+02  0.59301928581E+02  0.49999971829E+02 0.  0.
        -12    1    1    2    0    0  0.11238148061E+01 -0.82454120482E+01 -0.30781029401E+02  0.31886071419E+02  0.00000000000E+00 0.  1.
         11    1    3    3    0    0 -0.14599746204E+02  0.17824496536E+01  0.14577641429E+02  0.20708388298E+02  0.51100000000E-03 0. -1.
        -11    1    3    3    0    0 -0.78246234987E+01  0.55625196210E+01 -0.28354455205E+01  0.10010300145E+02  0.51100000000E-03 0.  1.
         12    1    3    3    0    0  0.21300554897E+02  0.90044277356E+00  0.19038833492E+02  0.28583240138E+02  0.00000000000E+00 0. -1.
</event>
<event>
 7    1  0.3755162E-013  0.5930190E+02  0.7816164E-02  0.1266605E+00
        -11   -1    0    0    0    0  0.00000000000E+00  0.00000000000E+00  0.45593999997E+02  0.45594000000E+02  0.51100000000E-03 0. -1.
         11   -1    0    0    0    0 -0.00000000000E+00 -0.00000000000E+00 -0.45593999997E+02  0.45594000000E+02  0.51100000000E-03 0.  1.
    9900012    2    1    2    0    0 -0.35903437088E+01  0.22811988680E+02  0.21987401377E+02  0.59301902484E+02  0.49999924234E+02 0.  0.
        -12    1    1    2    0    0  0.35903437088E+01 -0.22811988680E+02 -0.21987401377E+02  0.31886097516E+02  0.00000000000E+00 0.  1.
         11    1    3    3    0    0 -0.36698374015E+01  0.21707011717E+02  0.13548352282E+02  0.25849949982E+02  0.51100000000E-03 0. -1.
        -11    1    3    3    0    0 -0.16094843303E+02  0.15206227996E+01  0.35767280430E+01  0.16557453258E+02  0.51100000000E-03 0.  1.
        -12    1    3    3    0    0  0.16174336995E+02 -0.41564583695E+00  0.48623210521E+01  0.16894499244E+02  0.00000000000E+00 0.  1.
</event>
<event>
 7    1  0.3755162E-013  0.5930198E+02  0.7816164E-02  0.1266605E+00
        -11   -1    0    0    0    0  0.00000000000E+00  0.00000000000E+00  0.45593999997E+02  0.45594000000E+02  0.51100000000E-03 0. -1.
         11   -1    0    0    0    0 -0.00000000000E+00 -0.00000000000E+00 -0.45593999997E+02  0.45594000000E+02  0.51100000000E-03 0.  1.
    9900012    2    1    2    0    0 -0.10103730862E+02 -0.30235130019E+02  0.68541045390E+00  0.59301980303E+02  0.50000066158E+02 0.  0.
        -12    1    1    2    0    0  0.10103730862E+02  0.30235130019E+02 -0.68541045390E+00  0.31886019697E+02  0.00000000000E+00 0.  1.
         11    1    3    3    0    0 -0.88592790593E+01  0.48503560740E+01 -0.15059252944E+02  0.18132674347E+02  0.51100000000E-03 0. -1.
        -11    1    3    3    0    0  0.25665297011E+01 -0.65192044452E+01 -0.20486386170E+01  0.72995905192E+01  0.51100000000E-03 0.  1.
        -12    1    3    3    0    0 -0.38109815042E+01 -0.28566281648E+02  0.17793302015E+02  0.33869715437E+02  0.00000000000E+00 0.  1.
</event>
<event>
 7    1  0.3755162E-013  0.5930193E+02  0.7816164E-02  0.1266605E+00
        -11   -1    0    0    0    0  0.00000000000E+00  0.00000000000E+00  0.45593999997E+02  0.45594000000E+02  0.51100000000E-03 0. -1.
         11   -1    0    0    0    0 -0.00000000000E+00 -0.00000000000E+00 -0.45593999997E+02  0.45594000000E+02  0.51100000000E-03 0.  1.
    9900012    2    1    2    0    0  0.22181742549E+02  0.30567471534E+01  0.22701283934E+02  0.59301926270E+02  0.49999967614E+02 0.  0.
        -12    1    1    2    0    0 -0.22181742549E+02 -0.30567471534E+01 -0.22701283934E+02  0.31886073730E+02  0.00000000000E+00 0.  1.
         11    1    3    3    0    0  0.14079275046E+02 -0.46859578453E+01  0.18860342377E+02  0.23997847854E+02  0.51100000000E-03 0. -1.
        -11    1    3    3    0    0 -0.11404837948E+01  0.16906771212E+02  0.11238109987E+02  0.20333094512E+02  0.51100000000E-03 0.  1.
         12    1    3    3    0    0  0.92429512983E+01 -0.91640662133E+01 -0.73971684308E+01  0.14970983904E+02  0.00000000000E+00 0. -1.
</event>
<event>
 7    1  0.3755162E-013  0.5930188E+02  0.7816164E-02  0.1266605E+00
        -11   -1    0    0    0    0  0.00000000000E+00  0.00000000000E+00  0.45593999997E+02  0.45594000000E+02  0.51100000000E-03 0.  1.
         11   -1    0    0    0    0 -0.00000000000E+00 -0.00000000000E+00 -0.45593999997E+02  0.45594000000E+02  0.51100000000E-03 0. -1.
    9900012    2    1    2    0    0 -0.47531462988E+01 -0.11614618993E+01 -0.31508465732E+02  0.59301877528E+02  0.49999878720E+02 0.  0.
        -12    1    1    2    0    0  0.47531462988E+01  0.11614618993E+01  0.31508465732E+02  0.31886122472E+02  0.00000000000E+00 0.  1.
         11    1    3    3    0    0  0.10414222539E+02 -0.60345009257E+01 -0.31758572168E+02  0.33962893559E+02  0.51100000000E-03 0. -1.
        -11    1    3    3    0    0 -0.77520640287E+00  0.77471429337E+01 -0.55464548962E+01  0.95594105875E+01  0.51100000000E-03 0.  1.
        -12    1    3    3    0    0 -0.14392162435E+02 -0.28741039074E+01  0.57965613319E+01  0.15779573381E+02  0.00000000000E+00 0.  1.
</event>
<event>
 7    1  0.3755162E-013  0.5930193E+02  0.7816164E-02  0.1266605E+00
        -11   -1    0    0    0    0  0.00000000000E+00  0.00000000000E+00  0.45593999997E+02  0.45594000000E+02  0.51100000000E-03 0. -1.
         11   -1    0    0    0    0 -0.00000000000E+00 -0.00000000000E+00 -0.45593999997E+02  0.45594000000E+02  0.51100000000E-03 0.  1.
    9900012    2    1    2    0    0 -0.26319621743E+02 -0.16865536085E+02 -0.62890828042E+01  0.59301931590E+02  0.49999977317E+02 0.  0.
        -12    1    1    2    0    0  0.26319621743E+02  0.16865536085E+02  0.62890828042E+01  0.31886068410E+02  0.00000000000E+00 0.  1.
         11    1    3    3    0    0 -0.29218606391E+01  0.40420664479E+01 -0.12997557575E+02  0.13921640490E+02  0.51100000000E-03 0. -1.
        -11    1    3    3    0    0  0.32024570746E+01 -0.17556336715E+02  0.49119594347E+01  0.18509674117E+02  0.51100000000E-03 0.  1.
         12    1    3    3    0    0 -0.26600218179E+02 -0.33512658177E+01  0.17965153358E+01  0.26870616984E+02  0.00000000000E+00 0. -1.
</event>
<event>
 7    1  0.3755162E-013  0.5930193E+02  0.7816164E-02  0.1266605E+00
        -11   -1    0    0    0    0  0.00000000000E+00  0.00000000000E+00  0.45593999997E+02  0.45594000000E+02  0.51100000000E-03 0.  1.
         11   -1    0    0    0    0 -0.00000000000E+00 -0.00000000000E+00 -0.45593999997E+02  0.45594000000E+02  0.51100000000E-03 0. -1.
    9900012    2    1    2    0    0  0.31224825322E+02 -0.22707724676E+01  0.60477386970E+01  0.59301933022E+02  0.49999979928E+02 0.  0.
        -12    1    1    2    0    0 -0.31224825322E+02  0.22707724676E+01 -0.60477386970E+01  0.31886066978E+02  0.00000000000E+00 0.  1.
         11    1    3    3    0    0 -0.15992267189E+01  0.54099225487E+01  0.15370063838E+02  0.16372649472E+02  0.51100000000E-03 0. -1.
        -11    1    3    3    0    0 -0.80421937423E+00 -0.60727080911E+01  0.33195063974E+01  0.69673291400E+01  0.51100000000E-03 0.  1.
         12    1    3    3    0    0  0.33628271415E+02 -0.16079869252E+01 -0.12641831539E+02  0.35961954410E+02  0.00000000000E+00 0. -1.
</event>
<event>
 7    1  0.3755162E-013  0.5930194E+02  0.7816164E-02  0.1266605E+00
        -11   -1    0    0    0    0  0.00000000000E+00  0.00000000000E+00  0.45593999997E+02  0.45594000000E+02  0.51100000000E-03 0. -1.
         11   -1    0    0    0    0 -0.00000000000E+00 -0.00000000000E+00 -0.45593999997E+02  0.45594000000E+02  0.51100000000E-03 0.  1.
    9900012    2    1    2    0    0 -0.51784741007E+01 -0.17822194830E+02  0.25928240983E+02  0.59301938734E+02  0.49999990345E+02 0.  0.
        -12    1    1    2    0    0  0.51784741007E+01  0.17822194830E+02 -0.25928240983E+02  0.31886061266E+02  0.00000000000E+00 0.  1.
         11    1    3    3    0    0 -0.12791915608E+02 -0.23305035319E+02  0.30667567936E+02  0.40586420137E+02  0.51100000000E-03 0. -1.
        -11    1    3    3    0    0 -0.37390929109E+00 -0.29160612272E+01  0.34433303988E+01  0.45276644901E+01  0.51100000000E-03 0.  1.
        -12    1    3    3    0    0  0.79873507988E+01  0.83989017165E+01 -0.81826573514E+01  0.14187854107E+02  0.00000000000E+00 0.  1.
</event>
<event>
 7    1  0.3755162E-013  0.5930195E+02  0.7816164E-02  0.1266605E+00
        -11   -1    0    0    0    0  0.00000000000E+00  0.00000000000E+00  0.45593999997E+02  0.45594000000E+02  0.51100000000E-03 0. -1.
         11   -1    0    0    0    0 -0.00000000000E+00 -0.00000000000E+00 -0.45593999997E+02  0.45594000000E+02  0.51100000000E-03 0.  1.
    9900012    2    1    2    0    0 -0.25241359658E+02 -0.42569719553E+01  0.19012425345E+02  0.59301947169E+02  0.50000005730E+02 0.  0.
        -12    1    1    2    0    0  0.25241359658E+02  0.42569719553E+01 -0.19012425345E+02  0.31886052831E+02  0.00000000000E+00 0.  1.
         11    1    3    3    0    0 -0.26475165490E+02  0.67236974271E+01  0.19957751080E+02  0.33829784558E+02  0.51100000000E-03 0. -1.
        -11    1    3    3    0    0 -0.23811074699E+01 -0.83946652613E+01  0.10229690034E+02  0.13445692101E+02  0.51100000000E-03 0.  1.
        -12    1    3    3    0    0  0.36149133016E+01 -0.25860041211E+01 -0.11175015769E+02  0.12026470510E+02  0.00000000000E+00 0.  1.
</event>
<event>
 7    1  0.3755162E-013  0.5930194E+02  0.7816164E-02  0.1266605E+00
        -11   -1    0    0    0    0  0.00000000000E+00  0.00000000000E+00  0.45593999997E+02  0.45594000000E+02  0.51100000000E-03 0. -1.
         11   -1    0    0    0    0 -0.00000000000E+00 -0.00000000000E+00 -0.45593999997E+02  0.45594000000E+02  0.51100000000E-03 0.  1.
    9900012    2    1    2    0    0 -0.22648408802E+01 -0.86090981932E+00  0.31793866746E+02  0.59301942975E+02  0.49999998081E+02 0.  0.
        -12    1    1    2    0    0  0.22648408802E+01  0.86090981932E+00 -0.31793866746E+02  0.31886057025E+02  0.00000000000E+00 0.  1.
         11    1    3    3    0    0 -0.10728858899E+02 -0.47124851792E+01  0.17803426576E+01  0.11852660043E+02  0.51100000000E-03 0.  1.
        -11    1    3    3    0    0  0.38778339397E+01  0.63317834274E+01 -0.69199406345E+01  0.10149613593E+02  0.51100000000E-03 0. -1.
         12    1    3    3    0    0  0.45861840795E+01 -0.24802080675E+01  0.36933464723E+02  0.37299669340E+02  0.00000000000E+00 0. -1.
</event>
<event>
 7    1  0.3755162E-013  0.5930194E+02  0.7816164E-02  0.1266605E+00
        -11   -1    0    0    0    0  0.00000000000E+00  0.00000000000E+00  0.45593999997E+02  0.45594000000E+02  0.51100000000E-03 0. -1.
         11   -1    0    0    0    0 -0.00000000000E+00 -0.00000000000E+00 -0.45593999997E+02  0.45594000000E+02  0.51100000000E-03 0.  1.
    9900012    2    1    2    0    0  0.71262246219E+01 -0.29908492319E+02  0.84510342257E+01  0.59301937690E+02  0.49999988441E+02 0.  0.
        -12    1    1    2    0    0 -0.71262246219E+01  0.29908492319E+02 -0.84510342257E+01  0.31886062310E+02  0.00000000000E+00 0.  1.
         11    1    3    3    0    0  0.48120008707E+01  0.77945982849E+00  0.79137729896E+01  0.92946604670E+01  0.51100000000E-03 0. -1.
        -11    1    3    3    0    0  0.20846132034E+02 -0.18031933140E+02  0.20400402890E+00  0.27563625513E+02  0.51100000000E-03 0.  1.
         12    1    3    3    0    0 -0.18531908282E+02 -0.12656019008E+02  0.33325720718E+00  0.22443651710E+02  0.00000000000E+00 0. -1.
</event>
<event>
 7    1  0.3755162E-013  0.5930197E+02  0.7816164E-02  0.1266605E+00
        -11   -1    0    0    0    0  0.00000000000E+00  0.00000000000E+00  0.45593999997E+02  0.45594000000E+02  0.51100000000E-03 0. -1.
         11   -1    0    0    0    0 -0.00000000000E+00 -0.00000000000E+00 -0.45593999997E+02  0.45594000000E+02  0.51100000000E-03 0.  1.
    9900012    2    1    2    0    0  0.29348160091E+02 -0.10388312149E+02  0.68911259771E+01  0.59301966266E+02  0.50000040558E+02 0.  0.
        -12    1    1    2    0    0 -0.29348160091E+02  0.10388312149E+02 -0.68911259771E+01  0.31886033734E+02  0.00000000000E+00 0.  1.
         11    1    3    3    0    0  0.22295517515E+01 -0.79336798501E+01  0.93459344863E+01  0.12460363906E+02  0.51100000000E-03 0. -1.
        -11    1    3    3    0    0 -0.27741913942E+01 -0.11236483967E+02  0.78964206280E+01  0.14011001707E+02  0.51100000000E-03 0.  1.
        -12    1    3    3    0    0  0.29892799734E+02  0.87818516681E+01 -0.10351229137E+02  0.32830600654E+02  0.00000000000E+00 0.  1.
</event>
<event>
 7    1  0.3755162E-013  0.5930195E+02  0.7816164E-02  0.1266605E+00
        -11   -1    0    0    0    0  0.00000000000E+00  0.00000000000E+00  0.45593999997E+02  0.45594000000E+02  0.51100000000E-03 0.  1.
         11   -1    0    0    0    0 -0.00000000000E+00 -0.00000000000E+00 -0.45593999997E+02  0.45594000000E+02  0.51100000000E-03 0. -1.
    9900012    2    1    2    0    0 -0.96917156839E+01 -0.97844578816E+01 -0.28758569381E+02  0.59301948476E+02  0.50000008113E+02 0.  0.
        -12    1    1    2    0    0  0.96917156839E+01  0.97844578816E+01  0.28758569381E+02  0.31886051524E+02  0.00000000000E+00 0.  1.
         11    1    3    3    0    0 -0.58111465810E+01  0.35658170115E+01 -0.38128031397E+01  0.78116543439E+01  0.51100000000E-03 0. -1.
        -11    1    3    3    0    0 -0.11395893980E+02  0.42093704483E+01  0.71827347467E+01  0.14113003858E+02  0.51100000000E-03 0.  1.
        -12    1    3    3    0    0  0.75153248776E+01 -0.17559645341E+02 -0.32128500988E+02  0.37377290275E+02  0.00000000000E+00 0.  1.
</event>
<event>
 7    1  0.3755162E-013  0.5930195E+02  0.7816164E-02  0.1266605E+00
        -11   -1    0    0    0    0  0.00000000000E+00  0.00000000000E+00  0.45593999997E+02  0.45594000000E+02  0.51100000000E-03 0.  1.
         11   -1    0    0    0    0 -0.00000000000E+00 -0.00000000000E+00 -0.45593999997E+02  0.45594000000E+02  0.51100000000E-03 0. -1.
    9900012    2    1    2    0    0 -0.14346333381E+02 -0.97414755553E+01 -0.26758298660E+02  0.59301950156E+02  0.50000011176E+02 0.  0.
        -12    1    1    2    0    0  0.14346333381E+02  0.97414755553E+01  0.26758298660E+02  0.31886049844E+02  0.00000000000E+00 0.  1.
         11    1    3    3    0    0 -0.49502363435E+01 -0.21265673009E+01 -0.10420104538E+02  0.11730545904E+02  0.51100000000E-03 0. -1.
        -11    1    3    3    0    0 -0.75870618753E+01 -0.18294308287E+02 -0.26254066156E+02  0.32886489834E+02  0.51100000000E-03 0.  1.
         12    1    3    3    0    0 -0.18090351620E+01  0.10679400033E+02  0.99158720343E+01  0.14684914419E+02  0.00000000000E+00 0. -1.
</event>
<event>
 7    1  0.3755162E-013  0.5930193E+02  0.7816164E-02  0.1266605E+00
        -11   -1    0    0    0    0  0.00000000000E+00  0.00000000000E+00  0.45593999997E+02  0.45594000000E+02  0.51100000000E-03 0. -1.
         11   -1    0    0    0    0 -0.00000000000E+00 -0.00000000000E+00 -0.45593999997E+02  0.45594000000E+02  0.51100000000E-03 0.  1.
    9900012    2    1    2    0    0  0.22325814238E+02  0.17948013600E+02  0.14005302420E+02  0.59301926716E+02  0.49999968428E+02 0.  0.
        -12    1    1    2    0    0 -0.22325814238E+02 -0.17948013600E+02 -0.14005302420E+02  0.31886073284E+02  0.00000000000E+00 0.  1.
         11    1    3    3    0    0  0.26819702287E+02  0.12793425172E+02  0.11293628799E+02  0.31788586161E+02  0.51100000000E-03 0. -1.
        -11    1    3    3    0    0  0.77523818425E+01  0.10091284558E+02  0.57504951109E+01  0.13964298856E+02  0.51100000000E-03 0.  1.
        -12    1    3    3    0    0 -0.12246269891E+02 -0.49366961297E+01 -0.30388214899E+01  0.13549041700E+02  0.00000000000E+00 0.  1.
</event>
<event>
 7    1  0.3755162E-013  0.5930196E+02  0.7816164E-02  0.1266605E+00
        -11   -1    0    0    0    0  0.00000000000E+00  0.00000000000E+00  0.45593999997E+02  0.45594000000E+02  0.51100000000E-03 0.  1.
         11   -1    0    0    0    0 -0.00000000000E+00 -0.00000000000E+00 -0.45593999997E+02  0.45594000000E+02  0.51100000000E-03 0. -1.
    9900012    2    1    2    0    0 -0.71817484190E+01 -0.16454783458E+02 -0.26351136478E+02  0.59301955989E+02  0.50000021814E+02 0.  0.
        -12    1    1    2    0    0  0.71817484190E+01  0.16454783458E+02  0.26351136478E+02  0.31886044011E+02  0.00000000000E+00 0.  1.
         11    1    3    3    0    0  0.34341932542E+01 -0.44099856716E+00  0.47756338322E+01  0.58987152672E+01  0.51100000000E-03 0. -1.
        -11    1    3    3    0    0  0.12765093908E+02 -0.13805176301E+02 -0.19882796106E+02  0.27365235179E+02  0.51100000000E-03 0.  1.
         12    1    3    3    0    0 -0.23381035581E+02 -0.22086085899E+01 -0.11243974204E+02  0.26038005543E+02  0.00000000000E+00 0. -1.
</event>
<event>
 7    1  0.3755162E-013  0.5930194E+02  0.7816164E-02  0.1266605E+00
        -11   -1    0    0    0    0  0.00000000000E+00  0.00000000000E+00  0.45593999997E+02  0.45594000000E+02  0.51100000000E-03 0. -1.
         11   -1    0    0    0    0 -0.00000000000E+00 -0.00000000000E+00 -0.45593999997E+02  0.45594000000E+02  0.51100000000E-03 0.  1.
    9900012    2    1    2    0    0  0.25397278736E+02  0.56865649827E+01  0.18421780714E+02  0.59301940457E+02  0.49999993488E+02 0.  0.
        -12    1    1    2    0    0 -0.25397278736E+02 -0.56865649827E+01 -0.18421780714E+02  0.31886059543E+02  0.00000000000E+00 0.  1.
         11    1    3    3    0    0  0.60992475660E+01  0.27753857501E+01  0.14367128220E+02  0.15853011086E+02  0.51100000000E-03 0. -1.
        -11    1    3    3    0    0  0.94180886800E-01  0.15307697914E+01  0.19008602927E+02  0.19070372615E+02  0.51100000000E-03 0.  1.
        -12    1    3    3    0    0  0.19203850284E+02  0.13804094412E+01 -0.14953950433E+02  0.24378556756E+02  0.00000000000E+00 0.  1.
</event>
<event>
 7    1  0.3755162E-013  0.5930194E+02  0.7816164E-02  0.1266605E+00
        -11   -1    0    0    0    0  0.00000000000E+00  0.00000000000E+00  0.45593999997E+02  0.45594000000E+02  0.51100000000E-03 0.  1.
         11   -1    0    0    0    0 -0.00000000000E+00 -0.00000000000E+00 -0.45593999997E+02  0.45594000000E+02  0.51100000000E-03 0. -1.
    9900012    2    1    2    0    0 -0.94327738837E+01 -0.67284915516E+01 -0.29706409079E+02  0.59301944081E+02  0.50000000097E+02 0.  0.
        -12    1    1    2    0    0  0.94327738837E+01  0.67284915516E+01  0.29706409079E+02  0.31886055919E+02  0.00000000000E+00 0.  1.
         11    1    3    3    0    0 -0.17023180427E+02  0.94779433095E+01 -0.22596314651E+02  0.29836446124E+02  0.51100000000E-03 0. -1.
        -11    1    3    3    0    0 -0.27944951679E+01  0.31337684607E+01  0.31354366015E+01  0.52402930216E+01  0.51100000000E-03 0.  1.
        -12    1    3    3    0    0  0.10384901711E+02 -0.19340203322E+02 -0.10245531030E+02  0.24225204936E+02  0.00000000000E+00 0.  1.
</event>
<event>
 7    1  0.3755162E-013  0.5930188E+02  0.7816164E-02  0.1266605E+00
        -11   -1    0    0    0    0  0.00000000000E+00  0.00000000000E+00  0.45593999997E+02  0.45594000000E+02  0.51100000000E-03 0. -1.
         11   -1    0    0    0    0 -0.00000000000E+00 -0.00000000000E+00 -0.45593999997E+02  0.45594000000E+02  0.51100000000E-03 0.  1.
    9900012    2    1    2    0    0  0.28788060237E+02  0.12733585429E+02  0.50821158817E+01  0.59301882144E+02  0.49999887140E+02 0.  0.
        -12    1    1    2    0    0 -0.28788060237E+02 -0.12733585429E+02 -0.50821158817E+01  0.31886117856E+02  0.00000000000E+00 0.  1.
         11    1    3    3    0    0  0.10718499660E+02  0.13918530818E+02  0.33105802193E+01  0.17876567812E+02  0.51100000000E-03 0. -1.
        -11    1    3    3    0    0  0.81713295360E+01  0.14512037625E+02 -0.10022283104E+02  0.19437490098E+02  0.51100000000E-03 0.  1.
         12    1    3    3    0    0  0.98982310406E+01 -0.15696983014E+02  0.11793818766E+02  0.21987824235E+02  0.00000000000E+00 0. -1.
</event>
<event>
 7    1  0.3755162E-013  0.5930194E+02  0.7816164E-02  0.1266605E+00
        -11   -1    0    0    0    0  0.00000000000E+00  0.00000000000E+00  0.45593999997E+02  0.45594000000E+02  0.51100000000E-03 0. -1.
         11   -1    0    0    0    0 -0.00000000000E+00 -0.00000000000E+00 -0.45593999997E+02  0.45594000000E+02  0.51100000000E-03 0.  1.
    9900012    2    1    2    0    0  0.12351611745E+02  0.11797690536E+02  0.26925325886E+02  0.59301937390E+02  0.49999987894E+02 0.  0.
        -12    1    1    2    0    0 -0.12351611745E+02 -0.11797690536E+02 -0.26925325886E+02  0.31886062610E+02  0.00000000000E+00 0.  1.
         11    1    3    3    0    0  0.17910161093E+02  0.15473141972E+02  0.28709069930E+02  0.37207562260E+02  0.51100000000E-03 0. -1.
        -11    1    3    3    0    0  0.13790854278E+01 -0.56319587396E+01  0.80381618167E+01  0.99112502498E+01  0.51100000000E-03 0.  1.
        -12    1    3    3    0    0 -0.69376347760E+01  0.19565073038E+01 -0.98219058599E+01  0.12183124880E+02  0.00000000000E+00 0.  1.
</event>
<event>
 7    1  0.3755162E-013  0.5930184E+02  0.7816164E-02  0.1266605E+00
        -11   -1    0    0    0    0  0.00000000000E+00  0.00000000000E+00  0.45593999997E+02  0.45594000000E+02  0.51100000000E-03 0. -1.
         11   -1    0    0    0    0 -0.00000000000E+00 -0.00000000000E+00 -0.45593999997E+02  0.45594000000E+02  0.51100000000E-03 0.  1.
    9900012    2    1    2    0    0  0.78617501422E+01  0.30737813720E+02 -0.31790910504E+01  0.59301844266E+02  0.49999818058E+02 0.  0.
        -12    1    1    2    0    0 -0.78617501422E+01 -0.30737813720E+02  0.31790910504E+01  0.31886155734E+02  0.00000000000E+00 0.  1.
         11    1    3    3    0    0 -0.28387783279E+00  0.22238197864E+02  0.58239573975E+01  0.22989921942E+02  0.51100000000E-03 0. -1.
        -11    1    3    3    0    0 -0.10682616276E+02  0.74457634553E+01 -0.11394779781E+02  0.17303141057E+02  0.51100000000E-03 0.  1.
         12    1    3    3    0    0  0.18828244251E+02  0.10538524002E+01  0.23917313332E+01  0.19008781266E+02  0.00000000000E+00 0. -1.
</event>
<event>
 7    1  0.3755162E-013  0.5930197E+02  0.7816164E-02  0.1266605E+00
        -11   -1    0    0    0    0  0.00000000000E+00  0.00000000000E+00  0.45593999997E+02  0.45594000000E+02  0.51100000000E-03 0.  1.
         11   -1    0    0    0    0 -0.00000000000E+00 -0.00000000000E+00 -0.45593999997E+02  0.45594000000E+02  0.51100000000E-03 0. -1.
    9900012    2    1    2    0    0  0.22627837040E+02  0.21294909745E+02 -0.71572692701E+01  0.59301973381E+02  0.50000053533E+02 0.  0.
        -12    1    1    2    0    0 -0.22627837040E+02 -0.21294909745E+02  0.71572692701E+01  0.31886026619E+02  0.00000000000E+00 0.  1.
         11    1    3    3    0    0  0.35760241026E+01 -0.64469954907E+01 -0.53943015352E+01  0.91351074735E+01  0.51100000000E-03 0. -1.
        -11    1    3    3    0    0  0.25160993895E+02  0.64980886182E+01 -0.80157568185E+01  0.27194726090E+02  0.51100000000E-03 0.  1.
         12    1    3    3    0    0 -0.61091809575E+01  0.21243816618E+02  0.62527890836E+01  0.22972139817E+02  0.00000000000E+00 0. -1.
</event>
<event>
 7    1  0.3755162E-013  0.5930194E+02  0.7816164E-02  0.1266605E+00
        -11   -1    0    0    0    0  0.00000000000E+00  0.00000000000E+00  0.45593999997E+02  0.45594000000E+02  0.51100000000E-03 0.  1.
         11   -1    0    0    0    0 -0.00000000000E+00 -0.00000000000E+00 -0.45593999997E+02  0.45594000000E+02  0.51100000000E-03 0. -1.
    9900012    2    1    2    0    0  0.74044035202E+01 -0.13289095553E+02 -0.28023121883E+02  0.59301943296E+02  0.49999998665E+02 0.  0.
        -12    1    1    2    0    0 -0.74044035202E+01  0.13289095553E+02  0.28023121883E+02  0.31886056704E+02  0.00000000000E+00 0.  1.
         11    1    3    3    0    0  0.15572688629E+02  0.72262281173E+01 -0.81156483460E+01  0.18989227269E+02  0.51100000000E-03 0. -1.
        -11    1    3    3    0    0  0.82572637183E+01  0.55777612038E+00 -0.37247422879E+01  0.90756390236E+01  0.51100000000E-03 0.  1.
        -12    1    3    3    0    0 -0.16425548827E+02 -0.21073099791E+02 -0.16182731249E+02  0.31237077003E+02  0.00000000000E+00 0.  1.
</event>
<event>
 7    1  0.3755162E-013  0.5930196E+02  0.7816164E-02  0.1266605E+00
        -11   -1    0    0    0    0  0.00000000000E+00  0.00000000000E+00  0.45593999997E+02  0.45594000000E+02  0.51100000000E-03 0.  1.
         11   -1    0    0    0    0 -0.00000000000E+00 -0.00000000000E+00 -0.45593999997E+02  0.45594000000E+02  0.51100000000E-03 0. -1.
    9900012    2    1    2    0    0  0.15174734285E+02 -0.18706604802E+02 -0.20892822474E+02  0.59301958308E+02  0.50000026044E+02 0.  0.
        -12    1    1    2    0    0 -0.15174734285E+02  0.18706604802E+02  0.20892822474E+02  0.31886041692E+02  0.00000000000E+00 0.  1.
         11    1    3    3    0    0  0.60537232548E+00 -0.11477677343E+02  0.11820734052E+02  0.16487368093E+02  0.51100000000E-03 0. -1.
        -11    1    3    3    0    0 -0.50356004117E+01  0.12220672814E+01 -0.23322822399E+01  0.56824519932E+01  0.51100000000E-03 0.  1.
         12    1    3    3    0    0  0.19604962372E+02 -0.84509947409E+01 -0.30381274286E+02  0.37132138222E+02  0.00000000000E+00 0. -1.
</event>
<event>
 7    1  0.3755162E-013  0.5930191E+02  0.7816164E-02  0.1266605E+00
        -11   -1    0    0    0    0  0.00000000000E+00  0.00000000000E+00  0.45593999997E+02  0.45594000000E+02  0.51100000000E-03 0. -1.
         11   -1    0    0    0    0 -0.00000000000E+00 -0.00000000000E+00 -0.45593999997E+02  0.45594000000E+02  0.51100000000E-03 0.  1.
    9900012    2    1    2    0    0  0.11088848660E+02 -0.22025642664E+01  0.29814569719E+02  0.59301914924E+02  0.49999946922E+02 0.  0.
        -12    1    1    2    0    0 -0.11088848660E+02  0.22025642664E+01 -0.29814569719E+02  0.31886085076E+02  0.00000000000E+00 0.  1.
         11    1    3    3    0    0  0.12849499674E+02 -0.33361950408E+01  0.12675180592E+01  0.13335907975E+02  0.51100000000E-03 0. -1.
        -11    1    3    3    0    0 -0.85047371312E+01 -0.15119631248E+01 -0.60967019478E+01  0.10572906935E+02  0.51100000000E-03 0.  1.
         12    1    3    3    0    0  0.67440861176E+01  0.26455938991E+01  0.34643753607E+02  0.35393100014E+02  0.00000000000E+00 0. -1.
</event>
<event>
 7    1  0.3755162E-013  0.5930194E+02  0.7816164E-02  0.1266605E+00
        -11   -1    0    0    0    0  0.00000000000E+00  0.00000000000E+00  0.45593999997E+02  0.45594000000E+02  0.51100000000E-03 0.  1.
         11   -1    0    0    0    0 -0.00000000000E+00 -0.00000000000E+00 -0.45593999997E+02  0.45594000000E+02  0.51100000000E-03 0. -1.
    9900012    2    1    2    0    0  0.60377399141E+01  0.26137839710E+02 -0.17236004499E+02  0.59301940052E+02  0.49999992748E+02 0.  0.
        -12    1    1    2    0    0 -0.60377399141E+01 -0.26137839710E+02  0.17236004499E+02  0.31886059948E+02  0.00000000000E+00 0.  1.
         11    1    3    3    0    0 -0.93736971231E+01  0.24127732594E+02 -0.65778957532E+00  0.25892979073E+02  0.51100000000E-03 0. -1.
        -11    1    3    3    0    0  0.12047528035E+01  0.99873110457E+00 -0.18911783194E+02  0.18976417917E+02  0.51100000000E-03 0.  1.
        -12    1    3    3    0    0  0.14206684234E+02  0.10113760113E+01  0.23335682705E+01  0.14432543062E+02  0.00000000000E+00 0.  1.
</event>
<event>
 7    1  0.3755162E-013  0.5930190E+02  0.7816164E-02  0.1266605E+00
        -11   -1    0    0    0    0  0.00000000000E+00  0.00000000000E+00  0.45593999997E+02  0.45594000000E+02  0.51100000000E-03 0. -1.
         11   -1    0    0    0    0 -0.00000000000E+00 -0.00000000000E+00 -0.45593999997E+02  0.45594000000E+02  0.51100000000E-03 0.  1.
    9900012    2    1    2    0    0 -0.70674673340E+01 -0.20406207425E+02  0.23459768881E+02  0.59301903470E+02  0.49999926032E+02 0.  0.
        -12    1    1    2    0    0  0.70674673340E+01  0.20406207425E+02 -0.23459768881E+02  0.31886096530E+02  0.00000000000E+00 0.  1.
         11    1    3    3    0    0  0.38954611394E+01  0.97257292547E+00  0.17376333474E+01  0.43749154843E+01  0.51100000000E-03 0. -1.
        -11    1    3    3    0    0  0.74225519581E+01  0.88404082197E+01 -0.28094293576E+01  0.11880235210E+02  0.51100000000E-03 0.  1.
         12    1    3    3    0    0 -0.18385480431E+02 -0.30219188570E+02  0.24531564891E+02  0.43046752776E+02  0.00000000000E+00 0. -1.
</event>
<event>
 7    1  0.3755162E-013  0.5930195E+02  0.7816164E-02  0.1266605E+00
        -11   -1    0    0    0    0  0.00000000000E+00  0.00000000000E+00  0.45593999997E+02  0.45594000000E+02  0.51100000000E-03 0.  1.
         11   -1    0    0    0    0 -0.00000000000E+00 -0.00000000000E+00 -0.45593999997E+02  0.45594000000E+02  0.51100000000E-03 0. -1.
    9900012    2    1    2    0    0  0.11612034673E+01 -0.19906341192E+02 -0.24881907915E+02  0.59301950470E+02  0.50000011750E+02 0.  0.
        -12    1    1    2    0    0 -0.11612034673E+01  0.19906341192E+02  0.24881907915E+02  0.31886049530E+02  0.00000000000E+00 0.  1.
         11    1    3    3    0    0 -0.21511428126E+00  0.86656586406E+01 -0.86662993931E+01  0.12257432817E+02  0.51100000000E-03 0. -1.
        -11    1    3    3    0    0  0.74469206376E+00  0.73945804080E+01  0.35236211174E+00  0.74403323178E+01  0.51100000000E-03 0.  1.
        -12    1    3    3    0    0  0.63162568479E+00 -0.35966580240E+02 -0.16567970634E+02  0.39604185336E+02  0.00000000000E+00 0.  1.
</event>
<event>
 7    1  0.3755162E-013  0.5930195E+02  0.7816164E-02  0.1266605E+00
        -11   -1    0    0    0    0  0.00000000000E+00  0.00000000000E+00  0.45593999997E+02  0.45594000000E+02  0.51100000000E-03 0. -1.
         11   -1    0    0    0    0 -0.00000000000E+00 -0.00000000000E+00 -0.45593999997E+02  0.45594000000E+02  0.51100000000E-03 0.  1.
    9900012    2    1    2    0    0  0.27310280049E+02 -0.14444057203E+02  0.78891187968E+01  0.59301946933E+02  0.50000005298E+02 0.  0.
        -12    1    1    2    0    0 -0.27310280049E+02  0.14444057203E+02 -0.78891187968E+01  0.31886053067E+02  0.00000000000E+00 0.  1.
         11    1    3    3    0    0  0.21222277945E+02 -0.29107501053E+01  0.21470661748E+01  0.21528293958E+02  0.51100000000E-03 0.  1.
        -11    1    3    3    0    0  0.13774257074E+02 -0.45344338964E+01  0.17070469219E+02  0.22398485849E+02  0.51100000000E-03 0. -1.
        -12    1    3    3    0    0 -0.76862549693E+01 -0.69988732009E+01 -0.11328416597E+02  0.15375167125E+02  0.00000000000E+00 0.  1.
</event>
<event>
 7    1  0.3755162E-013  0.5930198E+02  0.7816164E-02  0.1266605E+00
        -11   -1    0    0    0    0  0.00000000000E+00  0.00000000000E+00  0.45593999997E+02  0.45594000000E+02  0.51100000000E-03 0.  1.
         11   -1    0    0    0    0 -0.00000000000E+00 -0.00000000000E+00 -0.45593999997E+02  0.45594000000E+02  0.51100000000E-03 0. -1.
    9900012    2    1    2    0    0 -0.28362980777E+02  0.10775898227E+02 -0.98050848749E+01  0.59301978759E+02  0.50000063342E+02 0.  0.
        -12    1    1    2    0    0  0.28362980777E+02 -0.10775898227E+02  0.98050848749E+01  0.31886021241E+02  0.00000000000E+00 0.  1.
         11    1    3    3    0    0 -0.12117680564E+02  0.16229696134E+02 -0.80024438903E+01  0.21777978036E+02  0.51100000000E-03 0. -1.
        -11    1    3    3    0    0  0.35380790534E+01  0.81096112768E+01  0.76947814442E+01  0.11725760538E+02  0.51100000000E-03 0.  1.
         12    1    3    3    0    0 -0.19783379266E+02 -0.13563409184E+02 -0.94974224288E+01  0.25798240186E+02  0.00000000000E+00 0. -1.
</event>
<event>
 7    1  0.3755162E-013  0.5930196E+02  0.7816164E-02  0.1266605E+00
        -11   -1    0    0    0    0  0.00000000000E+00  0.00000000000E+00  0.45593999997E+02  0.45594000000E+02  0.51100000000E-03 0.  1.
         11   -1    0    0    0    0 -0.00000000000E+00 -0.00000000000E+00 -0.45593999997E+02  0.45594000000E+02  0.51100000000E-03 0. -1.
    9900012    2    1    2    0    0 -0.14535618888E+01 -0.13954207704E+02 -0.28633669555E+02  0.59301956235E+02  0.50000022263E+02 0.  0.
        -12    1    1    2    0    0  0.14535618888E+01  0.13954207704E+02  0.28633669555E+02  0.31886043765E+02  0.00000000000E+00 0.  1.
         11    1    3    3    0    0 -0.43303354319E+01  0.46739992716E+01 -0.17550856651E+02  0.18671653477E+02  0.51100000000E-03 0. -1.
        -11    1    3    3    0    0 -0.68288857600E+01  0.32010265096E+01  0.72926395232E+01  0.10491083972E+02  0.51100000000E-03 0.  1.
        -12    1    3    3    0    0  0.97056593031E+01 -0.21829233485E+02 -0.18375452428E+02  0.30139218785E+02  0.00000000000E+00 0.  1.
</event>
<event>
 7    1  0.3755162E-013  0.5930187E+02  0.7816164E-02  0.1266605E+00
        -11   -1    0    0    0    0  0.00000000000E+00  0.00000000000E+00  0.45593999997E+02  0.45594000000E+02  0.51100000000E-03 0. -1.
         11   -1    0    0    0    0 -0.00000000000E+00 -0.00000000000E+00 -0.45593999997E+02  0.45594000000E+02  0.51100000000E-03 0.  1.
    9900012    2    1    2    0    0  0.21946108460E+02 -0.12213541953E+02  0.19644928301E+02  0.59301866783E+02  0.49999859124E+02 0.  0.
        -12    1    1    2    0    0 -0.21946108460E+02  0.12213541953E+02 -0.19644928301E+02  0.31886133217E+02  0.00000000000E+00 0.  1.
         11    1    3    3    0    0  0.14656009080E+01 -0.55944530007E+00 -0.10489770648E+02  0.10606425108E+02  0.51100000000E-03 0. -1.
        -11    1    3    3    0    0 -0.16404820564E+01 -0.23200375089E+01 -0.52291395453E+01  0.59512734827E+01  0.51100000000E-03 0.  1.
         12    1    3    3    0    0  0.22120989608E+02 -0.93340591441E+01  0.35363838495E+02  0.42744168192E+02  0.00000000000E+00 0. -1.
</event>
<event>
 7    1  0.3755162E-013  0.5930194E+02  0.7816164E-02  0.1266605E+00
        -11   -1    0    0    0    0  0.00000000000E+00  0.00000000000E+00  0.45593999997E+02  0.45594000000E+02  0.51100000000E-03 0. -1.
         11   -1    0    0    0    0 -0.00000000000E+00 -0.00000000000E+00 -0.45593999997E+02  0.45594000000E+02  0.51100000000E-03 0.  1.
    9900012    2    1    2    0    0  0.27047116756E+02  0.15376168828E+02  0.69819782318E+01  0.59301935447E+02  0.49999984351E+02 0.  0.
        -12    1    1    2    0    0 -0.27047116756E+02 -0.15376168828E+02 -0.69819782318E+01  0.31886064553E+02  0.00000000000E+00 0.  1.
         11    1    3    3    0    0  0.22561870874E+01  0.67059481215E+01  0.13985722116E+01  0.72122205231E+01  0.51100000000E-03 0. -1.
        -11    1    3    3    0    0 -0.27436146154E+01  0.64253902915E+01  0.19817064704E+02  0.21012594207E+02  0.51100000000E-03 0.  1.
         12    1    3    3    0    0  0.27534544284E+02  0.22448304146E+01 -0.14233658684E+02  0.31077120717E+02  0.00000000000E+00 0. -1.
</event>
<event>
 7    1  0.3755162E-013  0.5930193E+02  0.7816164E-02  0.1266605E+00
        -11   -1    0    0    0    0  0.00000000000E+00  0.00000000000E+00  0.45593999997E+02  0.45594000000E+02  0.51100000000E-03 0.  1.
         11   -1    0    0    0    0 -0.00000000000E+00 -0.00000000000E+00 -0.45593999997E+02  0.45594000000E+02  0.51100000000E-03 0. -1.
    9900012    2    1    2    0    0  0.25455190721E+02 -0.12006782720E+02 -0.14986381901E+02  0.59301933946E+02  0.49999981613E+02 0.  0.
        -12    1    1    2    0    0 -0.25455190721E+02  0.12006782720E+02  0.14986381901E+02  0.31886066054E+02  0.00000000000E+00 0.  1.
         11    1    3    3    0    0  0.98257452726E+01 -0.13281491800E+02 -0.32978608421E+01  0.16846933875E+02  0.51100000000E-03 0. -1.
        -11    1    3    3    0    0  0.14624206563E+02 -0.15562760941E+02 -0.13843962752E+02  0.25450388025E+02  0.51100000000E-03 0.  1.
         12    1    3    3    0    0  0.10052388859E+01  0.16837470021E+02  0.21554416937E+01  0.17004612046E+02  0.00000000000E+00 0. -1.
</event>
<event>
 7    1  0.3755162E-013  0.5930197E+02  0.7816164E-02  0.1266605E+00
        -11   -1    0    0    0    0  0.00000000000E+00  0.00000000000E+00  0.45593999997E+02  0.45594000000E+02  0.51100000000E-03 0. -1.
         11   -1    0    0    0    0 -0.00000000000E+00 -0.00000000000E+00 -0.45593999997E+02  0.45594000000E+02  0.51100000000E-03 0.  1.
    9900012    2    1    2    0    0  0.21689441887E+02 -0.22903974116E+02  0.46577742761E+01  0.59301972011E+02  0.50000051034E+02 0.  0.
        -12    1    1    2    0    0 -0.21689441887E+02  0.22903974116E+02 -0.46577742761E+01  0.31886027989E+02  0.00000000000E+00 0.  1.
         11    1    3    3    0    0 -0.22095598723E+01 -0.25223321686E+02  0.16252478227E+02  0.30087225869E+02  0.51100000000E-03 0. -1.
        -11    1    3    3    0    0  0.79546613856E+01 -0.39415418687E+01 -0.68055658417E+00  0.89036816872E+01  0.51100000000E-03 0.  1.
        -12    1    3    3    0    0  0.15944340374E+02  0.62608894386E+01 -0.10914147367E+02  0.20311064454E+02  0.00000000000E+00 0.  1.
</event>
<event>
 7    1  0.3755162E-013  0.5930192E+02  0.7816164E-02  0.1266605E+00
        -11   -1    0    0    0    0  0.00000000000E+00  0.00000000000E+00  0.45593999997E+02  0.45594000000E+02  0.51100000000E-03 0. -1.
         11   -1    0    0    0    0 -0.00000000000E+00 -0.00000000000E+00 -0.45593999997E+02  0.45594000000E+02  0.51100000000E-03 0.  1.
    9900012    2    1    2    0    0 -0.13226844305E+01 -0.13204514850E+02  0.28993334680E+02  0.59301918987E+02  0.49999954331E+02 0.  0.
        -12    1    1    2    0    0  0.13226844305E+01  0.13204514850E+02 -0.28993334680E+02  0.31886081013E+02  0.00000000000E+00 0.  1.
         11    1    3    3    0    0  0.15784988384E+02 -0.23131242047E+01 -0.40472040963E+01  0.16458926548E+02  0.51100000000E-03 0. -1.
        -11    1    3    3    0    0  0.18575178667E+01 -0.35374696599E+01 -0.55364687232E-01  0.39958891038E+01  0.51100000000E-03 0.  1.
         12    1    3    3    0    0 -0.18965190681E+02 -0.73539209849E+01  0.33095903464E+02  0.38847103335E+02  0.00000000000E+00 0. -1.
</event>
<event>
 7    1  0.3755162E-013  0.5930196E+02  0.7816164E-02  0.1266605E+00
        -11   -1    0    0    0    0  0.00000000000E+00  0.00000000000E+00  0.45593999997E+02  0.45594000000E+02  0.51100000000E-03 0. -1.
         11   -1    0    0    0    0 -0.00000000000E+00 -0.00000000000E+00 -0.45593999997E+02  0.45594000000E+02  0.51100000000E-03 0.  1.
    9900012    2    1    2    0    0 -0.21145593583E+02 -0.12114273921E+01  0.23835177594E+02  0.59301962691E+02  0.50000034038E+02 0.  0.
        -12    1    1    2    0    0  0.21145593583E+02  0.12114273921E+01 -0.23835177594E+02  0.31886037309E+02  0.00000000000E+00 0.  1.
         11    1    3    3    0    0 -0.49007237724E+01 -0.11056107969E+02  0.43624703279E-01  0.12093656200E+02  0.51100000000E-03 0. -1.
        -11    1    3    3    0    0 -0.39589703521E+01 -0.78786948824E+01 -0.58282804815E+01  0.10569585277E+02  0.51100000000E-03 0.  1.
         12    1    3    3    0    0 -0.12285899459E+02  0.17723375459E+02  0.29619833372E+02  0.36638721214E+02  0.00000000000E+00 0. -1.
</event>
<event>
 7    1  0.3755162E-013  0.5930194E+02  0.7816164E-02  0.1266605E+00
        -11   -1    0    0    0    0  0.00000000000E+00  0.00000000000E+00  0.45593999997E+02  0.45594000000E+02  0.51100000000E-03 0.  1.
         11   -1    0    0    0    0 -0.00000000000E+00 -0.00000000000E+00 -0.45593999997E+02  0.45594000000E+02  0.51100000000E-03 0. -1.
    9900012    2    1    2    0    0  0.28626089388E+02  0.13877454999E+02 -0.21642742214E+01  0.59301939820E+02  0.49999992326E+02 0.  0.
        -12    1    1    2    0    0 -0.28626089388E+02 -0.13877454999E+02  0.21642742214E+01  0.31886060180E+02  0.00000000000E+00 0.  1.
         11    1    3    3    0    0  0.31891210732E+02  0.62194065802E+01 -0.12040411529E+02  0.34651145006E+02  0.51100000000E-03 0. -1.
        -11    1    3    3    0    0  0.79527757426E+01  0.36025440257E+01 -0.63258173476E+00  0.87535778618E+01  0.51100000000E-03 0.  1.
        -12    1    3    3    0    0 -0.11217897086E+02  0.40555043928E+01  0.10508719042E+02  0.15897216952E+02  0.00000000000E+00 0.  1.
</event>
<event>
 7    1  0.3755162E-013  0.5930195E+02  0.7816164E-02  0.1266605E+00
        -11   -1    0    0    0    0  0.00000000000E+00  0.00000000000E+00  0.45593999997E+02  0.45594000000E+02  0.51100000000E-03 0.  1.
         11   -1    0    0    0    0 -0.00000000000E+00 -0.00000000000E+00 -0.45593999997E+02  0.45594000000E+02  0.51100000000E-03 0. -1.
    9900012    2    1    2    0    0  0.47322555106E+01 -0.12407721048E+01 -0.31508514381E+02  0.59301949192E+02  0.50000009418E+02 0.  0.
        -12    1    1    2    0    0 -0.47322555106E+01  0.12407721048E+01  0.31508514381E+02  0.31886050808E+02  0.00000000000E+00 0.  1.
         11    1    3    3    0    0  0.11378324876E+02 -0.63106434687E+01 -0.72966871872E+01  0.14917511258E+02  0.51100000000E-03 0. -1.
        -11    1    3    3    0    0  0.11216767972E+02  0.11080473686E+02 -0.19273912543E+02  0.24901335021E+02  0.51100000000E-03 0.  1.
        -12    1    3    3    0    0 -0.17862837337E+02 -0.60106023222E+01 -0.49379146510E+01  0.19483102913E+02  0.00000000000E+00 0.  1.
</event>
<event>
 7    1  0.3755162E-013  0.5930196E+02  0.7816164E-02  0.1266605E+00
        -11   -1    0    0    0    0  0.00000000000E+00  0.00000000000E+00  0.45593999997E+02  0.45594000000E+02  0.51100000000E-03 0. -1.
         11   -1    0    0    0    0 -0.00000000000E+00 -0.00000000000E+00 -0.45593999997E+02  0.45594000000E+02  0.51100000000E-03 0.  1.
    9900012    2    1    2    0    0 -0.29802947601E+02  0.11321951412E+02  0.56341601005E+00  0.59301957488E+02  0.50000024549E+02 0.  0.
        -12    1    1    2    0    0  0.29802947601E+02 -0.11321951412E+02 -0.56341601005E+00  0.31886042512E+02  0.00000000000E+00 0.  1.
         11    1    3    3    0    0 -0.14985318590E+02 -0.55631600815E+01 -0.32053593317E+00  0.15987847475E+02  0.51100000000E-03 0. -1.
        -11    1    3    3    0    0  0.93966159706E+01 -0.29110287357E+01 -0.56757820643E+01  0.11357155555E+02  0.51100000000E-03 0.  1.
         12    1    3    3    0    0 -0.24214244981E+02  0.19796140229E+02  0.65597340075E+01  0.31956954458E+02  0.00000000000E+00 0. -1.
</event>
<event>
 7    1  0.3755162E-013  0.5930194E+02  0.7816164E-02  0.1266605E+00
        -11   -1    0    0    0    0  0.00000000000E+00  0.00000000000E+00  0.45593999997E+02  0.45594000000E+02  0.51100000000E-03 0.  1.
         11   -1    0    0    0    0 -0.00000000000E+00 -0.00000000000E+00 -0.45593999997E+02  0.45594000000E+02  0.51100000000E-03 0. -1.
    9900012    2    1    2    0    0  0.19928949339E+02 -0.23374199390E+02 -0.85559663728E+01  0.59301940672E+02  0.49999993879E+02 0.  0.
        -12    1    1    2    0    0 -0.19928949339E+02  0.23374199390E+02  0.85559663728E+01  0.31886059328E+02  0.00000000000E+00 0.  1.
         11    1    3    3    0    0  0.51703996595E+01  0.12370385097E+02 -0.36967206597E+01  0.13907738996E+02  0.51100000000E-03 0. -1.
        -11    1    3    3    0    0  0.35351464683E+01  0.29709397185E+01 -0.18431352675E+01  0.49720107843E+01  0.51100000000E-03 0.  1.
        -12    1    3    3    0    0  0.11223403212E+02 -0.38715524206E+02 -0.30161104456E+01  0.40422190891E+02  0.00000000000E+00 0.  1.
</event>
<event>
 7    1  0.3755162E-013  0.5930193E+02  0.7816164E-02  0.1266605E+00
        -11   -1    0    0    0    0  0.00000000000E+00  0.00000000000E+00  0.45593999997E+02  0.45594000000E+02  0.51100000000E-03 0.  1.
         11   -1    0    0    0    0 -0.00000000000E+00 -0.00000000000E+00 -0.45593999997E+02  0.45594000000E+02  0.51100000000E-03 0. -1.
    9900012    2    1    2    0    0 -0.13727474148E+02  0.94743848765E+01 -0.27175607445E+02  0.59301934779E+02  0.49999983132E+02 0.  0.
        -12    1    1    2    0    0  0.13727474148E+02 -0.94743848765E+01  0.27175607445E+02  0.31886065221E+02  0.00000000000E+00 0.  1.
         11    1    3    3    0    0 -0.11200264543E+02  0.11490340857E+02 -0.12906153344E+02  0.20592295969E+02  0.51100000000E-03 0. -1.
        -11    1    3    3    0    0 -0.71882535014E+01  0.26720039629E+01 -0.24975883230E+02  0.26126716918E+02  0.51100000000E-03 0.  1.
        -12    1    3    3    0    0  0.46610438966E+01 -0.46879599437E+01  0.10706429128E+02  0.12582921891E+02  0.00000000000E+00 0.  1.
</event>
<event>
 7    1  0.3755162E-013  0.5930192E+02  0.7816164E-02  0.1266605E+00
        -11   -1    0    0    0    0  0.00000000000E+00  0.00000000000E+00  0.45593999997E+02  0.45594000000E+02  0.51100000000E-03 0. -1.
         11   -1    0    0    0    0 -0.00000000000E+00 -0.00000000000E+00 -0.45593999997E+02  0.45594000000E+02  0.51100000000E-03 0.  1.
    9900012    2    1    2    0    0 -0.48846272704E+00 -0.19350184058E+02  0.25338786409E+02  0.59301916585E+02  0.49999949951E+02 0.  0.
        -12    1    1    2    0    0  0.48846272704E+00  0.19350184058E+02 -0.25338786409E+02  0.31886083415E+02  0.00000000000E+00 0.  1.
         11    1    3    3    0    0  0.38948719249E+01  0.15549830258E+01  0.10806353157E+02  0.11591603355E+02  0.51100000000E-03 0. -1.
        -11    1    3    3    0    0 -0.25281916409E+01  0.55318923031E+01  0.19779744174E+02  0.20693763922E+02  0.51100000000E-03 0.  1.
         12    1    3    3    0    0 -0.18551430110E+01 -0.26437059386E+02 -0.52473109219E+01  0.27016549308E+02  0.00000000000E+00 0. -1.
</event>
<event>
 7    1  0.3755162E-013  0.5930192E+02  0.7816164E-02  0.1266605E+00
        -11   -1    0    0    0    0  0.00000000000E+00  0.00000000000E+00  0.45593999997E+02  0.45594000000E+02  0.51100000000E-03 0.  1.
         11   -1    0    0    0    0 -0.00000000000E+00 -0.00000000000E+00 -0.45593999997E+02  0.45594000000E+02  0.51100000000E-03 0. -1.
    9900012    2    1    2    0    0 -0.59269337615E+01  0.10946861733E+02 -0.29355745656E+02  0.59301919516E+02  0.49999955297E+02 0.  0.
        -12    1    1    2    0    0  0.59269337615E+01 -0.10946861733E+02  0.29355745656E+02  0.31886080484E+02  0.00000000000E+00 0.  1.
         11    1    3    3    0    0  0.60260609548E+01  0.81118451478E+01 -0.26328915822E+02  0.28201546960E+02  0.51100000000E-03 0. -1.
        -11    1    3    3    0    0  0.34446744141E+01 -0.29161575556E+01 -0.11682438262E+02  0.12523941900E+02  0.51100000000E-03 0.  1.
        -12    1    3    3    0    0 -0.15397669130E+02  0.57511741413E+01  0.86556084283E+01  0.18576430656E+02  0.00000000000E+00 0.  1.
</event>
<event>
 7    1  0.3755162E-013  0.5930196E+02  0.7816164E-02  0.1266605E+00
        -11   -1    0    0    0    0  0.00000000000E+00  0.00000000000E+00  0.45593999997E+02  0.45594000000E+02  0.51100000000E-03 0.  1.
         11   -1    0    0    0    0 -0.00000000000E+00 -0.00000000000E+00 -0.45593999997E+02  0.45594000000E+02  0.51100000000E-03 0. -1.
    9900012    2    1    2    0    0  0.28762790009E+02 -0.13744470227E+02 -0.71497143696E+00  0.59301957049E+02  0.50000023747E+02 0.  0.
        -12    1    1    2    0    0 -0.28762790009E+02  0.13744470227E+02  0.71497143696E+00  0.31886042951E+02  0.00000000000E+00 0.  1.
         11    1    3    3    0    0  0.71575980483E+00 -0.76517485206E+01 -0.68581710875E+01  0.10300295066E+02  0.51100000000E-03 0. -1.
        -11    1    3    3    0    0  0.32631604510E+01 -0.12011585999E+02 -0.12336816427E+02  0.17524938064E+02  0.51100000000E-03 0.  1.
        -12    1    3    3    0    0  0.24783869753E+02  0.59188642922E+01  0.18480016077E+02  0.31476723919E+02  0.00000000000E+00 0.  1.
</event>
<event>
 7    1  0.3755162E-013  0.5930194E+02  0.7816164E-02  0.1266605E+00
        -11   -1    0    0    0    0  0.00000000000E+00  0.00000000000E+00  0.45593999997E+02  0.45594000000E+02  0.51100000000E-03 0.  1.
         11   -1    0    0    0    0 -0.00000000000E+00 -0.00000000000E+00 -0.45593999997E+02  0.45594000000E+02  0.51100000000E-03 0. -1.
    9900012    2    1    2    0    0 -0.24290012800E+02 -0.20655290110E+02 -0.27441425547E+00  0.59301936672E+02  0.49999986585E+02 0.  0.
        -12    1    1    2    0    0  0.24290012800E+02  0.20655290110E+02  0.27441425547E+00  0.31886063328E+02  0.00000000000E+00 0.  1.
         11    1    3    3    0    0  0.52332788696E+01  0.52010023581E+00  0.50213927132E+01  0.72713201707E+01  0.51100000000E-03 0. -1.
        -11    1    3    3    0    0 -0.31956336612E+00 -0.14971252483E+01 -0.15336106692E+02  0.15412322131E+02  0.51100000000E-03 0.  1.
         12    1    3    3    0    0 -0.29203728304E+02 -0.19678265097E+02  0.10040299723E+02  0.36618294371E+02  0.00000000000E+00 0. -1.
</event>
<event>
 7    1  0.3755162E-013  0.5930193E+02  0.7816164E-02  0.1266605E+00
        -11   -1    0    0    0    0  0.00000000000E+00  0.00000000000E+00  0.45593999997E+02  0.45594000000E+02  0.51100000000E-03 0.  1.
         11   -1    0    0    0    0 -0.00000000000E+00 -0.00000000000E+00 -0.45593999997E+02  0.45594000000E+02  0.51100000000E-03 0. -1.
    9900012    2    1    2    0    0  0.30480086239E+02  0.11525860065E+01 -0.92928754838E+01  0.59301927078E+02  0.49999969088E+02 0.  0.
        -12    1    1    2    0    0 -0.30480086239E+02 -0.11525860065E+01  0.92928754838E+01  0.31886072922E+02  0.00000000000E+00 0.  1.
         11    1    3    3    0    0  0.17016126392E+02  0.15175492681E+02 -0.11215369008E+02  0.25409223478E+02  0.51100000000E-03 0. -1.
        -11    1    3    3    0    0  0.87031284902E+01  0.76859662986E+01  0.47541392847E+00  0.11620866668E+02  0.51100000000E-03 0.  1.
        -12    1    3    3    0    0  0.47608313569E+01 -0.21708872973E+02  0.14470795961E+01  0.22271836932E+02  0.00000000000E+00 0.  1.
</event>
<event>
 7    1  0.3755162E-013  0.5930193E+02  0.7816164E-02  0.1266605E+00
        -11   -1    0    0    0    0  0.00000000000E+00  0.00000000000E+00  0.45593999997E+02  0.45594000000E+02  0.51100000000E-03 0.  1.
         11   -1    0    0    0    0 -0.00000000000E+00 -0.00000000000E+00 -0.45593999997E+02  0.45594000000E+02  0.51100000000E-03 0. -1.
    9900012    2    1    2    0    0  0.79551643440E+01  0.29311264791E+02 -0.97101221113E+01  0.59301931650E+02  0.49999977426E+02 0.  0.
        -12    1    1    2    0    0 -0.79551643440E+01 -0.29311264791E+02  0.97101221113E+01  0.31886068350E+02  0.00000000000E+00 0.  1.
         11    1    3    3    0    0 -0.24254550211E+01 -0.45938027870E+01 -0.66759779998E+01  0.84589915841E+01  0.51100000000E-03 0. -1.
        -11    1    3    3    0    0 -0.79230670620E+01  0.13469253426E+00  0.76069592788E+01  0.10984487402E+02  0.51100000000E-03 0.  1.
        -12    1    3    3    0    0  0.18303686427E+02  0.33770375044E+02 -0.10641103390E+02  0.39858452664E+02  0.00000000000E+00 0.  1.
</event>
<event>
 7    1  0.3755162E-013  0.5930194E+02  0.7816164E-02  0.1266605E+00
        -11   -1    0    0    0    0  0.00000000000E+00  0.00000000000E+00  0.45593999997E+02  0.45594000000E+02  0.51100000000E-03 0.  1.
         11   -1    0    0    0    0 -0.00000000000E+00 -0.00000000000E+00 -0.45593999997E+02  0.45594000000E+02  0.51100000000E-03 0. -1.
    9900012    2    1    2    0    0 -0.19745535128E+02 -0.39959844961E+01 -0.24715725588E+02  0.59301935004E+02  0.49999983542E+02 0.  0.
        -12    1    1    2    0    0  0.19745535128E+02  0.39959844961E+01  0.24715725588E+02  0.31886064996E+02  0.00000000000E+00 0.  1.
         11    1    3    3    0    0 -0.69276445671E+01 -0.46503890435E+01  0.37572155966E+01  0.91506855920E+01  0.51100000000E-03 0. -1.
        -11    1    3    3    0    0 -0.25992544111E+02  0.21714352670E+01 -0.11229040947E+02  0.28397514703E+02  0.51100000000E-03 0.  1.
        -12    1    3    3    0    0  0.13174653550E+02 -0.15170307196E+01 -0.17243900238E+02  0.21753734709E+02  0.00000000000E+00 0.  1.
</event>
<event>
 7    1  0.3755162E-013  0.5930196E+02  0.7816164E-02  0.1266605E+00
        -11   -1    0    0    0    0  0.00000000000E+00  0.00000000000E+00  0.45593999997E+02  0.45594000000E+02  0.51100000000E-03 0. -1.
         11   -1    0    0    0    0 -0.00000000000E+00 -0.00000000000E+00 -0.45593999997E+02  0.45594000000E+02  0.51100000000E-03 0.  1.
    9900012    2    1    2    0    0 -0.65344550874E+01  0.39051083570E+01  0.30964017458E+02  0.59301963061E+02  0.50000034712E+02 0.  0.
        -12    1    1    2    0    0  0.65344550874E+01 -0.39051083570E+01 -0.30964017458E+02  0.31886036939E+02  0.00000000000E+00 0.  1.
         11    1    3    3    0    0 -0.63645801975E+00  0.10191888724E+02  0.23425331909E+02  0.25554370466E+02  0.51100000000E-03 0. -1.
        -11    1    3    3    0    0 -0.96910958084E-01  0.85112524487E+01  0.14166213785E+02  0.16526718465E+02  0.51100000000E-03 0.  1.
        -12    1    3    3    0    0 -0.58010861096E+01 -0.14798032816E+02 -0.66275282364E+01  0.17220874130E+02  0.00000000000E+00 0.  1.
</event>
<event>
 7    1  0.3755162E-013  0.5930197E+02  0.7816164E-02  0.1266605E+00
        -11   -1    0    0    0    0  0.00000000000E+00  0.00000000000E+00  0.45593999997E+02  0.45594000000E+02  0.51100000000E-03 0. -1.
         11   -1    0    0    0    0 -0.00000000000E+00 -0.00000000000E+00 -0.45593999997E+02  0.45594000000E+02  0.51100000000E-03 0.  1.
    9900012    2    1    2    0    0  0.92098130978E+01  0.25321842806E+02  0.17050005067E+02  0.59301967742E+02  0.50000043249E+02 0.  0.
        -12    1    1    2    0    0 -0.92098130978E+01 -0.25321842806E+02 -0.17050005067E+02  0.31886032258E+02  0.00000000000E+00 0.  1.
         11    1    3    3    0    0  0.16822121077E+02  0.31559077643E+02  0.16184084973E+02  0.39254092091E+02  0.51100000000E-03 0. -1.
        -11    1    3    3    0    0 -0.31523713285E+01  0.38145948708E+01 -0.54539465049E+01  0.73643812884E+01  0.51100000000E-03 0.  1.
        -12    1    3    3    0    0 -0.44599366512E+01 -0.10051829708E+02  0.63198665988E+01  0.12683494363E+02  0.00000000000E+00 0.  1.
</event>
<event>
 7    1  0.3755162E-013  0.5930188E+02  0.7816164E-02  0.1266605E+00
        -11   -1    0    0    0    0  0.00000000000E+00  0.00000000000E+00  0.45593999997E+02  0.45594000000E+02  0.51100000000E-03 0.  1.
         11   -1    0    0    0    0 -0.00000000000E+00 -0.00000000000E+00 -0.45593999997E+02  0.45594000000E+02  0.51100000000E-03 0. -1.
    9900012    2    1    2    0    0 -0.23168945361E+02  0.20287289986E+02 -0.82674264905E+01  0.59301882254E+02  0.49999887340E+02 0.  0.
        -12    1    1    2    0    0  0.23168945361E+02 -0.20287289986E+02  0.82674264905E+01  0.31886117746E+02  0.00000000000E+00 0.  1.
         11    1    3    3    0    0 -0.19517148475E+01  0.11648389129E+02  0.86008098458E+00  0.11842039508E+02  0.51100000000E-03 0. -1.
        -11    1    3    3    0    0 -0.37916261777E+01 -0.10213442000E+02 -0.17363958872E+02  0.20498729096E+02  0.51100000000E-03 0.  1.
         12    1    3    3    0    0 -0.17425604336E+02  0.18852342857E+02  0.82364513972E+01  0.26961113651E+02  0.00000000000E+00 0. -1.
</event>
<event>
 7    1  0.3755162E-013  0.5930195E+02  0.7816164E-02  0.1266605E+00
        -11   -1    0    0    0    0  0.00000000000E+00  0.00000000000E+00  0.45593999997E+02  0.45594000000E+02  0.51100000000E-03 0.  1.
         11   -1    0    0    0    0 -0.00000000000E+00 -0.00000000000E+00 -0.45593999997E+02  0.45594000000E+02  0.51100000000E-03 0. -1.
    9900012    2    1    2    0    0 -0.28546884853E+02  0.11702758386E+02 -0.80524073943E+01  0.59301945783E+02  0.50000003202E+02 0.  0.
        -12    1    1    2    0    0  0.28546884853E+02 -0.11702758386E+02  0.80524073943E+01  0.31886054217E+02  0.00000000000E+00 0.  1.
         11    1    3    3    0    0  0.24543196493E+01  0.66297929172E+01 -0.31810983466E+01  0.77522400645E+01  0.51100000000E-03 0. -1.
        -11    1    3    3    0    0 -0.99006247582E-01 -0.10251042522E+02 -0.12557525072E+02  0.16210648082E+02  0.51100000000E-03 0.  1.
        -12    1    3    3    0    0 -0.30902198255E+02  0.15324007992E+02  0.76862160242E+01  0.35339057637E+02  0.00000000000E+00 0.  1.
</event>
<event>
 7    1  0.3755162E-013  0.5930194E+02  0.7816164E-02  0.1266605E+00
        -11   -1    0    0    0    0  0.00000000000E+00  0.00000000000E+00  0.45593999997E+02  0.45594000000E+02  0.51100000000E-03 0.  1.
         11   -1    0    0    0    0 -0.00000000000E+00 -0.00000000000E+00 -0.45593999997E+02  0.45594000000E+02  0.51100000000E-03 0. -1.
    9900012    2    1    2    0    0 -0.27506606257E+02  0.21144802327E+01 -0.15988631575E+02  0.59301941071E+02  0.49999994607E+02 0.  0.
        -12    1    1    2    0    0  0.27506606257E+02 -0.21144802327E+01  0.15988631575E+02  0.31886058929E+02  0.00000000000E+00 0.  1.
         11    1    3    3    0    0 -0.18587074357E+02 -0.47802072623E+01  0.24017856795E+01  0.19341620649E+02  0.51100000000E-03 0. -1.
        -11    1    3    3    0    0  0.94957067548E+01 -0.43441248716E+01  0.15813592159E+01  0.10561276670E+02  0.51100000000E-03 0.  1.
         12    1    3    3    0    0 -0.18415238655E+02  0.11238812367E+02 -0.19971776470E+02  0.29399043751E+02  0.00000000000E+00 0. -1.
</event>
<event>
 7    1  0.3755162E-013  0.5930188E+02  0.7816164E-02  0.1266605E+00
        -11   -1    0    0    0    0  0.00000000000E+00  0.00000000000E+00  0.45593999997E+02  0.45594000000E+02  0.51100000000E-03 0.  1.
         11   -1    0    0    0    0 -0.00000000000E+00 -0.00000000000E+00 -0.45593999997E+02  0.45594000000E+02  0.51100000000E-03 0. -1.
    9900012    2    1    2    0    0 -0.20321636742E+02  0.19470241012E+02 -0.14988849676E+02  0.59301877320E+02  0.49999878342E+02 0.  0.
        -12    1    1    2    0    0  0.20321636742E+02 -0.19470241012E+02  0.14988849676E+02  0.31886122680E+02  0.00000000000E+00 0.  1.
         11    1    3    3    0    0 -0.22847879678E+02  0.22323978545E+01  0.14405948602E+01  0.23001837313E+02  0.51100000000E-03 0. -1.
        -11    1    3    3    0    0 -0.54704458272E+01  0.42275132963E+01 -0.19529538538E+02  0.20717155258E+02  0.51100000000E-03 0.  1.
        -12    1    3    3    0    0  0.79966887638E+01  0.13010329861E+02  0.31000940019E+01  0.15582884749E+02  0.00000000000E+00 0.  1.
</event>
<event>
 7    1  0.3755162E-013  0.5930195E+02  0.7816164E-02  0.1266605E+00
        -11   -1    0    0    0    0  0.00000000000E+00  0.00000000000E+00  0.45593999997E+02  0.45594000000E+02  0.51100000000E-03 0. -1.
         11   -1    0    0    0    0 -0.00000000000E+00 -0.00000000000E+00 -0.45593999997E+02  0.45594000000E+02  0.51100000000E-03 0.  1.
    9900012    2    1    2    0    0  0.31867542196E+02  0.26888925280E+00  0.10522988950E+01  0.59301954776E+02  0.50000019602E+02 0.  0.
        -12    1    1    2    0    0 -0.31867542196E+02 -0.26888925280E+00 -0.10522988950E+01  0.31886045224E+02  0.00000000000E+00 0.  1.
         11    1    3    3    0    0  0.54648060108E+01  0.13415474155E+02 -0.73265588503E+00  0.14504338539E+02  0.51100000000E-03 0. -1.
        -11    1    3    3    0    0 -0.11799508752E+01  0.14023074760E+01 -0.10957829347E+02  0.11110030360E+02  0.51100000000E-03 0.  1.
         12    1    3    3    0    0  0.27582687061E+02 -0.14548892378E+02  0.12742784127E+02  0.33687585877E+02  0.00000000000E+00 0. -1.
</event>
<event>
 7    1  0.3755162E-013  0.5930195E+02  0.7816164E-02  0.1266605E+00
        -11   -1    0    0    0    0  0.00000000000E+00  0.00000000000E+00  0.45593999997E+02  0.45594000000E+02  0.51100000000E-03 0.  1.
         11   -1    0    0    0    0 -0.00000000000E+00 -0.00000000000E+00 -0.45593999997E+02  0.45594000000E+02  0.51100000000E-03 0. -1.
    9900012    2    1    2    0    0 -0.16529642975E+02 -0.19978784716E+02 -0.18556371738E+02  0.59301954970E+02  0.50000019956E+02 0.  0.
        -12    1    1    2    0    0  0.16529642975E+02  0.19978784716E+02  0.18556371738E+02  0.31886045030E+02  0.00000000000E+00 0.  1.
         11    1    3    3    0    0 -0.73373859190E+00 -0.20707215664E+02 -0.97590595746E+01  0.22903414525E+02  0.51100000000E-03 0. -1.
        -11    1    3    3    0    0  0.86544245627E+01  0.24184764915E+01  0.26211706234E+01  0.93604822925E+01  0.51100000000E-03 0.  1.
        -12    1    3    3    0    0 -0.24450328946E+02 -0.16900455434E+01 -0.11418482787E+02  0.27038058152E+02  0.00000000000E+00 0.  1.
</event>
<event>
 7    1  0.3755162E-013  0.5930192E+02  0.7816164E-02  0.1266605E+00
        -11   -1    0    0    0    0  0.00000000000E+00  0.00000000000E+00  0.45593999997E+02  0.45594000000E+02  0.51100000000E-03 0. -1.
         11   -1    0    0    0    0 -0.00000000000E+00 -0.00000000000E+00 -0.45593999997E+02  0.45594000000E+02  0.51100000000E-03 0.  1.
    9900012    2    1    2    0    0  0.93285564814E+01 -0.22427021136E+02  0.20657420579E+02  0.59301917330E+02  0.49999951310E+02 0.  0.
        -12    1    1    2    0    0 -0.93285564814E+01  0.22427021136E+02 -0.20657420579E+02  0.31886082670E+02  0.00000000000E+00 0.  1.
         11    1    3    3    0    0 -0.49393574901E+01 -0.10326953288E+02  0.59514176603E+01  0.12902038175E+02  0.51100000000E-03 0. -1.
        -11    1    3    3    0    0 -0.56750107761E+01 -0.20464396642E+02  0.20319379065E+01  0.21333683441E+02  0.51100000000E-03 0.  1.
        -12    1    3    3    0    0  0.19942924748E+02  0.83643287940E+01  0.12674065012E+02  0.25066195714E+02  0.00000000000E+00 0.  1.
</event>
<event>
 7    1  0.3755162E-013  0.5930187E+02  0.7816164E-02  0.1266605E+00
        -11   -1    0    0    0    0  0.00000000000E+00  0.00000000000E+00  0.45593999997E+02  0.45594000000E+02  0.51100000000E-03 0.  1.
         11   -1    0    0    0    0 -0.00000000000E+00 -0.00000000000E+00 -0.45593999997E+02  0.45594000000E+02  0.51100000000E-03 0. -1.
    9900012    2    1    2    0    0  0.28895964759E+02  0.85601888254E+01 -0.10414959233E+02  0.59301874680E+02  0.49999873526E+02 0.  0.
        -12    1    1    2    0    0 -0.28895964759E+02 -0.85601888254E+01  0.10414959233E+02  0.31886125320E+02  0.00000000000E+00 0.  1.
         11    1    3    3    0    0  0.23068310473E+00  0.24204790072E+01  0.28221421080E+01  0.37251066640E+01  0.51100000000E-03 0. -1.
        -11    1    3    3    0    0  0.49481195131E+01 -0.94145422623E+01  0.13098517820E+02  0.16872719462E+02  0.51100000000E-03 0.  1.
         12    1    3    3    0    0  0.23717162142E+02  0.15554252080E+02 -0.26335619161E+02  0.38704048553E+02  0.00000000000E+00 0. -1.
</event>
<event>
 7    1  0.3755162E-013  0.5930197E+02  0.7816164E-02  0.1266605E+00
        -11   -1    0    0    0    0  0.00000000000E+00  0.00000000000E+00  0.45593999997E+02  0.45594000000E+02  0.51100000000E-03 0. -1.
         11   -1    0    0    0    0 -0.00000000000E+00 -0.00000000000E+00 -0.45593999997E+02  0.45594000000E+02  0.51100000000E-03 0.  1.
    9900012    2    1    2    0    0 -0.12113170205E+02  0.26286738821E+02  0.13378999948E+02  0.59301965912E+02  0.50000039911E+02 0.  0.
        -12    1    1    2    0    0  0.12113170205E+02 -0.26286738821E+02 -0.13378999948E+02  0.31886034088E+02  0.00000000000E+00 0.  1.
         11    1    3    3    0    0 -0.12192345847E+02  0.10940831609E+02 -0.38060228655E+01  0.16817874535E+02  0.51100000000E-03 0. -1.
        -11    1    3    3    0    0 -0.55125973982E+01 -0.68146412454E+01 -0.54467044593E+01  0.10319624756E+02  0.51100000000E-03 0.  1.
         12    1    3    3    0    0  0.55917730399E+01  0.22160548458E+02  0.22631727273E+02  0.32164466621E+02  0.00000000000E+00 0. -1.
</event>
<event>
 7    1  0.3755162E-013  0.5930195E+02  0.7816164E-02  0.1266605E+00
        -11   -1    0    0    0    0  0.00000000000E+00  0.00000000000E+00  0.45593999997E+02  0.45594000000E+02  0.51100000000E-03 0. -1.
         11   -1    0    0    0    0 -0.00000000000E+00 -0.00000000000E+00 -0.45593999997E+02  0.45594000000E+02  0.51100000000E-03 0.  1.
    9900012    2    1    2    0    0  0.16316434280E+02 -0.24222142177E+02  0.12797737703E+02  0.59301948354E+02  0.50000007890E+02 0.  0.
        -12    1    1    2    0    0 -0.16316434280E+02  0.24222142177E+02 -0.12797737703E+02  0.31886051646E+02  0.00000000000E+00 0.  1.
         11    1    3    3    0    0 -0.28246795895E+01 -0.10025783899E+02  0.18253033265E+01  0.10574823406E+02  0.51100000000E-03 0. -1.
        -11    1    3    3    0    0 -0.92635088484E+01  0.91193940698E+00  0.13563427880E+02  0.16450252454E+02  0.51100000000E-03 0.  1.
         12    1    3    3    0    0  0.28404622718E+02 -0.15108297685E+02 -0.25909935034E+01  0.32276872494E+02  0.00000000000E+00 0. -1.
</event>
<event>
 7    1  0.3755162E-013  0.5930193E+02  0.7816164E-02  0.1266605E+00
        -11   -1    0    0    0    0  0.00000000000E+00  0.00000000000E+00  0.45593999997E+02  0.45594000000E+02  0.51100000000E-03 0.  1.
         11   -1    0    0    0    0 -0.00000000000E+00 -0.00000000000E+00 -0.45593999997E+02  0.45594000000E+02  0.51100000000E-03 0. -1.
    9900012    2    1    2    0    0 -0.50303246175E+01  0.12134340766E+02 -0.29054687987E+02  0.59301932735E+02  0.49999979405E+02 0.  0.
        -12    1    1    2    0    0  0.50303246175E+01 -0.12134340766E+02  0.29054687987E+02  0.31886067265E+02  0.00000000000E+00 0.  1.
         11    1    3    3    0    0 -0.53089705512E+01 -0.80335626218E+00 -0.20517965147E+02  0.21208900104E+02  0.51100000000E-03 0. -1.
        -11    1    3    3    0    0 -0.50491539223E+01 -0.11261321129E+02 -0.25706071536E+01  0.12606321045E+02  0.51100000000E-03 0.  1.
         12    1    3    3    0    0  0.53277998560E+01  0.24199018157E+02 -0.59661156869E+01  0.25486711586E+02  0.00000000000E+00 0. -1.
</event>
<event>
 7    1  0.3755162E-013  0.5930192E+02  0.7816164E-02  0.1266605E+00
        -11   -1    0    0    0    0  0.00000000000E+00  0.00000000000E+00  0.45593999997E+02  0.45594000000E+02  0.51100000000E-03 0.  1.
         11   -1    0    0    0    0 -0.00000000000E+00 -0.00000000000E+00 -0.45593999997E+02  0.45594000000E+02  0.51100000000E-03 0. -1.
    9900012    2    1    2    0    0 -0.14313155004E+02 -0.38146233293E+01  0.28236581051E+02  0.59301917350E+02  0.49999951346E+02 0.  0.
        -12    1    1    2    0    0  0.14313155004E+02  0.38146233293E+01 -0.28236581051E+02  0.31886082650E+02  0.00000000000E+00 0.  1.
         11    1    3    3    0    0 -0.50246180704E+01 -0.11352231196E+02 -0.43837698460E+01  0.13165765386E+02  0.51100000000E-03 0. -1.
        -11    1    3    3    0    0  0.66516149866E+01 -0.77431710069E+01  0.73568385477E+01  0.12582676697E+02  0.51100000000E-03 0.  1.
        -12    1    3    3    0    0 -0.15940151920E+02  0.15280778874E+02  0.25263512350E+02  0.33553475267E+02  0.00000000000E+00 0.  1.
</event>
<event>
 7    1  0.3755162E-013  0.5930195E+02  0.7816164E-02  0.1266605E+00
        -11   -1    0    0    0    0  0.00000000000E+00  0.00000000000E+00  0.45593999997E+02  0.45594000000E+02  0.51100000000E-03 0. -1.
         11   -1    0    0    0    0 -0.00000000000E+00 -0.00000000000E+00 -0.45593999997E+02  0.45594000000E+02  0.51100000000E-03 0.  1.
    9900012    2    1    2    0    0 -0.19413485431E+02  0.57658643928E+01  0.24629078995E+02  0.59301950685E+02  0.50000012141E+02 0.  0.
        -12    1    1    2    0    0  0.19413485431E+02 -0.57658643928E+01 -0.24629078995E+02  0.31886049315E+02  0.00000000000E+00 0.  1.
         11    1    3    3    0    0 -0.15292904374E+02 -0.79813323889E+01  0.10763971066E+02  0.20333166607E+02  0.51100000000E-03 0. -1.
        -11    1    3    3    0    0  0.88424232239E+01 -0.19706429518E+01 -0.57151695862E+01  0.10711444617E+02  0.51100000000E-03 0.  1.
         12    1    3    3    0    0 -0.12963004281E+02  0.15717839733E+02  0.19580277515E+02  0.28257339461E+02  0.00000000000E+00 0. -1.
</event>
<event>
 7    1  0.3755162E-013  0.5930193E+02  0.7816164E-02  0.1266605E+00
        -11   -1    0    0    0    0  0.00000000000E+00  0.00000000000E+00  0.45593999997E+02  0.45594000000E+02  0.51100000000E-03 0. -1.
         11   -1    0    0    0    0 -0.00000000000E+00 -0.00000000000E+00 -0.45593999997E+02  0.45594000000E+02  0.51100000000E-03 0.  1.
    9900012    2    1    2    0    0 -0.21769556525E+02  0.22527425656E+02 -0.59433192405E+01  0.59301928721E+02  0.49999972084E+02 0.  0.
        -12    1    1    2    0    0  0.21769556525E+02 -0.22527425656E+02  0.59433192405E+01  0.31886071279E+02  0.00000000000E+00 0.  1.
         11    1    3    3    0    0 -0.78933678849E+01 -0.86278792797E+01  0.81065202144E+01  0.14228887085E+02  0.51100000000E-03 0. -1.
        -11    1    3    3    0    0 -0.17218052951E+02  0.23356981215E+02 -0.42256149490E+00  0.29020483755E+02  0.51100000000E-03 0.  1.
         12    1    3    3    0    0  0.33418643104E+01  0.77983237206E+01 -0.13627277960E+02  0.16052557881E+02  0.00000000000E+00 0. -1.
</event>
<event>
 7    1  0.3755162E-013  0.5930194E+02  0.7816164E-02  0.1266605E+00
        -11   -1    0    0    0    0  0.00000000000E+00  0.00000000000E+00  0.45593999997E+02  0.45594000000E+02  0.51100000000E-03 0. -1.
         11   -1    0    0    0    0 -0.00000000000E+00 -0.00000000000E+00 -0.45593999997E+02  0.45594000000E+02  0.51100000000E-03 0.  1.
    9900012    2    1    2    0    0 -0.30881458509E+02  0.68407880648E+01 -0.40323826770E+01  0.59301937668E+02  0.49999988402E+02 0.  0.
        -12    1    1    2    0    0  0.30881458509E+02 -0.68407880648E+01  0.40323826770E+01  0.31886062332E+02  0.00000000000E+00 0.  1.
         11    1    3    3    0    0 -0.31037210811E+02 -0.13611864778E+01  0.82777517752E+01  0.32150932463E+02  0.51100000000E-03 0. -1.
        -11    1    3    3    0    0 -0.20529751693E+01  0.93621013261E+01  0.41921098061E+01  0.10461234782E+02  0.51100000000E-03 0.  1.
        -12    1    3    3    0    0  0.22087274712E+01 -0.11601267835E+01 -0.16502244258E+02  0.16689770423E+02  0.00000000000E+00 0.  1.
</event>
<event>
 7    1  0.3755162E-013  0.5930194E+02  0.7816164E-02  0.1266605E+00
        -11   -1    0    0    0    0  0.00000000000E+00  0.00000000000E+00  0.45593999997E+02  0.45594000000E+02  0.51100000000E-03 0.  1.
         11   -1    0    0    0    0 -0.00000000000E+00 -0.00000000000E+00 -0.45593999997E+02  0.45594000000E+02  0.51100000000E-03 0. -1.
    9900012    2    1    2    0    0  0.24174554511E+02 -0.20737763652E+02 -0.15023722830E+01  0.59301936437E+02  0.49999986156E+02 0.  0.
        -12    1    1    2    0    0 -0.24174554511E+02  0.20737763652E+02  0.15023722830E+01  0.31886063563E+02  0.00000000000E+00 0.  1.
         11    1    3    3    0    0  0.10274645985E+02 -0.29523898617E+01 -0.14042124311E+02  0.17648405351E+02  0.51100000000E-03 0. -1.
        -11    1    3    3    0    0  0.46490752199E+01 -0.22342522152E+02 -0.29853740302E+01  0.23015530732E+02  0.51100000000E-03 0.  1.
        -12    1    3    3    0    0  0.92508333059E+01  0.45571483622E+01  0.15525126058E+02  0.18638000353E+02  0.00000000000E+00 0.  1.
</event>
<event>
 7    1  0.3755162E-013  0.5930190E+02  0.7816164E-02  0.1266605E+00
        -11   -1    0    0    0    0  0.00000000000E+00  0.00000000000E+00  0.45593999997E+02  0.45594000000E+02  0.51100000000E-03 0.  1.
         11   -1    0    0    0    0 -0.00000000000E+00 -0.00000000000E+00 -0.45593999997E+02  0.45594000000E+02  0.51100000000E-03 0. -1.
    9900012    2    1    2    0    0  0.18358080125E+02  0.19930506530E+02 -0.16807119237E+02  0.59301898742E+02  0.49999917409E+02 0.  0.
        -12    1    1    2    0    0 -0.18358080125E+02 -0.19930506530E+02  0.16807119237E+02  0.31886101258E+02  0.00000000000E+00 0.  1.
         11    1    3    3    0    0  0.45908298249E+01 -0.12104165317E+02 -0.91795671147E+01  0.15869813773E+02  0.51100000000E-03 0. -1.
        -11    1    3    3    0    0 -0.12049924501E+01 -0.33839479092E+01 -0.30407719146E+01  0.47063153692E+01  0.51100000000E-03 0.  1.
         12    1    3    3    0    0  0.14972242750E+02  0.35418619756E+02 -0.45867802072E+01  0.38725769600E+02  0.00000000000E+00 0. -1.
</event>
<event>
 7    1  0.3755162E-013  0.5930195E+02  0.7816164E-02  0.1266605E+00
        -11   -1    0    0    0    0  0.00000000000E+00  0.00000000000E+00  0.45593999997E+02  0.45594000000E+02  0.51100000000E-03 0.  1.
         11   -1    0    0    0    0 -0.00000000000E+00 -0.00000000000E+00 -0.45593999997E+02  0.45594000000E+02  0.51100000000E-03 0. -1.
    9900012    2    1    2    0    0  0.30647878475E+02 -0.86026162754E+01  0.18501204735E+01  0.59301946504E+02  0.50000004515E+02 0.  0.
        -12    1    1    2    0    0 -0.30647878475E+02  0.86026162754E+01 -0.18501204735E+01  0.31886053496E+02  0.00000000000E+00 0.  1.
         11    1    3    3    0    0  0.32541133666E+01  0.42547302541E+01  0.42396247117E+01  0.68312810874E+01  0.51100000000E-03 0. -1.
        -11    1    3    3    0    0  0.10804347041E+02  0.18524839965E+01  0.18825244000E+02  0.21784293054E+02  0.51100000000E-03 0.  1.
         12    1    3    3    0    0  0.16589418068E+02 -0.14709830526E+02 -0.21214748238E+02  0.30686372362E+02  0.00000000000E+00 0. -1.
</event>
<event>
 7    1  0.3755162E-013  0.5930193E+02  0.7816164E-02  0.1266605E+00
        -11   -1    0    0    0    0  0.00000000000E+00  0.00000000000E+00  0.45593999997E+02  0.45594000000E+02  0.51100000000E-03 0.  1.
         11   -1    0    0    0    0 -0.00000000000E+00 -0.00000000000E+00 -0.45593999997E+02  0.45594000000E+02  0.51100000000E-03 0. -1.
    9900012    2    1    2    0    0  0.29878901714E+02  0.38685141790E+01 -0.10440661422E+02  0.59301928111E+02  0.49999970971E+02 0.  0.
        -12    1    1    2    0    0 -0.29878901714E+02 -0.38685141790E+01  0.10440661422E+02  0.31886071889E+02  0.00000000000E+00 0.  1.
         11    1    3    3    0    0  0.23986337178E+02  0.11879840098E+02  0.57671839365E+01  0.27381296222E+02  0.51100000000E-03 0. -1.
        -11    1    3    3    0    0 -0.61404207594E+01  0.53663631380E+01 -0.73218990973E+00  0.81877177990E+01  0.51100000000E-03 0.  1.
         12    1    3    3    0    0  0.12032985295E+02 -0.13377689057E+02 -0.15475655449E+02  0.23732914090E+02  0.00000000000E+00 0. -1.
</event>
<event>
 7    1  0.3755162E-013  0.5930191E+02  0.7816164E-02  0.1266605E+00
        -11   -1    0    0    0    0  0.00000000000E+00  0.00000000000E+00  0.45593999997E+02  0.45594000000E+02  0.51100000000E-03 0.  1.
         11   -1    0    0    0    0 -0.00000000000E+00 -0.00000000000E+00 -0.45593999997E+02  0.45594000000E+02  0.51100000000E-03 0. -1.
    9900012    2    1    2    0    0 -0.10058417238E+01 -0.17461005039E+02 -0.26661285869E+02  0.59301912458E+02  0.49999942424E+02 0.  0.
        -12    1    1    2    0    0  0.10058417238E+01  0.17461005039E+02  0.26661285869E+02  0.31886087542E+02  0.00000000000E+00 0.  1.
         11    1    3    3    0    0  0.31452159588E+01 -0.76915547393E+01  0.42163643499E+01  0.93182684190E+01  0.51100000000E-03 0. -1.
        -11    1    3    3    0    0  0.86903331587E+01 -0.11139176171E+02  0.23613026614E+01  0.14324066696E+02  0.51100000000E-03 0.  1.
         12    1    3    3    0    0 -0.12841390841E+02  0.13697258715E+01 -0.33238952880E+02  0.35659577343E+02  0.00000000000E+00 0. -1.
</event>
<event>
 7    1  0.3755162E-013  0.5930194E+02  0.7816164E-02  0.1266605E+00
        -11   -1    0    0    0    0  0.00000000000E+00  0.00000000000E+00  0.45593999997E+02  0.45594000000E+02  0.51100000000E-03 0.  1.
         11   -1    0    0    0    0 -0.00000000000E+00 -0.00000000000E+00 -0.45593999997E+02  0.45594000000E+02  0.51100000000E-03 0. -1.
    9900012    2    1    2    0    0  0.16428763277E+02  0.15493187935E+02 -0.22511718321E+02  0.59301943535E+02  0.49999999101E+02 0.  0.
        -12    1    1    2    0    0 -0.16428763277E+02 -0.15493187935E+02  0.22511718321E+02  0.31886056465E+02  0.00000000000E+00 0.  1.
         11    1    3    3    0    0  0.23591040985E+02  0.23025290861E+01 -0.23641200882E+01  0.23820745559E+02  0.51100000000E-03 0. -1.
        -11    1    3    3    0    0 -0.66491956061E+01 -0.16717961490E+01  0.33828534748E+01  0.76452862906E+01  0.51100000000E-03 0.  1.
         12    1    3    3    0    0 -0.51308210196E+00  0.14862454998E+02 -0.23530451707E+02  0.27835911685E+02  0.00000000000E+00 0. -1.
</event>
<event>
 7    1  0.3755162E-013  0.5930195E+02  0.7816164E-02  0.1266605E+00
        -11   -1    0    0    0    0  0.00000000000E+00  0.00000000000E+00  0.45593999997E+02  0.45594000000E+02  0.51100000000E-03 0.  1.
         11   -1    0    0    0    0 -0.00000000000E+00 -0.00000000000E+00 -0.45593999997E+02  0.45594000000E+02  0.51100000000E-03 0. -1.
    9900012    2    1    2    0    0  0.24161942827E+02  0.83188102239E+00 -0.20790117738E+02  0.59301945011E+02  0.50000001793E+02 0.  0.
        -12    1    1    2    0    0 -0.24161942827E+02 -0.83188102239E+00  0.20790117738E+02  0.31886054989E+02  0.00000000000E+00 0.  1.
         11    1    3    3    0    0  0.75973677241E+01 -0.33450528528E+01 -0.56199831967E+01  0.10024648937E+02  0.51100000000E-03 0. -1.
        -11    1    3    3    0    0  0.51380091687E+01  0.12080838136E+02 -0.27645673754E+02  0.30604396185E+02  0.51100000000E-03 0.  1.
        -12    1    3    3    0    0  0.11426565934E+02 -0.79039042606E+01  0.12475539212E+02  0.18672899888E+02  0.00000000000E+00 0.  1.
</event>
<event>
 7    1  0.3755162E-013  0.5930195E+02  0.7816164E-02  0.1266605E+00
        -11   -1    0    0    0    0  0.00000000000E+00  0.00000000000E+00  0.45593999997E+02  0.45594000000E+02  0.51100000000E-03 0.  1.
         11   -1    0    0    0    0 -0.00000000000E+00 -0.00000000000E+00 -0.45593999997E+02  0.45594000000E+02  0.51100000000E-03 0. -1.
    9900012    2    1    2    0    0  0.31102683894E+02  0.53003298150E+01 -0.46097290242E+01  0.59301952217E+02  0.50000014936E+02 0.  0.
        -12    1    1    2    0    0 -0.31102683894E+02 -0.53003298150E+01  0.46097290242E+01  0.31886047783E+02  0.00000000000E+00 0.  1.
         11    1    3    3    0    0  0.12510082772E+02 -0.61365110890E+01 -0.19969438051E+02  0.24350305863E+02  0.51100000000E-03 0. -1.
        -11    1    3    3    0    0  0.52224149965E+00 -0.41724699765E+01  0.94637375460E+01  0.10355895446E+02  0.51100000000E-03 0.  1.
        -12    1    3    3    0    0  0.18070359622E+02  0.15609310881E+02  0.58959714805E+01  0.24595750908E+02  0.00000000000E+00 0.  1.
</event>
<event>
 7    1  0.3755162E-013  0.5930200E+02  0.7816164E-02  0.1266605E+00
        -11   -1    0    0    0    0  0.00000000000E+00  0.00000000000E+00  0.45593999997E+02  0.45594000000E+02  0.51100000000E-03 0.  1.
         11   -1    0    0    0    0 -0.00000000000E+00 -0.00000000000E+00 -0.45593999997E+02  0.45594000000E+02  0.51100000000E-03 0. -1.
    9900012    2    1    2    0    0  0.17602460318E+02 -0.11180453677E+02 -0.24121933405E+02  0.59302002684E+02  0.50000106975E+02 0.  0.
        -12    1    1    2    0    0 -0.17602460318E+02  0.11180453677E+02  0.24121933405E+02  0.31885997316E+02  0.00000000000E+00 0.  1.
         11    1    3    3    0    0 -0.44815494654E+01  0.85786294691E+00 -0.24758618279E+01  0.51913491983E+01  0.51100000000E-03 0. -1.
        -11    1    3    3    0    0  0.54158017840E+01 -0.10429671267E+01 -0.31404819813E+02  0.31885441775E+02  0.51100000000E-03 0.  1.
         12    1    3    3    0    0  0.16668207999E+02 -0.10995349497E+02  0.97587482365E+01  0.22225211711E+02  0.00000000000E+00 0. -1.
</event>
<event>
 7    1  0.3755162E-013  0.5930193E+02  0.7816164E-02  0.1266605E+00
        -11   -1    0    0    0    0  0.00000000000E+00  0.00000000000E+00  0.45593999997E+02  0.45594000000E+02  0.51100000000E-03 0. -1.
         11   -1    0    0    0    0 -0.00000000000E+00 -0.00000000000E+00 -0.45593999997E+02  0.45594000000E+02  0.51100000000E-03 0.  1.
    9900012    2    1    2    0    0 -0.15311018246E+02  0.10280877784E+01  0.27950622324E+02  0.59301928864E+02  0.49999972345E+02 0.  0.
        -12    1    1    2    0    0  0.15311018246E+02 -0.10280877784E+01 -0.27950622324E+02  0.31886071136E+02  0.00000000000E+00 0.  1.
         11    1    3    3    0    0  0.88728319506E+00  0.99592319964E+01 -0.22203360310E+01  0.10242239295E+02  0.51100000000E-03 0.  1.
        -11    1    3    3    0    0  0.49449039174E+01 -0.70539843898E+01 -0.34656668084E+01  0.92855596068E+01  0.51100000000E-03 0. -1.
         12    1    3    3    0    0 -0.21143205359E+02 -0.18771598283E+01  0.33636625163E+02  0.39774129962E+02  0.00000000000E+00 0. -1.
</event>
<event>
 7    1  0.3755162E-013  0.5930200E+02  0.7816164E-02  0.1266605E+00
        -11   -1    0    0    0    0  0.00000000000E+00  0.00000000000E+00  0.45593999997E+02  0.45594000000E+02  0.51100000000E-03 0.  1.
         11   -1    0    0    0    0 -0.00000000000E+00 -0.00000000000E+00 -0.45593999997E+02  0.45594000000E+02  0.51100000000E-03 0. -1.
    9900012    2    1    2    0    0  0.83504429647E+01  0.20258600181E+02 -0.23164110294E+02  0.59302003313E+02  0.50000108122E+02 0.  0.
        -12    1    1    2    0    0 -0.83504429647E+01 -0.20258600181E+02  0.23164110294E+02  0.31885996687E+02  0.00000000000E+00 0.  1.
         11    1    3    3    0    0 -0.13052082578E+02  0.77523464300E+01  0.16747347322E+01  0.15272867166E+02  0.51100000000E-03 0. -1.
        -11    1    3    3    0    0  0.83059104627E+01 -0.17087509095E+01  0.39492055194E+01  0.93543681124E+01  0.51100000000E-03 0.  1.
         12    1    3    3    0    0  0.13096615080E+02  0.14215004660E+02 -0.28788050545E+02  0.34674768035E+02  0.00000000000E+00 0. -1.
</event>
<event>
 7    1  0.3755162E-013  0.5930195E+02  0.7816164E-02  0.1266605E+00
        -11   -1    0    0    0    0  0.00000000000E+00  0.00000000000E+00  0.45593999997E+02  0.45594000000E+02  0.51100000000E-03 0. -1.
         11   -1    0    0    0    0 -0.00000000000E+00 -0.00000000000E+00 -0.45593999997E+02  0.45594000000E+02  0.51100000000E-03 0.  1.
    9900012    2    1    2    0    0 -0.41301377558E+01 -0.19631783219E+02  0.24784178967E+02  0.59301945410E+02  0.50000002521E+02 0.  0.
        -12    1    1    2    0    0  0.41301377558E+01  0.19631783219E+02 -0.24784178967E+02  0.31886054590E+02  0.00000000000E+00 0.  1.
         11    1    3    3    0    0 -0.20445404841E+01 -0.20835648955E+02  0.94116281785E+00  0.20956865245E+02  0.51100000000E-03 0. -1.
        -11    1    3    3    0    0 -0.15878255784E+02  0.76760980260E+00  0.15591679861E+02  0.22266762511E+02  0.51100000000E-03 0.  1.
         12    1    3    3    0    0  0.13792658512E+02  0.43625593320E+00  0.82513362879E+01  0.16078317655E+02  0.00000000000E+00 0. -1.
</event>
<event>
 7    1  0.3755162E-013  0.5930195E+02  0.7816164E-02  0.1266605E+00
        -11   -1    0    0    0    0  0.00000000000E+00  0.00000000000E+00  0.45593999997E+02  0.45594000000E+02  0.51100000000E-03 0. -1.
         11   -1    0    0    0    0 -0.00000000000E+00 -0.00000000000E+00 -0.45593999997E+02  0.45594000000E+02  0.51100000000E-03 0.  1.
    9900012    2    1    2    0    0  0.16404943647E+02 -0.26920353924E+02  0.47846407305E+01  0.59301946334E+02  0.50000004206E+02 0.  0.
        -12    1    1    2    0    0 -0.16404943647E+02  0.26920353924E+02 -0.47846407305E+01  0.31886053666E+02  0.00000000000E+00 0.  1.
         11    1    3    3    0    0 -0.22453395876E+01 -0.20853423445E+02  0.12885061853E+02  0.24615678712E+02  0.51100000000E-03 0. -1.
        -11    1    3    3    0    0 -0.32857827331E+01  0.66637473370E+01 -0.53905417728E+01  0.91793157482E+01  0.51100000000E-03 0.  1.
        -12    1    3    3    0    0  0.21936065968E+02 -0.12730677816E+02 -0.27098793498E+01  0.25506951874E+02  0.00000000000E+00 0.  1.
</event>
<event>
 7    1  0.3755162E-013  0.5930195E+02  0.7816164E-02  0.1266605E+00
        -11   -1    0    0    0    0  0.00000000000E+00  0.00000000000E+00  0.45593999997E+02  0.45594000000E+02  0.51100000000E-03 0.  1.
         11   -1    0    0    0    0 -0.00000000000E+00 -0.00000000000E+00 -0.45593999997E+02  0.45594000000E+02  0.51100000000E-03 0. -1.
    9900012    2    1    2    0    0  0.30500366125E+01  0.98537550827E+01 -0.30171520678E+02  0.59301954893E+02  0.50000019815E+02 0.  0.
        -12    1    1    2    0    0 -0.30500366125E+01 -0.98537550827E+01  0.30171520678E+02  0.31886045107E+02  0.00000000000E+00 0.  1.
         11    1    3    3    0    0 -0.10689896225E+02 -0.10584396057E+01 -0.37475098893E+01  0.11377082505E+02  0.51100000000E-03 0.  1.
        -11    1    3    3    0    0 -0.10717639576E+02  0.95473362675E+01 -0.44765445246E+01  0.15035254538E+02  0.51100000000E-03 0. -1.
         12    1    3    3    0    0  0.24457572414E+02  0.13648584209E+01 -0.21947466264E+02  0.32889617849E+02  0.00000000000E+00 0. -1.
</event>
<event>
 7    1  0.3755162E-013  0.5930192E+02  0.7816164E-02  0.1266605E+00
        -11   -1    0    0    0    0  0.00000000000E+00  0.00000000000E+00  0.45593999997E+02  0.45594000000E+02  0.51100000000E-03 0.  1.
         11   -1    0    0    0    0 -0.00000000000E+00 -0.00000000000E+00 -0.45593999997E+02  0.45594000000E+02  0.51100000000E-03 0. -1.
    9900012    2    1    2    0    0 -0.23862048121E+02 -0.18154225652E+02 -0.10851208136E+02  0.59301922041E+02  0.49999959902E+02 0.  0.
        -12    1    1    2    0    0  0.23862048121E+02  0.18154225652E+02  0.10851208136E+02  0.31886077959E+02  0.00000000000E+00 0.  1.
         11    1    3    3    0    0 -0.84795863128E+01 -0.19794511685E+01  0.24842388899E+01  0.90550016062E+01  0.51100000000E-03 0. -1.
        -11    1    3    3    0    0 -0.92006329599E+01 -0.28214168257E+02  0.20608955379E+01  0.29747911321E+02  0.51100000000E-03 0.  1.
         12    1    3    3    0    0 -0.61818288484E+01  0.12039393773E+02 -0.15396342564E+02  0.20499009114E+02  0.00000000000E+00 0. -1.
</event>
<event>
 7    1  0.3755162E-013  0.5930196E+02  0.7816164E-02  0.1266605E+00
        -11   -1    0    0    0    0  0.00000000000E+00  0.00000000000E+00  0.45593999997E+02  0.45594000000E+02  0.51100000000E-03 0.  1.
         11   -1    0    0    0    0 -0.00000000000E+00 -0.00000000000E+00 -0.45593999997E+02  0.45594000000E+02  0.51100000000E-03 0. -1.
    9900012    2    1    2    0    0  0.18115033421E+01  0.29618994274E+02 -0.11668481177E+02  0.59301955731E+02  0.50000021344E+02 0.  0.
        -12    1    1    2    0    0 -0.18115033421E+01 -0.29618994274E+02  0.11668481177E+02  0.31886044269E+02  0.00000000000E+00 0.  1.
         11    1    3    3    0    0 -0.28527027410E+01  0.24295402409E-01 -0.10528767566E+02  0.10908411888E+02  0.51100000000E-03 0. -1.
        -11    1    3    3    0    0 -0.49040703894E+01  0.31418385359E+02 -0.11832861097E+02  0.33929064930E+02  0.51100000000E-03 0.  1.
        -12    1    3    3    0    0  0.95682764725E+01 -0.18236864880E+01  0.10693147486E+02  0.14464478913E+02  0.00000000000E+00 0.  1.
</event>
<event>
 7    1  0.3755162E-013  0.5930194E+02  0.7816164E-02  0.1266605E+00
        -11   -1    0    0    0    0  0.00000000000E+00  0.00000000000E+00  0.45593999997E+02  0.45594000000E+02  0.51100000000E-03 0. -1.
         11   -1    0    0    0    0 -0.00000000000E+00 -0.00000000000E+00 -0.45593999997E+02  0.45594000000E+02  0.51100000000E-03 0.  1.
    9900012    2    1    2    0    0 -0.30330764817E+02 -0.47515825986E+01  0.86132375780E+01  0.59301942026E+02  0.49999996349E+02 0.  0.
        -12    1    1    2    0    0  0.30330764817E+02  0.47515825986E+01 -0.86132375780E+01  0.31886057974E+02  0.00000000000E+00 0.  1.
         11    1    3    3    0    0 -0.13343397174E+02 -0.14778048435E+02  0.16722084903E+02  0.26001251651E+02  0.51100000000E-03 0. -1.
        -11    1    3    3    0    0 -0.93544994071E+01 -0.16714634975E+01  0.76814490560E+01  0.12219046986E+02  0.51100000000E-03 0.  1.
        -12    1    3    3    0    0 -0.76328682351E+01  0.11697929333E+02 -0.15790296381E+02  0.21081643389E+02  0.00000000000E+00 0.  1.
</event>
<event>
 7    1  0.3755162E-013  0.5930194E+02  0.7816164E-02  0.1266605E+00
        -11   -1    0    0    0    0  0.00000000000E+00  0.00000000000E+00  0.45593999997E+02  0.45594000000E+02  0.51100000000E-03 0. -1.
         11   -1    0    0    0    0 -0.00000000000E+00 -0.00000000000E+00 -0.45593999997E+02  0.45594000000E+02  0.51100000000E-03 0.  1.
    9900012    2    1    2    0    0 -0.13621088331E+01 -0.31854890258E+02  0.36287707339E+00  0.59301936374E+02  0.49999986041E+02 0.  0.
        -12    1    1    2    0    0  0.13621088331E+01  0.31854890258E+02 -0.36287707339E+00  0.31886063626E+02  0.00000000000E+00 0.  1.
         11    1    3    3    0    0  0.21272992506E+01 -0.21903264597E+02 -0.16238054095E+02  0.27348725805E+02  0.51100000000E-03 0. -1.
        -11    1    3    3    0    0  0.74280659085E+01 -0.39627203990E+01 -0.28237599255E+01  0.88799175942E+01  0.51100000000E-03 0.  1.
        -12    1    3    3    0    0 -0.10917473992E+02 -0.59889052615E+01  0.19424691093E+02  0.23073292974E+02  0.00000000000E+00 0.  1.
</event>
<event>
 7    1  0.3755162E-013  0.5930196E+02  0.7816164E-02  0.1266605E+00
        -11   -1    0    0    0    0  0.00000000000E+00  0.00000000000E+00  0.45593999997E+02  0.45594000000E+02  0.51100000000E-03 0.  1.
         11   -1    0    0    0    0 -0.00000000000E+00 -0.00000000000E+00 -0.45593999997E+02  0.45594000000E+02  0.51100000000E-03 0. -1.
    9900012    2    1    2    0    0 -0.17209036166E+02 -0.16784707082E+00 -0.26842889126E+02  0.59301956109E+02  0.50000022034E+02 0.  0.
        -12    1    1    2    0    0  0.17209036166E+02  0.16784707082E+00  0.26842889126E+02  0.31886043891E+02  0.00000000000E+00 0.  1.
         11    1    3    3    0    0 -0.11318919829E+02 -0.68315768206E+01  0.18901749471E+01  0.13355191857E+02  0.51100000000E-03 0. -1.
        -11    1    3    3    0    0  0.82538240752E+00  0.33737652440E+01  0.78622213290E+01  0.85952354551E+01  0.51100000000E-03 0.  1.
         12    1    3    3    0    0 -0.67154987440E+01  0.32899645057E+01 -0.36595285402E+02  0.37351528797E+02  0.00000000000E+00 0. -1.
</event>
<event>
 7    1  0.3755162E-013  0.5930195E+02  0.7816164E-02  0.1266605E+00
        -11   -1    0    0    0    0  0.00000000000E+00  0.00000000000E+00  0.45593999997E+02  0.45594000000E+02  0.51100000000E-03 0.  1.
         11   -1    0    0    0    0 -0.00000000000E+00 -0.00000000000E+00 -0.45593999997E+02  0.45594000000E+02  0.51100000000E-03 0. -1.
    9900012    2    1    2    0    0  0.37353436347E+01 -0.27233948440E+02 -0.16157960535E+02  0.59301946177E+02  0.50000003921E+02 0.  0.
        -12    1    1    2    0    0 -0.37353436347E+01  0.27233948440E+02  0.16157960535E+02  0.31886053823E+02  0.00000000000E+00 0.  1.
         11    1    3    3    0    0  0.13629588814E+02 -0.25523114947E+02 -0.24456404054E+02  0.37885495738E+02  0.51100000000E-03 0. -1.
        -11    1    3    3    0    0 -0.88674033036E+00 -0.84392812421E+01  0.39768180869E+01  0.93713850980E+01  0.51100000000E-03 0.  1.
        -12    1    3    3    0    0 -0.90075048487E+01  0.67284477487E+01  0.43216254315E+01  0.12045065341E+02  0.00000000000E+00 0.  1.
</event>
<event>
 7    1  0.3755162E-013  0.5930198E+02  0.7816164E-02  0.1266605E+00
        -11   -1    0    0    0    0  0.00000000000E+00  0.00000000000E+00  0.45593999997E+02  0.45594000000E+02  0.51100000000E-03 0.  1.
         11   -1    0    0    0    0 -0.00000000000E+00 -0.00000000000E+00 -0.45593999997E+02  0.45594000000E+02  0.51100000000E-03 0. -1.
    9900012    2    1    2    0    0 -0.63487524166E+01  0.18252915317E+02 -0.25362235276E+02  0.59301975585E+02  0.50000057552E+02 0.  0.
        -12    1    1    2    0    0  0.63487524166E+01 -0.18252915317E+02  0.25362235276E+02  0.31886024415E+02  0.00000000000E+00 0.  1.
         11    1    3    3    0    0 -0.21198442647E+02  0.96645709511E+01 -0.13025438424E+02  0.26691570743E+02  0.51100000000E-03 0. -1.
        -11    1    3    3    0    0  0.90202911953E+01  0.13748414840E+02  0.17288445890E+01  0.16534009427E+02  0.51100000000E-03 0.  1.
        -12    1    3    3    0    0  0.58293990350E+01 -0.51600704737E+01 -0.14065641440E+02  0.16076395415E+02  0.00000000000E+00 0.  1.
</event>
<event>
 7    1  0.3755162E-013  0.5930194E+02  0.7816164E-02  0.1266605E+00
        -11   -1    0    0    0    0  0.00000000000E+00  0.00000000000E+00  0.45593999997E+02  0.45594000000E+02  0.51100000000E-03 0.  1.
         11   -1    0    0    0    0 -0.00000000000E+00 -0.00000000000E+00 -0.45593999997E+02  0.45594000000E+02  0.51100000000E-03 0. -1.
    9900012    2    1    2    0    0 -0.29761836156E+02 -0.90664575234E+01 -0.69823480491E+01  0.59301941484E+02  0.49999995361E+02 0.  0.
        -12    1    1    2    0    0  0.29761836156E+02  0.90664575234E+01  0.69823480491E+01  0.31886058516E+02  0.00000000000E+00 0.  1.
         11    1    3    3    0    0 -0.14269255289E+01  0.51484027210E+01 -0.37638697966E+01  0.65352033748E+01  0.51100000000E-03 0. -1.
        -11    1    3    3    0    0 -0.33888560166E+02 -0.39455005747E+00 -0.11420414560E+02  0.35763333861E+02  0.51100000000E-03 0.  1.
        -12    1    3    3    0    0  0.55536495389E+01 -0.13820310187E+02  0.82019363071E+01  0.17003404249E+02  0.00000000000E+00 0.  1.
</event>
<event>
 7    1  0.3755162E-013  0.5930198E+02  0.7816164E-02  0.1266605E+00
        -11   -1    0    0    0    0  0.00000000000E+00  0.00000000000E+00  0.45593999997E+02  0.45594000000E+02  0.51100000000E-03 0.  1.
         11   -1    0    0    0    0 -0.00000000000E+00 -0.00000000000E+00 -0.45593999997E+02  0.45594000000E+02  0.51100000000E-03 0. -1.
    9900012    2    1    2    0    0  0.17680592641E+02 -0.22953526534E+02 -0.13313550597E+02  0.59301978517E+02  0.50000062901E+02 0.  0.
        -12    1    1    2    0    0 -0.17680592641E+02  0.22953526534E+02  0.13313550597E+02  0.31886021483E+02  0.00000000000E+00 0.  1.
         11    1    3    3    0    0 -0.34994249528E+01 -0.34562268809E+00 -0.24863630045E+02  0.25111063883E+02  0.51100000000E-03 0. -1.
        -11    1    3    3    0    0  0.81306257661E+01 -0.30816218084E+01  0.32114477590E+01  0.92691350885E+01  0.51100000000E-03 0.  1.
        -12    1    3    3    0    0  0.13049391828E+02 -0.19526282037E+02  0.83386316892E+01  0.24921779546E+02  0.00000000000E+00 0.  1.
</event>
<event>
 7    1  0.3755162E-013  0.5930190E+02  0.7816164E-02  0.1266605E+00
        -11   -1    0    0    0    0  0.00000000000E+00  0.00000000000E+00  0.45593999997E+02  0.45594000000E+02  0.51100000000E-03 0.  1.
         11   -1    0    0    0    0 -0.00000000000E+00 -0.00000000000E+00 -0.45593999997E+02  0.45594000000E+02  0.51100000000E-03 0. -1.
    9900012    2    1    2    0    0 -0.57022168383E+01  0.24024976344E+02 -0.20174453781E+02  0.59301900355E+02  0.49999920351E+02 0.  0.
        -12    1    1    2    0    0  0.57022168383E+01 -0.24024976344E+02  0.20174453781E+02  0.31886099645E+02  0.00000000000E+00 0.  1.
         11    1    3    3    0    0  0.93157709643E+01  0.55315110408E+01  0.83464767076E+00  0.10866362779E+02  0.51100000000E-03 0. -1.
        -11    1    3    3    0    0  0.11615868080E+02  0.88920656507E+01 -0.31569110765E+01  0.14965403790E+02  0.51100000000E-03 0.  1.
         12    1    3    3    0    0 -0.26633855883E+02  0.96013996525E+01 -0.17852190375E+02  0.33470133786E+02  0.00000000000E+00 0. -1.
</event>
<event>
 7    1  0.3755162E-013  0.5930195E+02  0.7816164E-02  0.1266605E+00
        -11   -1    0    0    0    0  0.00000000000E+00  0.00000000000E+00  0.45593999997E+02  0.45594000000E+02  0.51100000000E-03 0.  1.
         11   -1    0    0    0    0 -0.00000000000E+00 -0.00000000000E+00 -0.45593999997E+02  0.45594000000E+02  0.51100000000E-03 0. -1.
    9900012    2    1    2    0    0  0.91342459157E+01 -0.11147226592E+02 -0.28443365084E+02  0.59301950912E+02  0.50000012555E+02 0.  0.
        -12    1    1    2    0    0 -0.91342459157E+01  0.11147226592E+02  0.28443365084E+02  0.31886049088E+02  0.00000000000E+00 0.  1.
         11    1    3    3    0    0  0.72545693590E+01 -0.14076041830E+02 -0.28523677453E+02  0.32624590509E+02  0.51100000000E-03 0. -1.
        -11    1    3    3    0    0 -0.61145687481E+01 -0.19445762308E+01 -0.10651965877E+02  0.12435180136E+02  0.51100000000E-03 0.  1.
        -12    1    3    3    0    0  0.79942453047E+01  0.48733914689E+01  0.10732278246E+02  0.14242180267E+02  0.00000000000E+00 0.  1.
</event>
<event>
 7    1  0.3755162E-013  0.5930193E+02  0.7816164E-02  0.1266605E+00
        -11   -1    0    0    0    0  0.00000000000E+00  0.00000000000E+00  0.45593999997E+02  0.45594000000E+02  0.51100000000E-03 0.  1.
         11   -1    0    0    0    0 -0.00000000000E+00 -0.00000000000E+00 -0.45593999997E+02  0.45594000000E+02  0.51100000000E-03 0. -1.
    9900012    2    1    2    0    0  0.30368967216E+02  0.62000236257E+01 -0.74837609903E+01  0.59301934999E+02  0.49999983534E+02 0.  0.
        -12    1    1    2    0    0 -0.30368967216E+02 -0.62000236257E+01  0.74837609903E+01  0.31886065001E+02  0.00000000000E+00 0.  1.
         11    1    3    3    0    0  0.12511115944E+02  0.24171765242E+02 -0.11559532508E+02  0.29570678876E+02  0.51100000000E-03 0. -1.
        -11    1    3    3    0    0  0.10460000252E+02 -0.17037356263E+01  0.52395204877E+01  0.11822305002E+02  0.51100000000E-03 0.  1.
        -12    1    3    3    0    0  0.73978510190E+01 -0.16268005990E+02 -0.11637489701E+01  0.17908951121E+02  0.00000000000E+00 0.  1.
</event>
<event>
 7    1  0.3755162E-013  0.5930195E+02  0.7816164E-02  0.1266605E+00
        -11   -1    0    0    0    0  0.00000000000E+00  0.00000000000E+00  0.45593999997E+02  0.45594000000E+02  0.51100000000E-03 0.  1.
         11   -1    0    0    0    0 -0.00000000000E+00 -0.00000000000E+00 -0.45593999997E+02  0.45594000000E+02  0.51100000000E-03 0. -1.
    9900012    2    1    2    0    0 -0.19280936371E+02 -0.23665238687E+01 -0.25285671311E+02  0.59301951073E+02  0.50000012848E+02 0.  0.
        -12    1    1    2    0    0  0.19280936371E+02  0.23665238687E+01  0.25285671311E+02  0.31886048927E+02  0.00000000000E+00 0.  1.
         11    1    3    3    0    0  0.93692364127E+01  0.34367797213E+00  0.29557632682E+01  0.98304243177E+01  0.51100000000E-03 0. -1.
        -11    1    3    3    0    0  0.53114054892E+01 -0.67715198111E+00 -0.15960331588E+00  0.53567748279E+01  0.51100000000E-03 0.  1.
         12    1    3    3    0    0 -0.33961578273E+02 -0.20330498597E+01 -0.28081831263E+02  0.44114751927E+02  0.00000000000E+00 0. -1.
</event>
<event>
 7    1  0.3755162E-013  0.5930185E+02  0.7816164E-02  0.1266605E+00
        -11   -1    0    0    0    0  0.00000000000E+00  0.00000000000E+00  0.45593999997E+02  0.45594000000E+02  0.51100000000E-03 0. -1.
         11   -1    0    0    0    0 -0.00000000000E+00 -0.00000000000E+00 -0.45593999997E+02  0.45594000000E+02  0.51100000000E-03 0.  1.
    9900012    2    1    2    0    0  0.15423871682E+02 -0.25826007030E+02  0.10575839242E+02  0.59301845756E+02  0.49999820776E+02 0.  0.
        -12    1    1    2    0    0 -0.15423871682E+02  0.25826007030E+02 -0.10575839242E+02  0.31886154244E+02  0.00000000000E+00 0.  1.
         11    1    3    3    0    0  0.67395930781E+01 -0.27027618232E+01 -0.97577527703E+00  0.73266072628E+01  0.51100000000E-03 0. -1.
        -11    1    3    3    0    0  0.20929641398E+02 -0.78347934582E+01 -0.85317651096E+01  0.23921222664E+02  0.51100000000E-03 0.  1.
         12    1    3    3    0    0 -0.12245362795E+02 -0.15288451749E+02  0.20083379628E+02  0.28054015829E+02  0.00000000000E+00 0. -1.
</event>
<event>
 7    1  0.3755162E-013  0.5930194E+02  0.7816164E-02  0.1266605E+00
        -11   -1    0    0    0    0  0.00000000000E+00  0.00000000000E+00  0.45593999997E+02  0.45594000000E+02  0.51100000000E-03 0. -1.
         11   -1    0    0    0    0 -0.00000000000E+00 -0.00000000000E+00 -0.45593999997E+02  0.45594000000E+02  0.51100000000E-03 0.  1.
    9900012    2    1    2    0    0  0.10792756750E+02 -0.55054045443E+00  0.29998898164E+02  0.59301943735E+02  0.49999999466E+02 0.  0.
        -12    1    1    2    0    0 -0.10792756750E+02  0.55054045443E+00 -0.29998898164E+02  0.31886056265E+02  0.00000000000E+00 0.  1.
         11    1    3    3    0    0  0.53403163643E+01 -0.33396752384E+01  0.58240546691E+01  0.85785792890E+01  0.51100000000E-03 0. -1.
        -11    1    3    3    0    0  0.16424734514E+01  0.16161079376E+02  0.31177355960E+02  0.35155450937E+02  0.51100000000E-03 0.  1.
         12    1    3    3    0    0  0.38099669344E+01 -0.13371944592E+02 -0.70025124650E+01  0.15567913509E+02  0.00000000000E+00 0. -1.
</event>
<event>
 7    1  0.3755162E-013  0.5930199E+02  0.7816164E-02  0.1266605E+00
        -11   -1    0    0    0    0  0.00000000000E+00  0.00000000000E+00  0.45593999997E+02  0.45594000000E+02  0.51100000000E-03 0. -1.
         11   -1    0    0    0    0 -0.00000000000E+00 -0.00000000000E+00 -0.45593999997E+02  0.45594000000E+02  0.51100000000E-03 0.  1.
    9900012    2    1    2    0    0 -0.28702147769E+02  0.18160220690E+01  0.13769773538E+02  0.59301986044E+02  0.50000076628E+02 0.  0.
        -12    1    1    2    0    0  0.28702147769E+02 -0.18160220690E+01 -0.13769773538E+02  0.31886013956E+02  0.00000000000E+00 0.  1.
         11    1    3    3    0    0 -0.18544235271E+02  0.54456996885E+01 -0.13050145726E+02  0.23320604851E+02  0.51100000000E-03 0. -1.
        -11    1    3    3    0    0 -0.85444834135E+01  0.70745611687E+01  0.62391748970E+01  0.12727329500E+02  0.51100000000E-03 0.  1.
        -12    1    3    3    0    0 -0.16134290842E+01 -0.10704238788E+02  0.20580744367E+02  0.23254051693E+02  0.00000000000E+00 0.  1.
</event>
<event>
 7    1  0.3755162E-013  0.5930195E+02  0.7816164E-02  0.1266605E+00
        -11   -1    0    0    0    0  0.00000000000E+00  0.00000000000E+00  0.45593999997E+02  0.45594000000E+02  0.51100000000E-03 0.  1.
         11   -1    0    0    0    0 -0.00000000000E+00 -0.00000000000E+00 -0.45593999997E+02  0.45594000000E+02  0.51100000000E-03 0. -1.
    9900012    2    1    2    0    0  0.88790915222E+01  0.89511189147E+01 -0.29287527145E+02  0.59301952230E+02  0.50000014960E+02 0.  0.
        -12    1    1    2    0    0 -0.88790915222E+01 -0.89511189147E+01  0.29287527145E+02  0.31886047770E+02  0.00000000000E+00 0.  1.
         11    1    3    3    0    0 -0.12489668049E+02 -0.50851945267E+01 -0.19991684487E+02  0.24114693866E+02  0.51100000000E-03 0. -1.
        -11    1    3    3    0    0 -0.44384445633E+01  0.20484680930E+01 -0.38333056937E+01  0.62121046733E+01  0.51100000000E-03 0.  1.
         12    1    3    3    0    0  0.25807204135E+02  0.11987845348E+02 -0.54625369642E+01  0.28975153691E+02  0.00000000000E+00 0. -1.
</event>
<event>
 7    1  0.3755162E-013  0.5930197E+02  0.7816164E-02  0.1266605E+00
        -11   -1    0    0    0    0  0.00000000000E+00  0.00000000000E+00  0.45593999997E+02  0.45594000000E+02  0.51100000000E-03 0.  1.
         11   -1    0    0    0    0 -0.00000000000E+00 -0.00000000000E+00 -0.45593999997E+02  0.45594000000E+02  0.51100000000E-03 0. -1.
    9900012    2    1    2    0    0 -0.63510642697E+01 -0.31141548585E+02 -0.25664555138E+01  0.59301972346E+02  0.50000051646E+02 0.  0.
        -12    1    1    2    0    0  0.63510642697E+01  0.31141548585E+02  0.25664555138E+01  0.31886027654E+02  0.00000000000E+00 0.  1.
         11    1    3    3    0    0 -0.10879731086E+02 -0.12193444621E+02 -0.13265347007E+02  0.21047994482E+02  0.51100000000E-03 0. -1.
        -11    1    3    3    0    0  0.10931603952E+02 -0.11172375571E+02 -0.75889281470E+01  0.17375666075E+02  0.51100000000E-03 0.  1.
        -12    1    3    3    0    0 -0.64029371363E+01 -0.77757283923E+01  0.18287819640E+02  0.20878311789E+02  0.00000000000E+00 0.  1.
</event>
<event>
 7    1  0.3755162E-013  0.5930193E+02  0.7816164E-02  0.1266605E+00
        -11   -1    0    0    0    0  0.00000000000E+00  0.00000000000E+00  0.45593999997E+02  0.45594000000E+02  0.51100000000E-03 0.  1.
         11   -1    0    0    0    0 -0.00000000000E+00 -0.00000000000E+00 -0.45593999997E+02  0.45594000000E+02  0.51100000000E-03 0. -1.
    9900012    2    1    2    0    0 -0.67533121468E+01  0.98857585150E+01 -0.29553101462E+02  0.59301933256E+02  0.49999980355E+02 0.  0.
        -12    1    1    2    0    0  0.67533121468E+01 -0.98857585150E+01  0.29553101462E+02  0.31886066744E+02  0.00000000000E+00 0.  1.
         11    1    3    3    0    0  0.71439055745E+01  0.13835205522E+02  0.21374744811E+01  0.15716777536E+02  0.51100000000E-03 0. -1.
        -11    1    3    3    0    0  0.54647641636E+01  0.18775115432E+01 -0.18650626783E+02  0.19525229234E+02  0.51100000000E-03 0.  1.
         12    1    3    3    0    0 -0.19361981885E+02 -0.58269585501E+01 -0.13039949160E+02  0.24059926487E+02  0.00000000000E+00 0. -1.
</event>
<event>
 7    1  0.3755162E-013  0.5930197E+02  0.7816164E-02  0.1266605E+00
        -11   -1    0    0    0    0  0.00000000000E+00  0.00000000000E+00  0.45593999997E+02  0.45594000000E+02  0.51100000000E-03 0.  1.
         11   -1    0    0    0    0 -0.00000000000E+00 -0.00000000000E+00 -0.45593999997E+02  0.45594000000E+02  0.51100000000E-03 0. -1.
    9900012    2    1    2    0    0  0.31049402357E+02  0.68622298919E+01  0.23586918272E+01  0.59301968373E+02  0.50000044399E+02 0.  0.
        -12    1    1    2    0    0 -0.31049402357E+02 -0.68622298919E+01 -0.23586918272E+01  0.31886031627E+02  0.00000000000E+00 0.  1.
         11    1    3    3    0    0  0.11970776105E+02  0.75902259606E+01 -0.53533244465E+01  0.15151537664E+02  0.51100000000E-03 0.  1.
        -11    1    3    3    0    0  0.20427302756E+02  0.50847383134E+01 -0.11532056408E+02  0.24002449601E+02  0.51100000000E-03 0. -1.
         12    1    3    3    0    0 -0.13486765043E+01 -0.58127343821E+01  0.19244072682E+02  0.20147981107E+02  0.00000000000E+00 0. -1.
</event>
<event>
 7    1  0.3755162E-013  0.5930197E+02  0.7816164E-02  0.1266605E+00
        -11   -1    0    0    0    0  0.00000000000E+00  0.00000000000E+00  0.45593999997E+02  0.45594000000E+02  0.51100000000E-03 0.  1.
         11   -1    0    0    0    0 -0.00000000000E+00 -0.00000000000E+00 -0.45593999997E+02  0.45594000000E+02  0.51100000000E-03 0. -1.
    9900012    2    1    2    0    0  0.14795314275E+02  0.23385321900E+02 -0.15841227606E+02  0.59301967056E+02  0.50000041997E+02 0.  0.
        -12    1    1    2    0    0 -0.14795314275E+02 -0.23385321900E+02  0.15841227606E+02  0.31886032944E+02  0.00000000000E+00 0.  1.
         11    1    3    3    0    0  0.28724599393E+01  0.29572484007E+01  0.12266496285E+01  0.43012804812E+01  0.51100000000E-03 0. -1.
        -11    1    3    3    0    0 -0.63508770658E+00 -0.14707641131E+02 -0.24343695025E+01  0.14921266675E+02  0.51100000000E-03 0.  1.
         12    1    3    3    0    0  0.12557942043E+02  0.35135714631E+02 -0.14633507732E+02  0.40079419900E+02  0.00000000000E+00 0. -1.
</event>
<event>
 7    1  0.3755162E-013  0.5930195E+02  0.7816164E-02  0.1266605E+00
        -11   -1    0    0    0    0  0.00000000000E+00  0.00000000000E+00  0.45593999997E+02  0.45594000000E+02  0.51100000000E-03 0. -1.
         11   -1    0    0    0    0 -0.00000000000E+00 -0.00000000000E+00 -0.45593999997E+02  0.45594000000E+02  0.51100000000E-03 0.  1.
    9900012    2    1    2    0    0  0.31461835814E+02 -0.26673731631E+01  0.44450532844E+01  0.59301945194E+02  0.50000002128E+02 0.  0.
        -12    1    1    2    0    0 -0.31461835814E+02  0.26673731631E+01 -0.44450532844E+01  0.31886054806E+02  0.00000000000E+00 0.  1.
         11    1    3    3    0    0  0.55185460303E+01 -0.89752971807E+01  0.42504149808E+01  0.11361176767E+02  0.51100000000E-03 0. -1.
        -11    1    3    3    0    0 -0.28570408392E+01 -0.84401600242E+01 -0.10584376728E+02  0.13835751319E+02  0.51100000000E-03 0.  1.
         12    1    3    3    0    0  0.28800330623E+02  0.14748084042E+02  0.10779015031E+02  0.34105017108E+02  0.00000000000E+00 0. -1.
</event>
<event>
 7    1  0.3755162E-013  0.5930194E+02  0.7816164E-02  0.1266605E+00
        -11   -1    0    0    0    0  0.00000000000E+00  0.00000000000E+00  0.45593999997E+02  0.45594000000E+02  0.51100000000E-03 0.  1.
         11   -1    0    0    0    0 -0.00000000000E+00 -0.00000000000E+00 -0.45593999997E+02  0.45594000000E+02  0.51100000000E-03 0. -1.
    9900012    2    1    2    0    0 -0.30972287171E+01  0.51954880830E+01 -0.31307102103E+02  0.59301944047E+02  0.50000000035E+02 0.  0.
        -12    1    1    2    0    0  0.30972287171E+01 -0.51954880830E+01  0.31307102103E+02  0.31886055953E+02  0.00000000000E+00 0.  1.
         11    1    3    3    0    0  0.21826648309E+01 -0.71567664863E+01 -0.18448586141E+02  0.19908130579E+02  0.51100000000E-03 0. -1.
        -11    1    3    3    0    0  0.13866451260E+02  0.34722793923E+01 -0.11317220755E+02  0.18232242884E+02  0.51100000000E-03 0.  1.
         12    1    3    3    0    0 -0.19146344808E+02  0.88799751770E+01 -0.15412952076E+01  0.21161570583E+02  0.00000000000E+00 0. -1.
</event>
<event>
 7    1  0.3755162E-013  0.5930198E+02  0.7816164E-02  0.1266605E+00
        -11   -1    0    0    0    0  0.00000000000E+00  0.00000000000E+00  0.45593999997E+02  0.45594000000E+02  0.51100000000E-03 0.  1.
         11   -1    0    0    0    0 -0.00000000000E+00 -0.00000000000E+00 -0.45593999997E+02  0.45594000000E+02  0.51100000000E-03 0. -1.
    9900012    2    1    2    0    0  0.31345354729E+02 -0.57955242485E+01  0.77405188005E+00  0.59301976091E+02  0.50000058475E+02 0.  0.
        -12    1    1    2    0    0 -0.31345354729E+02  0.57955242485E+01 -0.77405188005E+00  0.31886023909E+02  0.00000000000E+00 0.  1.
         11    1    3    3    0    0  0.30965695467E+02  0.55422231232E+01 -0.92285746576E+01  0.32783488579E+02  0.51100000000E-03 0. -1.
        -11    1    3    3    0    0 -0.28340457926E+00 -0.38514858883E+01 -0.69632594251E+01  0.79624897982E+01  0.51100000000E-03 0.  1.
        -12    1    3    3    0    0  0.66306384138E+00 -0.74862614834E+01  0.16965885963E+02  0.18555997714E+02  0.00000000000E+00 0.  1.
</event>
<event>
 7    1  0.3755162E-013  0.5930203E+02  0.7816164E-02  0.1266604E+00
        -11   -1    0    0    0    0  0.00000000000E+00  0.00000000000E+00  0.45593999997E+02  0.45594000000E+02  0.51100000000E-03 0. -1.
         11   -1    0    0    0    0 -0.00000000000E+00 -0.00000000000E+00 -0.45593999997E+02  0.45594000000E+02  0.51100000000E-03 0.  1.
    9900012    2    1    2    0    0 -0.30719198873E+02  0.80299149207E+01  0.29267927760E+01  0.59302033980E+02  0.50000164052E+02 0.  0.
        -12    1    1    2    0    0  0.30719198873E+02 -0.80299149207E+01 -0.29267927760E+01  0.31885966020E+02  0.00000000000E+00 0.  1.
         11    1    3    3    0    0  0.69787056468E+01  0.40407352617E+01 -0.39634869301E+01  0.89854940246E+01  0.51100000000E-03 0. -1.
        -11    1    3    3    0    0 -0.94756323796E+01 -0.11765024600E+02 -0.49464470142E+01  0.15895620502E+02  0.51100000000E-03 0.  1.
         12    1    3    3    0    0 -0.28222272140E+02  0.15754204259E+02  0.11836726720E+02  0.34420919454E+02  0.00000000000E+00 0. -1.
</event>
<event>
 7    1  0.3755162E-013  0.5930194E+02  0.7816164E-02  0.1266605E+00
        -11   -1    0    0    0    0  0.00000000000E+00  0.00000000000E+00  0.45593999997E+02  0.45594000000E+02  0.51100000000E-03 0. -1.
         11   -1    0    0    0    0 -0.00000000000E+00 -0.00000000000E+00 -0.45593999997E+02  0.45594000000E+02  0.51100000000E-03 0.  1.
    9900012    2    1    2    0    0 -0.66536805195E+01 -0.30964557852E+02 -0.36939604776E+01  0.59301942679E+02  0.49999997541E+02 0.  0.
        -12    1    1    2    0    0  0.66536805195E+01  0.30964557852E+02  0.36939604776E+01  0.31886057321E+02  0.00000000000E+00 0.  1.
         11    1    3    3    0    0  0.60132323244E+01 -0.23193602516E+01 -0.99046212577E+01  0.11816933506E+02  0.51100000000E-03 0. -1.
        -11    1    3    3    0    0 -0.37192264264E+01 -0.24535171397E+01 -0.13033751044E+02  0.13774289750E+02  0.51100000000E-03 0.  1.
         12    1    3    3    0    0 -0.89476864174E+01 -0.26191680461E+02  0.19244411824E+02  0.33710719424E+02  0.00000000000E+00 0. -1.
</event>
<event>
 7    1  0.3755162E-013  0.5930195E+02  0.7816164E-02  0.1266605E+00
        -11   -1    0    0    0    0  0.00000000000E+00  0.00000000000E+00  0.45593999997E+02  0.45594000000E+02  0.51100000000E-03 0. -1.
         11   -1    0    0    0    0 -0.00000000000E+00 -0.00000000000E+00 -0.45593999997E+02  0.45594000000E+02  0.51100000000E-03 0.  1.
    9900012    2    1    2    0    0 -0.11891735288E+02  0.23470637982E+02  0.18012110053E+02  0.59301947814E+02  0.50000006905E+02 0.  0.
        -12    1    1    2    0    0  0.11891735288E+02 -0.23470637982E+02 -0.18012110053E+02  0.31886052186E+02  0.00000000000E+00 0.  1.
         11    1    3    3    0    0 -0.43516051642E+00  0.64456332026E+00 -0.76483662800E+01  0.76878042095E+01  0.51100000000E-03 0. -1.
        -11    1    3    3    0    0 -0.44989422453E+01 -0.76560202768E+01 -0.28241090065E+01  0.93183002606E+01  0.51100000000E-03 0.  1.
         12    1    3    3    0    0 -0.69576325262E+01  0.30482094938E+02  0.28484585340E+02  0.42295843344E+02  0.00000000000E+00 0. -1.
</event>
<event>
 7    1  0.3755162E-013  0.5930196E+02  0.7816164E-02  0.1266605E+00
        -11   -1    0    0    0    0  0.00000000000E+00  0.00000000000E+00  0.45593999997E+02  0.45594000000E+02  0.51100000000E-03 0.  1.
         11   -1    0    0    0    0 -0.00000000000E+00 -0.00000000000E+00 -0.45593999997E+02  0.45594000000E+02  0.51100000000E-03 0. -1.
    9900012    2    1    2    0    0  0.73647280819E+01  0.21173886150E+02 -0.22674809425E+02  0.59301958275E+02  0.50000025984E+02 0.  0.
        -12    1    1    2    0    0 -0.73647280819E+01 -0.21173886150E+02  0.22674809425E+02  0.31886041725E+02  0.00000000000E+00 0.  1.
         11    1    3    3    0    0 -0.36371846646E+00  0.30642870927E+01 -0.88653165874E+01  0.93870115034E+01  0.51100000000E-03 0. -1.
        -11    1    3    3    0    0  0.34961092131E+01 -0.14512321789E+02 -0.61167044777E+01  0.16132090294E+02  0.51100000000E-03 0.  1.
         12    1    3    3    0    0  0.42323373353E+01  0.32621920846E+02 -0.76927883597E+01  0.33782856477E+02  0.00000000000E+00 0. -1.
</event>
<event>
 7    1  0.3755162E-013  0.5930194E+02  0.7816164E-02  0.1266605E+00
        -11   -1    0    0    0    0  0.00000000000E+00  0.00000000000E+00  0.45593999997E+02  0.45594000000E+02  0.51100000000E-03 0. -1.
         11   -1    0    0    0    0 -0.00000000000E+00 -0.00000000000E+00 -0.45593999997E+02  0.45594000000E+02  0.51100000000E-03 0.  1.
    9900012    2    1    2    0    0 -0.82610277930E+01  0.16417556221E+02  0.26056483264E+02  0.59301936390E+02  0.49999986070E+02 0.  0.
        -12    1    1    2    0    0  0.82610277930E+01 -0.16417556221E+02 -0.26056483264E+02  0.31886063610E+02  0.00000000000E+00 0.  1.
         11    1    3    3    0    0 -0.31762365491E+01  0.11765832066E+02  0.16477739208E+02  0.20494857221E+02  0.51100000000E-03 0. -1.
        -11    1    3    3    0    0 -0.11414752265E+02  0.12720477285E+02  0.18520060975E+02  0.25201185893E+02  0.51100000000E-03 0.  1.
        -12    1    3    3    0    0  0.63299610209E+01 -0.80687531301E+01 -0.89413169193E+01  0.13605893276E+02  0.00000000000E+00 0.  1.
</event>
<event>
 7    1  0.3755162E-013  0.5930195E+02  0.7816164E-02  0.1266605E+00
        -11   -1    0    0    0    0  0.00000000000E+00  0.00000000000E+00  0.45593999997E+02  0.45594000000E+02  0.51100000000E-03 0. -1.
         11   -1    0    0    0    0 -0.00000000000E+00 -0.00000000000E+00 -0.45593999997E+02  0.45594000000E+02  0.51100000000E-03 0.  1.
    9900012    2    1    2    0    0  0.11259584635E+02 -0.28861891220E+02  0.75454122607E+01  0.59301948862E+02  0.50000008817E+02 0.  0.
        -12    1    1    2    0    0 -0.11259584635E+02  0.28861891220E+02 -0.75454122607E+01  0.31886051138E+02  0.00000000000E+00 0.  1.
         11    1    3    3    0    0 -0.55280116142E+01 -0.22783006485E+01  0.53362368120E+00  0.60028593808E+01  0.51100000000E-03 0. -1.
        -11    1    3    3    0    0  0.10631331732E+02 -0.28464003398E+02  0.21649504573E+02  0.37308521176E+02  0.51100000000E-03 0.  1.
        -12    1    3    3    0    0  0.61562645176E+01  0.18804128265E+01 -0.14637715993E+02  0.15990568305E+02  0.00000000000E+00 0.  1.
</event>
<event>
 7    1  0.3755162E-013  0.5930194E+02  0.7816164E-02  0.1266605E+00
        -11   -1    0    0    0    0  0.00000000000E+00  0.00000000000E+00  0.45593999997E+02  0.45594000000E+02  0.51100000000E-03 0. -1.
         11   -1    0    0    0    0 -0.00000000000E+00 -0.00000000000E+00 -0.45593999997E+02  0.45594000000E+02  0.51100000000E-03 0.  1.
    9900012    2    1    2    0    0 -0.61796178394E+00 -0.31850972604E+02  0.13616979657E+01  0.59301944208E+02  0.50000000329E+02 0.  0.
        -12    1    1    2    0    0  0.61796178394E+00  0.31850972604E+02 -0.13616979657E+01  0.31886055792E+02  0.00000000000E+00 0.  1.
         11    1    3    3    0    0 -0.58985770402E+01 -0.12630401612E+01  0.14032571886E+02  0.15274212108E+02  0.51100000000E-03 0. -1.
        -11    1    3    3    0    0 -0.29997811264E+00  0.42539646238E+01 -0.71319139655E+01  0.83096569701E+01  0.51100000000E-03 0.  1.
         12    1    3    3    0    0  0.55805933689E+01 -0.34841897067E+02 -0.55389599544E+01  0.35718075129E+02  0.00000000000E+00 0. -1.
</event>
<event>
 7    1  0.3755162E-013  0.5930195E+02  0.7816164E-02  0.1266605E+00
        -11   -1    0    0    0    0  0.00000000000E+00  0.00000000000E+00  0.45593999997E+02  0.45594000000E+02  0.51100000000E-03 0.  1.
         11   -1    0    0    0    0 -0.00000000000E+00 -0.00000000000E+00 -0.45593999997E+02  0.45594000000E+02  0.51100000000E-03 0. -1.
    9900012    2    1    2    0    0 -0.61309148108E+01 -0.24453555195E+02 -0.19523211566E+02  0.59301948693E+02  0.50000008508E+02 0.  0.
        -12    1    1    2    0    0  0.61309148108E+01  0.24453555195E+02  0.19523211566E+02  0.31886051307E+02  0.00000000000E+00 0.  1.
         11    1    3    3    0    0 -0.15514082125E+01 -0.33034880253E-01 -0.21685369273E+02  0.21740818741E+02  0.51100000000E-03 0. -1.
        -11    1    3    3    0    0 -0.14211558554E+02 -0.37609604505E+01  0.59877768419E+00  0.14712979135E+02  0.51100000000E-03 0.  1.
         12    1    3    3    0    0  0.96320519560E+01 -0.20659559864E+02  0.15633800228E+01  0.22848150817E+02  0.00000000000E+00 0. -1.
</event>
<event>
 7    1  0.3755162E-013  0.5930193E+02  0.7816164E-02  0.1266605E+00
        -11   -1    0    0    0    0  0.00000000000E+00  0.00000000000E+00  0.45593999997E+02  0.45594000000E+02  0.51100000000E-03 0. -1.
         11   -1    0    0    0    0 -0.00000000000E+00 -0.00000000000E+00 -0.45593999997E+02  0.45594000000E+02  0.51100000000E-03 0.  1.
    9900012    2    1    2    0    0  0.77869425465E+01 -0.24367288439E+02 -0.19034714903E+02  0.59301927938E+02  0.49999970657E+02 0.  0.
        -12    1    1    2    0    0 -0.77869425465E+01  0.24367288439E+02  0.19034714903E+02  0.31886072062E+02  0.00000000000E+00 0.  1.
         11    1    3    3    0    0  0.52854253287E+01  0.21645066066E+01 -0.18008699890E+01  0.59886511614E+01  0.51100000000E-03 0.  1.
        -11    1    3    3    0    0 -0.12347761533E+02 -0.23221921773E+02  0.46018639510E+01  0.26700225051E+02  0.51100000000E-03 0. -1.
         12    1    3    3    0    0  0.14849278751E+02 -0.33098732721E+01 -0.21835708865E+02  0.26613051726E+02  0.00000000000E+00 0. -1.
</event>
<event>
 7    1  0.3755162E-013  0.5930195E+02  0.7816164E-02  0.1266605E+00
        -11   -1    0    0    0    0  0.00000000000E+00  0.00000000000E+00  0.45593999997E+02  0.45594000000E+02  0.51100000000E-03 0.  1.
         11   -1    0    0    0    0 -0.00000000000E+00 -0.00000000000E+00 -0.45593999997E+02  0.45594000000E+02  0.51100000000E-03 0. -1.
    9900012    2    1    2    0    0 -0.27099928316E+01 -0.15107427907E+02 -0.27948911970E+02  0.59301951022E+02  0.50000012757E+02 0.  0.
        -12    1    1    2    0    0  0.27099928316E+01  0.15107427907E+02  0.27948911970E+02  0.31886048978E+02  0.00000000000E+00 0.  1.
         11    1    3    3    0    0 -0.99975861480E+01 -0.10007272304E+02 -0.34385756888E+02  0.37181682382E+02  0.51100000000E-03 0. -1.
        -11    1    3    3    0    0  0.79340835298E+01 -0.39945145475E+01 -0.52799898459E+01  0.10333640257E+02  0.51100000000E-03 0.  1.
        -12    1    3    3    0    0 -0.64649021334E+00 -0.11056410559E+01  0.11716834764E+02  0.11786628383E+02  0.00000000000E+00 0.  1.
</event>
<event>
 7    1  0.3755162E-013  0.5930194E+02  0.7816164E-02  0.1266605E+00
        -11   -1    0    0    0    0  0.00000000000E+00  0.00000000000E+00  0.45593999997E+02  0.45594000000E+02  0.51100000000E-03 0.  1.
         11   -1    0    0    0    0 -0.00000000000E+00 -0.00000000000E+00 -0.45593999997E+02  0.45594000000E+02  0.51100000000E-03 0. -1.
    9900012    2    1    2    0    0 -0.25862488125E+02 -0.46200587581E+01 -0.18069512401E+02  0.59301944844E+02  0.50000001489E+02 0.  0.
        -12    1    1    2    0    0  0.25862488125E+02  0.46200587581E+01  0.18069512401E+02  0.31886055156E+02  0.00000000000E+00 0.  1.
         11    1    3    3    0    0 -0.20542199980E+02 -0.93251182354E+01 -0.19991984305E+02  0.30143311809E+02  0.51100000000E-03 0. -1.
        -11    1    3    3    0    0 -0.14683533186E+02 -0.20568263322E+01 -0.50550763427E+01  0.15664944254E+02  0.51100000000E-03 0.  1.
        -12    1    3    3    0    0  0.93632450405E+01  0.67618858095E+01  0.69775482466E+01  0.13493688781E+02  0.00000000000E+00 0.  1.
</event>
<event>
 7    1  0.3755162E-013  0.5930195E+02  0.7816164E-02  0.1266605E+00
        -11   -1    0    0    0    0  0.00000000000E+00  0.00000000000E+00  0.45593999997E+02  0.45594000000E+02  0.51100000000E-03 0.  1.
         11   -1    0    0    0    0 -0.00000000000E+00 -0.00000000000E+00 -0.45593999997E+02  0.45594000000E+02  0.51100000000E-03 0. -1.
    9900012    2    1    2    0    0 -0.80832069667E+01  0.30835048320E+02  0.76265112326E+00  0.59301951695E+02  0.50000013983E+02 0.  0.
        -12    1    1    2    0    0  0.80832069667E+01 -0.30835048320E+02 -0.76265112326E+00  0.31886048305E+02  0.00000000000E+00 0.  1.
         11    1    3    3    0    0 -0.79734193162E+01  0.14169251938E+02 -0.19531973244E+02  0.25413403847E+02  0.51100000000E-03 0. -1.
        -11    1    3    3    0    0  0.73306774650E+01  0.16507414524E+02  0.85472853236E+01  0.19982233435E+02  0.51100000000E-03 0.  1.
        -12    1    3    3    0    0 -0.74404651155E+01  0.15838185830E+00  0.11747339043E+02  0.13906314413E+02  0.00000000000E+00 0.  1.
</event>
<event>
 7    1  0.3755162E-013  0.5930193E+02  0.7816164E-02  0.1266605E+00
        -11   -1    0    0    0    0  0.00000000000E+00  0.00000000000E+00  0.45593999997E+02  0.45594000000E+02  0.51100000000E-03 0.  1.
         11   -1    0    0    0    0 -0.00000000000E+00 -0.00000000000E+00 -0.45593999997E+02  0.45594000000E+02  0.51100000000E-03 0. -1.
    9900012    2    1    2    0    0  0.18970391394E+02 -0.25105943099E+02  0.51514389270E+01  0.59301930133E+02  0.49999974660E+02 0.  0.
        -12    1    1    2    0    0 -0.18970391394E+02  0.25105943099E+02 -0.51514389270E+01  0.31886069867E+02  0.00000000000E+00 0.  1.
         11    1    3    3    0    0  0.43778466748E+01 -0.20693604908E+02  0.10751960536E+02  0.23727525813E+02  0.51100000000E-03 0. -1.
        -11    1    3    3    0    0  0.10368304195E+02  0.84017837245E+01  0.86866307226E+01  0.15923230049E+02  0.51100000000E-03 0.  1.
         12    1    3    3    0    0  0.42242405243E+01 -0.12814121915E+02 -0.14287152331E+02  0.19651174270E+02  0.00000000000E+00 0. -1.
</event>
<event>
 7    1  0.3755162E-013  0.5930194E+02  0.7816164E-02  0.1266605E+00
        -11   -1    0    0    0    0  0.00000000000E+00  0.00000000000E+00  0.45593999997E+02  0.45594000000E+02  0.51100000000E-03 0.  1.
         11   -1    0    0    0    0 -0.00000000000E+00 -0.00000000000E+00 -0.45593999997E+02  0.45594000000E+02  0.51100000000E-03 0. -1.
    9900012    2    1    2    0    0  0.19373360645E+02  0.49794925425E+01 -0.24831401256E+02  0.59301938202E+02  0.49999989375E+02 0.  0.
        -12    1    1    2    0    0 -0.19373360645E+02 -0.49794925425E+01  0.24831401256E+02  0.31886061798E+02  0.00000000000E+00 0.  1.
         11    1    3    3    0    0 -0.24703108410E+01  0.19153900215E+01 -0.75795210823E+01  0.81987983683E+01  0.51100000000E-03 0. -1.
        -11    1    3    3    0    0  0.17241862482E+02  0.16806155812E+02  0.49585960398E+01  0.24582847068E+02  0.51100000000E-03 0.  1.
         12    1    3    3    0    0  0.46018090042E+01 -0.13742053291E+02 -0.22210476213E+02  0.26520292766E+02  0.00000000000E+00 0. -1.
</event>
<event>
 7    1  0.3755162E-013  0.5930194E+02  0.7816164E-02  0.1266605E+00
        -11   -1    0    0    0    0  0.00000000000E+00  0.00000000000E+00  0.45593999997E+02  0.45594000000E+02  0.51100000000E-03 0. -1.
         11   -1    0    0    0    0 -0.00000000000E+00 -0.00000000000E+00 -0.45593999997E+02  0.45594000000E+02  0.51100000000E-03 0.  1.
    9900012    2    1    2    0    0 -0.22764565781E+02 -0.13695766061E+01  0.22284957992E+02  0.59301944302E+02  0.50000000500E+02 0.  0.
        -12    1    1    2    0    0  0.22764565781E+02  0.13695766061E+01 -0.22284957992E+02  0.31886055698E+02  0.00000000000E+00 0.  1.
         11    1    3    3    0    0 -0.40655472516E+00 -0.49815993669E+01  0.24040730112E+02  0.24554802455E+02  0.51100000000E-03 0. -1.
        -11    1    3    3    0    0 -0.53831542391E+01  0.70823639213E-01  0.11646920456E+02  0.12830982890E+02  0.51100000000E-03 0.  1.
        -12    1    3    3    0    0 -0.16974856816E+02  0.35411991216E+01 -0.13402692576E+02  0.21916158957E+02  0.00000000000E+00 0.  1.
</event>
<event>
 7    1  0.3755162E-013  0.5930156E+02  0.7816164E-02  0.1266606E+00
        -11   -1    0    0    0    0  0.00000000000E+00  0.00000000000E+00  0.45593999997E+02  0.45594000000E+02  0.51100000000E-03 0.  1.
         11   -1    0    0    0    0 -0.00000000000E+00 -0.00000000000E+00 -0.45593999997E+02  0.45594000000E+02  0.51100000000E-03 0. -1.
    9900012    2    1    2    0    0  0.26212548722E+02  0.16689113311E+02 -0.71498914498E+01  0.59301558346E+02  0.49999296605E+02 0.  0.
        -12    1    1    2    0    0 -0.26212548722E+02 -0.16689113311E+02  0.71498914498E+01  0.31886441654E+02  0.00000000000E+00 0.  1.
         11    1    3    3    0    0  0.25423392472E+01  0.51402958105E+01  0.94431384011E+00  0.58118722248E+01  0.51100000000E-03 0. -1.
        -11    1    3    3    0    0 -0.47743134825E+00  0.24718490961E+02 -0.79962869568E+01  0.25984078614E+02  0.51100000000E-03 0.  1.
        -12    1    3    3    0    0  0.24147640823E+02 -0.13169673460E+02 -0.97918333093E-01  0.27505607507E+02  0.00000000000E+00 0.  1.
</event>
<event>
 7    1  0.3755162E-013  0.5930194E+02  0.7816164E-02  0.1266605E+00
        -11   -1    0    0    0    0  0.00000000000E+00  0.00000000000E+00  0.45593999997E+02  0.45594000000E+02  0.51100000000E-03 0.  1.
         11   -1    0    0    0    0 -0.00000000000E+00 -0.00000000000E+00 -0.45593999997E+02  0.45594000000E+02  0.51100000000E-03 0. -1.
    9900012    2    1    2    0    0  0.21475116876E+02  0.12520230857E+02 -0.19969569280E+02  0.59301944697E+02  0.50000001221E+02 0.  0.
        -12    1    1    2    0    0 -0.21475116876E+02 -0.12520230857E+02  0.19969569280E+02  0.31886055303E+02  0.00000000000E+00 0.  1.
         11    1    3    3    0    0  0.11228815177E+02  0.15320121173E+02 -0.28685806759E+01  0.19209923435E+02  0.51100000000E-03 0. -1.
        -11    1    3    3    0    0  0.73441123758E+01  0.10712780622E+02  0.50890619236E+01  0.13949846120E+02  0.51100000000E-03 0.  1.
        -12    1    3    3    0    0  0.29021893232E+01 -0.13512670938E+02 -0.22190050528E+02  0.26142175142E+02  0.00000000000E+00 0.  1.
</event>
<event>
 7    1  0.3755162E-013  0.5930197E+02  0.7816164E-02  0.1266605E+00
        -11   -1    0    0    0    0  0.00000000000E+00  0.00000000000E+00  0.45593999997E+02  0.45594000000E+02  0.51100000000E-03 0.  1.
         11   -1    0    0    0    0 -0.00000000000E+00 -0.00000000000E+00 -0.45593999997E+02  0.45594000000E+02  0.51100000000E-03 0. -1.
    9900012    2    1    2    0    0  0.96525699261E+00  0.29589769792E+02 -0.11841994377E+02  0.59301968133E+02  0.50000043962E+02 0.  0.
        -12    1    1    2    0    0 -0.96525699261E+00 -0.29589769792E+02  0.11841994377E+02  0.31886031867E+02  0.00000000000E+00 0.  1.
         11    1    3    3    0    0  0.50183553730E+01  0.17025097610E+01 -0.41293635470E+01  0.67181897637E+01  0.51100000000E-03 0. -1.
        -11    1    3    3    0    0 -0.13924825404E+02  0.14168500195E+02 -0.22579254196E+02  0.30074405740E+02  0.51100000000E-03 0.  1.
         12    1    3    3    0    0  0.98717270235E+01  0.13718759836E+02  0.14866623366E+02  0.22509372629E+02  0.00000000000E+00 0. -1.
</event>
<event>
 7    1  0.3755162E-013  0.5930195E+02  0.7816164E-02  0.1266605E+00
        -11   -1    0    0    0    0  0.00000000000E+00  0.00000000000E+00  0.45593999997E+02  0.45594000000E+02  0.51100000000E-03 0. -1.
         11   -1    0    0    0    0 -0.00000000000E+00 -0.00000000000E+00 -0.45593999997E+02  0.45594000000E+02  0.51100000000E-03 0.  1.
    9900012    2    1    2    0    0 -0.30313104178E+02 -0.62516110219E+01  0.76650627878E+01  0.59301951125E+02  0.50000012944E+02 0.  0.
        -12    1    1    2    0    0  0.30313104178E+02  0.62516110219E+01 -0.76650627878E+01  0.31886048875E+02  0.00000000000E+00 0.  1.
         11    1    3    3    0    0 -0.32588469992E+01  0.32742530555E+01  0.26087526200E+01  0.53053187773E+01  0.51100000000E-03 0. -1.
        -11    1    3    3    0    0 -0.17596237485E+02  0.14588119246E+02 -0.89536384249E+01  0.24548084203E+02  0.51100000000E-03 0.  1.
        -12    1    3    3    0    0 -0.94580196944E+01 -0.24113983323E+02  0.14009948593E+02  0.29448548145E+02  0.00000000000E+00 0.  1.
</event>
<event>
 7    1  0.3755162E-013  0.5930194E+02  0.7816164E-02  0.1266605E+00
        -11   -1    0    0    0    0  0.00000000000E+00  0.00000000000E+00  0.45593999997E+02  0.45594000000E+02  0.51100000000E-03 0. -1.
         11   -1    0    0    0    0 -0.00000000000E+00 -0.00000000000E+00 -0.45593999997E+02  0.45594000000E+02  0.51100000000E-03 0.  1.
    9900012    2    1    2    0    0  0.83210130819E+01  0.11064560420E+02  0.28723804709E+02  0.59301941715E+02  0.49999995783E+02 0.  0.
        -12    1    1    2    0    0 -0.83210130819E+01 -0.11064560420E+02 -0.28723804709E+02  0.31886058285E+02  0.00000000000E+00 0.  1.
         11    1    3    3    0    0 -0.12915796980E+02  0.84606893372E+00  0.14839523478E+02  0.19691244287E+02  0.51100000000E-03 0. -1.
        -11    1    3    3    0    0 -0.60099119748E+01  0.14197893438E+01 -0.24538617040E+01  0.66450192813E+01  0.51100000000E-03 0.  1.
         12    1    3    3    0    0  0.27246722036E+02  0.87987021425E+01  0.16338142935E+02  0.32965678147E+02  0.00000000000E+00 0. -1.
</event>
<event>
 7    1  0.3755162E-013  0.5930193E+02  0.7816164E-02  0.1266605E+00
        -11   -1    0    0    0    0  0.00000000000E+00  0.00000000000E+00  0.45593999997E+02  0.45594000000E+02  0.51100000000E-03 0.  1.
         11   -1    0    0    0    0 -0.00000000000E+00 -0.00000000000E+00 -0.45593999997E+02  0.45594000000E+02  0.51100000000E-03 0. -1.
    9900012    2    1    2    0    0 -0.15573051367E+00  0.96803435476E+01 -0.30380723703E+02  0.59301926615E+02  0.49999968243E+02 0.  0.
        -12    1    1    2    0    0  0.15573051367E+00 -0.96803435476E+01  0.30380723703E+02  0.31886073385E+02  0.00000000000E+00 0.  1.
         11    1    3    3    0    0  0.79039957515E+01  0.11235303253E+02 -0.18504617925E+02  0.23046172629E+02  0.51100000000E-03 0. -1.
        -11    1    3    3    0    0 -0.97047460307E+01  0.94586633577E+01 -0.18775908999E+02  0.23155629273E+02  0.51100000000E-03 0.  1.
        -12    1    3    3    0    0  0.16450197656E+01 -0.11013623063E+02  0.68998032212E+01  0.13100124713E+02  0.00000000000E+00 0.  1.
</event>
<event>
 7    1  0.3755162E-013  0.5930194E+02  0.7816164E-02  0.1266605E+00
        -11   -1    0    0    0    0  0.00000000000E+00  0.00000000000E+00  0.45593999997E+02  0.45594000000E+02  0.51100000000E-03 0. -1.
         11   -1    0    0    0    0 -0.00000000000E+00 -0.00000000000E+00 -0.45593999997E+02  0.45594000000E+02  0.51100000000E-03 0.  1.
    9900012    2    1    2    0    0 -0.20756267145E+02 -0.19406083081E+02  0.14467280176E+02  0.59301939064E+02  0.49999990946E+02 0.  0.
        -12    1    1    2    0    0  0.20756267145E+02  0.19406083081E+02 -0.14467280176E+02  0.31886060936E+02  0.00000000000E+00 0.  1.
         11    1    3    3    0    0 -0.17716526591E+02 -0.75049519657E+01  0.99151337876E+01  0.21645080198E+02  0.51100000000E-03 0. -1.
        -11    1    3    3    0    0  0.15420605679E+01  0.54907444525E+01  0.15558656038E+02  0.16570998866E+02  0.51100000000E-03 0.  1.
         12    1    3    3    0    0 -0.45818011217E+01 -0.17391875568E+02 -0.11006509650E+02  0.21085860000E+02  0.00000000000E+00 0. -1.
</event>
<event>
 7    1  0.3755162E-013  0.5930198E+02  0.7816164E-02  0.1266605E+00
        -11   -1    0    0    0    0  0.00000000000E+00  0.00000000000E+00  0.45593999997E+02  0.45594000000E+02  0.51100000000E-03 0.  1.
         11   -1    0    0    0    0 -0.00000000000E+00 -0.00000000000E+00 -0.45593999997E+02  0.45594000000E+02  0.51100000000E-03 0. -1.
    9900012    2    1    2    0    0  0.19283086545E+02 -0.14380954653E+02 -0.20930102942E+02  0.59301976532E+02  0.50000059280E+02 0.  0.
        -12    1    1    2    0    0 -0.19283086545E+02  0.14380954653E+02  0.20930102942E+02  0.31886023468E+02  0.00000000000E+00 0.  1.
         11    1    3    3    0    0  0.74435583738E+01  0.25335139014E+01  0.84600752053E+01  0.11549810678E+02  0.51100000000E-03 0. -1.
        -11    1    3    3    0    0  0.38075844730E+00  0.12957631006E+01  0.61009900381E+01  0.62486845587E+01  0.51100000000E-03 0.  1.
         12    1    3    3    0    0  0.11458769724E+02 -0.18210231655E+02 -0.35491168185E+02  0.41503481296E+02  0.00000000000E+00 0. -1.
</event>
<event>
 7    1  0.3755162E-013  0.5930194E+02  0.7816164E-02  0.1266605E+00
        -11   -1    0    0    0    0  0.00000000000E+00  0.00000000000E+00  0.45593999997E+02  0.45594000000E+02  0.51100000000E-03 0. -1.
         11   -1    0    0    0    0 -0.00000000000E+00 -0.00000000000E+00 -0.45593999997E+02  0.45594000000E+02  0.51100000000E-03 0.  1.
    9900012    2    1    2    0    0 -0.82401204748E+01 -0.13903576320E+02  0.27486576391E+02  0.59301938757E+02  0.49999990387E+02 0.  0.
        -12    1    1    2    0    0  0.82401204748E+01  0.13903576320E+02 -0.27486576391E+02  0.31886061243E+02  0.00000000000E+00 0.  1.
         11    1    3    3    0    0 -0.15974346822E+02 -0.44168601341E+01  0.53783278026E+01  0.17424546481E+02  0.51100000000E-03 0. -1.
        -11    1    3    3    0    0  0.50325865432E+00 -0.14485759864E+02 -0.34076211590E+01  0.14889673950E+02  0.51100000000E-03 0.  1.
        -12    1    3    3    0    0  0.72309676933E+01  0.49990436786E+01  0.25515869747E+02  0.26987718326E+02  0.00000000000E+00 0.  1.
</event>
<event>
 7    1  0.3755162E-013  0.5930201E+02  0.7816164E-02  0.1266605E+00
        -11   -1    0    0    0    0  0.00000000000E+00  0.00000000000E+00  0.45593999997E+02  0.45594000000E+02  0.51100000000E-03 0.  1.
         11   -1    0    0    0    0 -0.00000000000E+00 -0.00000000000E+00 -0.45593999997E+02  0.45594000000E+02  0.51100000000E-03 0. -1.
    9900012    2    1    2    0    0 -0.12570859096E+02 -0.56358915725E+01 -0.28756332760E+02  0.59302008624E+02  0.50000117808E+02 0.  0.
        -12    1    1    2    0    0  0.12570859096E+02  0.56358915725E+01  0.28756332760E+02  0.31885991376E+02  0.00000000000E+00 0.  1.
         11    1    3    3    0    0  0.52164110336E+01  0.12259572367E+02 -0.15259946638E+02  0.20257690647E+02  0.51100000000E-03 0. -1.
        -11    1    3    3    0    0  0.45265938129E+01  0.18280038903E+01 -0.70469682437E+01  0.85727131912E+01  0.51100000000E-03 0.  1.
        -12    1    3    3    0    0 -0.22313863942E+02 -0.19723467829E+02 -0.64494178783E+01  0.30471604786E+02  0.00000000000E+00 0.  1.
</event>
<event>
 7    1  0.3755162E-013  0.5930190E+02  0.7816164E-02  0.1266605E+00
        -11   -1    0    0    0    0  0.00000000000E+00  0.00000000000E+00  0.45593999997E+02  0.45594000000E+02  0.51100000000E-03 0. -1.
         11   -1    0    0    0    0 -0.00000000000E+00 -0.00000000000E+00 -0.45593999997E+02  0.45594000000E+02  0.51100000000E-03 0.  1.
    9900012    2    1    2    0    0 -0.94430709594E+01  0.74029900060E+01  0.29542304566E+02  0.59301896299E+02  0.49999912953E+02 0.  0.
        -12    1    1    2    0    0  0.94430709594E+01 -0.74029900060E+01 -0.29542304566E+02  0.31886103701E+02  0.00000000000E+00 0.  1.
         11    1    3    3    0    0 -0.79357112325E+00 -0.28864164454E+01  0.17614278759E+02  0.17866839997E+02  0.51100000000E-03 0. -1.
        -11    1    3    3    0    0  0.76229846162E+01 -0.10609420316E+02  0.23756499870E+01  0.13278305880E+02  0.51100000000E-03 0.  1.
        -12    1    3    3    0    0 -0.16272484452E+02  0.20898826768E+02  0.95523758206E+01  0.28156750422E+02  0.00000000000E+00 0.  1.
</event>
<event>
 7    1  0.3755162E-013  0.5930195E+02  0.7816164E-02  0.1266605E+00
        -11   -1    0    0    0    0  0.00000000000E+00  0.00000000000E+00  0.45593999997E+02  0.45594000000E+02  0.51100000000E-03 0.  1.
         11   -1    0    0    0    0 -0.00000000000E+00 -0.00000000000E+00 -0.45593999997E+02  0.45594000000E+02  0.51100000000E-03 0. -1.
    9900012    2    1    2    0    0 -0.36139150537E+01 -0.29708886408E+02 -0.11001907904E+02  0.59301948329E+02  0.50000007845E+02 0.  0.
        -12    1    1    2    0    0  0.36139150537E+01  0.29708886408E+02  0.11001907904E+02  0.31886051671E+02  0.00000000000E+00 0.  1.
         11    1    3    3    0    0 -0.10581745258E+02 -0.22958031971E+02  0.30157883922E+01  0.25458584890E+02  0.51100000000E-03 0. -1.
        -11    1    3    3    0    0  0.76960367792E+00  0.16205248144E+01  0.86833134396E+01  0.88666974148E+01  0.51100000000E-03 0.  1.
         12    1    3    3    0    0  0.61982265268E+01 -0.83713792509E+01 -0.22701009736E+02  0.24976666024E+02  0.00000000000E+00 0. -1.
</event>
<event>
 7    1  0.3755162E-013  0.5930195E+02  0.7816164E-02  0.1266605E+00
        -11   -1    0    0    0    0  0.00000000000E+00  0.00000000000E+00  0.45593999997E+02  0.45594000000E+02  0.51100000000E-03 0.  1.
         11   -1    0    0    0    0 -0.00000000000E+00 -0.00000000000E+00 -0.45593999997E+02  0.45594000000E+02  0.51100000000E-03 0. -1.
    9900012    2    1    2    0    0  0.22216871887E+02  0.95819278405E+01 -0.20768187699E+02  0.59301947282E+02  0.50000005936E+02 0.  0.
        -12    1    1    2    0    0 -0.22216871887E+02 -0.95819278405E+01  0.20768187699E+02  0.31886052718E+02  0.00000000000E+00 0.  1.
         11    1    3    3    0    0  0.91332751451E+01 -0.14473643202E+02 -0.10078259092E+02  0.19861378829E+02  0.51100000000E-03 0. -1.
        -11    1    3    3    0    0 -0.23642709930E+01  0.13001145250E+02  0.56619120895E+01  0.14376258342E+02  0.51100000000E-03 0.  1.
         12    1    3    3    0    0  0.15447867735E+02  0.11054425792E+02 -0.16351840697E+02  0.25064310111E+02  0.00000000000E+00 0. -1.
</event>
<event>
 7    1  0.3755162E-013  0.5930193E+02  0.7816164E-02  0.1266605E+00
        -11   -1    0    0    0    0  0.00000000000E+00  0.00000000000E+00  0.45593999997E+02  0.45594000000E+02  0.51100000000E-03 0.  1.
         11   -1    0    0    0    0 -0.00000000000E+00 -0.00000000000E+00 -0.45593999997E+02  0.45594000000E+02  0.51100000000E-03 0. -1.
    9900012    2    1    2    0    0  0.26644837273E+02  0.11172827909E+02  0.13488595794E+02  0.59301926969E+02  0.49999968890E+02 0.  0.
        -12    1    1    2    0    0 -0.26644837273E+02 -0.11172827909E+02 -0.13488595794E+02  0.31886073031E+02  0.00000000000E+00 0.  1.
         11    1    3    3    0    0 -0.15443182627E+01 -0.27509536182E+01  0.45601574340E+01  0.55450609365E+01  0.51100000000E-03 0. -1.
        -11    1    3    3    0    0  0.99482634837E+00 -0.20705483787E+01  0.20143170348E+02  0.20273730835E+02  0.51100000000E-03 0.  1.
         12    1    3    3    0    0  0.27194329188E+02  0.15994329906E+02 -0.11214731988E+02  0.33483135198E+02  0.00000000000E+00 0. -1.
</event>
<event>
 7    1  0.3755162E-013  0.5930194E+02  0.7816164E-02  0.1266605E+00
        -11   -1    0    0    0    0  0.00000000000E+00  0.00000000000E+00  0.45593999997E+02  0.45594000000E+02  0.51100000000E-03 0.  1.
         11   -1    0    0    0    0 -0.00000000000E+00 -0.00000000000E+00 -0.45593999997E+02  0.45594000000E+02  0.51100000000E-03 0. -1.
    9900012    2    1    2    0    0  0.62589978540E+01 -0.29586594410E+02 -0.10108368485E+02  0.59301941348E+02  0.49999995114E+02 0.  0.
        -12    1    1    2    0    0 -0.62589978540E+01  0.29586594410E+02  0.10108368485E+02  0.31886058652E+02  0.00000000000E+00 0.  1.
         11    1    3    3    0    0  0.17190621009E+01 -0.18523975691E+01 -0.38412841910E+01  0.45980447756E+01  0.51100000000E-03 0.  1.
        -11    1    3    3    0    0  0.37835984826E+01  0.65081339595E+01 -0.17179780147E+02  0.18756766013E+02  0.51100000000E-03 0. -1.
        -12    1    3    3    0    0  0.75633727049E+00 -0.34242330800E+02  0.10912695853E+02  0.35947130560E+02  0.00000000000E+00 0.  1.
</event>
<event>
 7    1  0.3755162E-013  0.5930194E+02  0.7816164E-02  0.1266605E+00
        -11   -1    0    0    0    0  0.00000000000E+00  0.00000000000E+00  0.45593999997E+02  0.45594000000E+02  0.51100000000E-03 0. -1.
         11   -1    0    0    0    0 -0.00000000000E+00 -0.00000000000E+00 -0.45593999997E+02  0.45594000000E+02  0.51100000000E-03 0.  1.
    9900012    2    1    2    0    0  0.20415401857E+02  0.22653806661E+02  0.93132952422E+01  0.59301936313E+02  0.49999985929E+02 0.  0.
        -12    1    1    2    0    0 -0.20415401857E+02 -0.22653806661E+02 -0.93132952422E+01  0.31886063687E+02  0.00000000000E+00 0.  1.
         11    1    3    3    0    0  0.33051868721E+01 -0.41567691380E+01  0.12375355294E+02  0.13466714850E+02  0.51100000000E-03 0. -1.
        -11    1    3    3    0    0  0.19842292929E+01 -0.77532714094E+01 -0.64961478990E+00  0.80294696631E+01  0.51100000000E-03 0.  1.
         12    1    3    3    0    0  0.15125985692E+02  0.34563847208E+02 -0.24124452622E+01  0.37805751800E+02  0.00000000000E+00 0. -1.
</event>
<event>
 7    1  0.3755162E-013  0.5930194E+02  0.7816164E-02  0.1266605E+00
        -11   -1    0    0    0    0  0.00000000000E+00  0.00000000000E+00  0.45593999997E+02  0.45594000000E+02  0.51100000000E-03 0. -1.
         11   -1    0    0    0    0 -0.00000000000E+00 -0.00000000000E+00 -0.45593999997E+02  0.45594000000E+02  0.51100000000E-03 0.  1.
    9900012    2    1    2    0    0 -0.21939197283E+02 -0.13901340828E+01  0.23096751234E+02  0.59301940856E+02  0.49999994215E+02 0.  0.
        -12    1    1    2    0    0  0.21939197283E+02  0.13901340828E+01 -0.23096751234E+02  0.31886059144E+02  0.00000000000E+00 0.  1.
         11    1    3    3    0    0 -0.25130068521E+02 -0.95112209022E+01  0.27730032438E+02  0.38612671058E+02  0.51100000000E-03 0. -1.
        -11    1    3    3    0    0 -0.57490533763E+01  0.11250047681E+01 -0.69642552756E+01  0.91004451680E+01  0.51100000000E-03 0.  1.
        -12    1    3    3    0    0  0.89399246144E+01  0.69960820513E+01  0.23309740715E+01  0.11588824630E+02  0.00000000000E+00 0.  1.
</event>
<event>
 7    1  0.3755162E-013  0.5930196E+02  0.7816164E-02  0.1266605E+00
        -11   -1    0    0    0    0  0.00000000000E+00  0.00000000000E+00  0.45593999997E+02  0.45594000000E+02  0.51100000000E-03 0. -1.
         11   -1    0    0    0    0 -0.00000000000E+00 -0.00000000000E+00 -0.45593999997E+02  0.45594000000E+02  0.51100000000E-03 0.  1.
    9900012    2    1    2    0    0 -0.30477033443E+02 -0.47374955340E+00 -0.93619225480E+01  0.59301959168E+02  0.50000027613E+02 0.  0.
        -12    1    1    2    0    0  0.30477033443E+02  0.47374955340E+00  0.93619225480E+01  0.31886040832E+02  0.00000000000E+00 0.  1.
         11    1    3    3    0    0  0.44646722601E+00  0.37480639954E+01 -0.69586754295E+01  0.79164689535E+01  0.51100000000E-03 0. -1.
        -11    1    3    3    0    0  0.54310750786E+01 -0.12303542184E+02  0.29275110154E+01  0.13763867472E+02  0.51100000000E-03 0.  1.
         12    1    3    3    0    0 -0.36354575748E+02  0.80817286350E+01 -0.53307581339E+01  0.37621622743E+02  0.00000000000E+00 0. -1.
</event>
<event>
 7    1  0.3755162E-013  0.5930193E+02  0.7816164E-02  0.1266605E+00
        -11   -1    0    0    0    0  0.00000000000E+00  0.00000000000E+00  0.45593999997E+02  0.45594000000E+02  0.51100000000E-03 0. -1.
         11   -1    0    0    0    0 -0.00000000000E+00 -0.00000000000E+00 -0.45593999997E+02  0.45594000000E+02  0.51100000000E-03 0.  1.
    9900012    2    1    2    0    0 -0.22065988869E+02 -0.22314284746E+02 -0.56467864307E+01  0.59301931483E+02  0.49999977121E+02 0.  0.
        -12    1    1    2    0    0  0.22065988869E+02  0.22314284746E+02  0.56467864307E+01  0.31886068517E+02  0.00000000000E+00 0.  1.
         11    1    3    3    0    0 -0.57672373037E+01 -0.11991350913E+02  0.65782120485E+01  0.14843395732E+02  0.51100000000E-03 0. -1.
        -11    1    3    3    0    0  0.98068648247E+01 -0.32466412302E+01 -0.13946995728E+02  0.17356093082E+02  0.51100000000E-03 0.  1.
        -12    1    3    3    0    0 -0.26105616390E+02 -0.70762926027E+01  0.17219972486E+01  0.27102442669E+02  0.00000000000E+00 0.  1.
</event>
<event>
 7    1  0.3755162E-013  0.5930195E+02  0.7816164E-02  0.1266605E+00
        -11   -1    0    0    0    0  0.00000000000E+00  0.00000000000E+00  0.45593999997E+02  0.45594000000E+02  0.51100000000E-03 0. -1.
         11   -1    0    0    0    0 -0.00000000000E+00 -0.00000000000E+00 -0.45593999997E+02  0.45594000000E+02  0.51100000000E-03 0.  1.
    9900012    2    1    2    0    0 -0.14976573846E+02  0.80491294839E+01  0.26974685617E+02  0.59301954247E+02  0.50000018637E+02 0.  0.
        -12    1    1    2    0    0  0.14976573846E+02 -0.80491294839E+01 -0.26974685617E+02  0.31886045753E+02  0.00000000000E+00 0.  1.
         11    1    3    3    0    0 -0.17684796396E+02 -0.14291073779E+02  0.18654931121E+02  0.29410767904E+02  0.51100000000E-03 0. -1.
        -11    1    3    3    0    0  0.67420773295E+01  0.10612532387E+01  0.36336586639E+01  0.77320980788E+01  0.51100000000E-03 0.  1.
        -12    1    3    3    0    0 -0.40338547803E+01  0.21278950024E+02  0.46860958329E+01  0.22159088264E+02  0.00000000000E+00 0.  1.
</event>
<event>
 7    1  0.3755162E-013  0.5930194E+02  0.7816164E-02  0.1266605E+00
        -11   -1    0    0    0    0  0.00000000000E+00  0.00000000000E+00  0.45593999997E+02  0.45594000000E+02  0.51100000000E-03 0.  1.
         11   -1    0    0    0    0 -0.00000000000E+00 -0.00000000000E+00 -0.45593999997E+02  0.45594000000E+02  0.51100000000E-03 0. -1.
    9900012    2    1    2    0    0  0.22337086139E+02  0.21900837056E+02 -0.61748710381E+01  0.59301935437E+02  0.49999984333E+02 0.  0.
        -12    1    1    2    0    0 -0.22337086139E+02 -0.21900837056E+02  0.61748710381E+01  0.31886064563E+02  0.00000000000E+00 0.  1.
         11    1    3    3    0    0  0.39533054888E+01  0.78186336978E+01 -0.12617189668E+02  0.15360766015E+02  0.51100000000E-03 0. -1.
        -11    1    3    3    0    0 -0.68748790532E+01 -0.73364596625E+01 -0.64148805903E+00  0.10074676648E+02  0.51100000000E-03 0.  1.
         12    1    3    3    0    0  0.25258659704E+02  0.21418663021E+02  0.70838066889E+01  0.33866492774E+02  0.00000000000E+00 0. -1.
</event>
<event>
 7    1  0.3755162E-013  0.5930199E+02  0.7816164E-02  0.1266605E+00
        -11   -1    0    0    0    0  0.00000000000E+00  0.00000000000E+00  0.45593999997E+02  0.45594000000E+02  0.51100000000E-03 0.  1.
         11   -1    0    0    0    0 -0.00000000000E+00 -0.00000000000E+00 -0.45593999997E+02  0.45594000000E+02  0.51100000000E-03 0. -1.
    9900012    2    1    2    0    0  0.10453959516E+02 -0.15501548591E+02 -0.25828945112E+02  0.59301989214E+02  0.50000082409E+02 0.  0.
        -12    1    1    2    0    0 -0.10453959516E+02  0.15501548591E+02  0.25828945112E+02  0.31886010786E+02  0.00000000000E+00 0.  1.
         11    1    3    3    0    0  0.10599911547E+00  0.70136647256E+01 -0.25682731563E+02  0.26623400036E+02  0.51100000000E-03 0.  1.
        -11    1    3    3    0    0  0.12160185484E+02 -0.16447993382E+02 -0.85384092543E+01  0.22165536992E+02  0.51100000000E-03 0. -1.
        -12    1    3    3    0    0 -0.18122250844E+01 -0.60672199342E+01  0.83921957054E+01  0.10513052185E+02  0.00000000000E+00 0.  1.
</event>
<event>
 7    1  0.3755162E-013  0.5930188E+02  0.7816164E-02  0.1266605E+00
        -11   -1    0    0    0    0  0.00000000000E+00  0.00000000000E+00  0.45593999997E+02  0.45594000000E+02  0.51100000000E-03 0.  1.
         11   -1    0    0    0    0 -0.00000000000E+00 -0.00000000000E+00 -0.45593999997E+02  0.45594000000E+02  0.51100000000E-03 0. -1.
    9900012    2    1    2    0    0 -0.80089084304E+00 -0.86884499317E+01 -0.30669103308E+02  0.59301882549E+02  0.49999887878E+02 0.  0.
        -12    1    1    2    0    0  0.80089084304E+00  0.86884499317E+01  0.30669103308E+02  0.31886117451E+02  0.00000000000E+00 0.  1.
         11    1    3    3    0    0 -0.35628324456E+01 -0.10143442851E+02  0.12026488062E+01  0.10818020721E+02  0.51100000000E-03 0. -1.
        -11    1    3    3    0    0 -0.59843980981E+01 -0.14724160659E+02 -0.65569386398E+01  0.17193236237E+02  0.51100000000E-03 0.  1.
         12    1    3    3    0    0  0.87463397007E+01  0.16179153578E+02 -0.25314813474E+02  0.31290625592E+02  0.00000000000E+00 0. -1.
</event>
<event>
 7    1  0.3755162E-013  0.5930194E+02  0.7816164E-02  0.1266605E+00
        -11   -1    0    0    0    0  0.00000000000E+00  0.00000000000E+00  0.45593999997E+02  0.45594000000E+02  0.51100000000E-03 0.  1.
         11   -1    0    0    0    0 -0.00000000000E+00 -0.00000000000E+00 -0.45593999997E+02  0.45594000000E+02  0.51100000000E-03 0. -1.
    9900012    2    1    2    0    0 -0.15922171036E+02 -0.10561959959E+02 -0.25527437345E+02  0.59301943704E+02  0.49999999410E+02 0.  0.
        -12    1    1    2    0    0  0.15922171036E+02  0.10561959959E+02  0.25527437345E+02  0.31886056296E+02  0.00000000000E+00 0.  1.
         11    1    3    3    0    0  0.62556120135E+01 -0.14310526475E+02 -0.16722009174E+02  0.22881202782E+02  0.51100000000E-03 0. -1.
        -11    1    3    3    0    0 -0.60007313490E+01  0.13518503708E+02  0.15494699342E+01  0.14871434919E+02  0.51100000000E-03 0.  1.
        -12    1    3    3    0    0 -0.16177051700E+02 -0.97699371921E+01 -0.10354898106E+02  0.21549306003E+02  0.00000000000E+00 0.  1.
</event>
<event>
 7    1  0.3755162E-013  0.5930195E+02  0.7816164E-02  0.1266605E+00
        -11   -1    0    0    0    0  0.00000000000E+00  0.00000000000E+00  0.45593999997E+02  0.45594000000E+02  0.51100000000E-03 0. -1.
         11   -1    0    0    0    0 -0.00000000000E+00 -0.00000000000E+00 -0.45593999997E+02  0.45594000000E+02  0.51100000000E-03 0.  1.
    9900012    2    1    2    0    0  0.37158062008E+01  0.17515579610E+02  0.26384041326E+02  0.59301946913E+02  0.50000005262E+02 0.  0.
        -12    1    1    2    0    0 -0.37158062008E+01 -0.17515579610E+02 -0.26384041326E+02  0.31886053087E+02  0.00000000000E+00 0.  1.
         11    1    3    3    0    0 -0.56831265063E+01 -0.27489376097E+01  0.17856763383E+01  0.65607335805E+01  0.51100000000E-03 0. -1.
        -11    1    3    3    0    0  0.91555917309E+01 -0.94180555290E+01 -0.14945813467E+01  0.13219621914E+02  0.51100000000E-03 0.  1.
         12    1    3    3    0    0  0.24334097608E+00  0.29682572749E+02  0.26092946334E+02  0.39521591418E+02  0.00000000000E+00 0. -1.
</event>
<event>
 7    1  0.3755162E-013  0.5930195E+02  0.7816164E-02  0.1266605E+00
        -11   -1    0    0    0    0  0.00000000000E+00  0.00000000000E+00  0.45593999997E+02  0.45594000000E+02  0.51100000000E-03 0. -1.
         11   -1    0    0    0    0 -0.00000000000E+00 -0.00000000000E+00 -0.45593999997E+02  0.45594000000E+02  0.51100000000E-03 0.  1.
    9900012    2    1    2    0    0  0.20226061718E+02  0.43824923209E+01  0.24257381028E+02  0.59301947471E+02  0.50000006279E+02 0.  0.
        -12    1    1    2    0    0 -0.20226061718E+02 -0.43824923209E+01 -0.24257381028E+02  0.31886052529E+02  0.00000000000E+00 0.  1.
         11    1    3    3    0    0 -0.10174937546E+02  0.20075387319E+01  0.78868673833E+01  0.13029284063E+02  0.51100000000E-03 0. -1.
        -11    1    3    3    0    0 -0.13692199619E+01 -0.58009302469E+01 -0.44320912607E+01  0.74275829338E+01  0.51100000000E-03 0.  1.
        -12    1    3    3    0    0  0.31770219226E+02  0.81758838359E+01  0.20802604905E+02  0.38845080474E+02  0.00000000000E+00 0.  1.
</event>
<event>
 7    1  0.3755162E-013  0.5930195E+02  0.7816164E-02  0.1266605E+00
        -11   -1    0    0    0    0  0.00000000000E+00  0.00000000000E+00  0.45593999997E+02  0.45594000000E+02  0.51100000000E-03 0.  1.
         11   -1    0    0    0    0 -0.00000000000E+00 -0.00000000000E+00 -0.45593999997E+02  0.45594000000E+02  0.51100000000E-03 0. -1.
    9900012    2    1    2    0    0 -0.24347413141E+02 -0.19770637322E+02 -0.57485451391E+01  0.59301946654E+02  0.50000004790E+02 0.  0.
        -12    1    1    2    0    0  0.24347413141E+02  0.19770637322E+02  0.57485451391E+01  0.31886053346E+02  0.00000000000E+00 0.  1.
         11    1    3    3    0    0 -0.23109024817E+02 -0.23556124574E+02 -0.68811837092E+01  0.33708585292E+02  0.51100000000E-03 0. -1.
        -11    1    3    3    0    0 -0.10480925433E+01 -0.82145400759E+01  0.82094663398E+01  0.11660724869E+02  0.51100000000E-03 0.  1.
        -12    1    3    3    0    0 -0.19029578080E+00  0.12000027328E+02 -0.70768277696E+01  0.13932636493E+02  0.00000000000E+00 0.  1.
</event>
<event>
 7    1  0.3755162E-013  0.5930194E+02  0.7816164E-02  0.1266605E+00
        -11   -1    0    0    0    0  0.00000000000E+00  0.00000000000E+00  0.45593999997E+02  0.45594000000E+02  0.51100000000E-03 0.  1.
         11   -1    0    0    0    0 -0.00000000000E+00 -0.00000000000E+00 -0.45593999997E+02  0.45594000000E+02  0.51100000000E-03 0. -1.
    9900012    2    1    2    0    0  0.30492193261E+02 -0.92782066901E+01  0.92845972387E+00  0.59301937108E+02  0.49999987381E+02 0.  0.
        -12    1    1    2    0    0 -0.30492193261E+02  0.92782066901E+01 -0.92845972387E+00  0.31886062892E+02  0.00000000000E+00 0.  1.
         11    1    3    3    0    0 -0.35619840221E-01 -0.16003440116E+02 -0.58425385552E+01  0.17036625879E+02  0.51100000000E-03 0. -1.
        -11    1    3    3    0    0  0.57634458230E+01 -0.10205605367E+02  0.18679530574E+01  0.11868485057E+02  0.51100000000E-03 0.  1.
         12    1    3    3    0    0  0.24764367279E+02  0.16930838792E+02  0.49030452217E+01  0.30396826173E+02  0.00000000000E+00 0. -1.
</event>
<event>
 7    1  0.3755162E-013  0.5930197E+02  0.7816164E-02  0.1266605E+00
        -11   -1    0    0    0    0  0.00000000000E+00  0.00000000000E+00  0.45593999997E+02  0.45594000000E+02  0.51100000000E-03 0. -1.
         11   -1    0    0    0    0 -0.00000000000E+00 -0.00000000000E+00 -0.45593999997E+02  0.45594000000E+02  0.51100000000E-03 0.  1.
    9900012    2    1    2    0    0 -0.19529590574E+02  0.22802954125E+02  0.10739616697E+02  0.59301968708E+02  0.50000045010E+02 0.  0.
        -12    1    1    2    0    0  0.19529590574E+02 -0.22802954125E+02 -0.10739616697E+02  0.31886031292E+02  0.00000000000E+00 0.  1.
         11    1    3    3    0    0 -0.23101755567E+02 -0.67829115643E+01 -0.16954740359E+01  0.24136562142E+02  0.51100000000E-03 0. -1.
        -11    1    3    3    0    0 -0.11262338115E+01 -0.12084965289E+01  0.79650280657E-01  0.16538472985E+01  0.51100000000E-03 0.  1.
        -12    1    3    3    0    0  0.46983988052E+01  0.30794362218E+02  0.12355440452E+02  0.33511559267E+02  0.00000000000E+00 0.  1.
</event>
<event>
 7    1  0.3755162E-013  0.5930210E+02  0.7816164E-02  0.1266604E+00
        -11   -1    0    0    0    0  0.00000000000E+00  0.00000000000E+00  0.45593999997E+02  0.45594000000E+02  0.51100000000E-03 0.  1.
         11   -1    0    0    0    0 -0.00000000000E+00 -0.00000000000E+00 -0.45593999997E+02  0.45594000000E+02  0.51100000000E-03 0. -1.
    9900012    2    1    2    0    0 -0.14603906403E+02  0.99754258434E+00 -0.28327394082E+02  0.59302102977E+02  0.50000289885E+02 0.  0.
        -12    1    1    2    0    0  0.14603906403E+02 -0.99754258434E+00  0.28327394082E+02  0.31885897023E+02  0.00000000000E+00 0.  1.
         11    1    3    3    0    0 -0.21390257663E+01  0.49059246955E+01 -0.20488534174E+02  0.21176013818E+02  0.51100000000E-03 0. -1.
        -11    1    3    3    0    0 -0.66275953623E+01  0.74110927245E+01 -0.18836230867E+02  0.21299129306E+02  0.51100000000E-03 0.  1.
        -12    1    3    3    0    0 -0.58372852748E+01 -0.11319474836E+02  0.10997370958E+02  0.16826959854E+02  0.00000000000E+00 0.  1.
</event>
<event>
 7    1  0.3755162E-013  0.5930174E+02  0.7816164E-02  0.1266605E+00
        -11   -1    0    0    0    0  0.00000000000E+00  0.00000000000E+00  0.45593999997E+02  0.45594000000E+02  0.51100000000E-03 0. -1.
         11   -1    0    0    0    0 -0.00000000000E+00 -0.00000000000E+00 -0.45593999997E+02  0.45594000000E+02  0.51100000000E-03 0.  1.
    9900012    2    1    2    0    0  0.21539107414E+02  0.23451638498E+02  0.16796798321E+01  0.59301736174E+02  0.49999620923E+02 0.  0.
        -12    1    1    2    0    0 -0.21539107414E+02 -0.23451638498E+02 -0.16796798321E+01  0.31886263826E+02  0.00000000000E+00 0.  1.
         11    1    3    3    0    0  0.86737256516E+01 -0.55032876956E+01  0.44317089865E+01  0.11187481260E+02  0.51100000000E-03 0. -1.
        -11    1    3    3    0    0  0.15377772797E+02 -0.48908679843E-01  0.76802365130E+01  0.17189075641E+02  0.51100000000E-03 0.  1.
        -12    1    3    3    0    0 -0.25123910340E+01  0.29003834874E+02 -0.10432265667E+02  0.30925179273E+02  0.00000000000E+00 0.  1.
</event>
<event>
 7    1  0.3755162E-013  0.5930200E+02  0.7816164E-02  0.1266605E+00
        -11   -1    0    0    0    0  0.00000000000E+00  0.00000000000E+00  0.45593999997E+02  0.45594000000E+02  0.51100000000E-03 0.  1.
         11   -1    0    0    0    0 -0.00000000000E+00 -0.00000000000E+00 -0.45593999997E+02  0.45594000000E+02  0.51100000000E-03 0. -1.
    9900012    2    1    2    0    0 -0.11011283022E+02 -0.19946704982E+02  0.22306894347E+02  0.59302001053E+02  0.50000104001E+02 0.  0.
        -12    1    1    2    0    0  0.11011283022E+02  0.19946704982E+02 -0.22306894347E+02  0.31885998947E+02  0.00000000000E+00 0.  1.
         11    1    3    3    0    0 -0.26657445707E+01 -0.97878458797E+01 -0.14185156906E+01  0.10243061462E+02  0.51100000000E-03 0. -1.
        -11    1    3    3    0    0  0.66150308329E+00 -0.13291555134E+02 -0.82728951276E+01  0.15669837850E+02  0.51100000000E-03 0.  1.
        -12    1    3    3    0    0 -0.90070415344E+01  0.31326960318E+01  0.31998305165E+02  0.33389101741E+02  0.00000000000E+00 0.  1.
</event>
<event>
 7    1  0.3755162E-013  0.5930194E+02  0.7816164E-02  0.1266605E+00
        -11   -1    0    0    0    0  0.00000000000E+00  0.00000000000E+00  0.45593999997E+02  0.45594000000E+02  0.51100000000E-03 0.  1.
         11   -1    0    0    0    0 -0.00000000000E+00 -0.00000000000E+00 -0.45593999997E+02  0.45594000000E+02  0.51100000000E-03 0. -1.
    9900012    2    1    2    0    0  0.62636327706E+01 -0.16681996878E+02 -0.26442370598E+02  0.59301935988E+02  0.49999985337E+02 0.  0.
        -12    1    1    2    0    0 -0.62636327706E+01  0.16681996878E+02  0.26442370598E+02  0.31886064012E+02  0.00000000000E+00 0.  1.
         11    1    3    3    0    0  0.88361337692E+01  0.68732320723E-01  0.32498845735E+01  0.94150801441E+01  0.51100000000E-03 0. -1.
        -11    1    3    3    0    0  0.16593378565E+02 -0.11487247288E+02 -0.15942703830E+02  0.25718998194E+02  0.51100000000E-03 0.  1.
        -12    1    3    3    0    0 -0.19165879563E+02 -0.52634819105E+01 -0.13749551342E+02  0.24167857649E+02  0.00000000000E+00 0.  1.
</event>
<event>
 7    1  0.3755162E-013  0.5930193E+02  0.7816164E-02  0.1266605E+00
        -11   -1    0    0    0    0  0.00000000000E+00  0.00000000000E+00  0.45593999997E+02  0.45594000000E+02  0.51100000000E-03 0. -1.
         11   -1    0    0    0    0 -0.00000000000E+00 -0.00000000000E+00 -0.45593999997E+02  0.45594000000E+02  0.51100000000E-03 0.  1.
    9900012    2    1    2    0    0  0.30042861255E+02 -0.99098732257E+01  0.39927923449E+01  0.59301929523E+02  0.49999973547E+02 0.  0.
        -12    1    1    2    0    0 -0.30042861255E+02  0.99098732257E+01 -0.39927923449E+01  0.31886070477E+02  0.00000000000E+00 0.  1.
         11    1    3    3    0    0  0.27646929013E+02 -0.58231102640E+00  0.16407711003E+02  0.32154389290E+02  0.51100000000E-03 0. -1.
        -11    1    3    3    0    0 -0.29477292325E+01 -0.32995242334E+01  0.57624854974E+01  0.72651364174E+01  0.51100000000E-03 0.  1.
        -12    1    3    3    0    0  0.53436614749E+01 -0.60280379658E+01 -0.18177404155E+02  0.19882403816E+02  0.00000000000E+00 0.  1.
</event>
<event>
 7    1  0.3755162E-013  0.5930197E+02  0.7816164E-02  0.1266605E+00
        -11   -1    0    0    0    0  0.00000000000E+00  0.00000000000E+00  0.45593999997E+02  0.45594000000E+02  0.51100000000E-03 0.  1.
         11   -1    0    0    0    0 -0.00000000000E+00 -0.00000000000E+00 -0.45593999997E+02  0.45594000000E+02  0.51100000000E-03 0. -1.
    9900012    2    1    2    0    0  0.25598366506E+02 -0.17502841143E+02 -0.74224897355E+01  0.59301965914E+02  0.50000039916E+02 0.  0.
        -12    1    1    2    0    0 -0.25598366506E+02  0.17502841143E+02  0.74224897355E+01  0.31886034086E+02  0.00000000000E+00 0.  1.
         11    1    3    3    0    0  0.12683695075E+02 -0.16621945007E+02  0.13610586424E+02  0.24948211151E+02  0.51100000000E-03 0. -1.
        -11    1    3    3    0    0  0.72686537076E+01  0.11457233891E+02 -0.11257496467E+02  0.17630449856E+02  0.51100000000E-03 0.  1.
         12    1    3    3    0    0  0.56460177232E+01 -0.12338130027E+02 -0.97755796922E+01  0.16723304907E+02  0.00000000000E+00 0. -1.
</event>
<event>
 7    1  0.3755162E-013  0.5930197E+02  0.7816164E-02  0.1266605E+00
        -11   -1    0    0    0    0  0.00000000000E+00  0.00000000000E+00  0.45593999997E+02  0.45594000000E+02  0.51100000000E-03 0.  1.
         11   -1    0    0    0    0 -0.00000000000E+00 -0.00000000000E+00 -0.45593999997E+02  0.45594000000E+02  0.51100000000E-03 0. -1.
    9900012    2    1    2    0    0  0.23982517339E+01 -0.23982495414E+02 -0.20875988996E+02  0.59301974625E+02  0.50000055802E+02 0.  0.
        -12    1    1    2    0    0 -0.23982517339E+01  0.23982495414E+02  0.20875988996E+02  0.31886025375E+02  0.00000000000E+00 0.  1.
         11    1    3    3    0    0 -0.89454771065E+01 -0.54983514005E+01  0.32276491696E+01  0.10985042021E+02  0.51100000000E-03 0. -1.
        -11    1    3    3    0    0  0.17305122362E+02 -0.14242630974E+02  0.73362513275E+00  0.22424495605E+02  0.51100000000E-03 0.  1.
         12    1    3    3    0    0 -0.59613935218E+01 -0.42415130390E+01 -0.24837263298E+02  0.25892436999E+02  0.00000000000E+00 0. -1.
</event>
<event>
 7    1  0.3755162E-013  0.5930195E+02  0.7816164E-02  0.1266605E+00
        -11   -1    0    0    0    0  0.00000000000E+00  0.00000000000E+00  0.45593999997E+02  0.45594000000E+02  0.51100000000E-03 0. -1.
         11   -1    0    0    0    0 -0.00000000000E+00 -0.00000000000E+00 -0.45593999997E+02  0.45594000000E+02  0.51100000000E-03 0.  1.
    9900012    2    1    2    0    0 -0.57480841519E+01 -0.16311442935E+02  0.26788369874E+02  0.59301946582E+02  0.50000004659E+02 0.  0.
        -12    1    1    2    0    0  0.57480841519E+01  0.16311442935E+02 -0.26788369874E+02  0.31886053418E+02  0.00000000000E+00 0.  1.
         11    1    3    3    0    0 -0.66857708539E+01  0.24535039681E+00  0.24418593310E+02  0.25318519471E+02  0.51100000000E-03 0. -1.
        -11    1    3    3    0    0  0.23278039333E+01  0.84568954485E+01  0.16210642764E+01  0.89199552369E+01  0.51100000000E-03 0.  1.
         12    1    3    3    0    0 -0.13901172313E+01 -0.25013688780E+02  0.74871228825E+00  0.25063471874E+02  0.00000000000E+00 0. -1.
</event>
<event>
 7    1  0.3755162E-013  0.5930194E+02  0.7816164E-02  0.1266605E+00
        -11   -1    0    0    0    0  0.00000000000E+00  0.00000000000E+00  0.45593999997E+02  0.45594000000E+02  0.51100000000E-03 0.  1.
         11   -1    0    0    0    0 -0.00000000000E+00 -0.00000000000E+00 -0.45593999997E+02  0.45594000000E+02  0.51100000000E-03 0. -1.
    9900012    2    1    2    0    0  0.26561805061E+02 -0.11887837842E+02 -0.13033448552E+02  0.59301937875E+02  0.49999988779E+02 0.  0.
        -12    1    1    2    0    0 -0.26561805061E+02  0.11887837842E+02  0.13033448552E+02  0.31886062125E+02  0.00000000000E+00 0.  1.
         11    1    3    3    0    0  0.76850335815E+01 -0.17171681348E+02 -0.98143770880E+01  0.21219056986E+02  0.51100000000E-03 0. -1.
        -11    1    3    3    0    0 -0.17115154393E+01 -0.90742529334E+01 -0.83657471480E+01  0.12460219782E+02  0.51100000000E-03 0.  1.
        -12    1    3    3    0    0  0.20588286919E+02  0.14358096440E+02  0.51466756841E+01  0.25622661108E+02  0.00000000000E+00 0.  1.
</event>
<event>
 7    1  0.3755162E-013  0.5930198E+02  0.7816164E-02  0.1266605E+00
        -11   -1    0    0    0    0  0.00000000000E+00  0.00000000000E+00  0.45593999997E+02  0.45594000000E+02  0.51100000000E-03 0.  1.
         11   -1    0    0    0    0 -0.00000000000E+00 -0.00000000000E+00 -0.45593999997E+02  0.45594000000E+02  0.51100000000E-03 0. -1.
    9900012    2    1    2    0    0  0.26040021559E+02 -0.13441911810E+01 -0.18352893803E+02  0.59301979808E+02  0.50000065254E+02 0.  0.
        -12    1    1    2    0    0 -0.26040021559E+02  0.13441911810E+01  0.18352893803E+02  0.31886020192E+02  0.00000000000E+00 0.  1.
         11    1    3    3    0    0  0.10863513734E+02 -0.24929391359E+02 -0.32508031436E+01  0.27387190537E+02  0.51100000000E-03 0.  1.
        -11    1    3    3    0    0  0.51786887230E+01  0.94466655522E+01 -0.64644279823E+01  0.12563723029E+02  0.51100000000E-03 0. -1.
        -12    1    3    3    0    0  0.99978191026E+01  0.14138534626E+02 -0.86376626773E+01  0.19351066242E+02  0.00000000000E+00 0.  1.
</event>
<event>
 7    1  0.3755162E-013  0.5930211E+02  0.7816164E-02  0.1266604E+00
        -11   -1    0    0    0    0  0.00000000000E+00  0.00000000000E+00  0.45593999997E+02  0.45594000000E+02  0.51100000000E-03 0. -1.
         11   -1    0    0    0    0 -0.00000000000E+00 -0.00000000000E+00 -0.45593999997E+02  0.45594000000E+02  0.51100000000E-03 0.  1.
    9900012    2    1    2    0    0 -0.14016890552E+02  0.12157139129E+02  0.25931456077E+02  0.59302114928E+02  0.50000311680E+02 0.  0.
        -12    1    1    2    0    0  0.14016890552E+02 -0.12157139129E+02 -0.25931456077E+02  0.31885885072E+02  0.00000000000E+00 0.  1.
         11    1    3    3    0    0 -0.35580988833E+01 -0.22939187518E+01  0.14810669982E+02  0.15403833175E+02  0.51100000000E-03 0. -1.
        -11    1    3    3    0    0 -0.82050757076E+01  0.78407094128E+01  0.25500698812E+02  0.27912105467E+02  0.51100000000E-03 0.  1.
        -12    1    3    3    0    0 -0.22537159611E+01  0.66103484685E+01 -0.14379912717E+02  0.15986176286E+02  0.00000000000E+00 0.  1.
</event>
<event>
 7    1  0.3755162E-013  0.5930192E+02  0.7816164E-02  0.1266605E+00
        -11   -1    0    0    0    0  0.00000000000E+00  0.00000000000E+00  0.45593999997E+02  0.45594000000E+02  0.51100000000E-03 0. -1.
         11   -1    0    0    0    0 -0.00000000000E+00 -0.00000000000E+00 -0.45593999997E+02  0.45594000000E+02  0.51100000000E-03 0.  1.
    9900012    2    1    2    0    0 -0.53918099613E+01 -0.50525666228E+01  0.31018096101E+02  0.59301916361E+02  0.49999949542E+02 0.  0.
        -12    1    1    2    0    0  0.53918099613E+01  0.50525666228E+01 -0.31018096101E+02  0.31886083639E+02  0.00000000000E+00 0.  1.
         11    1    3    3    0    0 -0.17243021698E+02  0.68051651925E+01 -0.11704586798E+01  0.18574230653E+02  0.51100000000E-03 0. -1.
        -11    1    3    3    0    0 -0.31813712033E+01  0.24396287234E+01  0.72825570942E+01  0.83131551852E+01  0.51100000000E-03 0.  1.
        -12    1    3    3    0    0  0.15032582940E+02 -0.14297360539E+02  0.24905997687E+02  0.32414530522E+02  0.00000000000E+00 0.  1.
</event>
<event>
 7    1  0.3755162E-013  0.5930195E+02  0.7816164E-02  0.1266605E+00
        -11   -1    0    0    0    0  0.00000000000E+00  0.00000000000E+00  0.45593999997E+02  0.45594000000E+02  0.51100000000E-03 0.  1.
         11   -1    0    0    0    0 -0.00000000000E+00 -0.00000000000E+00 -0.45593999997E+02  0.45594000000E+02  0.51100000000E-03 0. -1.
    9900012    2    1    2    0    0 -0.76478117567E+01  0.14682554107E+02 -0.27251671694E+02  0.59301952426E+02  0.50000015317E+02 0.  0.
        -12    1    1    2    0    0  0.76478117567E+01 -0.14682554107E+02  0.27251671694E+02  0.31886047574E+02  0.00000000000E+00 0.  1.
         11    1    3    3    0    0  0.52454033785E+01  0.52770011499E+01 -0.69332191909E+00  0.74727299753E+01  0.51100000000E-03 0. -1.
        -11    1    3    3    0    0 -0.21066262938E+02  0.17650305430E+02 -0.29012879036E+02  0.39963331519E+02  0.51100000000E-03 0.  1.
         12    1    3    3    0    0  0.81730478023E+01 -0.82447524726E+01  0.24545292610E+01  0.11865890932E+02  0.00000000000E+00 0. -1.
</event>
<event>
 7    1  0.3755162E-013  0.5930194E+02  0.7816164E-02  0.1266605E+00
        -11   -1    0    0    0    0  0.00000000000E+00  0.00000000000E+00  0.45593999997E+02  0.45594000000E+02  0.51100000000E-03 0.  1.
         11   -1    0    0    0    0 -0.00000000000E+00 -0.00000000000E+00 -0.45593999997E+02  0.45594000000E+02  0.51100000000E-03 0. -1.
    9900012    2    1    2    0    0  0.76935913963E+01 -0.30792313383E+02 -0.30598607517E+01  0.59301942548E+02  0.49999997301E+02 0.  0.
        -12    1    1    2    0    0 -0.76935913963E+01  0.30792313383E+02  0.30598607517E+01  0.31886057452E+02  0.00000000000E+00 0.  1.
         11    1    3    3    0    0  0.12835179177E+02 -0.25782397622E+02  0.59770739411E+01  0.29414269747E+02  0.51100000000E-03 0. -1.
        -11    1    3    3    0    0  0.22914721195E+01 -0.15274083694E+02 -0.73440765939E+01  0.17102161806E+02  0.51100000000E-03 0.  1.
        -12    1    3    3    0    0 -0.74330599002E+01  0.10264167933E+02 -0.16928580989E+01  0.12785510994E+02  0.00000000000E+00 0.  1.
</event>
<event>
 7    1  0.3755162E-013  0.5930195E+02  0.7816164E-02  0.1266605E+00
        -11   -1    0    0    0    0  0.00000000000E+00  0.00000000000E+00  0.45593999997E+02  0.45594000000E+02  0.51100000000E-03 0.  1.
         11   -1    0    0    0    0 -0.00000000000E+00 -0.00000000000E+00 -0.45593999997E+02  0.45594000000E+02  0.51100000000E-03 0. -1.
    9900012    2    1    2    0    0  0.14505725166E+02  0.13458874585E+02 -0.25003257265E+02  0.59301949107E+02  0.50000009263E+02 0.  0.
        -12    1    1    2    0    0 -0.14505725166E+02 -0.13458874585E+02  0.25003257265E+02  0.31886050893E+02  0.00000000000E+00 0.  1.
         11    1    3    3    0    0  0.84514948091E+00  0.28216592917E+01 -0.87012714865E+01  0.91863030947E+01  0.51100000000E-03 0. -1.
        -11    1    3    3    0    0  0.25912773307E+02 -0.20315548409E+01 -0.19120412553E+02  0.32267463675E+02  0.51100000000E-03 0.  1.
        -12    1    3    3    0    0 -0.12252197622E+02  0.12668770134E+02  0.28184267748E+01  0.17848182338E+02  0.00000000000E+00 0.  1.
</event>
<event>
 7    1  0.3755162E-013  0.5930198E+02  0.7816164E-02  0.1266605E+00
        -11   -1    0    0    0    0  0.00000000000E+00  0.00000000000E+00  0.45593999997E+02  0.45594000000E+02  0.51100000000E-03 0.  1.
         11   -1    0    0    0    0 -0.00000000000E+00 -0.00000000000E+00 -0.45593999997E+02  0.45594000000E+02  0.51100000000E-03 0. -1.
    9900012    2    1    2    0    0 -0.83618989619E+01 -0.15495412294E+02 -0.26583623287E+02  0.59301981380E+02  0.50000068121E+02 0.  0.
        -12    1    1    2    0    0  0.83618989619E+01  0.15495412294E+02  0.26583623287E+02  0.31886018620E+02  0.00000000000E+00 0.  1.
         11    1    3    3    0    0 -0.10782897101E+01  0.90559417365E+01 -0.27610232757E+02  0.29077443880E+02  0.51100000000E-03 0. -1.
        -11    1    3    3    0    0 -0.87732879474E+01 -0.67330837677E+01  0.46220898294E+01  0.11986188430E+02  0.51100000000E-03 0.  1.
        -12    1    3    3    0    0  0.14896786955E+01 -0.17818270263E+02 -0.35954803595E+01  0.18238349070E+02  0.00000000000E+00 0.  1.
</event>
<event>
 7    1  0.3755162E-013  0.5930192E+02  0.7816164E-02  0.1266605E+00
        -11   -1    0    0    0    0  0.00000000000E+00  0.00000000000E+00  0.45593999997E+02  0.45594000000E+02  0.51100000000E-03 0.  1.
         11   -1    0    0    0    0 -0.00000000000E+00 -0.00000000000E+00 -0.45593999997E+02  0.45594000000E+02  0.51100000000E-03 0. -1.
    9900012    2    1    2    0    0  0.33772239342E+01 -0.28624569490E+02 -0.13636361580E+02  0.59301921892E+02  0.49999959629E+02 0.  0.
        -12    1    1    2    0    0 -0.33772239342E+01  0.28624569490E+02  0.13636361580E+02  0.31886078108E+02  0.00000000000E+00 0.  1.
         11    1    3    3    0    0  0.10276036181E+01  0.68687647660E+01 -0.27505605901E+01  0.74700389843E+01  0.51100000000E-03 0. -1.
        -11    1    3    3    0    0  0.58999545356E+01 -0.40972879611E+01  0.11183307970E+02  0.13291486357E+02  0.51100000000E-03 0.  1.
         12    1    3    3    0    0 -0.35503342195E+01 -0.31396046295E+02 -0.22069108960E+02  0.38540396551E+02  0.00000000000E+00 0. -1.
</event>
<event>
 7    1  0.3755162E-013  0.5930195E+02  0.7816164E-02  0.1266605E+00
        -11   -1    0    0    0    0  0.00000000000E+00  0.00000000000E+00  0.45593999997E+02  0.45594000000E+02  0.51100000000E-03 0.  1.
         11   -1    0    0    0    0 -0.00000000000E+00 -0.00000000000E+00 -0.45593999997E+02  0.45594000000E+02  0.51100000000E-03 0. -1.
    9900012    2    1    2    0    0 -0.29495967844E+02 -0.65617592842E+01 -0.10180946123E+02  0.59301945557E+02  0.50000002790E+02 0.  0.
        -12    1    1    2    0    0  0.29495967844E+02  0.65617592842E+01  0.10180946123E+02  0.31886054443E+02  0.00000000000E+00 0.  1.
         11    1    3    3    0    0 -0.11413275736E+01  0.21784511885E+01 -0.13061655133E+02  0.13291166739E+02  0.51100000000E-03 0. -1.
        -11    1    3    3    0    0 -0.30346979101E+01  0.12500185599E+02  0.42249818801E+00  0.12870218973E+02  0.51100000000E-03 0.  1.
        -12    1    3    3    0    0 -0.25319942360E+02 -0.21240396072E+02  0.24582108222E+01  0.33140559846E+02  0.00000000000E+00 0.  1.
</event>
<event>
 7    1  0.3755162E-013  0.5930195E+02  0.7816164E-02  0.1266605E+00
        -11   -1    0    0    0    0  0.00000000000E+00  0.00000000000E+00  0.45593999997E+02  0.45594000000E+02  0.51100000000E-03 0.  1.
         11   -1    0    0    0    0 -0.00000000000E+00 -0.00000000000E+00 -0.45593999997E+02  0.45594000000E+02  0.51100000000E-03 0. -1.
    9900012    2    1    2    0    0  0.20409795334E+02  0.10238444222E+02 -0.22256119613E+02  0.59301947471E+02  0.50000006279E+02 0.  0.
        -12    1    1    2    0    0 -0.20409795334E+02 -0.10238444222E+02  0.22256119613E+02  0.31886052529E+02  0.00000000000E+00 0.  1.
         11    1    3    3    0    0  0.27706536178E+02 -0.57895819074E+01 -0.15075278033E+02  0.32069228455E+02  0.51100000000E-03 0. -1.
        -11    1    3    3    0    0 -0.68693068613E+01 -0.49790648748E+00  0.33224207213E+01  0.76468141952E+01  0.51100000000E-03 0.  1.
        -12    1    3    3    0    0 -0.42743398247E+00  0.16525932617E+02 -0.10503262301E+02  0.19585904821E+02  0.00000000000E+00 0.  1.
</event>
<event>
 7    1  0.3755162E-013  0.5930199E+02  0.7816164E-02  0.1266605E+00
        -11   -1    0    0    0    0  0.00000000000E+00  0.00000000000E+00  0.45593999997E+02  0.45594000000E+02  0.51100000000E-03 0.  1.
         11   -1    0    0    0    0 -0.00000000000E+00 -0.00000000000E+00 -0.45593999997E+02  0.45594000000E+02  0.51100000000E-03 0. -1.
    9900012    2    1    2    0    0 -0.10552952979E+02 -0.29644970812E+02  0.51506146984E+01  0.59301985154E+02  0.50000075004E+02 0.  0.
        -12    1    1    2    0    0  0.10552952979E+02  0.29644970812E+02 -0.51506146984E+01  0.31886014846E+02  0.00000000000E+00 0.  1.
         11    1    3    3    0    0 -0.18314154583E+02 -0.17343418466E+02 -0.69433661679E+01  0.26161283535E+02  0.51100000000E-03 0. -1.
        -11    1    3    3    0    0 -0.90486314179E+01 -0.71111533199E+01  0.10321071311E+02  0.15458678641E+02  0.51100000000E-03 0.  1.
        -12    1    3    3    0    0  0.16809833022E+02 -0.51903990257E+01  0.17729095558E+01  0.17682022978E+02  0.00000000000E+00 0.  1.
</event>
<event>
 7    1  0.3755162E-013  0.5930194E+02  0.7816164E-02  0.1266605E+00
        -11   -1    0    0    0    0  0.00000000000E+00  0.00000000000E+00  0.45593999997E+02  0.45594000000E+02  0.51100000000E-03 0.  1.
         11   -1    0    0    0    0 -0.00000000000E+00 -0.00000000000E+00 -0.45593999997E+02  0.45594000000E+02  0.51100000000E-03 0. -1.
    9900012    2    1    2    0    0  0.12738491557E+02  0.58846888911E+01 -0.28632539127E+02  0.59301936785E+02  0.49999986791E+02 0.  0.
        -12    1    1    2    0    0 -0.12738491557E+02 -0.58846888911E+01  0.28632539127E+02  0.31886063215E+02  0.00000000000E+00 0.  1.
         11    1    3    3    0    0 -0.11435253318E+02 -0.77294890201E+01 -0.12541821833E+02  0.18649592867E+02  0.51100000000E-03 0. -1.
        -11    1    3    3    0    0 -0.27298960687E+01  0.86286554423E+01 -0.81054667984E+01  0.12149264158E+02  0.51100000000E-03 0.  1.
        -12    1    3    3    0    0  0.26903640944E+02  0.49855224689E+01 -0.79852504958E+01  0.28503079760E+02  0.00000000000E+00 0.  1.
</event>
<event>
 7    1  0.3755162E-013  0.5930193E+02  0.7816164E-02  0.1266605E+00
        -11   -1    0    0    0    0  0.00000000000E+00  0.00000000000E+00  0.45593999997E+02  0.45594000000E+02  0.51100000000E-03 0.  1.
         11   -1    0    0    0    0 -0.00000000000E+00 -0.00000000000E+00 -0.45593999997E+02  0.45594000000E+02  0.51100000000E-03 0. -1.
    9900012    2    1    2    0    0 -0.10786295610E+02  0.12090479548E+02 -0.27462661333E+02  0.59301927238E+02  0.49999969380E+02 0.  0.
        -12    1    1    2    0    0  0.10786295610E+02 -0.12090479548E+02  0.27462661333E+02  0.31886072762E+02  0.00000000000E+00 0.  1.
         11    1    3    3    0    0  0.69859593684E+01 -0.35971332915E+01  0.63999094888E+01  0.10134191529E+02  0.51100000000E-03 0. -1.
        -11    1    3    3    0    0  0.19480416107E+01 -0.39024924849E+01  0.11034710169E+01  0.44991068289E+01  0.51100000000E-03 0.  1.
         12    1    3    3    0    0 -0.19720296589E+02  0.19590105325E+02 -0.34966041839E+02  0.44668628880E+02  0.00000000000E+00 0. -1.
</event>
<event>
 7    1  0.3755162E-013  0.5930194E+02  0.7816164E-02  0.1266605E+00
        -11   -1    0    0    0    0  0.00000000000E+00  0.00000000000E+00  0.45593999997E+02  0.45594000000E+02  0.51100000000E-03 0.  1.
         11   -1    0    0    0    0 -0.00000000000E+00 -0.00000000000E+00 -0.45593999997E+02  0.45594000000E+02  0.51100000000E-03 0. -1.
    9900012    2    1    2    0    0 -0.10120426475E+02  0.30115203142E+02 -0.27152086911E+01  0.59301939557E+02  0.49999991847E+02 0.  0.
        -12    1    1    2    0    0  0.10120426475E+02 -0.30115203142E+02  0.27152086911E+01  0.31886060443E+02  0.00000000000E+00 0.  1.
         11    1    3    3    0    0 -0.81320670715E+01  0.29262552722E+02  0.18105616465E+01  0.30425411097E+02  0.51100000000E-03 0. -1.
        -11    1    3    3    0    0 -0.15196984177E+02  0.13347112154E+01 -0.32486936456E+01  0.15597557269E+02  0.51100000000E-03 0.  1.
         12    1    3    3    0    0  0.13208624774E+02 -0.48206079536E+00 -0.12770766920E+01  0.13278971191E+02  0.00000000000E+00 0. -1.
</event>
<event>
 7    1  0.3755162E-013  0.5930194E+02  0.7816164E-02  0.1266605E+00
        -11   -1    0    0    0    0  0.00000000000E+00  0.00000000000E+00  0.45593999997E+02  0.45594000000E+02  0.51100000000E-03 0.  1.
         11   -1    0    0    0    0 -0.00000000000E+00 -0.00000000000E+00 -0.45593999997E+02  0.45594000000E+02  0.51100000000E-03 0. -1.
    9900012    2    1    2    0    0 -0.16504632247E+02  0.90847271495E+01 -0.25725199708E+02  0.59301936383E+02  0.49999986057E+02 0.  0.
        -12    1    1    2    0    0  0.16504632247E+02 -0.90847271495E+01  0.25725199708E+02  0.31886063617E+02  0.00000000000E+00 0.  1.
         11    1    3    3    0    0 -0.40267042124E+01  0.72019260256E+01 -0.30240406181E+01  0.87878841147E+01  0.51100000000E-03 0. -1.
        -11    1    3    3    0    0 -0.26699824467E-02  0.11912887010E+02 -0.30473706560E+02  0.32719469369E+02  0.51100000000E-03 0.  1.
        -12    1    3    3    0    0 -0.12475258052E+02 -0.10030085886E+02  0.77725474701E+01  0.17794582899E+02  0.00000000000E+00 0.  1.
</event>
<event>
 7    1  0.3755162E-013  0.5930196E+02  0.7816164E-02  0.1266605E+00
        -11   -1    0    0    0    0  0.00000000000E+00  0.00000000000E+00  0.45593999997E+02  0.45594000000E+02  0.51100000000E-03 0. -1.
         11   -1    0    0    0    0 -0.00000000000E+00 -0.00000000000E+00 -0.45593999997E+02  0.45594000000E+02  0.51100000000E-03 0.  1.
    9900012    2    1    2    0    0 -0.61722724694E+01 -0.13836993076E+02  0.28056373175E+02  0.59301962294E+02  0.50000033313E+02 0.  0.
        -12    1    1    2    0    0  0.61722724694E+01  0.13836993076E+02 -0.28056373175E+02  0.31886037706E+02  0.00000000000E+00 0.  1.
         11    1    3    3    0    0  0.16606852054E+01 -0.76151699702E+01  0.55149148646E+01  0.95479304172E+01  0.51100000000E-03 0. -1.
        -11    1    3    3    0    0 -0.92982897092E+01 -0.23938367116E+02  0.83405910490E+01  0.27001279063E+02  0.51100000000E-03 0.  1.
         12    1    3    3    0    0  0.14653320343E+01  0.17716544010E+02  0.14200867262E+02  0.22752752814E+02  0.00000000000E+00 0. -1.
</event>
<event>
 7    1  0.3755162E-013  0.5930197E+02  0.7816164E-02  0.1266605E+00
        -11   -1    0    0    0    0  0.00000000000E+00  0.00000000000E+00  0.45593999997E+02  0.45594000000E+02  0.51100000000E-03 0. -1.
         11   -1    0    0    0    0 -0.00000000000E+00 -0.00000000000E+00 -0.45593999997E+02  0.45594000000E+02  0.51100000000E-03 0.  1.
    9900012    2    1    2    0    0 -0.70602486120E+01  0.31089873105E+02  0.54005995062E+00  0.59301968813E+02  0.50000045202E+02 0.  0.
        -12    1    1    2    0    0  0.70602486120E+01 -0.31089873105E+02 -0.54005995062E+00  0.31886031187E+02  0.00000000000E+00 0.  1.
         11    1    3    3    0    0 -0.20157781928E+02  0.26021155279E+02 -0.80523377956E+01  0.33886233762E+02  0.51100000000E-03 0.  1.
        -11    1    3    3    0    0  0.48829330959E+01  0.63057178989E+01 -0.50524648706E+01  0.94410018202E+01  0.51100000000E-03 0. -1.
         12    1    3    3    0    0  0.82146002202E+01 -0.12370000737E+01  0.13644862617E+02  0.15974733231E+02  0.00000000000E+00 0. -1.
</event>
<event>
 7    1  0.3755162E-013  0.5930190E+02  0.7816164E-02  0.1266605E+00
        -11   -1    0    0    0    0  0.00000000000E+00  0.00000000000E+00  0.45593999997E+02  0.45594000000E+02  0.51100000000E-03 0. -1.
         11   -1    0    0    0    0 -0.00000000000E+00 -0.00000000000E+00 -0.45593999997E+02  0.45594000000E+02  0.51100000000E-03 0.  1.
    9900012    2    1    2    0    0  0.17635681226E+02  0.20099407098E+02  0.17370086759E+02  0.59301900646E+02  0.49999920882E+02 0.  0.
        -12    1    1    2    0    0 -0.17635681226E+02 -0.20099407098E+02 -0.17370086759E+02  0.31886099354E+02  0.00000000000E+00 0.  1.
         11    1    3    3    0    0  0.34023001931E+01  0.81682816816E+01 -0.96761753856E+01  0.13112011386E+02  0.51100000000E-03 0. -1.
        -11    1    3    3    0    0  0.10919307084E+02 -0.63358838355E+01 -0.88075663749E+00  0.12655055262E+02  0.51100000000E-03 0.  1.
         12    1    3    3    0    0  0.33140739488E+01  0.18267009252E+02  0.27927018783E+02  0.33534833997E+02  0.00000000000E+00 0. -1.
</event>
<event>
 7    1  0.3755162E-013  0.5930207E+02  0.7816164E-02  0.1266604E+00
        -11   -1    0    0    0    0  0.00000000000E+00  0.00000000000E+00  0.45593999997E+02  0.45594000000E+02  0.51100000000E-03 0.  1.
         11   -1    0    0    0    0 -0.00000000000E+00 -0.00000000000E+00 -0.45593999997E+02  0.45594000000E+02  0.51100000000E-03 0. -1.
    9900012    2    1    2    0    0 -0.28378203901E+02 -0.12084233397E+02 -0.80846204747E+01  0.59302074552E+02  0.50000238045E+02 0.  0.
        -12    1    1    2    0    0  0.28378203901E+02  0.12084233397E+02  0.80846204747E+01  0.31885925448E+02  0.00000000000E+00 0.  1.
         11    1    3    3    0    0 -0.21778142231E+02  0.14504322762E+00 -0.16209820534E+02  0.27148974171E+02  0.51100000000E-03 0. -1.
        -11    1    3    3    0    0  0.16129246326E+01  0.85836781843E+01  0.23859858995E+01  0.90539486422E+01  0.51100000000E-03 0.  1.
         12    1    3    3    0    0 -0.82129863029E+01 -0.20812954809E+02  0.57392141594E+01  0.23099151739E+02  0.00000000000E+00 0. -1.
</event>
<event>
 7    1  0.3755162E-013  0.5930201E+02  0.7816164E-02  0.1266605E+00
        -11   -1    0    0    0    0  0.00000000000E+00  0.00000000000E+00  0.45593999997E+02  0.45594000000E+02  0.51100000000E-03 0. -1.
         11   -1    0    0    0    0 -0.00000000000E+00 -0.00000000000E+00 -0.45593999997E+02  0.45594000000E+02  0.51100000000E-03 0.  1.
    9900012    2    1    2    0    0  0.31878515178E+02  0.12879901738E+00  0.67830132381E+00  0.59302009160E+02  0.50000118786E+02 0.  0.
        -12    1    1    2    0    0 -0.31878515178E+02 -0.12879901738E+00 -0.67830132381E+00  0.31885990840E+02  0.00000000000E+00 0.  1.
         11    1    3    3    0    0 -0.43512495630E+01 -0.74120689601E+01  0.11130384662E+02  0.14062631405E+02  0.51100000000E-03 0.  1.
        -11    1    3    3    0    0  0.12088228844E+02 -0.87219334641E+01 -0.36706876347E+01  0.15351591055E+02  0.51100000000E-03 0. -1.
        -12    1    3    3    0    0  0.24141535897E+02  0.16262801442E+02 -0.67813957039E+01  0.29887786701E+02  0.00000000000E+00 0.  1.
</event>
<event>
 7    1  0.3755162E-013  0.5930195E+02  0.7816164E-02  0.1266605E+00
        -11   -1    0    0    0    0  0.00000000000E+00  0.00000000000E+00  0.45593999997E+02  0.45594000000E+02  0.51100000000E-03 0. -1.
         11   -1    0    0    0    0 -0.00000000000E+00 -0.00000000000E+00 -0.45593999997E+02  0.45594000000E+02  0.51100000000E-03 0.  1.
    9900012    2    1    2    0    0 -0.86402151969E+01  0.50377695395E+01  0.30276855876E+02  0.59301945959E+02  0.50000003522E+02 0.  0.
        -12    1    1    2    0    0  0.86402151969E+01 -0.50377695395E+01 -0.30276855876E+02  0.31886054041E+02  0.00000000000E+00 0.  1.
         11    1    3    3    0    0 -0.69779450621E+01  0.11527976510E+02 -0.16799090330E+01  0.13579692718E+02  0.51100000000E-03 0. -1.
        -11    1    3    3    0    0  0.95299534730E+00  0.21959886275E+01  0.35793081503E+02  0.35873043499E+02  0.51100000000E-03 0.  1.
         12    1    3    3    0    0 -0.26152654822E+01 -0.86861955981E+01 -0.38363165936E+01  0.98492097408E+01  0.00000000000E+00 0. -1.
</event>
<event>
 7    1  0.3755162E-013  0.5930193E+02  0.7816164E-02  0.1266605E+00
        -11   -1    0    0    0    0  0.00000000000E+00  0.00000000000E+00  0.45593999997E+02  0.45594000000E+02  0.51100000000E-03 0.  1.
         11   -1    0    0    0    0 -0.00000000000E+00 -0.00000000000E+00 -0.45593999997E+02  0.45594000000E+02  0.51100000000E-03 0. -1.
    9900012    2    1    2    0    0  0.90852492566E+01 -0.81880528447E+01 -0.29447167203E+02  0.59301927497E+02  0.49999969851E+02 0.  0.
        -12    1    1    2    0    0 -0.90852492566E+01  0.81880528447E+01  0.29447167203E+02  0.31886072503E+02  0.00000000000E+00 0.  1.
         11    1    3    3    0    0 -0.15283562674E+02 -0.27599210415E-01 -0.23655812444E+02  0.28163549357E+02  0.51100000000E-03 0. -1.
        -11    1    3    3    0    0  0.15128818527E+01  0.31452822330E+01  0.25354780004E+01  0.43139611469E+01  0.51100000000E-03 0.  1.
        -12    1    3    3    0    0  0.22855930077E+02 -0.11305735867E+02 -0.83268327586E+01  0.26824416993E+02  0.00000000000E+00 0.  1.
</event>
<event>
 7    1  0.3755162E-013  0.5930195E+02  0.7816164E-02  0.1266605E+00
        -11   -1    0    0    0    0  0.00000000000E+00  0.00000000000E+00  0.45593999997E+02  0.45594000000E+02  0.51100000000E-03 0. -1.
         11   -1    0    0    0    0 -0.00000000000E+00 -0.00000000000E+00 -0.45593999997E+02  0.45594000000E+02  0.51100000000E-03 0.  1.
    9900012    2    1    2    0    0 -0.28269935767E+02  0.15113482242E+01  0.14671297435E+02  0.59301946463E+02  0.50000004442E+02 0.  0.
        -12    1    1    2    0    0  0.28269935767E+02 -0.15113482242E+01 -0.14671297435E+02  0.31886053537E+02  0.00000000000E+00 0.  1.
         11    1    3    3    0    0 -0.83322944497E+01 -0.12591202061E+02  0.23187247285E+01  0.15275535499E+02  0.51100000000E-03 0. -1.
        -11    1    3    3    0    0 -0.16400154001E+01 -0.99285487659E+01 -0.24984096107E+01  0.10368595949E+02  0.51100000000E-03 0.  1.
        -12    1    3    3    0    0 -0.18297625917E+02  0.24031099051E+02  0.14850982317E+02  0.33657815015E+02  0.00000000000E+00 0.  1.
</event>
<event>
 7    1  0.3755162E-013  0.5930175E+02  0.7816164E-02  0.1266605E+00
        -11   -1    0    0    0    0  0.00000000000E+00  0.00000000000E+00  0.45593999997E+02  0.45594000000E+02  0.51100000000E-03 0.  1.
         11   -1    0    0    0    0 -0.00000000000E+00 -0.00000000000E+00 -0.45593999997E+02  0.45594000000E+02  0.51100000000E-03 0. -1.
    9900012    2    1    2    0    0 -0.26129885372E+02 -0.32168035799E+01 -0.17989288146E+02  0.59301745550E+02  0.49999638024E+02 0.  0.
        -12    1    1    2    0    0  0.26129885372E+02  0.32168035799E+01  0.17989288146E+02  0.31886254450E+02  0.00000000000E+00 0.  1.
         11    1    3    3    0    0  0.48904237673E+01 -0.15238161618E+01 -0.17380685682E+02  0.18119781880E+02  0.51100000000E-03 0. -1.
        -11    1    3    3    0    0 -0.23414695913E+01 -0.88940168799E+01  0.58710480984E+01  0.10911242924E+02  0.51100000000E-03 0.  1.
         12    1    3    3    0    0 -0.28678839548E+02  0.72010294619E+01 -0.64796505618E+01  0.30270720747E+02  0.00000000000E+00 0. -1.
</event>
<event>
 7    1  0.3755162E-013  0.5930199E+02  0.7816164E-02  0.1266605E+00
        -11   -1    0    0    0    0  0.00000000000E+00  0.00000000000E+00  0.45593999997E+02  0.45594000000E+02  0.51100000000E-03 0. -1.
         11   -1    0    0    0    0 -0.00000000000E+00 -0.00000000000E+00 -0.45593999997E+02  0.45594000000E+02  0.51100000000E-03 0.  1.
    9900012    2    1    2    0    0 -0.31685625473E+02  0.15950319160E+01 -0.31928563131E+01  0.59301994921E+02  0.50000092817E+02 0.  0.
        -12    1    1    2    0    0  0.31685625473E+02 -0.15950319160E+01  0.31928563131E+01  0.31886005079E+02  0.00000000000E+00 0.  1.
         11    1    3    3    0    0  0.17272986301E+01 -0.11619499937E+02  0.14704897503E+01  0.11838863109E+02  0.51100000000E-03 0. -1.
        -11    1    3    3    0    0  0.10891830331E+01 -0.16085940090E+01 -0.94139096429E+01  0.96122624491E+01  0.51100000000E-03 0.  1.
         12    1    3    3    0    0 -0.34502107136E+02  0.14823125862E+02  0.47505635795E+01  0.37850869363E+02  0.00000000000E+00 0. -1.
</event>
<event>
 7    1  0.3755162E-013  0.5930185E+02  0.7816164E-02  0.1266605E+00
        -11   -1    0    0    0    0  0.00000000000E+00  0.00000000000E+00  0.45593999997E+02  0.45594000000E+02  0.51100000000E-03 0. -1.
         11   -1    0    0    0    0 -0.00000000000E+00 -0.00000000000E+00 -0.45593999997E+02  0.45594000000E+02  0.51100000000E-03 0.  1.
    9900012    2    1    2    0    0  0.52304711325E+01 -0.19708164052E+02  0.24514422607E+02  0.59301851372E+02  0.49999831019E+02 0.  0.
        -12    1    1    2    0    0 -0.52304711325E+01  0.19708164052E+02 -0.24514422607E+02  0.31886148628E+02  0.00000000000E+00 0.  1.
         11    1    3    3    0    0  0.20367789037E+01 -0.22213991841E+01  0.25489223165E+02  0.25666779706E+02  0.51100000000E-03 0. -1.
        -11    1    3    3    0    0 -0.13048487562E+01  0.30535337955E+01  0.95572841275E+01  0.10117725983E+02  0.51100000000E-03 0.  1.
        -12    1    3    3    0    0  0.44985409850E+01 -0.20540298663E+02 -0.10532084686E+02  0.23517345683E+02  0.00000000000E+00 0.  1.
</event>
<event>
 7    1  0.3755162E-013  0.5930192E+02  0.7816164E-02  0.1266605E+00
        -11   -1    0    0    0    0  0.00000000000E+00  0.00000000000E+00  0.45593999997E+02  0.45594000000E+02  0.51100000000E-03 0.  1.
         11   -1    0    0    0    0 -0.00000000000E+00 -0.00000000000E+00 -0.45593999997E+02  0.45594000000E+02  0.51100000000E-03 0. -1.
    9900012    2    1    2    0    0  0.80369806050E+00 -0.16093456554E+01 -0.31835298824E+02  0.59301918786E+02  0.49999953964E+02 0.  0.
        -12    1    1    2    0    0 -0.80369806050E+00  0.16093456554E+01  0.31835298824E+02  0.31886081214E+02  0.00000000000E+00 0.  1.
         11    1    3    3    0    0 -0.96117413510E+01  0.11565148998E+02 -0.26856810520E+02  0.30780294260E+02  0.51100000000E-03 0. -1.
        -11    1    3    3    0    0 -0.49473579061E+01 -0.10380519647E+01 -0.72218194634E+01  0.88152469480E+01  0.51100000000E-03 0.  1.
        -12    1    3    3    0    0  0.15362797318E+02 -0.12136442688E+02  0.22433311598E+01  0.19706377578E+02  0.00000000000E+00 0.  1.
</event>
<event>
 7    1  0.3755162E-013  0.5930192E+02  0.7816164E-02  0.1266605E+00
        -11   -1    0    0    0    0  0.00000000000E+00  0.00000000000E+00  0.45593999997E+02  0.45594000000E+02  0.51100000000E-03 0.  1.
         11   -1    0    0    0    0 -0.00000000000E+00 -0.00000000000E+00 -0.45593999997E+02  0.45594000000E+02  0.51100000000E-03 0. -1.
    9900012    2    1    2    0    0 -0.35933939252E+01 -0.24270096552E+02 -0.20365956909E+02  0.59301917340E+02  0.49999951328E+02 0.  0.
        -12    1    1    2    0    0  0.35933939252E+01  0.24270096552E+02  0.20365956909E+02  0.31886082660E+02  0.00000000000E+00 0.  1.
         11    1    3    3    0    0 -0.21380444928E+01 -0.16443637525E+02  0.20328292822E+01  0.16706191800E+02  0.51100000000E-03 0. -1.
        -11    1    3    3    0    0  0.12168768697E+02 -0.98411239388E+01  0.74090288878E+00  0.15667660621E+02  0.51100000000E-03 0.  1.
        -12    1    3    3    0    0 -0.13624118130E+02  0.20146649119E+01 -0.23139689080E+02  0.26928064919E+02  0.00000000000E+00 0.  1.
</event>
<event>
 7    1  0.3755162E-013  0.5930194E+02  0.7816164E-02  0.1266605E+00
        -11   -1    0    0    0    0  0.00000000000E+00  0.00000000000E+00  0.45593999997E+02  0.45594000000E+02  0.51100000000E-03 0.  1.
         11   -1    0    0    0    0 -0.00000000000E+00 -0.00000000000E+00 -0.45593999997E+02  0.45594000000E+02  0.51100000000E-03 0. -1.
    9900012    2    1    2    0    0 -0.61056779996E+01 -0.11585500964E+01 -0.31274582444E+02  0.59301936443E+02  0.49999986167E+02 0.  0.
        -12    1    1    2    0    0  0.61056779996E+01  0.11585500964E+01  0.31274582444E+02  0.31886063557E+02  0.00000000000E+00 0.  1.
         11    1    3    3    0    0  0.12205080953E+02  0.25283168131E+01 -0.16470018617E+02  0.20654730704E+02  0.51100000000E-03 0. -1.
        -11    1    3    3    0    0 -0.12626568080E+02  0.12888688582E+02 -0.91766785806E+01  0.20242528124E+02  0.51100000000E-03 0.  1.
         12    1    3    3    0    0 -0.56841908727E+01 -0.16575555491E+02 -0.56278852464E+01  0.18404677614E+02  0.00000000000E+00 0. -1.
</event>
<event>
 7    1  0.3755162E-013  0.5930193E+02  0.7816164E-02  0.1266605E+00
        -11   -1    0    0    0    0  0.00000000000E+00  0.00000000000E+00  0.45593999997E+02  0.45594000000E+02  0.51100000000E-03 0.  1.
         11   -1    0    0    0    0 -0.00000000000E+00 -0.00000000000E+00 -0.45593999997E+02  0.45594000000E+02  0.51100000000E-03 0. -1.
    9900012    2    1    2    0    0 -0.30461107244E+02 -0.80936149714E+01  0.48307285178E+01  0.59301927871E+02  0.49999970533E+02 0.  0.
        -12    1    1    2    0    0  0.30461107244E+02  0.80936149714E+01 -0.48307285178E+01  0.31886072129E+02  0.00000000000E+00 0.  1.
         11    1    3    3    0    0 -0.14249890602E+01 -0.92015415595E+01 -0.11378468351E+02  0.14702669933E+02  0.51100000000E-03 0. -1.
        -11    1    3    3    0    0 -0.10133516284E+02 -0.15373658890E+01  0.22317759368E+02  0.24558787218E+02  0.51100000000E-03 0.  1.
         12    1    3    3    0    0 -0.18902601899E+02  0.26452924770E+01 -0.61085624991E+01  0.20040470720E+02  0.00000000000E+00 0. -1.
</event>
<event>
 7    1  0.3755162E-013  0.5930194E+02  0.7816164E-02  0.1266605E+00
        -11   -1    0    0    0    0  0.00000000000E+00  0.00000000000E+00  0.45593999997E+02  0.45594000000E+02  0.51100000000E-03 0.  1.
         11   -1    0    0    0    0 -0.00000000000E+00 -0.00000000000E+00 -0.45593999997E+02  0.45594000000E+02  0.51100000000E-03 0. -1.
    9900012    2    1    2    0    0 -0.31160378708E+02 -0.41924061275E+01  0.53080601797E+01  0.59301937634E+02  0.49999988339E+02 0.  0.
        -12    1    1    2    0    0  0.31160378708E+02  0.41924061275E+01 -0.53080601797E+01  0.31886062366E+02  0.00000000000E+00 0.  1.
         11    1    3    3    0    0 -0.24621966844E+02  0.53134508484E+01 -0.93812470970E+01  0.26879021719E+02  0.51100000000E-03 0. -1.
        -11    1    3    3    0    0 -0.15832277132E+02 -0.11252334778E+02  0.92505395430E+01  0.21513914549E+02  0.51100000000E-03 0.  1.
        -12    1    3    3    0    0  0.92938652685E+01  0.17464778020E+01  0.54387677337E+01  0.10909001366E+02  0.00000000000E+00 0.  1.
</event>
<event>
 7    1  0.3755162E-013  0.5930182E+02  0.7816164E-02  0.1266605E+00
        -11   -1    0    0    0    0  0.00000000000E+00  0.00000000000E+00  0.45593999997E+02  0.45594000000E+02  0.51100000000E-03 0.  1.
         11   -1    0    0    0    0 -0.00000000000E+00 -0.00000000000E+00 -0.45593999997E+02  0.45594000000E+02  0.51100000000E-03 0. -1.
    9900012    2    1    2    0    0 -0.31873327118E+02 -0.81286406359E+00 -0.39882631494E+00  0.59301815029E+02  0.49999764737E+02 0.  0.
        -12    1    1    2    0    0  0.31873327118E+02  0.81286406359E+00  0.39882631494E+00  0.31886184971E+02  0.00000000000E+00 0.  1.
         11    1    3    3    0    0 -0.21444965953E+02  0.10639648151E+02 -0.10877205139E+02  0.26294529268E+02  0.51100000000E-03 0. -1.
        -11    1    3    3    0    0 -0.11789384891E+01 -0.60522770693E+01 -0.89228168202E+01  0.10846041395E+02  0.51100000000E-03 0.  1.
        -12    1    3    3    0    0 -0.92494226756E+01 -0.54002351451E+01  0.19401195644E+02  0.22161244366E+02  0.00000000000E+00 0.  1.
</event>
<event>
 7    1  0.3755162E-013  0.5930195E+02  0.7816164E-02  0.1266605E+00
        -11   -1    0    0    0    0  0.00000000000E+00  0.00000000000E+00  0.45593999997E+02  0.45594000000E+02  0.51100000000E-03 0. -1.
         11   -1    0    0    0    0 -0.00000000000E+00 -0.00000000000E+00 -0.45593999997E+02  0.45594000000E+02  0.51100000000E-03 0.  1.
    9900012    2    1    2    0    0 -0.22161416801E+02 -0.18712196492E+02  0.13245576100E+02  0.59301953233E+02  0.50000016788E+02 0.  0.
        -12    1    1    2    0    0  0.22161416801E+02  0.18712196492E+02 -0.13245576100E+02  0.31886046767E+02  0.00000000000E+00 0.  1.
         11    1    3    3    0    0 -0.38341342153E+01  0.11364411108E+01  0.60698831538E+01  0.72688076974E+01  0.51100000000E-03 0. -1.
        -11    1    3    3    0    0 -0.68524674873E+01  0.76855461371E+01  0.17636696514E+02  0.20422462983E+02  0.51100000000E-03 0.  1.
        -12    1    3    3    0    0 -0.11474815099E+02 -0.27534183740E+02 -0.10461003568E+02  0.31610682553E+02  0.00000000000E+00 0.  1.
</event>
<event>
 7    1  0.3755162E-013  0.5930185E+02  0.7816164E-02  0.1266605E+00
        -11   -1    0    0    0    0  0.00000000000E+00  0.00000000000E+00  0.45593999997E+02  0.45594000000E+02  0.51100000000E-03 0. -1.
         11   -1    0    0    0    0 -0.00000000000E+00 -0.00000000000E+00 -0.45593999997E+02  0.45594000000E+02  0.51100000000E-03 0.  1.
    9900012    2    1    2    0    0 -0.12596110451E+02  0.14339588535E+02  0.25542924193E+02  0.59301846670E+02  0.49999822442E+02 0.  0.
        -12    1    1    2    0    0  0.12596110451E+02 -0.14339588535E+02 -0.25542924193E+02  0.31886153330E+02  0.00000000000E+00 0.  1.
         11    1    3    3    0    0 -0.68554703352E+01  0.19340350029E+02  0.25316906054E+01  0.20675010771E+02  0.51100000000E-03 0. -1.
        -11    1    3    3    0    0  0.41962324329E+01  0.23955155585E+01  0.25532358099E+02  0.25985537743E+02  0.51100000000E-03 0.  1.
         12    1    3    3    0    0 -0.99368725485E+01 -0.73962770527E+01 -0.25211245109E+01  0.12641298157E+02  0.00000000000E+00 0. -1.
</event>
<event>
 7    1  0.3755162E-013  0.5930204E+02  0.7816164E-02  0.1266604E+00
        -11   -1    0    0    0    0  0.00000000000E+00  0.00000000000E+00  0.45593999997E+02  0.45594000000E+02  0.51100000000E-03 0. -1.
         11   -1    0    0    0    0 -0.00000000000E+00 -0.00000000000E+00 -0.45593999997E+02  0.45594000000E+02  0.51100000000E-03 0.  1.
    9900012    2    1    2    0    0 -0.15389733343E+02  0.17260002352E+00  0.27925631944E+02  0.59302037531E+02  0.50000170527E+02 0.  0.
        -12    1    1    2    0    0  0.15389733343E+02 -0.17260002352E+00 -0.27925631944E+02  0.31885962469E+02  0.00000000000E+00 0.  1.
         11    1    3    3    0    0  0.63953884241E+01 -0.82385654132E+01  0.57030866082E+01  0.11886973975E+02  0.51100000000E-03 0. -1.
        -11    1    3    3    0    0  0.59456969417E+01  0.11763364014E+02  0.30304799587E+01  0.13524490900E+02  0.51100000000E-03 0.  1.
         12    1    3    3    0    0 -0.27730818708E+02 -0.33521985775E+01  0.19192065377E+02  0.33890572656E+02  0.00000000000E+00 0. -1.
</event>
<event>
 7    1  0.3755162E-013  0.5930197E+02  0.7816164E-02  0.1266605E+00
        -11   -1    0    0    0    0  0.00000000000E+00  0.00000000000E+00  0.45593999997E+02  0.45594000000E+02  0.51100000000E-03 0.  1.
         11   -1    0    0    0    0 -0.00000000000E+00 -0.00000000000E+00 -0.45593999997E+02  0.45594000000E+02  0.51100000000E-03 0. -1.
    9900012    2    1    2    0    0 -0.11652785235E+02  0.54278280187E+01 -0.29179964093E+02  0.59301968180E+02  0.50000044049E+02 0.  0.
        -12    1    1    2    0    0  0.11652785235E+02 -0.54278280187E+01  0.29179964093E+02  0.31886031820E+02  0.00000000000E+00 0.  1.
         11    1    3    3    0    0 -0.76616891432E+01 -0.19687300500E+01  0.15994746797E+01  0.80706689964E+01  0.51100000000E-03 0. -1.
        -11    1    3    3    0    0 -0.33183961032E+01  0.14236703954E+02  0.44947515980E+01  0.15293733500E+02  0.51100000000E-03 0.  1.
         12    1    3    3    0    0 -0.67269998828E+00 -0.68401458853E+01 -0.35274190371E+02  0.35937565684E+02  0.00000000000E+00 0. -1.
</event>
<event>
 7    1  0.3755162E-013  0.5930191E+02  0.7816164E-02  0.1266605E+00
        -11   -1    0    0    0    0  0.00000000000E+00  0.00000000000E+00  0.45593999997E+02  0.45594000000E+02  0.51100000000E-03 0.  1.
         11   -1    0    0    0    0 -0.00000000000E+00 -0.00000000000E+00 -0.45593999997E+02  0.45594000000E+02  0.51100000000E-03 0. -1.
    9900012    2    1    2    0    0  0.83209612638E+01 -0.12433530388E+02 -0.28158337319E+02  0.59301905306E+02  0.49999929382E+02 0.  0.
        -12    1    1    2    0    0 -0.83209612638E+01  0.12433530388E+02  0.28158337319E+02  0.31886094694E+02  0.00000000000E+00 0.  1.
         11    1    3    3    0    0  0.83003607244E+01 -0.77211001711E+00  0.11471386009E+02  0.14180438613E+02  0.51100000000E-03 0. -1.
        -11    1    3    3    0    0  0.10733450280E+01  0.20087298680E+01  0.81270596993E+00  0.24181721374E+01  0.51100000000E-03 0.  1.
         12    1    3    3    0    0 -0.10527444886E+01 -0.13670150239E+02 -0.40442429297E+02  0.42703294556E+02  0.00000000000E+00 0. -1.
</event>
<event>
 7    1  0.3755162E-013  0.5930195E+02  0.7816164E-02  0.1266605E+00
        -11   -1    0    0    0    0  0.00000000000E+00  0.00000000000E+00  0.45593999997E+02  0.45594000000E+02  0.51100000000E-03 0. -1.
         11   -1    0    0    0    0 -0.00000000000E+00 -0.00000000000E+00 -0.45593999997E+02  0.45594000000E+02  0.51100000000E-03 0.  1.
    9900012    2    1    2    0    0 -0.29228557844E+02  0.74679381883E+01  0.10326742388E+02  0.59301948146E+02  0.50000007512E+02 0.  0.
        -12    1    1    2    0    0  0.29228557844E+02 -0.74679381883E+01 -0.10326742388E+02  0.31886051854E+02  0.00000000000E+00 0.  1.
         11    1    3    3    0    0 -0.40490302452E+01 -0.33693442840E+01 -0.35329379084E+01  0.63426159711E+01  0.51100000000E-03 0. -1.
        -11    1    3    3    0    0 -0.21361576852E+02  0.22552069007E+02 -0.39392406159E+01  0.31311825226E+02  0.51100000000E-03 0.  1.
         12    1    3    3    0    0 -0.38179507470E+01 -0.11714786535E+02  0.17798920913E+02  0.21647506949E+02  0.00000000000E+00 0. -1.
</event>
<event>
 7    1  0.3755162E-013  0.5930194E+02  0.7816164E-02  0.1266605E+00
        -11   -1    0    0    0    0  0.00000000000E+00  0.00000000000E+00  0.45593999997E+02  0.45594000000E+02  0.51100000000E-03 0. -1.
         11   -1    0    0    0    0 -0.00000000000E+00 -0.00000000000E+00 -0.45593999997E+02  0.45594000000E+02  0.51100000000E-03 0.  1.
    9900012    2    1    2    0    0  0.26621929954E+02 -0.10009789160E+02  0.14415191918E+02  0.59301940483E+02  0.49999993536E+02 0.  0.
        -12    1    1    2    0    0 -0.26621929954E+02  0.10009789160E+02 -0.14415191918E+02  0.31886059517E+02  0.00000000000E+00 0.  1.
         11    1    3    3    0    0 -0.46510979184E+01 -0.64256736378E+01 -0.37837819460E+01  0.87885721037E+01  0.51100000000E-03 0. -1.
        -11    1    3    3    0    0  0.27886138047E+02 -0.13681602314E+02  0.19987925669E+01  0.31125843105E+02  0.51100000000E-03 0.  1.
         12    1    3    3    0    0  0.33868898253E+01  0.10097486792E+02  0.16200181297E+02  0.19387525274E+02  0.00000000000E+00 0. -1.
</event>
<event>
 7    1  0.3755162E-013  0.5930193E+02  0.7816164E-02  0.1266605E+00
        -11   -1    0    0    0    0  0.00000000000E+00  0.00000000000E+00  0.45593999997E+02  0.45594000000E+02  0.51100000000E-03 0.  1.
         11   -1    0    0    0    0 -0.00000000000E+00 -0.00000000000E+00 -0.45593999997E+02  0.45594000000E+02  0.51100000000E-03 0. -1.
    9900012    2    1    2    0    0  0.29037358058E+02  0.13172893550E+02 -0.16765344260E+00  0.59301931018E+02  0.49999976273E+02 0.  0.
        -12    1    1    2    0    0 -0.29037358058E+02 -0.13172893550E+02  0.16765344260E+00  0.31886068982E+02  0.00000000000E+00 0.  1.
         11    1    3    3    0    0  0.33534214363E+02  0.15089804913E+02 -0.11201380076E+02  0.38441080384E+02  0.51100000000E-03 0. -1.
        -11    1    3    3    0    0  0.43859933900E+01 -0.12516447692E+01 -0.20758751772E+01  0.50112683682E+01  0.51100000000E-03 0.  1.
        -12    1    3    3    0    0 -0.88828496953E+01 -0.66526659303E+00  0.13109601810E+02  0.15849582265E+02  0.00000000000E+00 0.  1.
</event>
<event>
 7    1  0.3755162E-013  0.5930195E+02  0.7816164E-02  0.1266605E+00
        -11   -1    0    0    0    0  0.00000000000E+00  0.00000000000E+00  0.45593999997E+02  0.45594000000E+02  0.51100000000E-03 0.  1.
         11   -1    0    0    0    0 -0.00000000000E+00 -0.00000000000E+00 -0.45593999997E+02  0.45594000000E+02  0.51100000000E-03 0. -1.
    9900012    2    1    2    0    0 -0.23237572060E+01 -0.12693562818E+02 -0.29158082473E+02  0.59301950416E+02  0.50000011651E+02 0.  0.
        -12    1    1    2    0    0  0.23237572060E+01  0.12693562818E+02  0.29158082473E+02  0.31886049584E+02  0.00000000000E+00 0.  1.
         11    1    3    3    0    0 -0.11832961825E+02 -0.17302741363E+02 -0.19671966383E+01  0.21054066284E+02  0.51100000000E-03 0. -1.
        -11    1    3    3    0    0  0.13556194708E+02 -0.65094607696E+00 -0.40339105461E+01  0.14158622119E+02  0.51100000000E-03 0.  1.
        -12    1    3    3    0    0 -0.40469900893E+01  0.52601246217E+01 -0.23156975288E+02  0.24089262013E+02  0.00000000000E+00 0.  1.
</event>
<event>
 7    1  0.3755162E-013  0.5930195E+02  0.7816164E-02  0.1266605E+00
        -11   -1    0    0    0    0  0.00000000000E+00  0.00000000000E+00  0.45593999997E+02  0.45594000000E+02  0.51100000000E-03 0. -1.
         11   -1    0    0    0    0 -0.00000000000E+00 -0.00000000000E+00 -0.45593999997E+02  0.45594000000E+02  0.51100000000E-03 0.  1.
    9900012    2    1    2    0    0  0.31491981753E+02 -0.49961855626E+01  0.11544772149E+00  0.59301951121E+02  0.50000012936E+02 0.  0.
        -12    1    1    2    0    0 -0.31491981753E+02  0.49961855626E+01 -0.11544772149E+00  0.31886048879E+02  0.00000000000E+00 0.  1.
         11    1    3    3    0    0 -0.64996082299E+01  0.14720857627E+01 -0.11434619190E+01  0.67616158613E+01  0.51100000000E-03 0. -1.
        -11    1    3    3    0    0  0.34693525927E+01 -0.14244700714E+02  0.77178888409E+01  0.16568455398E+02  0.51100000000E-03 0.  1.
         12    1    3    3    0    0  0.34522237391E+02  0.77764293887E+01 -0.64589792004E+01  0.35971879862E+02  0.00000000000E+00 0. -1.
</event>
<event>
 7    1  0.3755162E-013  0.5930195E+02  0.7816164E-02  0.1266605E+00
        -11   -1    0    0    0    0  0.00000000000E+00  0.00000000000E+00  0.45593999997E+02  0.45594000000E+02  0.51100000000E-03 0.  1.
         11   -1    0    0    0    0 -0.00000000000E+00 -0.00000000000E+00 -0.45593999997E+02  0.45594000000E+02  0.51100000000E-03 0. -1.
    9900012    2    1    2    0    0 -0.16401947878E+02 -0.13021117105E+02 -0.24044683557E+02  0.59301949881E+02  0.50000010674E+02 0.  0.
        -12    1    1    2    0    0  0.16401947878E+02  0.13021117105E+02  0.24044683557E+02  0.31886050119E+02  0.00000000000E+00 0.  1.
         11    1    3    3    0    0  0.62282708408E+01  0.35226553352E+01 -0.12520691897E+02  0.14421102043E+02  0.51100000000E-03 0. -1.
        -11    1    3    3    0    0 -0.15961264223E+01  0.58193972966E+01 -0.12802513812E+02  0.14153351710E+02  0.51100000000E-03 0.  1.
        -12    1    3    3    0    0 -0.21034092296E+02 -0.22363169737E+02  0.12785221520E+01  0.30727496128E+02  0.00000000000E+00 0.  1.
</event>
<event>
 7    1  0.3755162E-013  0.5930195E+02  0.7816164E-02  0.1266605E+00
        -11   -1    0    0    0    0  0.00000000000E+00  0.00000000000E+00  0.45593999997E+02  0.45594000000E+02  0.51100000000E-03 0. -1.
         11   -1    0    0    0    0 -0.00000000000E+00 -0.00000000000E+00 -0.45593999997E+02  0.45594000000E+02  0.51100000000E-03 0.  1.
    9900012    2    1    2    0    0  0.96349712739E+01 -0.22126926953E+02  0.20839540641E+02  0.59301952550E+02  0.50000015543E+02 0.  0.
        -12    1    1    2    0    0 -0.96349712739E+01  0.22126926953E+02 -0.20839540641E+02  0.31886047450E+02  0.00000000000E+00 0.  1.
         11    1    3    3    0    0  0.89740470411E+01  0.28341588341E+01  0.44433417421E+01  0.10407173617E+02  0.51100000000E-03 0. -1.
        -11    1    3    3    0    0  0.16549515188E+02 -0.66744362545E+01  0.17022511140E+02  0.24661720095E+02  0.51100000000E-03 0.  1.
        -12    1    3    3    0    0 -0.15888590955E+02 -0.18286649533E+02 -0.62631224060E+00  0.24233058839E+02  0.00000000000E+00 0.  1.
</event>
<event>
 7    1  0.3755162E-013  0.5930190E+02  0.7816164E-02  0.1266605E+00
        -11   -1    0    0    0    0  0.00000000000E+00  0.00000000000E+00  0.45593999997E+02  0.45594000000E+02  0.51100000000E-03 0. -1.
         11   -1    0    0    0    0 -0.00000000000E+00 -0.00000000000E+00 -0.45593999997E+02  0.45594000000E+02  0.51100000000E-03 0.  1.
    9900012    2    1    2    0    0  0.27627885992E+02 -0.85287647649E+01  0.13441851926E+02  0.59301901211E+02  0.49999921913E+02 0.  0.
        -12    1    1    2    0    0 -0.27627885992E+02  0.85287647649E+01 -0.13441851926E+02  0.31886098789E+02  0.00000000000E+00 0.  1.
         11    1    3    3    0    0  0.52319752018E+00  0.44843994320E+01  0.21732418226E+02  0.22196431608E+02  0.51100000000E-03 0. -1.
        -11    1    3    3    0    0  0.79245727454E+01 -0.10658460360E+02  0.43945967263E+01  0.13989785956E+02  0.51100000000E-03 0.  1.
        -12    1    3    3    0    0  0.19180115726E+02 -0.23547038367E+01 -0.12685163027E+02  0.23115683647E+02  0.00000000000E+00 0.  1.
</event>
<event>
 7    1  0.3755162E-013  0.5930193E+02  0.7816164E-02  0.1266605E+00
        -11   -1    0    0    0    0  0.00000000000E+00  0.00000000000E+00  0.45593999997E+02  0.45594000000E+02  0.51100000000E-03 0.  1.
         11   -1    0    0    0    0 -0.00000000000E+00 -0.00000000000E+00 -0.45593999997E+02  0.45594000000E+02  0.51100000000E-03 0. -1.
    9900012    2    1    2    0    0 -0.17382646997E+02  0.24237932319E+02 -0.11273310058E+02  0.59301932520E+02  0.49999979012E+02 0.  0.
        -12    1    1    2    0    0  0.17382646997E+02 -0.24237932319E+02  0.11273310058E+02  0.31886067480E+02  0.00000000000E+00 0.  1.
         11    1    3    3    0    0 -0.19553789064E+02  0.25715142680E+02 -0.11788265505E+00  0.32305311117E+02  0.51100000000E-03 0. -1.
        -11    1    3    3    0    0 -0.16736204421E+01  0.11051928745E+02 -0.30487451452E+01  0.11586241047E+02  0.51100000000E-03 0.  1.
         12    1    3    3    0    0  0.38447625091E+01 -0.12529139106E+02 -0.81066822573E+01  0.15410380356E+02  0.00000000000E+00 0. -1.
</event>
<event>
 7    1  0.3755162E-013  0.5930194E+02  0.7816164E-02  0.1266605E+00
        -11   -1    0    0    0    0  0.00000000000E+00  0.00000000000E+00  0.45593999997E+02  0.45594000000E+02  0.51100000000E-03 0.  1.
         11   -1    0    0    0    0 -0.00000000000E+00 -0.00000000000E+00 -0.45593999997E+02  0.45594000000E+02  0.51100000000E-03 0. -1.
    9900012    2    1    2    0    0 -0.17394842609E+02  0.25738513839E+02  0.71881328376E+01  0.59301938818E+02  0.49999990498E+02 0.  0.
        -12    1    1    2    0    0  0.17394842609E+02 -0.25738513839E+02 -0.71881328376E+01  0.31886061182E+02  0.00000000000E+00 0.  1.
         11    1    3    3    0    0  0.52710184447E+01 -0.35824423955E+01 -0.41903918109E+01  0.76273791535E+01  0.51100000000E-03 0. -1.
        -11    1    3    3    0    0 -0.29365511177E+02  0.12044388245E+02  0.53420216210E+01  0.32185986549E+02  0.51100000000E-03 0.  1.
         12    1    3    3    0    0  0.66996501233E+01  0.17276567989E+02  0.60365030275E+01  0.19488573115E+02  0.00000000000E+00 0. -1.
</event>
<event>
 7    1  0.3755162E-013  0.5930197E+02  0.7816164E-02  0.1266605E+00
        -11   -1    0    0    0    0  0.00000000000E+00  0.00000000000E+00  0.45593999997E+02  0.45594000000E+02  0.51100000000E-03 0.  1.
         11   -1    0    0    0    0 -0.00000000000E+00 -0.00000000000E+00 -0.45593999997E+02  0.45594000000E+02  0.51100000000E-03 0. -1.
    9900012    2    1    2    0    0  0.13347091635E+02 -0.28914833545E+02  0.15832149567E+01  0.59301968205E+02  0.50000044094E+02 0.  0.
        -12    1    1    2    0    0 -0.13347091635E+02  0.28914833545E+02 -0.15832149567E+01  0.31886031795E+02  0.00000000000E+00 0.  1.
         11    1    3    3    0    0  0.20054720142E-01  0.51592655754E+01 -0.44717211850E+01  0.68274969123E+01  0.51100000000E-03 0. -1.
        -11    1    3    3    0    0  0.12395099990E+02 -0.55612194616E+01  0.17137640680E+02  0.21869256823E+02  0.51100000000E-03 0.  1.
        -12    1    3    3    0    0  0.93193692483E+00 -0.28512879658E+02 -0.11082704538E+02  0.30605214470E+02  0.00000000000E+00 0.  1.
</event>
<event>
 7    1  0.3755162E-013  0.5930229E+02  0.7816164E-02  0.1266604E+00
        -11   -1    0    0    0    0  0.00000000000E+00  0.00000000000E+00  0.45593999997E+02  0.45594000000E+02  0.51100000000E-03 0.  1.
         11   -1    0    0    0    0 -0.00000000000E+00 -0.00000000000E+00 -0.45593999997E+02  0.45594000000E+02  0.51100000000E-03 0. -1.
    9900012    2    1    2    0    0 -0.31194099100E+02 -0.60181627260E+01  0.27218844693E+01  0.59302286015E+02  0.50000623699E+02 0.  0.
        -12    1    1    2    0    0  0.31194099100E+02  0.60181627260E+01 -0.27218844693E+01  0.31885713985E+02  0.00000000000E+00 0.  1.
         11    1    3    3    0    0 -0.40851597519E+01 -0.21067329774E+02  0.51199936832E+01  0.22062077182E+02  0.51100000000E-03 0. -1.
        -11    1    3    3    0    0  0.40771416646E+00  0.35331148408E+01  0.53470270255E+01  0.64218244754E+01  0.51100000000E-03 0.  1.
         12    1    3    3    0    0 -0.27516653515E+02  0.11516052207E+02 -0.77451362394E+01  0.30818384358E+02  0.00000000000E+00 0. -1.
</event>
<event>
 7    1  0.3755162E-013  0.5930196E+02  0.7816164E-02  0.1266605E+00
        -11   -1    0    0    0    0  0.00000000000E+00  0.00000000000E+00  0.45593999997E+02  0.45594000000E+02  0.51100000000E-03 0.  1.
         11   -1    0    0    0    0 -0.00000000000E+00 -0.00000000000E+00 -0.45593999997E+02  0.45594000000E+02  0.51100000000E-03 0. -1.
    9900012    2    1    2    0    0  0.31216044208E+01 -0.31699350759E+02 -0.14581533829E+01  0.59301961300E+02  0.50000031501E+02 0.  0.
        -12    1    1    2    0    0 -0.31216044208E+01  0.31699350759E+02  0.14581533829E+01  0.31886038700E+02  0.00000000000E+00 0.  1.
         11    1    3    3    0    0  0.24791824704E+01  0.42326590375E+01  0.66634776684E+01  0.82742784064E+01  0.51100000000E-03 0.  1.
        -11    1    3    3    0    0  0.76948209740E+01 -0.37052813205E+02 -0.15376525527E+02  0.40847995957E+02  0.51100000000E-03 0. -1.
         12    1    3    3    0    0 -0.70523990236E+01  0.11208034086E+01  0.72548944757E+01  0.10179686936E+02  0.00000000000E+00 0. -1.
</event>
<event>
 7    1  0.3755162E-013  0.5930195E+02  0.7816164E-02  0.1266605E+00
        -11   -1    0    0    0    0  0.00000000000E+00  0.00000000000E+00  0.45593999997E+02  0.45594000000E+02  0.51100000000E-03 0.  1.
         11   -1    0    0    0    0 -0.00000000000E+00 -0.00000000000E+00 -0.45593999997E+02  0.45594000000E+02  0.51100000000E-03 0. -1.
    9900012    2    1    2    0    0 -0.16756727439E+02  0.22392235955E+02 -0.15314051713E+02  0.59301947793E+02  0.50000006866E+02 0.  0.
        -12    1    1    2    0    0  0.16756727439E+02 -0.22392235955E+02  0.15314051713E+02  0.31886052207E+02  0.00000000000E+00 0.  1.
         11    1    3    3    0    0 -0.29855091867E+02  0.19711184516E+02 -0.22591998934E+02  0.42311413608E+02  0.51100000000E-03 0. -1.
        -11    1    3    3    0    0  0.48928332307E+01 -0.15607007233E+01 -0.14917218603E+00  0.51378844258E+01  0.51100000000E-03 0.  1.
        -12    1    3    3    0    0  0.82055311975E+01  0.42417521617E+01  0.74271194064E+01  0.11852649759E+02  0.00000000000E+00 0.  1.
</event>
<event>
 7    1  0.3755162E-013  0.5930192E+02  0.7816164E-02  0.1266605E+00
        -11   -1    0    0    0    0  0.00000000000E+00  0.00000000000E+00  0.45593999997E+02  0.45594000000E+02  0.51100000000E-03 0. -1.
         11   -1    0    0    0    0 -0.00000000000E+00 -0.00000000000E+00 -0.45593999997E+02  0.45594000000E+02  0.51100000000E-03 0.  1.
    9900012    2    1    2    0    0 -0.57661015364E+01 -0.17263921705E+01  0.31312836426E+02  0.59301920248E+02  0.49999956632E+02 0.  0.
        -12    1    1    2    0    0  0.57661015364E+01  0.17263921705E+01 -0.31312836426E+02  0.31886079752E+02  0.00000000000E+00 0.  1.
         11    1    3    3    0    0  0.68269608753E+01  0.85484280877E-01  0.81356622403E+01  0.10620908751E+02  0.51100000000E-03 0. -1.
        -11    1    3    3    0    0  0.90891162761E+01 -0.11312757203E+02 -0.13733607748E+01  0.14576578141E+02  0.51100000000E-03 0.  1.
        -12    1    3    3    0    0 -0.21682178688E+02  0.95008807514E+01  0.24550534961E+02  0.34104433356E+02  0.00000000000E+00 0.  1.
</event>
<event>
 7    1  0.3755162E-013  0.5930195E+02  0.7816164E-02  0.1266605E+00
        -11   -1    0    0    0    0  0.00000000000E+00  0.00000000000E+00  0.45593999997E+02  0.45594000000E+02  0.51100000000E-03 0.  1.
         11   -1    0    0    0    0 -0.00000000000E+00 -0.00000000000E+00 -0.45593999997E+02  0.45594000000E+02  0.51100000000E-03 0. -1.
    9900012    2    1    2    0    0  0.86436220598E+01  0.28389320402E+02 -0.11664239043E+02  0.59301949952E+02  0.50000010805E+02 0.  0.
        -12    1    1    2    0    0 -0.86436220598E+01 -0.28389320402E+02  0.11664239043E+02  0.31886050048E+02  0.00000000000E+00 0.  1.
         11    1    3    3    0    0  0.70178151276E+01  0.16676719403E+02 -0.56753054512E+01  0.18962378317E+02  0.51100000000E-03 0. -1.
        -11    1    3    3    0    0  0.70850895332E+01  0.24069421522E+02 -0.87096704540E+01  0.26559252734E+02  0.51100000000E-03 0.  1.
         12    1    3    3    0    0 -0.54592826010E+01 -0.12356820523E+02  0.27207368627E+01  0.13780318901E+02  0.00000000000E+00 0. -1.
</event>
<event>
 7    1  0.3755162E-013  0.5930194E+02  0.7816164E-02  0.1266605E+00
        -11   -1    0    0    0    0  0.00000000000E+00  0.00000000000E+00  0.45593999997E+02  0.45594000000E+02  0.51100000000E-03 0. -1.
         11   -1    0    0    0    0 -0.00000000000E+00 -0.00000000000E+00 -0.45593999997E+02  0.45594000000E+02  0.51100000000E-03 0.  1.
    9900012    2    1    2    0    0  0.31737773451E+02  0.26840382174E+01  0.14934741480E+01  0.59301940509E+02  0.49999993584E+02 0.  0.
        -12    1    1    2    0    0 -0.31737773451E+02 -0.26840382174E+01 -0.14934741480E+01  0.31886059491E+02  0.00000000000E+00 0.  1.
         11    1    3    3    0    0  0.11597728481E+02 -0.10146616324E+02  0.13955930610E+02  0.20790120928E+02  0.51100000000E-03 0. -1.
        -11    1    3    3    0    0  0.53343936844E+01 -0.55951157799E+01 -0.12706545878E+02  0.14873378398E+02  0.51100000000E-03 0.  1.
        -12    1    3    3    0    0  0.14805651286E+02  0.18425770322E+02  0.24408941613E+00  0.23638441184E+02  0.00000000000E+00 0.  1.
</event>
<event>
 7    1  0.3755162E-013  0.5930194E+02  0.7816164E-02  0.1266605E+00
        -11   -1    0    0    0    0  0.00000000000E+00  0.00000000000E+00  0.45593999997E+02  0.45594000000E+02  0.51100000000E-03 0.  1.
         11   -1    0    0    0    0 -0.00000000000E+00 -0.00000000000E+00 -0.45593999997E+02  0.45594000000E+02  0.51100000000E-03 0. -1.
    9900012    2    1    2    0    0 -0.15649215178E+02  0.26835856422E+02  0.71874703437E+01  0.59301939480E+02  0.49999991706E+02 0.  0.
        -12    1    1    2    0    0  0.15649215178E+02 -0.26835856422E+02 -0.71874703437E+01  0.31886060520E+02  0.00000000000E+00 0.  1.
         11    1    3    3    0    0 -0.27074785673E+02  0.27918187916E+02  0.11250770048E+02  0.40485170898E+02  0.51100000000E-03 0.  1.
        -11    1    3    3    0    0  0.59064785156E+01  0.56127926778E+01 -0.57565962469E+01  0.99763886607E+01  0.51100000000E-03 0. -1.
        -12    1    3    3    0    0  0.55190919797E+01 -0.66951241719E+01  0.16932965425E+01  0.88403799205E+01  0.00000000000E+00 0.  1.
</event>
<event>
 7    1  0.3755162E-013  0.5930192E+02  0.7816164E-02  0.1266605E+00
        -11   -1    0    0    0    0  0.00000000000E+00  0.00000000000E+00  0.45593999997E+02  0.45594000000E+02  0.51100000000E-03 0.  1.
         11   -1    0    0    0    0 -0.00000000000E+00 -0.00000000000E+00 -0.45593999997E+02  0.45594000000E+02  0.51100000000E-03 0. -1.
    9900012    2    1    2    0    0 -0.24858794797E+02 -0.16886397152E+02 -0.10658900599E+02  0.59301917620E+02  0.49999951839E+02 0.  0.
        -12    1    1    2    0    0  0.24858794797E+02  0.16886397152E+02  0.10658900599E+02  0.31886082380E+02  0.00000000000E+00 0.  1.
         11    1    3    3    0    0 -0.90311462553E+01  0.32777252900E+01 -0.18850606003E+02  0.21157751126E+02  0.51100000000E-03 0. -1.
        -11    1    3    3    0    0  0.39914156404E+01  0.41693869843E+01  0.27904210822E+00  0.57786721138E+01  0.51100000000E-03 0.  1.
        -12    1    3    3    0    0 -0.19819064182E+02 -0.24333509427E+02  0.79126632952E+01  0.32365494381E+02  0.00000000000E+00 0.  1.
</event>
<event>
 7    1  0.3755162E-013  0.5930195E+02  0.7816164E-02  0.1266605E+00
        -11   -1    0    0    0    0  0.00000000000E+00  0.00000000000E+00  0.45593999997E+02  0.45594000000E+02  0.51100000000E-03 0.  1.
         11   -1    0    0    0    0 -0.00000000000E+00 -0.00000000000E+00 -0.45593999997E+02  0.45594000000E+02  0.51100000000E-03 0. -1.
    9900012    2    1    2    0    0 -0.27739259364E+02 -0.11956465057E+02 -0.10212578961E+02  0.59301947630E+02  0.50000006569E+02 0.  0.
        -12    1    1    2    0    0  0.27739259364E+02  0.11956465057E+02  0.10212578961E+02  0.31886052370E+02  0.00000000000E+00 0.  1.
         11    1    3    3    0    0  0.33603530650E+01  0.13522237675E+01  0.47035338912E+01  0.59366415730E+01  0.51100000000E-03 0. -1.
        -11    1    3    3    0    0 -0.21944723654E+02  0.85230853518E+01  0.29235268838E+01  0.23722581855E+02  0.51100000000E-03 0.  1.
         12    1    3    3    0    0 -0.91548887749E+01 -0.21831774176E+02 -0.17839639736E+02  0.29642724202E+02  0.00000000000E+00 0. -1.
</event>
<event>
 7    1  0.3755162E-013  0.5930196E+02  0.7816164E-02  0.1266605E+00
        -11   -1    0    0    0    0  0.00000000000E+00  0.00000000000E+00  0.45593999997E+02  0.45594000000E+02  0.51100000000E-03 0.  1.
         11   -1    0    0    0    0 -0.00000000000E+00 -0.00000000000E+00 -0.45593999997E+02  0.45594000000E+02  0.51100000000E-03 0. -1.
    9900012    2    1    2    0    0 -0.24859407896E+02  0.40643730296E+01 -0.19550203310E+02  0.59301956995E+02  0.50000023648E+02 0.  0.
        -12    1    1    2    0    0  0.24859407896E+02 -0.40643730296E+01  0.19550203310E+02  0.31886043005E+02  0.00000000000E+00 0.  1.
         11    1    3    3    0    0 -0.12815245785E+02 -0.76938167476E+01 -0.51110443094E+01  0.15797091975E+02  0.51100000000E-03 0. -1.
        -11    1    3    3    0    0 -0.17340327165E+02  0.11663716592E+02  0.65161865347E+01  0.21890406989E+02  0.51100000000E-03 0.  1.
        -12    1    3    3    0    0  0.52961650534E+01  0.94473185184E-01 -0.20955345535E+02  0.21614458031E+02  0.00000000000E+00 0.  1.
</event>
<event>
 7    1  0.3755162E-013  0.5930192E+02  0.7816164E-02  0.1266605E+00
        -11   -1    0    0    0    0  0.00000000000E+00  0.00000000000E+00  0.45593999997E+02  0.45594000000E+02  0.51100000000E-03 0.  1.
         11   -1    0    0    0    0 -0.00000000000E+00 -0.00000000000E+00 -0.45593999997E+02  0.45594000000E+02  0.51100000000E-03 0. -1.
    9900012    2    1    2    0    0 -0.29649603881E+01 -0.26272515013E+02 -0.17823748406E+02  0.59301920867E+02  0.49999957761E+02 0.  0.
        -12    1    1    2    0    0  0.29649603881E+01  0.26272515013E+02  0.17823748406E+02  0.31886079133E+02  0.00000000000E+00 0.  1.
         11    1    3    3    0    0 -0.11132777467E+02 -0.16936381598E+02 -0.20556014208E+02  0.28867446651E+02  0.51100000000E-03 0. -1.
        -11    1    3    3    0    0  0.75339865853E+01 -0.16725595291E+02 -0.56955764767E+01  0.19207969267E+02  0.51100000000E-03 0.  1.
        -12    1    3    3    0    0  0.63383049373E+00  0.73894618758E+01  0.84278422783E+01  0.11226504949E+02  0.00000000000E+00 0.  1.
</event>
<event>
 7    1  0.3755162E-013  0.5930195E+02  0.7816164E-02  0.1266605E+00
        -11   -1    0    0    0    0  0.00000000000E+00  0.00000000000E+00  0.45593999997E+02  0.45594000000E+02  0.51100000000E-03 0. -1.
         11   -1    0    0    0    0 -0.00000000000E+00 -0.00000000000E+00 -0.45593999997E+02  0.45594000000E+02  0.51100000000E-03 0.  1.
    9900012    2    1    2    0    0  0.22569788641E+02 -0.55275732549E+01  0.21835073970E+02  0.59301954766E+02  0.50000019584E+02 0.  0.
        -12    1    1    2    0    0 -0.22569788641E+02  0.55275732549E+01 -0.21835073970E+02  0.31886045234E+02  0.00000000000E+00 0.  1.
         11    1    3    3    0    0  0.98640308819E+01 -0.16478090486E+02  0.16530456521E+02  0.25339348144E+02  0.51100000000E-03 0. -1.
        -11    1    3    3    0    0  0.93911447352E+01 -0.88181037865E+01  0.52685970480E+01  0.13917998022E+02  0.51100000000E-03 0.  1.
        -12    1    3    3    0    0  0.33146130241E+01  0.19768621018E+02  0.36020400700E-01  0.20044608599E+02  0.00000000000E+00 0.  1.
</event>
<event>
 7    1  0.3755162E-013  0.5930196E+02  0.7816164E-02  0.1266605E+00
        -11   -1    0    0    0    0  0.00000000000E+00  0.00000000000E+00  0.45593999997E+02  0.45594000000E+02  0.51100000000E-03 0. -1.
         11   -1    0    0    0    0 -0.00000000000E+00 -0.00000000000E+00 -0.45593999997E+02  0.45594000000E+02  0.51100000000E-03 0.  1.
    9900012    2    1    2    0    0 -0.18824774608E+01 -0.31747667263E+02  0.22937339360E+01  0.59301963661E+02  0.50000035806E+02 0.  0.
        -12    1    1    2    0    0  0.18824774608E+01  0.31747667263E+02 -0.22937339360E+01  0.31886036339E+02  0.00000000000E+00 0.  1.
         11    1    3    3    0    0  0.81114678169E+01 -0.23604603787E+02 -0.35696741151E+01  0.25213405237E+02  0.51100000000E-03 0. -1.
        -11    1    3    3    0    0 -0.80680185451E+00 -0.55794470587E+01 -0.12323789176E+02  0.13552008656E+02  0.51100000000E-03 0.  1.
        -12    1    3    3    0    0 -0.91871434232E+01 -0.25636164179E+01  0.18187197227E+02  0.20536549768E+02  0.00000000000E+00 0.  1.
</event>
<event>
 7    1  0.3755162E-013  0.5930198E+02  0.7816164E-02  0.1266605E+00
        -11   -1    0    0    0    0  0.00000000000E+00  0.00000000000E+00  0.45593999997E+02  0.45594000000E+02  0.51100000000E-03 0.  1.
         11   -1    0    0    0    0 -0.00000000000E+00 -0.00000000000E+00 -0.45593999997E+02  0.45594000000E+02  0.51100000000E-03 0. -1.
    9900012    2    1    2    0    0 -0.14669759556E+02  0.23189639483E+02  0.16240598698E+02  0.59301980009E+02  0.50000065621E+02 0.  0.
        -12    1    1    2    0    0  0.14669759556E+02 -0.23189639483E+02 -0.16240598698E+02  0.31886019991E+02  0.00000000000E+00 0.  1.
         11    1    3    3    0    0  0.45986624905E+01 -0.77202083011E+00  0.44623117009E+01  0.64541412164E+01  0.51100000000E-03 0. -1.
        -11    1    3    3    0    0  0.11677396147E+02 -0.95738667697E+00  0.38499099281E+01  0.12332881931E+02  0.51100000000E-03 0.  1.
         12    1    3    3    0    0 -0.30945818193E+02  0.24919046990E+02  0.79283770690E+01  0.40514956862E+02  0.00000000000E+00 0. -1.
</event>
<event>
 7    1  0.3755162E-013  0.5930195E+02  0.7816164E-02  0.1266605E+00
        -11   -1    0    0    0    0  0.00000000000E+00  0.00000000000E+00  0.45593999997E+02  0.45594000000E+02  0.51100000000E-03 0. -1.
         11   -1    0    0    0    0 -0.00000000000E+00 -0.00000000000E+00 -0.45593999997E+02  0.45594000000E+02  0.51100000000E-03 0.  1.
    9900012    2    1    2    0    0 -0.99287481680E+01  0.22957423307E+02 -0.19776172151E+02  0.59301948033E+02  0.50000007305E+02 0.  0.
        -12    1    1    2    0    0  0.99287481680E+01 -0.22957423307E+02  0.19776172151E+02  0.31886051967E+02  0.00000000000E+00 0.  1.
         11    1    3    3    0    0  0.45069305554E+01 -0.52337307682E+01  0.58019255520E+01  0.90203492813E+01  0.51100000000E-03 0. -1.
        -11    1    3    3    0    0  0.54226021192E+01 -0.52874064878E+00 -0.11325646974E+02  0.12567993478E+02  0.51100000000E-03 0.  1.
         12    1    3    3    0    0 -0.19858280843E+02  0.28719894724E+02 -0.14252450728E+02  0.37713605274E+02  0.00000000000E+00 0. -1.
</event>
<event>
 7    1  0.3755162E-013  0.5930194E+02  0.7816164E-02  0.1266605E+00
        -11   -1    0    0    0    0  0.00000000000E+00  0.00000000000E+00  0.45593999997E+02  0.45594000000E+02  0.51100000000E-03 0. -1.
         11   -1    0    0    0    0 -0.00000000000E+00 -0.00000000000E+00 -0.45593999997E+02  0.45594000000E+02  0.51100000000E-03 0.  1.
    9900012    2    1    2    0    0  0.12409867608E+02  0.28858271169E+02 -0.54695430274E+01  0.59301944586E+02  0.50000001018E+02 0.  0.
        -12    1    1    2    0    0 -0.12409867608E+02 -0.28858271169E+02  0.54695430274E+01  0.31886055414E+02  0.00000000000E+00 0.  1.
         11    1    3    3    0    0 -0.97412460915E+01 -0.58892333301E+01  0.22360774237E+01  0.11600645979E+02  0.51100000000E-03 0.  1.
        -11    1    3    3    0    0  0.10650244605E+02  0.44371803409E+01 -0.99074667889E+01  0.15207701271E+02  0.51100000000E-03 0. -1.
        -12    1    3    3    0    0  0.11500869095E+02  0.30310324158E+02  0.22018463378E+01  0.32493597336E+02  0.00000000000E+00 0.  1.
</event>
<event>
 7    1  0.3755162E-013  0.5930194E+02  0.7816164E-02  0.1266605E+00
        -11   -1    0    0    0    0  0.00000000000E+00  0.00000000000E+00  0.45593999997E+02  0.45594000000E+02  0.51100000000E-03 0.  1.
         11   -1    0    0    0    0 -0.00000000000E+00 -0.00000000000E+00 -0.45593999997E+02  0.45594000000E+02  0.51100000000E-03 0. -1.
    9900012    2    1    2    0    0  0.27058564581E+02  0.62725535576E+01 -0.15659187399E+02  0.59301937288E+02  0.49999987708E+02 0.  0.
        -12    1    1    2    0    0 -0.27058564581E+02 -0.62725535576E+01  0.15659187399E+02  0.31886062712E+02  0.00000000000E+00 0.  1.
         11    1    3    3    0    0  0.30456770189E+02  0.48775494358E+01 -0.79283426225E+01  0.31847510984E+02  0.51100000000E-03 0. -1.
        -11    1    3    3    0    0  0.49167687477E+01  0.11858851839E+02 -0.52039318803E+01  0.13852360417E+02  0.51100000000E-03 0.  1.
         12    1    3    3    0    0 -0.83149743564E+01 -0.10463847717E+02 -0.25269128966E+01  0.13602065886E+02  0.00000000000E+00 0. -1.
</event>
<event>
 7    1  0.3755162E-013  0.5930194E+02  0.7816164E-02  0.1266605E+00
        -11   -1    0    0    0    0  0.00000000000E+00  0.00000000000E+00  0.45593999997E+02  0.45594000000E+02  0.51100000000E-03 0. -1.
         11   -1    0    0    0    0 -0.00000000000E+00 -0.00000000000E+00 -0.45593999997E+02  0.45594000000E+02  0.51100000000E-03 0.  1.
    9900012    2    1    2    0    0 -0.13128407410E+02  0.28042042394E+02  0.76163996789E+01  0.59301940871E+02  0.49999994242E+02 0.  0.
        -12    1    1    2    0    0  0.13128407410E+02 -0.28042042394E+02 -0.76163996789E+01  0.31886059129E+02  0.00000000000E+00 0.  1.
         11    1    3    3    0    0  0.15577346527E+01  0.57601378102E+01 -0.31631004992E+01  0.67535864449E+01  0.51100000000E-03 0. -1.
        -11    1    3    3    0    0 -0.50921379521E+01 -0.21766238768E+01 -0.14847571622E+02  0.15846701352E+02  0.51100000000E-03 0.  1.
         12    1    3    3    0    0 -0.95940041102E+01  0.24458528460E+02  0.25627071800E+02  0.36701653074E+02  0.00000000000E+00 0. -1.
</event>
<event>
 7    1  0.3755162E-013  0.5930192E+02  0.7816164E-02  0.1266605E+00
        -11   -1    0    0    0    0  0.00000000000E+00  0.00000000000E+00  0.45593999997E+02  0.45594000000E+02  0.51100000000E-03 0.  1.
         11   -1    0    0    0    0 -0.00000000000E+00 -0.00000000000E+00 -0.45593999997E+02  0.45594000000E+02  0.51100000000E-03 0. -1.
    9900012    2    1    2    0    0 -0.99743635683E+01  0.28050515921E+01 -0.30155692710E+02  0.59301920814E+02  0.49999957665E+02 0.  0.
        -12    1    1    2    0    0  0.99743635683E+01 -0.28050515921E+01  0.30155692710E+02  0.31886079186E+02  0.00000000000E+00 0.  1.
         11    1    3    3    0    0 -0.90540672990E+01  0.21763487424E+02 -0.22117563927E+02  0.32323554165E+02  0.51100000000E-03 0. -1.
        -11    1    3    3    0    0  0.50545737137E+01 -0.47205199170E+01  0.34537577771E+01  0.77304894255E+01  0.51100000000E-03 0.  1.
        -12    1    3    3    0    0 -0.59748699831E+01 -0.14237915915E+02 -0.11491886560E+02  0.19247877224E+02  0.00000000000E+00 0.  1.
</event>
<event>
 7    1  0.3755162E-013  0.5930195E+02  0.7816164E-02  0.1266605E+00
        -11   -1    0    0    0    0  0.00000000000E+00  0.00000000000E+00  0.45593999997E+02  0.45594000000E+02  0.51100000000E-03 0.  1.
         11   -1    0    0    0    0 -0.00000000000E+00 -0.00000000000E+00 -0.45593999997E+02  0.45594000000E+02  0.51100000000E-03 0. -1.
    9900012    2    1    2    0    0  0.28942050381E+02 -0.52146034709E+00 -0.13371842278E+02  0.59301947139E+02  0.50000005675E+02 0.  0.
        -12    1    1    2    0    0 -0.28942050381E+02  0.52146034709E+00  0.13371842278E+02  0.31886052861E+02  0.00000000000E+00 0.  1.
         11    1    3    3    0    0  0.15485251105E+02 -0.28693466891E+01 -0.20374319618E+02  0.25751486411E+02  0.51100000000E-03 0.  1.
        -11    1    3    3    0    0  0.82513733187E+01 -0.31681703922E+01 -0.10943814080E+02  0.14067321428E+02  0.51100000000E-03 0. -1.
        -12    1    3    3    0    0  0.52054259565E+01  0.55160567342E+01  0.17946291420E+02  0.19483139301E+02  0.00000000000E+00 0.  1.
</event>
<event>
 7    1  0.3755162E-013  0.5930195E+02  0.7816164E-02  0.1266605E+00
        -11   -1    0    0    0    0  0.00000000000E+00  0.00000000000E+00  0.45593999997E+02  0.45594000000E+02  0.51100000000E-03 0. -1.
         11   -1    0    0    0    0 -0.00000000000E+00 -0.00000000000E+00 -0.45593999997E+02  0.45594000000E+02  0.51100000000E-03 0.  1.
    9900012    2    1    2    0    0 -0.35639676991E+00  0.18836877494E+02  0.25724791631E+02  0.59301954826E+02  0.50000019694E+02 0.  0.
        -12    1    1    2    0    0  0.35639676991E+00 -0.18836877494E+02 -0.25724791631E+02  0.31886045174E+02  0.00000000000E+00 0.  1.
         11    1    3    3    0    0 -0.17726681817E+02  0.11933654136E+01  0.15825499789E+02  0.23792978230E+02  0.51100000000E-03 0. -1.
        -11    1    3    3    0    0  0.56488547987E+01  0.98304684645E+01 -0.71415232030E+01  0.13399590467E+02  0.51100000000E-03 0.  1.
        -12    1    3    3    0    0  0.11721430248E+02  0.78130436156E+01  0.17040815045E+02  0.22109386129E+02  0.00000000000E+00 0.  1.
</event>
<event>
 7    1  0.3755162E-013  0.5930194E+02  0.7816164E-02  0.1266605E+00
        -11   -1    0    0    0    0  0.00000000000E+00  0.00000000000E+00  0.45593999997E+02  0.45594000000E+02  0.51100000000E-03 0. -1.
         11   -1    0    0    0    0 -0.00000000000E+00 -0.00000000000E+00 -0.45593999997E+02  0.45594000000E+02  0.51100000000E-03 0.  1.
    9900012    2    1    2    0    0  0.93063900415E+01  0.45338678265E+01  0.30158843361E+02  0.59301942139E+02  0.49999996555E+02 0.  0.
        -12    1    1    2    0    0 -0.93063900415E+01 -0.45338678265E+01 -0.30158843361E+02  0.31886057861E+02  0.00000000000E+00 0.  1.
         11    1    3    3    0    0  0.39626668814E+01  0.44681777521E+01  0.10059874583E+02  0.11699077662E+02  0.51100000000E-03 0. -1.
        -11    1    3    3    0    0 -0.30169490834E+01  0.11397025219E+02  0.28751724882E+02  0.31075003614E+02  0.51100000000E-03 0.  1.
        -12    1    3    3    0    0  0.83606722435E+01 -0.11331335144E+02 -0.86527561053E+01  0.16527860864E+02  0.00000000000E+00 0.  1.
</event>
<event>
 7    1  0.3755162E-013  0.5930202E+02  0.7816164E-02  0.1266604E+00
        -11   -1    0    0    0    0  0.00000000000E+00  0.00000000000E+00  0.45593999997E+02  0.45594000000E+02  0.51100000000E-03 0.  1.
         11   -1    0    0    0    0 -0.00000000000E+00 -0.00000000000E+00 -0.45593999997E+02  0.45594000000E+02  0.51100000000E-03 0. -1.
    9900012    2    1    2    0    0  0.98109742004E+01  0.42374740220E+01 -0.30041709782E+02  0.59302019892E+02  0.50000138357E+02 0.  0.
        -12    1    1    2    0    0 -0.98109742004E+01 -0.42374740220E+01  0.30041709782E+02  0.31885980108E+02  0.00000000000E+00 0.  1.
         11    1    3    3    0    0 -0.47511513779E+01  0.16084248047E+02  0.91421052583E+00  0.16796197659E+02  0.51100000000E-03 0. -1.
        -11    1    3    3    0    0  0.18963298668E+01  0.44995263407E+01  0.44969803230E+00  0.49034715086E+01  0.51100000000E-03 0.  1.
         12    1    3    3    0    0  0.12665795712E+02 -0.16346300366E+02 -0.31405618340E+02  0.37602350724E+02  0.00000000000E+00 0. -1.
</event>
<event>
 7    1  0.3755162E-013  0.5930219E+02  0.7816164E-02  0.1266604E+00
        -11   -1    0    0    0    0  0.00000000000E+00  0.00000000000E+00  0.45593999997E+02  0.45594000000E+02  0.51100000000E-03 0.  1.
         11   -1    0    0    0    0 -0.00000000000E+00 -0.00000000000E+00 -0.45593999997E+02  0.45594000000E+02  0.51100000000E-03 0. -1.
    9900012    2    1    2    0    0  0.23030776064E+02  0.10971585815E+02 -0.19128837974E+02  0.59302191501E+02  0.50000451331E+02 0.  0.
        -12    1    1    2    0    0 -0.23030776064E+02 -0.10971585815E+02  0.19128837974E+02  0.31885808499E+02  0.00000000000E+00 0.  1.
         11    1    3    3    0    0  0.25778339853E+01 -0.99546668905E+01 -0.10545649781E+02  0.14729268499E+02  0.51100000000E-03 0. -1.
        -11    1    3    3    0    0  0.98145654114E+01  0.19262660386E+01 -0.18200906924E+02  0.20767985174E+02  0.51100000000E-03 0.  1.
        -12    1    3    3    0    0  0.10638376667E+02  0.18999986666E+02  0.96177187311E+01  0.23804937829E+02  0.00000000000E+00 0.  1.
</event>
<event>
 7    1  0.3755162E-013  0.5930197E+02  0.7816164E-02  0.1266605E+00
        -11   -1    0    0    0    0  0.00000000000E+00  0.00000000000E+00  0.45593999997E+02  0.45594000000E+02  0.51100000000E-03 0.  1.
         11   -1    0    0    0    0 -0.00000000000E+00 -0.00000000000E+00 -0.45593999997E+02  0.45594000000E+02  0.51100000000E-03 0. -1.
    9900012    2    1    2    0    0 -0.13505619945E+02  0.18677953947E+02  0.22032956177E+02  0.59301970275E+02  0.50000047868E+02 0.  0.
        -12    1    1    2    0    0  0.13505619945E+02 -0.18677953947E+02 -0.22032956177E+02  0.31886029725E+02  0.00000000000E+00 0.  1.
         11    1    3    3    0    0 -0.86198419380E+01  0.28875892060E+02 -0.31540602683E-01  0.30135026338E+02  0.51100000000E-03 0. -1.
        -11    1    3    3    0    0 -0.53324702991E+01 -0.83460844201E+01  0.34991412639E+01  0.10504111313E+02  0.51100000000E-03 0.  1.
        -12    1    3    3    0    0  0.44669229170E+00 -0.18518536933E+01  0.18565355516E+02  0.18662832624E+02  0.00000000000E+00 0.  1.
</event>
<event>
 7    1  0.3755162E-013  0.5930167E+02  0.7816164E-02  0.1266606E+00
        -11   -1    0    0    0    0  0.00000000000E+00  0.00000000000E+00  0.45593999997E+02  0.45594000000E+02  0.51100000000E-03 0.  1.
         11   -1    0    0    0    0 -0.00000000000E+00 -0.00000000000E+00 -0.45593999997E+02  0.45594000000E+02  0.51100000000E-03 0. -1.
    9900012    2    1    2    0    0 -0.60083408364E+01 -0.24504764323E+02 -0.19497540835E+02  0.59301674832E+02  0.49999509048E+02 0.  0.
        -12    1    1    2    0    0  0.60083408364E+01  0.24504764323E+02  0.19497540835E+02  0.31886325168E+02  0.00000000000E+00 0.  1.
         11    1    3    3    0    0 -0.50873478164E+01 -0.96636318820E+01 -0.18480432830E+02  0.21466096217E+02  0.51100000000E-03 0. -1.
        -11    1    3    3    0    0  0.14273079612E+01 -0.22307238851E+02 -0.11192379960E+02  0.24998389600E+02  0.51100000000E-03 0.  1.
         12    1    3    3    0    0 -0.23483009812E+01  0.74661064106E+01  0.10175271954E+02  0.12837189014E+02  0.00000000000E+00 0. -1.
</event>
<event>
 7    1  0.3755162E-013  0.5930195E+02  0.7816164E-02  0.1266605E+00
        -11   -1    0    0    0    0  0.00000000000E+00  0.00000000000E+00  0.45593999997E+02  0.45594000000E+02  0.51100000000E-03 0.  1.
         11   -1    0    0    0    0 -0.00000000000E+00 -0.00000000000E+00 -0.45593999997E+02  0.45594000000E+02  0.51100000000E-03 0. -1.
    9900012    2    1    2    0    0  0.23205933498E+01  0.30924833509E+02 -0.74155064712E+01  0.59301949487E+02  0.50000009957E+02 0.  0.
        -12    1    1    2    0    0 -0.23205933498E+01 -0.30924833509E+02  0.74155064712E+01  0.31886050513E+02  0.00000000000E+00 0.  1.
         11    1    3    3    0    0 -0.12825775055E+02  0.60683983255E+01 -0.30909424931E+01  0.14521704093E+02  0.51100000000E-03 0. -1.
        -11    1    3    3    0    0  0.42050094077E+01  0.29004620048E+02 -0.11005379515E+02  0.31306045211E+02  0.51100000000E-03 0.  1.
        -12    1    3    3    0    0  0.10941358997E+02 -0.41481848637E+01  0.66808155365E+01  0.13474200184E+02  0.00000000000E+00 0.  1.
</event>
<event>
 7    1  0.3755162E-013  0.5930193E+02  0.7816164E-02  0.1266605E+00
        -11   -1    0    0    0    0  0.00000000000E+00  0.00000000000E+00  0.45593999997E+02  0.45594000000E+02  0.51100000000E-03 0. -1.
         11   -1    0    0    0    0 -0.00000000000E+00 -0.00000000000E+00 -0.45593999997E+02  0.45594000000E+02  0.51100000000E-03 0.  1.
    9900012    2    1    2    0    0 -0.24933109586E+02 -0.84116978940E+01 -0.18008469724E+02  0.59301927854E+02  0.49999970503E+02 0.  0.
        -12    1    1    2    0    0  0.24933109586E+02  0.84116978940E+01  0.18008469724E+02  0.31886072146E+02  0.00000000000E+00 0.  1.
         11    1    3    3    0    0  0.81601834218E+01  0.32889692474E+00 -0.62149531818E+01  0.10262670704E+02  0.51100000000E-03 0. -1.
        -11    1    3    3    0    0 -0.13641673316E+02  0.61439086268E+01 -0.18357249473E+02  0.23681880680E+02  0.51100000000E-03 0.  1.
         12    1    3    3    0    0 -0.19451619692E+02 -0.14884503445E+02  0.65637329305E+01  0.25357376470E+02  0.00000000000E+00 0. -1.
</event>
<event>
 7    1  0.3755162E-013  0.5930193E+02  0.7816164E-02  0.1266605E+00
        -11   -1    0    0    0    0  0.00000000000E+00  0.00000000000E+00  0.45593999997E+02  0.45594000000E+02  0.51100000000E-03 0.  1.
         11   -1    0    0    0    0 -0.00000000000E+00 -0.00000000000E+00 -0.45593999997E+02  0.45594000000E+02  0.51100000000E-03 0. -1.
    9900012    2    1    2    0    0  0.61776442968E+01  0.98542361597E+01 -0.29689257865E+02  0.59301932637E+02  0.49999979226E+02 0.  0.
        -12    1    1    2    0    0 -0.61776442968E+01 -0.98542361597E+01  0.29689257865E+02  0.31886067363E+02  0.00000000000E+00 0.  1.
         11    1    3    3    0    0 -0.15272614309E+01  0.20171224107E+02 -0.13793534916E+02  0.24484125779E+02  0.51100000000E-03 0. -1.
        -11    1    3    3    0    0  0.40888236362E+01 -0.72939022785E+01  0.73293507298E+01  0.11119301757E+02  0.51100000000E-03 0.  1.
         12    1    3    3    0    0  0.36160820915E+01 -0.30230856683E+01 -0.23225073678E+02  0.23698505101E+02  0.00000000000E+00 0. -1.
</event>
<event>
 7    1  0.3755162E-013  0.5930193E+02  0.7816164E-02  0.1266605E+00
        -11   -1    0    0    0    0  0.00000000000E+00  0.00000000000E+00  0.45593999997E+02  0.45594000000E+02  0.51100000000E-03 0. -1.
         11   -1    0    0    0    0 -0.00000000000E+00 -0.00000000000E+00 -0.45593999997E+02  0.45594000000E+02  0.51100000000E-03 0.  1.
    9900012    2    1    2    0    0 -0.21892266393E+02  0.22282935181E+02  0.63969429705E+01  0.59301930824E+02  0.49999975920E+02 0.  0.
        -12    1    1    2    0    0  0.21892266393E+02 -0.22282935181E+02 -0.63969429705E+01  0.31886069176E+02  0.00000000000E+00 0.  1.
         11    1    3    3    0    0 -0.82853548298E+01  0.22779933704E+02  0.48065770151E+01  0.24711852765E+02  0.51100000000E-03 0. -1.
        -11    1    3    3    0    0 -0.89626282157E+01  0.28009340014E+01 -0.14638074544E+02  0.17391008091E+02  0.51100000000E-03 0.  1.
         12    1    3    3    0    0 -0.46442833473E+01 -0.32979325241E+01  0.16228440499E+02  0.17199069968E+02  0.00000000000E+00 0. -1.
</event>
<event>
 7    1  0.3755162E-013  0.5930192E+02  0.7816164E-02  0.1266605E+00
        -11   -1    0    0    0    0  0.00000000000E+00  0.00000000000E+00  0.45593999997E+02  0.45594000000E+02  0.51100000000E-03 0.  1.
         11   -1    0    0    0    0 -0.00000000000E+00 -0.00000000000E+00 -0.45593999997E+02  0.45594000000E+02  0.51100000000E-03 0. -1.
    9900012    2    1    2    0    0  0.52875126185E+01  0.31213591243E+02 -0.38047004396E+01  0.59301924459E+02  0.49999964311E+02 0.  0.
        -12    1    1    2    0    0 -0.52875126185E+01 -0.31213591243E+02  0.38047004396E+01  0.31886075541E+02  0.00000000000E+00 0.  1.
         11    1    3    3    0    0  0.44347963920E+01  0.24598673652E+01  0.95397650136E+01  0.10803956834E+02  0.51100000000E-03 0. -1.
        -11    1    3    3    0    0  0.74126532225E+01 -0.48729436171E+01  0.44140864594E+01  0.99084391720E+01  0.51100000000E-03 0.  1.
         12    1    3    3    0    0 -0.65599369960E+01  0.33626667495E+02 -0.17758551913E+02  0.38589528453E+02  0.00000000000E+00 0. -1.
</event>
<event>
 7    1  0.3755162E-013  0.5930196E+02  0.7816164E-02  0.1266605E+00
        -11   -1    0    0    0    0  0.00000000000E+00  0.00000000000E+00  0.45593999997E+02  0.45594000000E+02  0.51100000000E-03 0.  1.
         11   -1    0    0    0    0 -0.00000000000E+00 -0.00000000000E+00 -0.45593999997E+02  0.45594000000E+02  0.51100000000E-03 0. -1.
    9900012    2    1    2    0    0  0.28097421110E+02 -0.14849332818E+02 -0.25983908415E+01  0.59301962411E+02  0.50000033527E+02 0.  0.
        -12    1    1    2    0    0 -0.28097421110E+02  0.14849332818E+02  0.25983908415E+01  0.31886037589E+02  0.00000000000E+00 0.  1.
         11    1    3    3    0    0  0.12347738065E+02  0.12387475110E+02 -0.59713425082E+01  0.18481696527E+02  0.51100000000E-03 0. -1.
        -11    1    3    3    0    0  0.24528542803E+01  0.12839703257E+01 -0.71276234614E+01  0.76464429891E+01  0.51100000000E-03 0.  1.
        -12    1    3    3    0    0  0.13296828765E+02 -0.28520778254E+02  0.10500575128E+02  0.33173822894E+02  0.00000000000E+00 0.  1.
</event>
<event>
 7    1  0.3755162E-013  0.5930193E+02  0.7816164E-02  0.1266605E+00
        -11   -1    0    0    0    0  0.00000000000E+00  0.00000000000E+00  0.45593999997E+02  0.45594000000E+02  0.51100000000E-03 0.  1.
         11   -1    0    0    0    0 -0.00000000000E+00 -0.00000000000E+00 -0.45593999997E+02  0.45594000000E+02  0.51100000000E-03 0. -1.
    9900012    2    1    2    0    0 -0.31761397742E+02 -0.28111667904E+01  0.18007969406E+00  0.59301929782E+02  0.49999974019E+02 0.  0.
        -12    1    1    2    0    0  0.31761397742E+02  0.28111667904E+01 -0.18007969406E+00  0.31886070218E+02  0.00000000000E+00 0.  1.
         11    1    3    3    0    0 -0.57641367839E+00 -0.11045103137E+02 -0.83873791244E+01  0.13880730704E+02  0.51100000000E-03 0. -1.
        -11    1    3    3    0    0 -0.88375260949E+01  0.81368265770E+01 -0.10568476646E+02  0.16000078534E+02  0.51100000000E-03 0.  1.
        -12    1    3    3    0    0 -0.22347457969E+02  0.97109769576E-01  0.19135935464E+02  0.29421120544E+02  0.00000000000E+00 0.  1.
</event>
<event>
 7    1  0.3755162E-013  0.5930194E+02  0.7816164E-02  0.1266605E+00
        -11   -1    0    0    0    0  0.00000000000E+00  0.00000000000E+00  0.45593999997E+02  0.45594000000E+02  0.51100000000E-03 0.  1.
         11   -1    0    0    0    0 -0.00000000000E+00 -0.00000000000E+00 -0.45593999997E+02  0.45594000000E+02  0.51100000000E-03 0. -1.
    9900012    2    1    2    0    0 -0.27429139526E+02 -0.14171977814E+02 -0.79698251664E+01  0.59301940922E+02  0.49999994337E+02 0.  0.
        -12    1    1    2    0    0  0.27429139526E+02  0.14171977814E+02  0.79698251664E+01  0.31886059078E+02  0.00000000000E+00 0.  1.
         11    1    3    3    0    0  0.22355101519E+01 -0.25608010944E+00 -0.39079685999E+01  0.45094679842E+01  0.51100000000E-03 0. -1.
        -11    1    3    3    0    0 -0.50340614688E+01  0.12426266270E+02  0.93176825961E+01  0.16327065796E+02  0.51100000000E-03 0.  1.
        -12    1    3    3    0    0 -0.24630588209E+02 -0.26342163975E+02 -0.13379539163E+02  0.38465407142E+02  0.00000000000E+00 0.  1.
</event>
<event>
 7    1  0.3755162E-013  0.5930193E+02  0.7816164E-02  0.1266605E+00
        -11   -1    0    0    0    0  0.00000000000E+00  0.00000000000E+00  0.45593999997E+02  0.45594000000E+02  0.51100000000E-03 0. -1.
         11   -1    0    0    0    0 -0.00000000000E+00 -0.00000000000E+00 -0.45593999997E+02  0.45594000000E+02  0.51100000000E-03 0.  1.
    9900012    2    1    2    0    0  0.19743939885E+02 -0.24914221192E+02  0.24859919907E+01  0.59301925674E+02  0.49999966526E+02 0.  0.
        -12    1    1    2    0    0 -0.19743939885E+02  0.24914221192E+02 -0.24859919907E+01  0.31886074326E+02  0.00000000000E+00 0.  1.
         11    1    3    3    0    0  0.12403289101E+02  0.57017317733E+00  0.10316740775E+02  0.16143166308E+02  0.51100000000E-03 0.  1.
        -11    1    3    3    0    0  0.52611999364E+01 -0.30817694649E+01  0.11811252646E+02  0.13292223935E+02  0.51100000000E-03 0. -1.
        -12    1    3    3    0    0  0.20794508473E+01 -0.22402624904E+02 -0.19642001430E+02  0.29866535431E+02  0.00000000000E+00 0.  1.
</event>
<event>
 7    1  0.3755162E-013  0.5930194E+02  0.7816164E-02  0.1266605E+00
        -11   -1    0    0    0    0  0.00000000000E+00  0.00000000000E+00  0.45593999997E+02  0.45594000000E+02  0.51100000000E-03 0.  1.
         11   -1    0    0    0    0 -0.00000000000E+00 -0.00000000000E+00 -0.45593999997E+02  0.45594000000E+02  0.51100000000E-03 0. -1.
    9900012    2    1    2    0    0  0.11391420183E+02  0.65946738659E+01 -0.29042495819E+02  0.59301941282E+02  0.49999994993E+02 0.  0.
        -12    1    1    2    0    0 -0.11391420183E+02 -0.65946738659E+01  0.29042495819E+02  0.31886058718E+02  0.00000000000E+00 0.  1.
         11    1    3    3    0    0  0.19672684425E+01  0.22220329491E+02 -0.16801178622E+02  0.27926560676E+02  0.51100000000E-03 0. -1.
        -11    1    3    3    0    0  0.14653908581E+01  0.41265830756E+01  0.28943494307E+01  0.52491253685E+01  0.51100000000E-03 0.  1.
         12    1    3    3    0    0  0.79587608827E+01 -0.19752238701E+02 -0.15135666627E+02  0.26126255238E+02  0.00000000000E+00 0. -1.
</event>
<event>
 7    1  0.3755162E-013  0.5930196E+02  0.7816164E-02  0.1266605E+00
        -11   -1    0    0    0    0  0.00000000000E+00  0.00000000000E+00  0.45593999997E+02  0.45594000000E+02  0.51100000000E-03 0.  1.
         11   -1    0    0    0    0 -0.00000000000E+00 -0.00000000000E+00 -0.45593999997E+02  0.45594000000E+02  0.51100000000E-03 0. -1.
    9900012    2    1    2    0    0  0.25141123434E+02  0.83943282167E+01  0.17725090068E+02  0.59301958358E+02  0.50000026134E+02 0.  0.
        -12    1    1    2    0    0 -0.25141123434E+02 -0.83943282167E+01 -0.17725090068E+02  0.31886041642E+02  0.00000000000E+00 0.  1.
         11    1    3    3    0    0 -0.38770558519E+01  0.51173682724E+01  0.47516068654E+01  0.79872891633E+01  0.51100000000E-03 0. -1.
        -11    1    3    3    0    0  0.43281940279E+01  0.13020355456E+02  0.19629825310E+02  0.23949800870E+02  0.51100000000E-03 0.  1.
         12    1    3    3    0    0  0.24689985258E+02 -0.97433955121E+01 -0.66563421079E+01  0.27364868324E+02  0.00000000000E+00 0. -1.
</event>
<event>
 7    1  0.3755162E-013  0.5930200E+02  0.7816164E-02  0.1266605E+00
        -11   -1    0    0    0    0  0.00000000000E+00  0.00000000000E+00  0.45593999997E+02  0.45594000000E+02  0.51100000000E-03 0.  1.
         11   -1    0    0    0    0 -0.00000000000E+00 -0.00000000000E+00 -0.45593999997E+02  0.45594000000E+02  0.51100000000E-03 0. -1.
    9900012    2    1    2    0    0  0.93497172698E+01 -0.21894636414E+02 -0.21211432610E+02  0.59301996956E+02  0.50000096529E+02 0.  0.
        -12    1    1    2    0    0 -0.93497172698E+01  0.21894636414E+02  0.21211432610E+02  0.31886003044E+02  0.00000000000E+00 0.  1.
         11    1    3    3    0    0  0.42137852235E+01 -0.18925857470E+02 -0.18528988487E+02  0.26819162579E+02  0.51100000000E-03 0. -1.
        -11    1    3    3    0    0 -0.63532938252E+01  0.83511642010E+01 -0.10248362560E+02  0.14667488584E+02  0.51100000000E-03 0.  1.
        -12    1    3    3    0    0  0.11489225872E+02 -0.11319943145E+02  0.75659184363E+01  0.17815345793E+02  0.00000000000E+00 0.  1.
</event>
<event>
 7    1  0.3755162E-013  0.5930194E+02  0.7816164E-02  0.1266605E+00
        -11   -1    0    0    0    0  0.00000000000E+00  0.00000000000E+00  0.45593999997E+02  0.45594000000E+02  0.51100000000E-03 0. -1.
         11   -1    0    0    0    0 -0.00000000000E+00 -0.00000000000E+00 -0.45593999997E+02  0.45594000000E+02  0.51100000000E-03 0.  1.
    9900012    2    1    2    0    0  0.24438770620E+02  0.18313469552E+02  0.91697374915E+01  0.59301940944E+02  0.49999994376E+02 0.  0.
        -12    1    1    2    0    0 -0.24438770620E+02 -0.18313469552E+02 -0.91697374915E+01  0.31886059056E+02  0.00000000000E+00 0.  1.
         11    1    3    3    0    0  0.51752989577E+01 -0.72067052794E+01  0.38592626539E+01  0.96754446295E+01  0.51100000000E-03 0. -1.
        -11    1    3    3    0    0 -0.20264179231E+01  0.27617602028E+02  0.54997425761E+01  0.28232702316E+02  0.51100000000E-03 0.  1.
         12    1    3    3    0    0  0.21289889585E+02 -0.20974271962E+01 -0.18926773844E+00  0.21393793999E+02  0.00000000000E+00 0. -1.
</event>
<event>
 7    1  0.3755162E-013  0.5930194E+02  0.7816164E-02  0.1266605E+00
        -11   -1    0    0    0    0  0.00000000000E+00  0.00000000000E+00  0.45593999997E+02  0.45594000000E+02  0.51100000000E-03 0.  1.
         11   -1    0    0    0    0 -0.00000000000E+00 -0.00000000000E+00 -0.45593999997E+02  0.45594000000E+02  0.51100000000E-03 0. -1.
    9900012    2    1    2    0    0  0.71114590801E+01 -0.29806133440E+02 -0.88171469068E+01  0.59301944733E+02  0.50000001287E+02 0.  0.
        -12    1    1    2    0    0 -0.71114590801E+01  0.29806133440E+02  0.88171469068E+01  0.31886055267E+02  0.00000000000E+00 0.  1.
         11    1    3    3    0    0 -0.84641868776E+00 -0.11004569193E+02 -0.23293629501E+02  0.25776154548E+02  0.51100000000E-03 0. -1.
        -11    1    3    3    0    0  0.10221753595E+02 -0.58097681580E+01 -0.25086943188E+01  0.12022112962E+02  0.51100000000E-03 0.  1.
         12    1    3    3    0    0 -0.22638758276E+01 -0.12991796089E+02  0.16985176913E+02  0.21503677224E+02  0.00000000000E+00 0. -1.
</event>
<event>
 7    1  0.3755162E-013  0.5930218E+02  0.7816164E-02  0.1266604E+00
        -11   -1    0    0    0    0  0.00000000000E+00  0.00000000000E+00  0.45593999997E+02  0.45594000000E+02  0.51100000000E-03 0.  1.
         11   -1    0    0    0    0 -0.00000000000E+00 -0.00000000000E+00 -0.45593999997E+02  0.45594000000E+02  0.51100000000E-03 0. -1.
    9900012    2    1    2    0    0 -0.28365707262E+02  0.14562277788E+02 -0.18013005019E+00  0.59302176666E+02  0.50000424274E+02 0.  0.
        -12    1    1    2    0    0  0.28365707262E+02 -0.14562277788E+02  0.18013005019E+00  0.31885823334E+02  0.00000000000E+00 0.  1.
         11    1    3    3    0    0  0.59577921945E+01 -0.69674208338E+00  0.92461221412E+01  0.11021411537E+02  0.51100000000E-03 0. -1.
        -11    1    3    3    0    0 -0.30329003421E+02  0.51984283328E+01  0.40046928361E+01  0.31030785852E+02  0.51100000000E-03 0.  1.
         12    1    3    3    0    0 -0.39944960357E+01  0.10060591539E+02 -0.13430945028E+02  0.17249979276E+02  0.00000000000E+00 0. -1.
</event>
<event>
 7    1  0.3755162E-013  0.5930195E+02  0.7816164E-02  0.1266605E+00
        -11   -1    0    0    0    0  0.00000000000E+00  0.00000000000E+00  0.45593999997E+02  0.45594000000E+02  0.51100000000E-03 0.  1.
         11   -1    0    0    0    0 -0.00000000000E+00 -0.00000000000E+00 -0.45593999997E+02  0.45594000000E+02  0.51100000000E-03 0. -1.
    9900012    2    1    2    0    0 -0.20048033705E+00  0.23248318061E+02 -0.21821905970E+02  0.59301951872E+02  0.50000014306E+02 0.  0.
        -12    1    1    2    0    0  0.20048033705E+00 -0.23248318061E+02  0.21821905970E+02  0.31886048128E+02  0.00000000000E+00 0.  1.
         11    1    3    3    0    0 -0.49532889178E+01  0.55406578013E+01 -0.24191043317E+02  0.25306926660E+02  0.51100000000E-03 0. -1.
        -11    1    3    3    0    0 -0.60442107222E+01  0.32160784695E+01 -0.99831227199E+01  0.12105303940E+02  0.51100000000E-03 0.  1.
        -12    1    3    3    0    0  0.10797019303E+02  0.14491581790E+02  0.12352260066E+02  0.21889721272E+02  0.00000000000E+00 0.  1.
</event>
<event>
 7    1  0.3755162E-013  0.5930190E+02  0.7816164E-02  0.1266605E+00
        -11   -1    0    0    0    0  0.00000000000E+00  0.00000000000E+00  0.45593999997E+02  0.45594000000E+02  0.51100000000E-03 0.  1.
         11   -1    0    0    0    0 -0.00000000000E+00 -0.00000000000E+00 -0.45593999997E+02  0.45594000000E+02  0.51100000000E-03 0. -1.
    9900012    2    1    2    0    0  0.83310577817E+01 -0.27503307731E+02 -0.13816104324E+02  0.59301902738E+02  0.49999924698E+02 0.  0.
        -12    1    1    2    0    0 -0.83310577817E+01  0.27503307731E+02  0.13816104324E+02  0.31886097262E+02  0.00000000000E+00 0.  1.
         11    1    3    3    0    0 -0.12538513625E+02 -0.88848436443E+00 -0.65799519502E+01  0.14188005368E+02  0.51100000000E-03 0. -1.
        -11    1    3    3    0    0  0.29656363998E+01 -0.11421208428E+02  0.10414106567E+02  0.15738253304E+02  0.51100000000E-03 0.  1.
         12    1    3    3    0    0  0.17903935007E+02 -0.15193614939E+02 -0.17650258941E+02  0.29375644066E+02  0.00000000000E+00 0. -1.
</event>
<event>
 7    1  0.3755162E-013  0.5930188E+02  0.7816164E-02  0.1266605E+00
        -11   -1    0    0    0    0  0.00000000000E+00  0.00000000000E+00  0.45593999997E+02  0.45594000000E+02  0.51100000000E-03 0. -1.
         11   -1    0    0    0    0 -0.00000000000E+00 -0.00000000000E+00 -0.45593999997E+02  0.45594000000E+02  0.51100000000E-03 0.  1.
    9900012    2    1    2    0    0  0.28676967826E+02 -0.18014024127E+01  0.13824284817E+02  0.59301884134E+02  0.49999890768E+02 0.  0.
        -12    1    1    2    0    0 -0.28676967826E+02  0.18014024127E+01 -0.13824284817E+02  0.31886115866E+02  0.00000000000E+00 0.  1.
         11    1    3    3    0    0  0.74172901043E+00  0.25124095193E+01 -0.79714596492E+01  0.83908600702E+01  0.51100000000E-03 0.  1.
        -11    1    3    3    0    0  0.14618304706E+00 -0.13854953313E+02  0.15634430692E+02  0.20890584580E+02  0.51100000000E-03 0. -1.
         12    1    3    3    0    0  0.27789055768E+02  0.95411413809E+01  0.61613137743E+01  0.30020439483E+02  0.00000000000E+00 0. -1.
</event>
<event>
 7    1  0.3755162E-013  0.5930194E+02  0.7816164E-02  0.1266605E+00
        -11   -1    0    0    0    0  0.00000000000E+00  0.00000000000E+00  0.45593999997E+02  0.45594000000E+02  0.51100000000E-03 0.  1.
         11   -1    0    0    0    0 -0.00000000000E+00 -0.00000000000E+00 -0.45593999997E+02  0.45594000000E+02  0.51100000000E-03 0. -1.
    9900012    2    1    2    0    0 -0.13316950905E+02  0.26487818879E+02 -0.11737765630E+02  0.59301939215E+02  0.49999991224E+02 0.  0.
        -12    1    1    2    0    0  0.13316950905E+02 -0.26487818879E+02  0.11737765630E+02  0.31886060785E+02  0.00000000000E+00 0.  1.
         11    1    3    3    0    0  0.66836147747E+01 -0.36224208859E+01 -0.39846951754E+01  0.85831483404E+01  0.51100000000E-03 0. -1.
        -11    1    3    3    0    0 -0.18649208224E+02 -0.11013890479E+01 -0.51007809374E+01  0.19365536183E+02  0.51100000000E-03 0.  1.
         12    1    3    3    0    0 -0.13513574557E+01  0.31211628813E+02 -0.26522895176E+01  0.31353254692E+02  0.00000000000E+00 0. -1.
</event>
<event>
 7    1  0.3755162E-013  0.5930194E+02  0.7816164E-02  0.1266605E+00
        -11   -1    0    0    0    0  0.00000000000E+00  0.00000000000E+00  0.45593999997E+02  0.45594000000E+02  0.51100000000E-03 0. -1.
         11   -1    0    0    0    0 -0.00000000000E+00 -0.00000000000E+00 -0.45593999997E+02  0.45594000000E+02  0.51100000000E-03 0.  1.
    9900012    2    1    2    0    0  0.22808713671E+02 -0.11422844030E+01  0.22252602553E+02  0.59301944217E+02  0.50000000345E+02 0.  0.
        -12    1    1    2    0    0 -0.22808713671E+02  0.11422844030E+01 -0.22252602553E+02  0.31886055783E+02  0.00000000000E+00 0.  1.
         11    1    3    3    0    0  0.21330251594E+02 -0.22195840462E+00  0.27219084865E+02  0.34581895259E+02  0.51100000000E-03 0. -1.
        -11    1    3    3    0    0  0.64820571004E+00 -0.55377662384E+01  0.86649904077E+01  0.10303838342E+02  0.51100000000E-03 0.  1.
        -12    1    3    3    0    0  0.83025636766E+00  0.46174402401E+01 -0.13631472720E+02  0.14416210615E+02  0.00000000000E+00 0.  1.
</event>
<event>
 7    1  0.3755162E-013  0.5930194E+02  0.7816164E-02  0.1266605E+00
        -11   -1    0    0    0    0  0.00000000000E+00  0.00000000000E+00  0.45593999997E+02  0.45594000000E+02  0.51100000000E-03 0.  1.
         11   -1    0    0    0    0 -0.00000000000E+00 -0.00000000000E+00 -0.45593999997E+02  0.45594000000E+02  0.51100000000E-03 0. -1.
    9900012    2    1    2    0    0 -0.11065265660E+00 -0.26527843542E+02 -0.17691300646E+02  0.59301939636E+02  0.49999991991E+02 0.  0.
        -12    1    1    2    0    0  0.11065265660E+00  0.26527843542E+02  0.17691300646E+02  0.31886060364E+02  0.00000000000E+00 0.  1.
         11    1    3    3    0    0 -0.28360194977E+01 -0.20060647101E+02 -0.14672447254E+02  0.25015061011E+02  0.51100000000E-03 0. -1.
        -11    1    3    3    0    0 -0.46715802159E+01 -0.13454363252E+02 -0.13539251330E+02  0.19650823877E+02  0.51100000000E-03 0.  1.
        -12    1    3    3    0    0  0.73969470570E+01  0.69871668104E+01  0.10520397939E+02  0.14636054748E+02  0.00000000000E+00 0.  1.
</event>
<event>
 7    1  0.3755162E-013  0.5930197E+02  0.7816164E-02  0.1266605E+00
        -11   -1    0    0    0    0  0.00000000000E+00  0.00000000000E+00  0.45593999997E+02  0.45594000000E+02  0.51100000000E-03 0.  1.
         11   -1    0    0    0    0 -0.00000000000E+00 -0.00000000000E+00 -0.45593999997E+02  0.45594000000E+02  0.51100000000E-03 0. -1.
    9900012    2    1    2    0    0 -0.12475694456E+02  0.29338123732E+02 -0.59176417148E+00  0.59301974204E+02  0.50000055034E+02 0.  0.
        -12    1    1    2    0    0  0.12475694456E+02 -0.29338123732E+02  0.59176417148E+00  0.31886025796E+02  0.00000000000E+00 0.  1.
         11    1    3    3    0    0 -0.21725518596E+02  0.12464256648E+02 -0.39355777374E+01  0.25354380774E+02  0.51100000000E-03 0. -1.
        -11    1    3    3    0    0 -0.77128529394E+01 -0.14224128433E+01 -0.26671800216E+01  0.82840333347E+01  0.51100000000E-03 0.  1.
         12    1    3    3    0    0  0.16962677079E+02  0.18296279927E+02  0.60109935875E+01  0.25663560095E+02  0.00000000000E+00 0. -1.
</event>
<event>
 7    1  0.3755162E-013  0.5930192E+02  0.7816164E-02  0.1266605E+00
        -11   -1    0    0    0    0  0.00000000000E+00  0.00000000000E+00  0.45593999997E+02  0.45594000000E+02  0.51100000000E-03 0.  1.
         11   -1    0    0    0    0 -0.00000000000E+00 -0.00000000000E+00 -0.45593999997E+02  0.45594000000E+02  0.51100000000E-03 0. -1.
    9900012    2    1    2    0    0  0.26774019811E+02 -0.17051355733E+02  0.30208113619E+01  0.59301918861E+02  0.49999954101E+02 0.  0.
        -12    1    1    2    0    0 -0.26774019811E+02  0.17051355733E+02 -0.30208113619E+01  0.31886081139E+02  0.00000000000E+00 0.  1.
         11    1    3    3    0    0  0.80527902034E+01  0.12556728219E+02 -0.27478673937E+01  0.15168046318E+02  0.51100000000E-03 0. -1.
        -11    1    3    3    0    0  0.12010448776E+02 -0.14525539286E+02 -0.99726758750E+01  0.21323612164E+02  0.51100000000E-03 0.  1.
        -12    1    3    3    0    0  0.67107808308E+01 -0.15082544665E+02  0.15741354631E+02  0.22810260379E+02  0.00000000000E+00 0.  1.
</event>
<event>
 7    1  0.3755162E-013  0.5930193E+02  0.7816164E-02  0.1266605E+00
        -11   -1    0    0    0    0  0.00000000000E+00  0.00000000000E+00  0.45593999997E+02  0.45594000000E+02  0.51100000000E-03 0. -1.
         11   -1    0    0    0    0 -0.00000000000E+00 -0.00000000000E+00 -0.45593999997E+02  0.45594000000E+02  0.51100000000E-03 0.  1.
    9900012    2    1    2    0    0  0.29556110949E+02  0.19489643430E+01 -0.11805045848E+02  0.59301933076E+02  0.49999980026E+02 0.  0.
        -12    1    1    2    0    0 -0.29556110949E+02 -0.19489643430E+01  0.11805045848E+02  0.31886066924E+02  0.00000000000E+00 0.  1.
         11    1    3    3    0    0  0.23102861806E+02  0.14656156823E+02  0.24146772353E+01  0.27465902914E+02  0.51100000000E-03 0. -1.
        -11    1    3    3    0    0  0.50013854867E+01  0.21676191670E+01 -0.15888621973E+02  0.16797640849E+02  0.51100000000E-03 0.  1.
        -12    1    3    3    0    0  0.14518636554E+01 -0.14874811647E+02  0.16688988890E+01  0.15038389313E+02  0.00000000000E+00 0.  1.
</event>
<event>
 7    1  0.3755162E-013  0.5930197E+02  0.7816164E-02  0.1266605E+00
        -11   -1    0    0    0    0  0.00000000000E+00  0.00000000000E+00  0.45593999997E+02  0.45594000000E+02  0.51100000000E-03 0.  1.
         11   -1    0    0    0    0 -0.00000000000E+00 -0.00000000000E+00 -0.45593999997E+02  0.45594000000E+02  0.51100000000E-03 0. -1.
    9900012    2    1    2    0    0  0.62860771977E+01  0.24717702085E+01 -0.31162387306E+02  0.59301971757E+02  0.50000050572E+02 0.  0.
        -12    1    1    2    0    0 -0.62860771977E+01 -0.24717702085E+01  0.31162387306E+02  0.31886028243E+02  0.00000000000E+00 0.  1.
         11    1    3    3    0    0  0.12184194950E+02  0.78621276817E+01 -0.26429142288E+02  0.30145766213E+02  0.51100000000E-03 0. -1.
        -11    1    3    3    0    0  0.12832304871E+01 -0.85416085245E+01 -0.14348893111E+02  0.16748029450E+02  0.51100000000E-03 0.  1.
        -12    1    3    3    0    0 -0.71813482391E+01  0.31512510513E+01  0.96156480936E+01  0.12408176094E+02  0.00000000000E+00 0.  1.
</event>
<event>
 7    1  0.3755162E-013  0.5930194E+02  0.7816164E-02  0.1266605E+00
        -11   -1    0    0    0    0  0.00000000000E+00  0.00000000000E+00  0.45593999997E+02  0.45594000000E+02  0.51100000000E-03 0.  1.
         11   -1    0    0    0    0 -0.00000000000E+00 -0.00000000000E+00 -0.45593999997E+02  0.45594000000E+02  0.51100000000E-03 0. -1.
    9900012    2    1    2    0    0 -0.26968852710E+02 -0.13368097653E+02 -0.10521203473E+02  0.59301940759E+02  0.49999994040E+02 0.  0.
        -12    1    1    2    0    0  0.26968852710E+02  0.13368097653E+02  0.10521203473E+02  0.31886059241E+02  0.00000000000E+00 0.  1.
         11    1    3    3    0    0  0.47858220464E+01  0.47161645135E+01 -0.23398231126E+01  0.71148487572E+01  0.51100000000E-03 0. -1.
        -11    1    3    3    0    0  0.39671377625E+00  0.65177061275E+01  0.64133292372E+01  0.91525224474E+01  0.51100000000E-03 0.  1.
        -12    1    3    3    0    0 -0.32151388533E+02 -0.24601968294E+02 -0.14594709598E+02  0.43034569555E+02  0.00000000000E+00 0.  1.
</event>
<event>
 7    1  0.3755162E-013  0.5930194E+02  0.7816164E-02  0.1266605E+00
        -11   -1    0    0    0    0  0.00000000000E+00  0.00000000000E+00  0.45593999997E+02  0.45594000000E+02  0.51100000000E-03 0. -1.
         11   -1    0    0    0    0 -0.00000000000E+00 -0.00000000000E+00 -0.45593999997E+02  0.45594000000E+02  0.51100000000E-03 0.  1.
    9900012    2    1    2    0    0 -0.24550359986E+02  0.13611965872E+02  0.15123337034E+02  0.59301935436E+02  0.49999984330E+02 0.  0.
        -12    1    1    2    0    0  0.24550359986E+02 -0.13611965872E+02 -0.15123337034E+02  0.31886064564E+02  0.00000000000E+00 0.  1.
         11    1    3    3    0    0 -0.20381476012E+02  0.63903594344E+01  0.38766446717E+01  0.21708745525E+02  0.51100000000E-03 0. -1.
        -11    1    3    3    0    0 -0.87851304013E+01  0.19798600340E+01 -0.11034519458E+02  0.14242857222E+02  0.51100000000E-03 0.  1.
        -12    1    3    3    0    0  0.46162464267E+01  0.52417464036E+01  0.22281211821E+02  0.23350332688E+02  0.00000000000E+00 0.  1.
</event>
<event>
 7    1  0.3755162E-013  0.5930193E+02  0.7816164E-02  0.1266605E+00
        -11   -1    0    0    0    0  0.00000000000E+00  0.00000000000E+00  0.45593999997E+02  0.45594000000E+02  0.51100000000E-03 0. -1.
         11   -1    0    0    0    0 -0.00000000000E+00 -0.00000000000E+00 -0.45593999997E+02  0.45594000000E+02  0.51100000000E-03 0.  1.
    9900012    2    1    2    0    0 -0.41271711155E+01 -0.31590874064E+02  0.13055982348E+01  0.59301930122E+02  0.49999974639E+02 0.  0.
        -12    1    1    2    0    0  0.41271711155E+01  0.31590874064E+02 -0.13055982348E+01  0.31886069878E+02  0.00000000000E+00 0.  1.
         11    1    3    3    0    0  0.69277180478E+01 -0.22550019613E+02  0.63470180462E+01  0.24429107643E+02  0.51100000000E-03 0.  1.
        -11    1    3    3    0    0 -0.94237892787E+00 -0.17082812074E+02 -0.11312926242E+02  0.20510798298E+02  0.51100000000E-03 0. -1.
         12    1    3    3    0    0 -0.10112510235E+02  0.80419576233E+01  0.62715064303E+01  0.14362024181E+02  0.00000000000E+00 0. -1.
</event>
<event>
 7    1  0.3755162E-013  0.5930194E+02  0.7816164E-02  0.1266605E+00
        -11   -1    0    0    0    0  0.00000000000E+00  0.00000000000E+00  0.45593999997E+02  0.45594000000E+02  0.51100000000E-03 0.  1.
         11   -1    0    0    0    0 -0.00000000000E+00 -0.00000000000E+00 -0.45593999997E+02  0.45594000000E+02  0.51100000000E-03 0. -1.
    9900012    2    1    2    0    0  0.15789992788E+02  0.27622855296E+02  0.20916637568E+01  0.59301936207E+02  0.49999985737E+02 0.  0.
        -12    1    1    2    0    0 -0.15789992788E+02 -0.27622855296E+02 -0.20916637568E+01  0.31886063793E+02  0.00000000000E+00 0.  1.
         11    1    3    3    0    0 -0.51830117813E+01 -0.58499087899E+01  0.51637143272E+01  0.93674430817E+01  0.51100000000E-03 0. -1.
        -11    1    3    3    0    0 -0.61918088150E+01  0.86229304824E+01 -0.72893388383E+01  0.12877417733E+02  0.51100000000E-03 0.  1.
        -12    1    3    3    0    0  0.27164813385E+02  0.24849833603E+02  0.42172882678E+01  0.37057075393E+02  0.00000000000E+00 0.  1.
</event>
<event>
 7    1  0.3755162E-013  0.5930194E+02  0.7816164E-02  0.1266605E+00
        -11   -1    0    0    0    0  0.00000000000E+00  0.00000000000E+00  0.45593999997E+02  0.45594000000E+02  0.51100000000E-03 0.  1.
         11   -1    0    0    0    0 -0.00000000000E+00 -0.00000000000E+00 -0.45593999997E+02  0.45594000000E+02  0.51100000000E-03 0. -1.
    9900012    2    1    2    0    0  0.59220024939E+01  0.18065584184E+02 -0.25598537743E+02  0.59301943800E+02  0.49999999584E+02 0.  0.
        -12    1    1    2    0    0 -0.59220024939E+01 -0.18065584184E+02  0.25598537743E+02  0.31886056200E+02  0.00000000000E+00 0.  1.
         11    1    3    3    0    0 -0.21050015437E+01 -0.69677795841E+01 -0.29646511596E+02  0.30526982064E+02  0.51100000000E-03 0. -1.
        -11    1    3    3    0    0  0.26366448330E+01  0.10844831863E+02 -0.36683576535E+01  0.11748153994E+02  0.51100000000E-03 0.  1.
        -12    1    3    3    0    0  0.53903592046E+01  0.14188531905E+02  0.77163315072E+01  0.17026807742E+02  0.00000000000E+00 0.  1.
</event>
<event>
 7    1  0.3755162E-013  0.5930192E+02  0.7816164E-02  0.1266605E+00
        -11   -1    0    0    0    0  0.00000000000E+00  0.00000000000E+00  0.45593999997E+02  0.45594000000E+02  0.51100000000E-03 0. -1.
         11   -1    0    0    0    0 -0.00000000000E+00 -0.00000000000E+00 -0.45593999997E+02  0.45594000000E+02  0.51100000000E-03 0.  1.
    9900012    2    1    2    0    0  0.21620539741E+02  0.16181991688E+02  0.16953391949E+02  0.59301920087E+02  0.49999956338E+02 0.  0.
        -12    1    1    2    0    0 -0.21620539741E+02 -0.16181991688E+02 -0.16953391949E+02  0.31886079913E+02  0.00000000000E+00 0.  1.
         11    1    3    3    0    0  0.60429837616E+01  0.22352465781E+01  0.18826090848E+02  0.19898132498E+02  0.51100000000E-03 0. -1.
        -11    1    3    3    0    0  0.13979196305E+01 -0.41037442910E+01  0.11879271366E+02  0.12645631061E+02  0.51100000000E-03 0.  1.
        -12    1    3    3    0    0  0.14179636349E+02  0.18050489401E+02 -0.13751970266E+02  0.26758156528E+02  0.00000000000E+00 0.  1.
</event>
<event>
 7    1  0.3755162E-013  0.5930195E+02  0.7816164E-02  0.1266605E+00
        -11   -1    0    0    0    0  0.00000000000E+00  0.00000000000E+00  0.45593999997E+02  0.45594000000E+02  0.51100000000E-03 0.  1.
         11   -1    0    0    0    0 -0.00000000000E+00 -0.00000000000E+00 -0.45593999997E+02  0.45594000000E+02  0.51100000000E-03 0. -1.
    9900012    2    1    2    0    0 -0.19411944215E+02  0.24490725615E+02  0.63325137862E+01  0.59301953675E+02  0.50000017594E+02 0.  0.
        -12    1    1    2    0    0  0.19411944215E+02 -0.24490725615E+02 -0.63325137862E+01  0.31886046325E+02  0.00000000000E+00 0.  1.
         11    1    3    3    0    0 -0.17402168434E+02  0.17954262776E+02 -0.43313881026E+01  0.25376208171E+02  0.51100000000E-03 0. -1.
        -11    1    3    3    0    0  0.53325188887E+01  0.11372365233E+02 -0.68660642102E+01  0.14314652867E+02  0.51100000000E-03 0.  1.
        -12    1    3    3    0    0 -0.73422946704E+01 -0.48359023932E+01  0.17529966099E+02  0.19611092637E+02  0.00000000000E+00 0.  1.
</event>
<event>
 7    1  0.3755162E-013  0.5930191E+02  0.7816164E-02  0.1266605E+00
        -11   -1    0    0    0    0  0.00000000000E+00  0.00000000000E+00  0.45593999997E+02  0.45594000000E+02  0.51100000000E-03 0. -1.
         11   -1    0    0    0    0 -0.00000000000E+00 -0.00000000000E+00 -0.45593999997E+02  0.45594000000E+02  0.51100000000E-03 0.  1.
    9900012    2    1    2    0    0  0.24940469305E+02  0.27967535529E+01  0.19669103509E+02  0.59301914125E+02  0.49999945464E+02 0.  0.
        -12    1    1    2    0    0 -0.24940469305E+02 -0.27967535529E+01 -0.19669103509E+02  0.31886085875E+02  0.00000000000E+00 0.  1.
         11    1    3    3    0    0  0.34852292211E+01  0.10480275442E+02  0.79168699311E+00  0.11072929360E+02  0.51100000000E-03 0. -1.
        -11    1    3    3    0    0  0.19828219052E+02  0.95320876018E+01  0.21473387791E+02  0.30742891020E+02  0.51100000000E-03 0.  1.
        -12    1    3    3    0    0  0.16270210319E+01 -0.17215609491E+02 -0.25959712748E+01  0.17486093744E+02  0.00000000000E+00 0.  1.
</event>
<event>
 7    1  0.3755162E-013  0.5930195E+02  0.7816164E-02  0.1266605E+00
        -11   -1    0    0    0    0  0.00000000000E+00  0.00000000000E+00  0.45593999997E+02  0.45594000000E+02  0.51100000000E-03 0.  1.
         11   -1    0    0    0    0 -0.00000000000E+00 -0.00000000000E+00 -0.45593999997E+02  0.45594000000E+02  0.51100000000E-03 0. -1.
    9900012    2    1    2    0    0 -0.68291245275E+01  0.30715942125E+02 -0.51588894481E+01  0.59301950029E+02  0.50000010945E+02 0.  0.
        -12    1    1    2    0    0  0.68291245275E+01 -0.30715942125E+02  0.51588894481E+01  0.31886049971E+02  0.00000000000E+00 0.  1.
         11    1    3    3    0    0 -0.32004206052E+00 -0.15018276033E+01  0.47479155583E+01  0.49900516511E+01  0.51100000000E-03 0. -1.
        -11    1    3    3    0    0 -0.10983656003E+02  0.17932161338E+00 -0.17888675130E+02  0.20992321301E+02  0.51100000000E-03 0.  1.
         12    1    3    3    0    0  0.44745735364E+01  0.32038448115E+02  0.79818701235E+01  0.33319577077E+02  0.00000000000E+00 0. -1.
</event>
<event>
 7    1  0.3755162E-013  0.5930198E+02  0.7816164E-02  0.1266605E+00
        -11   -1    0    0    0    0  0.00000000000E+00  0.00000000000E+00  0.45593999997E+02  0.45594000000E+02  0.51100000000E-03 0. -1.
         11   -1    0    0    0    0 -0.00000000000E+00 -0.00000000000E+00 -0.45593999997E+02  0.45594000000E+02  0.51100000000E-03 0.  1.
    9900012    2    1    2    0    0 -0.60899319542E+01 -0.24134810837E+02  0.19928421650E+02  0.59301978693E+02  0.50000063221E+02 0.  0.
        -12    1    1    2    0    0  0.60899319542E+01  0.24134810837E+02 -0.19928421650E+02  0.31886021307E+02  0.00000000000E+00 0.  1.
         11    1    3    3    0    0 -0.37988911873E+01 -0.12479253573E+02  0.11953846953E+02  0.17693439497E+02  0.51100000000E-03 0. -1.
        -11    1    3    3    0    0 -0.73906459072E+01 -0.13583077891E+02 -0.12835279213E+02  0.20096418702E+02  0.51100000000E-03 0.  1.
         12    1    3    3    0    0  0.50996051404E+01  0.19275206276E+01  0.20809853911E+02  0.21512120494E+02  0.00000000000E+00 0. -1.
</event>
<event>
 7    1  0.3755162E-013  0.5930193E+02  0.7816164E-02  0.1266605E+00
        -11   -1    0    0    0    0  0.00000000000E+00  0.00000000000E+00  0.45593999997E+02  0.45594000000E+02  0.51100000000E-03 0. -1.
         11   -1    0    0    0    0 -0.00000000000E+00 -0.00000000000E+00 -0.45593999997E+02  0.45594000000E+02  0.51100000000E-03 0.  1.
    9900012    2    1    2    0    0  0.16003430906E+02  0.25788423282E+02 -0.97759427107E+01  0.59301927303E+02  0.49999969499E+02 0.  0.
        -12    1    1    2    0    0 -0.16003430906E+02 -0.25788423282E+02  0.97759427107E+01  0.31886072697E+02  0.00000000000E+00 0.  1.
         11    1    3    3    0    0 -0.44746344520E+01  0.42366489863E+01  0.26451673143E+01  0.67058525554E+01  0.51100000000E-03 0. -1.
        -11    1    3    3    0    0 -0.10274625227E+02  0.16399701992E+02 -0.86148843210E+01  0.21183351508E+02  0.51100000000E-03 0.  1.
         12    1    3    3    0    0  0.30752690585E+02  0.51520723041E+01 -0.38062257040E+01  0.31412723240E+02  0.00000000000E+00 0. -1.
</event>
<event>
 7    1  0.3755162E-013  0.5930197E+02  0.7816164E-02  0.1266605E+00
        -11   -1    0    0    0    0  0.00000000000E+00  0.00000000000E+00  0.45593999997E+02  0.45594000000E+02  0.51100000000E-03 0.  1.
         11   -1    0    0    0    0 -0.00000000000E+00 -0.00000000000E+00 -0.45593999997E+02  0.45594000000E+02  0.51100000000E-03 0. -1.
    9900012    2    1    2    0    0  0.27342233203E+02 -0.86964436692E+01 -0.13910182824E+02  0.59301968023E+02  0.50000043762E+02 0.  0.
        -12    1    1    2    0    0 -0.27342233203E+02  0.86964436692E+01  0.13910182824E+02  0.31886031977E+02  0.00000000000E+00 0.  1.
         11    1    3    3    0    0  0.18753032152E+02 -0.19594822323E+02 -0.10900319737E+02  0.29230980952E+02  0.51100000000E-03 0. -1.
        -11    1    3    3    0    0  0.18132765485E+02  0.55183178619E+01 -0.22915074746E+01  0.19091883692E+02  0.51100000000E-03 0.  1.
        -12    1    3    3    0    0 -0.95435644336E+01  0.53800607919E+01 -0.71835561200E+00  0.10979103379E+02  0.00000000000E+00 0.  1.
</event>
<event>
 7    1  0.3755162E-013  0.5930199E+02  0.7816164E-02  0.1266605E+00
        -11   -1    0    0    0    0  0.00000000000E+00  0.00000000000E+00  0.45593999997E+02  0.45594000000E+02  0.51100000000E-03 0. -1.
         11   -1    0    0    0    0 -0.00000000000E+00 -0.00000000000E+00 -0.45593999997E+02  0.45594000000E+02  0.51100000000E-03 0.  1.
    9900012    2    1    2    0    0 -0.24925897178E+02 -0.15631741759E+02  0.12290878287E+02  0.59301993828E+02  0.50000090824E+02 0.  0.
        -12    1    1    2    0    0  0.24925897178E+02  0.15631741759E+02 -0.12290878287E+02  0.31886006172E+02  0.00000000000E+00 0.  1.
         11    1    3    3    0    0  0.89690512685E+00  0.17746880460E+01  0.10679586686E+02  0.10863127013E+02  0.51100000000E-03 0. -1.
        -11    1    3    3    0    0 -0.31807835858E+01  0.11360038754E+02  0.74071601897E+00  0.11820174500E+02  0.51100000000E-03 0.  1.
         12    1    3    3    0    0 -0.22642018719E+02 -0.28766468559E+02  0.87057558251E+00  0.36618692315E+02  0.00000000000E+00 0. -1.
</event>
<event>
 7    1  0.3755162E-013  0.5930193E+02  0.7816164E-02  0.1266605E+00
        -11   -1    0    0    0    0  0.00000000000E+00  0.00000000000E+00  0.45593999997E+02  0.45594000000E+02  0.51100000000E-03 0. -1.
         11   -1    0    0    0    0 -0.00000000000E+00 -0.00000000000E+00 -0.45593999997E+02  0.45594000000E+02  0.51100000000E-03 0.  1.
    9900012    2    1    2    0    0  0.14702504995E+02 -0.25152508782E+02  0.12957963047E+02  0.59301934745E+02  0.49999983070E+02 0.  0.
        -12    1    1    2    0    0 -0.14702504995E+02  0.25152508782E+02 -0.12957963047E+02  0.31886065255E+02  0.00000000000E+00 0.  1.
         11    1    3    3    0    0  0.75003973186E+01  0.14245245711E+01  0.87430796238E+01  0.11607181904E+02  0.51100000000E-03 0. -1.
        -11    1    3    3    0    0  0.14583992424E+02  0.31917805262E+01 -0.48762104231E+01  0.15705340694E+02  0.51100000000E-03 0.  1.
         12    1    3    3    0    0 -0.73818847474E+01 -0.29768813879E+02  0.90910938462E+01  0.31989412147E+02  0.00000000000E+00 0. -1.
</event>
<event>
 7    1  0.3755162E-013  0.5930192E+02  0.7816164E-02  0.1266605E+00
        -11   -1    0    0    0    0  0.00000000000E+00  0.00000000000E+00  0.45593999997E+02  0.45594000000E+02  0.51100000000E-03 0. -1.
         11   -1    0    0    0    0 -0.00000000000E+00 -0.00000000000E+00 -0.45593999997E+02  0.45594000000E+02  0.51100000000E-03 0.  1.
    9900012    2    1    2    0    0 -0.25774467535E+02 -0.98747622088E+00  0.18746296835E+02  0.59301922614E+02  0.49999960947E+02 0.  0.
        -12    1    1    2    0    0  0.25774467535E+02  0.98747622088E+00 -0.18746296835E+02  0.31886077386E+02  0.00000000000E+00 0.  1.
         11    1    3    3    0    0 -0.10466333194E+02 -0.16990285012E+02  0.51202183687E+01  0.20601712349E+02  0.51100000000E-03 0. -1.
        -11    1    3    3    0    0 -0.79809713958E+01  0.11411820128E+01 -0.80655608058E+01  0.11404011232E+02  0.51100000000E-03 0.  1.
        -12    1    3    3    0    0 -0.73271629452E+01  0.14861626778E+02  0.21691639272E+02  0.27296199033E+02  0.00000000000E+00 0.  1.
</event>
<event>
 7    1  0.3755162E-013  0.5930194E+02  0.7816164E-02  0.1266605E+00
        -11   -1    0    0    0    0  0.00000000000E+00  0.00000000000E+00  0.45593999997E+02  0.45594000000E+02  0.51100000000E-03 0.  1.
         11   -1    0    0    0    0 -0.00000000000E+00 -0.00000000000E+00 -0.45593999997E+02  0.45594000000E+02  0.51100000000E-03 0. -1.
    9900012    2    1    2    0    0  0.27360653636E+02 -0.10836609960E+02  0.12275303983E+02  0.59301943946E+02  0.49999999851E+02 0.  0.
        -12    1    1    2    0    0 -0.27360653636E+02  0.10836609960E+02 -0.12275303983E+02  0.31886056054E+02  0.00000000000E+00 0.  1.
         11    1    3    3    0    0  0.15893542238E+02 -0.17986799016E+02  0.14542274955E+02  0.28064343656E+02  0.51100000000E-03 0.  1.
        -11    1    3    3    0    0  0.15853228677E+02  0.26749895037E+01  0.89414670941E+01  0.18396474183E+02  0.51100000000E-03 0. -1.
         12    1    3    3    0    0 -0.43861172791E+01  0.44751995522E+01 -0.11208438066E+02  0.12841126107E+02  0.00000000000E+00 0. -1.
</event>
<event>
 7    1  0.3755162E-013  0.5930193E+02  0.7816164E-02  0.1266605E+00
        -11   -1    0    0    0    0  0.00000000000E+00  0.00000000000E+00  0.45593999997E+02  0.45594000000E+02  0.51100000000E-03 0.  1.
         11   -1    0    0    0    0 -0.00000000000E+00 -0.00000000000E+00 -0.45593999997E+02  0.45594000000E+02  0.51100000000E-03 0. -1.
    9900012    2    1    2    0    0  0.75849601192E+01  0.87501190898E+00 -0.30958422808E+02  0.59301933943E+02  0.49999981608E+02 0.  0.
        -12    1    1    2    0    0 -0.75849601192E+01 -0.87501190898E+00  0.30958422808E+02  0.31886066057E+02  0.00000000000E+00 0.  1.
         11    1    3    3    0    0  0.39559453724E+01  0.66582940885E+01  0.37807986894E+01  0.86184002547E+01  0.51100000000E-03 0. -1.
        -11    1    3    3    0    0  0.91331328141E+01 -0.14175438610E+01  0.48762590238E+01  0.10449949661E+02  0.51100000000E-03 0.  1.
         12    1    3    3    0    0 -0.55041180673E+01 -0.43657383186E+01 -0.39615480521E+02  0.40233584027E+02  0.00000000000E+00 0. -1.
</event>
<event>
 7    1  0.3755162E-013  0.5930207E+02  0.7816164E-02  0.1266604E+00
        -11   -1    0    0    0    0  0.00000000000E+00  0.00000000000E+00  0.45593999997E+02  0.45594000000E+02  0.51100000000E-03 0.  1.
         11   -1    0    0    0    0 -0.00000000000E+00 -0.00000000000E+00 -0.45593999997E+02  0.45594000000E+02  0.51100000000E-03 0. -1.
    9900012    2    1    2    0    0 -0.28414042527E+01  0.13151510437E+02 -0.28908072946E+02  0.59302070715E+02  0.50000231047E+02 0.  0.
        -12    1    1    2    0    0  0.28414042527E+01 -0.13151510437E+02  0.28908072946E+02  0.31885929285E+02  0.00000000000E+00 0.  1.
         11    1    3    3    0    0 -0.38945007781E+01  0.70895271694E+01 -0.13785026951E+01  0.82054129535E+01  0.51100000000E-03 0. -1.
        -11    1    3    3    0    0  0.81416549342E+01  0.50955686461E+01  0.94245793816E+01  0.13456376246E+02  0.51100000000E-03 0.  1.
         12    1    3    3    0    0 -0.70885584088E+01  0.96641462163E+00 -0.36954149632E+02  0.37640281516E+02  0.00000000000E+00 0. -1.
</event>
<event>
 7    1  0.3755162E-013  0.5930185E+02  0.7816164E-02  0.1266605E+00
        -11   -1    0    0    0    0  0.00000000000E+00  0.00000000000E+00  0.45593999997E+02  0.45594000000E+02  0.51100000000E-03 0. -1.
         11   -1    0    0    0    0 -0.00000000000E+00 -0.00000000000E+00 -0.45593999997E+02  0.45594000000E+02  0.51100000000E-03 0.  1.
    9900012    2    1    2    0    0  0.25301993272E+02 -0.18396317476E+02  0.61734462209E+01  0.59301846289E+02  0.49999821748E+02 0.  0.
        -12    1    1    2    0    0 -0.25301993272E+02  0.18396317476E+02 -0.61734462209E+01  0.31886153711E+02  0.00000000000E+00 0.  1.
         11    1    3    3    0    0  0.14860268612E+02 -0.28067317449E+02  0.16464404046E+01  0.31801142405E+02  0.51100000000E-03 0. -1.
        -11    1    3    3    0    0  0.99586529817E+01 -0.18138507008E+01 -0.61231023612E+01  0.11830351067E+02  0.51100000000E-03 0.  1.
         12    1    3    3    0    0  0.48307167856E+00  0.11484850674E+02  0.10650108178E+02  0.15670352818E+02  0.00000000000E+00 0. -1.
</event>
<event>
 7    1  0.3755162E-013  0.5930195E+02  0.7816164E-02  0.1266605E+00
        -11   -1    0    0    0    0  0.00000000000E+00  0.00000000000E+00  0.45593999997E+02  0.45594000000E+02  0.51100000000E-03 0. -1.
         11   -1    0    0    0    0 -0.00000000000E+00 -0.00000000000E+00 -0.45593999997E+02  0.45594000000E+02  0.51100000000E-03 0.  1.
    9900012    2    1    2    0    0 -0.27195406546E+02 -0.10333408462E+02  0.13051839046E+02  0.59301953363E+02  0.50000017025E+02 0.  0.
        -12    1    1    2    0    0  0.27195406546E+02  0.10333408462E+02 -0.13051839046E+02  0.31886046637E+02  0.00000000000E+00 0.  1.
         11    1    3    3    0    0 -0.19141329707E+02 -0.22247605441E+02 -0.68805955974E+00  0.29356768845E+02  0.51100000000E-03 0. -1.
        -11    1    3    3    0    0 -0.52897445845E+01 -0.38913416485E+01 -0.25828577758E+01  0.70565637633E+01  0.51100000000E-03 0.  1.
         12    1    3    3    0    0 -0.27643322545E+01  0.15805538628E+02  0.16322756382E+02  0.22888620754E+02  0.00000000000E+00 0. -1.
</event>
<event>
 7    1  0.3755162E-013  0.5930196E+02  0.7816164E-02  0.1266605E+00
        -11   -1    0    0    0    0  0.00000000000E+00  0.00000000000E+00  0.45593999997E+02  0.45594000000E+02  0.51100000000E-03 0.  1.
         11   -1    0    0    0    0 -0.00000000000E+00 -0.00000000000E+00 -0.45593999997E+02  0.45594000000E+02  0.51100000000E-03 0. -1.
    9900012    2    1    2    0    0 -0.42595963960E+01 -0.25024911735E+02 -0.19295839679E+02  0.59301956067E+02  0.50000021956E+02 0.  0.
        -12    1    1    2    0    0  0.42595963960E+01  0.25024911735E+02  0.19295839679E+02  0.31886043933E+02  0.00000000000E+00 0.  1.
         11    1    3    3    0    0 -0.17835025613E+02 -0.24146748931E+02 -0.96530770982E+01  0.31533086120E+02  0.51100000000E-03 0.  1.
        -11    1    3    3    0    0 -0.46274661482E+01  0.16015709639E+00 -0.82785293435E+01  0.94854173129E+01  0.51100000000E-03 0. -1.
        -12    1    3    3    0    0  0.18202895365E+02 -0.10383199004E+01 -0.13642332369E+01  0.18283452634E+02  0.00000000000E+00 0.  1.
</event>
<event>
 7    1  0.3755162E-013  0.5930190E+02  0.7816164E-02  0.1266605E+00
        -11   -1    0    0    0    0  0.00000000000E+00  0.00000000000E+00  0.45593999997E+02  0.45594000000E+02  0.51100000000E-03 0. -1.
         11   -1    0    0    0    0 -0.00000000000E+00 -0.00000000000E+00 -0.45593999997E+02  0.45594000000E+02  0.51100000000E-03 0.  1.
    9900012    2    1    2    0    0  0.30475285822E+02  0.19156596226E+00 -0.93778155222E+01  0.59301903227E+02  0.49999925590E+02 0.  0.
        -12    1    1    2    0    0 -0.30475285822E+02 -0.19156596226E+00  0.93778155222E+01  0.31886096773E+02  0.00000000000E+00 0.  1.
         11    1    3    3    0    0  0.17000828351E+02  0.18348403811E+02 -0.19582560094E+02  0.31767416438E+02  0.51100000000E-03 0.  1.
        -11    1    3    3    0    0 -0.35437868010E+00 -0.66683965021E+01 -0.34979563604E+00  0.66869614480E+01  0.51100000000E-03 0. -1.
        -12    1    3    3    0    0  0.13828836151E+02 -0.11488441347E+02  0.10554540208E+02  0.20847525342E+02  0.00000000000E+00 0.  1.
</event>
<event>
 7    1  0.3755162E-013  0.5930194E+02  0.7816164E-02  0.1266605E+00
        -11   -1    0    0    0    0  0.00000000000E+00  0.00000000000E+00  0.45593999997E+02  0.45594000000E+02  0.51100000000E-03 0.  1.
         11   -1    0    0    0    0 -0.00000000000E+00 -0.00000000000E+00 -0.45593999997E+02  0.45594000000E+02  0.51100000000E-03 0. -1.
    9900012    2    1    2    0    0 -0.24598715257E+02 -0.15674952931E+02  0.12880986153E+02  0.59301941197E+02  0.49999994838E+02 0.  0.
        -12    1    1    2    0    0  0.24598715257E+02  0.15674952931E+02 -0.12880986153E+02  0.31886058803E+02  0.00000000000E+00 0.  1.
         11    1    3    3    0    0 -0.44119790110E+01  0.55210306315E+01 -0.41456762472E+01  0.81935321953E+01  0.51100000000E-03 0. -1.
        -11    1    3    3    0    0 -0.10320063466E+02  0.95492438517E+01 -0.10566603063E+01  0.14099939693E+02  0.51100000000E-03 0.  1.
        -12    1    3    3    0    0 -0.98666727803E+01 -0.30745227414E+02  0.18083322707E+02  0.37008469309E+02  0.00000000000E+00 0.  1.
</event>
<event>
 7    1  0.3755162E-013  0.5930200E+02  0.7816164E-02  0.1266605E+00
        -11   -1    0    0    0    0  0.00000000000E+00  0.00000000000E+00  0.45593999997E+02  0.45594000000E+02  0.51100000000E-03 0.  1.
         11   -1    0    0    0    0 -0.00000000000E+00 -0.00000000000E+00 -0.45593999997E+02  0.45594000000E+02  0.51100000000E-03 0. -1.
    9900012    2    1    2    0    0 -0.41145704120E+01  0.31276263276E+02 -0.46457057053E+01  0.59302001259E+02  0.50000104377E+02 0.  0.
        -12    1    1    2    0    0  0.41145704120E+01 -0.31276263276E+02  0.46457057053E+01  0.31885998741E+02  0.00000000000E+00 0.  1.
         11    1    3    3    0    0  0.76323293149E+01 -0.46740884372E+01 -0.15263870740E+02  0.17694216675E+02  0.51100000000E-03 0. -1.
        -11    1    3    3    0    0 -0.55934888354E+01  0.82520313510E+01  0.85940078244E+01  0.13162070867E+02  0.51100000000E-03 0.  1.
        -12    1    3    3    0    0 -0.61534108916E+01  0.27698320362E+02  0.20241572106E+01  0.28445713718E+02  0.00000000000E+00 0.  1.
</event>
<event>
 7    1  0.3755162E-013  0.5930196E+02  0.7816164E-02  0.1266605E+00
        -11   -1    0    0    0    0  0.00000000000E+00  0.00000000000E+00  0.45593999997E+02  0.45594000000E+02  0.51100000000E-03 0.  1.
         11   -1    0    0    0    0 -0.00000000000E+00 -0.00000000000E+00 -0.45593999997E+02  0.45594000000E+02  0.51100000000E-03 0. -1.
    9900012    2    1    2    0    0  0.17015403160E+01  0.23144592813E+02 -0.21866695679E+02  0.59301956096E+02  0.50000022010E+02 0.  0.
        -12    1    1    2    0    0 -0.17015403160E+01 -0.23144592813E+02  0.21866695679E+02  0.31886043904E+02  0.00000000000E+00 0.  1.
         11    1    3    3    0    0 -0.43641036460E+01  0.17794311269E+02 -0.10176830385E+02  0.20958310789E+02  0.51100000000E-03 0. -1.
        -11    1    3    3    0    0  0.25903655314E+00  0.20382348696E+02 -0.59030755562E+01  0.21221534808E+02  0.51100000000E-03 0.  1.
         12    1    3    3    0    0  0.58066074088E+01 -0.15032067153E+02 -0.57867897377E+01  0.17122110499E+02  0.00000000000E+00 0. -1.
</event>
<event>
 7    1  0.3755162E-013  0.5930183E+02  0.7816164E-02  0.1266605E+00
        -11   -1    0    0    0    0  0.00000000000E+00  0.00000000000E+00  0.45593999997E+02  0.45594000000E+02  0.51100000000E-03 0. -1.
         11   -1    0    0    0    0 -0.00000000000E+00 -0.00000000000E+00 -0.45593999997E+02  0.45594000000E+02  0.51100000000E-03 0.  1.
    9900012    2    1    2    0    0  0.41245509208E+01  0.29573726606E+02  0.11185279187E+02  0.59301832213E+02  0.49999796076E+02 0.  0.
        -12    1    1    2    0    0 -0.41245509208E+01 -0.29573726606E+02 -0.11185279187E+02  0.31886167787E+02  0.00000000000E+00 0.  1.
         11    1    3    3    0    0  0.58219044462E+01  0.77250729065E+01  0.52766868238E+01  0.11018836004E+02  0.51100000000E-03 0. -1.
        -11    1    3    3    0    0  0.51258511425E+01 -0.19764982039E+01  0.19332538864E+02  0.20097958958E+02  0.51100000000E-03 0.  1.
        -12    1    3    3    0    0 -0.68232046678E+01  0.23825151904E+02 -0.13423946501E+02  0.28185037251E+02  0.00000000000E+00 0.  1.
</event>
<event>
 7    1  0.3755162E-013  0.5930196E+02  0.7816164E-02  0.1266605E+00
        -11   -1    0    0    0    0  0.00000000000E+00  0.00000000000E+00  0.45593999997E+02  0.45594000000E+02  0.51100000000E-03 0. -1.
         11   -1    0    0    0    0 -0.00000000000E+00 -0.00000000000E+00 -0.45593999997E+02  0.45594000000E+02  0.51100000000E-03 0.  1.
    9900012    2    1    2    0    0 -0.13475268759E+02 -0.28898032808E+02  0.20050960576E+00  0.59301962736E+02  0.50000034119E+02 0.  0.
        -12    1    1    2    0    0  0.13475268759E+02  0.28898032808E+02 -0.20050960576E+00  0.31886037264E+02  0.00000000000E+00 0.  1.
         11    1    3    3    0    0 -0.17459949381E+01 -0.15201171173E+02 -0.67758355185E+01  0.16734277714E+02  0.51100000000E-03 0. -1.
        -11    1    3    3    0    0 -0.21057424514E+02 -0.17900909726E+02 -0.35771962599E+01  0.27868513227E+02  0.51100000000E-03 0.  1.
        -12    1    3    3    0    0  0.93281506931E+01  0.42040480904E+01  0.10553541384E+02  0.14699171795E+02  0.00000000000E+00 0.  1.
</event>
<event>
 7    1  0.3755162E-013  0.5930197E+02  0.7816164E-02  0.1266605E+00
        -11   -1    0    0    0    0  0.00000000000E+00  0.00000000000E+00  0.45593999997E+02  0.45594000000E+02  0.51100000000E-03 0. -1.
         11   -1    0    0    0    0 -0.00000000000E+00 -0.00000000000E+00 -0.45593999997E+02  0.45594000000E+02  0.51100000000E-03 0.  1.
    9900012    2    1    2    0    0 -0.27808024808E+02  0.10894406959E+02  0.11168912893E+02  0.59301969173E+02  0.50000045859E+02 0.  0.
        -12    1    1    2    0    0  0.27808024808E+02 -0.10894406959E+02 -0.11168912893E+02  0.31886030827E+02  0.00000000000E+00 0.  1.
         11    1    3    3    0    0 -0.10444068491E+02 -0.13088809441E+02 -0.10400745789E+02  0.19712204658E+02  0.51100000000E-03 0. -1.
        -11    1    3    3    0    0  0.20225670919E+01  0.55176240073E+01  0.68909805190E+01  0.90565205847E+01  0.51100000000E-03 0.  1.
        -12    1    3    3    0    0 -0.19386523409E+02  0.18465592393E+02  0.14678678163E+02  0.30533243930E+02  0.00000000000E+00 0.  1.
</event>
<event>
 7    1  0.3755162E-013  0.5930194E+02  0.7816164E-02  0.1266605E+00
        -11   -1    0    0    0    0  0.00000000000E+00  0.00000000000E+00  0.45593999997E+02  0.45594000000E+02  0.51100000000E-03 0.  1.
         11   -1    0    0    0    0 -0.00000000000E+00 -0.00000000000E+00 -0.45593999997E+02  0.45594000000E+02  0.51100000000E-03 0. -1.
    9900012    2    1    2    0    0 -0.25260787197E+02  0.81162771103E+01 -0.17684442303E+02  0.59301939981E+02  0.49999992621E+02 0.  0.
        -12    1    1    2    0    0  0.25260787197E+02 -0.81162771103E+01  0.17684442303E+02  0.31886060019E+02  0.00000000000E+00 0.  1.
         11    1    3    3    0    0 -0.89637144981E+01  0.14801217746E+00 -0.20482663171E+01  0.91959491286E+01  0.51100000000E-03 0. -1.
        -11    1    3    3    0    0 -0.62602975873E+01 -0.74190859915E+01  0.12914040886E+02  0.16155699152E+02  0.51100000000E-03 0.  1.
        -12    1    3    3    0    0 -0.10036775111E+02  0.15387350924E+02 -0.28550216872E+02  0.33950291701E+02  0.00000000000E+00 0.  1.
</event>
<event>
 7    1  0.3755162E-013  0.5930192E+02  0.7816164E-02  0.1266605E+00
        -11   -1    0    0    0    0  0.00000000000E+00  0.00000000000E+00  0.45593999997E+02  0.45594000000E+02  0.51100000000E-03 0. -1.
         11   -1    0    0    0    0 -0.00000000000E+00 -0.00000000000E+00 -0.45593999997E+02  0.45594000000E+02  0.51100000000E-03 0.  1.
    9900012    2    1    2    0    0 -0.52612206277E+01  0.10453077021E+02  0.29660998914E+02  0.59301919679E+02  0.49999955593E+02 0.  0.
        -12    1    1    2    0    0  0.52612206277E+01 -0.10453077021E+02 -0.29660998914E+02  0.31886080321E+02  0.00000000000E+00 0.  1.
         11    1    3    3    0    0  0.59406859489E+01 -0.17176364884E+02  0.55483351642E+01  0.19002717794E+02  0.51100000000E-03 0.  1.
        -11    1    3    3    0    0  0.76399797086E+00  0.12205739064E+02  0.58087459773E+01  0.13539028365E+02  0.51100000000E-03 0. -1.
        -12    1    3    3    0    0 -0.11965904547E+02  0.15423702842E+02  0.18303917772E+02  0.26760173520E+02  0.00000000000E+00 0.  1.
</event>
<event>
 7    1  0.3755162E-013  0.5930194E+02  0.7816164E-02  0.1266605E+00
        -11   -1    0    0    0    0  0.00000000000E+00  0.00000000000E+00  0.45593999997E+02  0.45594000000E+02  0.51100000000E-03 0. -1.
         11   -1    0    0    0    0 -0.00000000000E+00 -0.00000000000E+00 -0.45593999997E+02  0.45594000000E+02  0.51100000000E-03 0.  1.
    9900012    2    1    2    0    0  0.12559627497E+02 -0.23268205642E+02  0.17820413628E+02  0.59301940687E+02  0.49999993907E+02 0.  0.
        -12    1    1    2    0    0 -0.12559627497E+02  0.23268205642E+02 -0.17820413628E+02  0.31886059313E+02  0.00000000000E+00 0.  1.
         11    1    3    3    0    0 -0.32990756857E+01 -0.37727680898E+01 -0.75281155779E+00  0.50679783881E+01  0.51100000000E-03 0. -1.
        -11    1    3    3    0    0  0.21293795679E+02 -0.21487955195E+00 -0.63844679660E+01  0.22231359362E+02  0.51100000000E-03 0.  1.
         12    1    3    3    0    0 -0.54350924959E+01 -0.19280558000E+02  0.24957693152E+02  0.32002602936E+02  0.00000000000E+00 0. -1.
</event>
<event>
 7    1  0.3755162E-013  0.5930202E+02  0.7816164E-02  0.1266604E+00
        -11   -1    0    0    0    0  0.00000000000E+00  0.00000000000E+00  0.45593999997E+02  0.45594000000E+02  0.51100000000E-03 0.  1.
         11   -1    0    0    0    0 -0.00000000000E+00 -0.00000000000E+00 -0.45593999997E+02  0.45594000000E+02  0.51100000000E-03 0. -1.
    9900012    2    1    2    0    0 -0.12899187075E+02 -0.26279669984E+02 -0.12637465699E+02  0.59302021562E+02  0.50000141404E+02 0.  0.
        -12    1    1    2    0    0  0.12899187075E+02  0.26279669984E+02  0.12637465699E+02  0.31885978438E+02  0.00000000000E+00 0.  1.
         11    1    3    3    0    0 -0.28583529910E+02 -0.12706773778E+02 -0.15015471175E+02  0.34697905655E+02  0.51100000000E-03 0. -1.
        -11    1    3    3    0    0 -0.12507646768E+01 -0.21848000229E+01 -0.25776303853E+01  0.36030462225E+01  0.51100000000E-03 0.  1.
        -12    1    3    3    0    0  0.16935107512E+02 -0.11388096183E+02  0.49556358611E+01  0.21001069685E+02  0.00000000000E+00 0.  1.
</event>
<event>
 7    1  0.3755162E-013  0.5930194E+02  0.7816164E-02  0.1266605E+00
        -11   -1    0    0    0    0  0.00000000000E+00  0.00000000000E+00  0.45593999997E+02  0.45594000000E+02  0.51100000000E-03 0. -1.
         11   -1    0    0    0    0 -0.00000000000E+00 -0.00000000000E+00 -0.45593999997E+02  0.45594000000E+02  0.51100000000E-03 0.  1.
    9900012    2    1    2    0    0  0.10036527388E+02  0.78218583712E+01  0.29237094070E+02  0.59301936900E+02  0.49999987000E+02 0.  0.
        -12    1    1    2    0    0 -0.10036527388E+02 -0.78218583712E+01 -0.29237094070E+02  0.31886063100E+02  0.00000000000E+00 0.  1.
         11    1    3    3    0    0  0.36798333382E+01 -0.58708144124E+01  0.14829344224E+01  0.70856707533E+01  0.51100000000E-03 0. -1.
        -11    1    3    3    0    0 -0.26230416186E+01 -0.13700441155E+02  0.15612149569E+02  0.20936132632E+02  0.51100000000E-03 0.  1.
         12    1    3    3    0    0  0.89797356683E+01  0.27393113939E+02  0.12142010078E+02  0.31280133514E+02  0.00000000000E+00 0. -1.
</event>
<event>
 7    1  0.3755162E-013  0.5930199E+02  0.7816164E-02  0.1266605E+00
        -11   -1    0    0    0    0  0.00000000000E+00  0.00000000000E+00  0.45593999997E+02  0.45594000000E+02  0.51100000000E-03 0. -1.
         11   -1    0    0    0    0 -0.00000000000E+00 -0.00000000000E+00 -0.45593999997E+02  0.45594000000E+02  0.51100000000E-03 0.  1.
    9900012    2    1    2    0    0 -0.48426499899E+01  0.16398080626E+02  0.26914106583E+02  0.59301993033E+02  0.50000089374E+02 0.  0.
        -12    1    1    2    0    0  0.48426499899E+01 -0.16398080626E+02 -0.26914106583E+02  0.31886006967E+02  0.00000000000E+00 0.  1.
         11    1    3    3    0    0 -0.22550314640E+02  0.14824609944E+02  0.12216184119E+02  0.29622979341E+02  0.51100000000E-03 0. -1.
        -11    1    3    3    0    0  0.10341315036E+01  0.69053798813E+01  0.25897945434E+00  0.69871861211E+01  0.51100000000E-03 0.  1.
        -12    1    3    3    0    0  0.16673533146E+02 -0.53319091995E+01  0.14438943009E+02  0.22691827571E+02  0.00000000000E+00 0.  1.
</event>
<event>
 7    1  0.3755162E-013  0.5930195E+02  0.7816164E-02  0.1266605E+00
        -11   -1    0    0    0    0  0.00000000000E+00  0.00000000000E+00  0.45593999997E+02  0.45594000000E+02  0.51100000000E-03 0.  1.
         11   -1    0    0    0    0 -0.00000000000E+00 -0.00000000000E+00 -0.45593999997E+02  0.45594000000E+02  0.51100000000E-03 0. -1.
    9900012    2    1    2    0    0  0.32388891096E+01 -0.34781788730E+01 -0.31529861772E+02  0.59301947966E+02  0.50000007183E+02 0.  0.
        -12    1    1    2    0    0 -0.32388891096E+01  0.34781788730E+01  0.31529861772E+02  0.31886052034E+02  0.00000000000E+00 0.  1.
         11    1    3    3    0    0  0.14112520671E+02  0.35795207751E+01 -0.47608422291E+01  0.15318022968E+02  0.51100000000E-03 0. -1.
        -11    1    3    3    0    0  0.41018686678E+01 -0.11754322400E+02  0.56745138013E+00  0.12462400370E+02  0.51100000000E-03 0.  1.
         12    1    3    3    0    0 -0.14975500229E+02  0.46966227518E+01 -0.27336470923E+02  0.31521524628E+02  0.00000000000E+00 0. -1.
</event>
<event>
 7    1  0.3755162E-013  0.5930201E+02  0.7816164E-02  0.1266605E+00
        -11   -1    0    0    0    0  0.00000000000E+00  0.00000000000E+00  0.45593999997E+02  0.45594000000E+02  0.51100000000E-03 0.  1.
         11   -1    0    0    0    0 -0.00000000000E+00 -0.00000000000E+00 -0.45593999997E+02  0.45594000000E+02  0.51100000000E-03 0. -1.
    9900012    2    1    2    0    0 -0.10344645931E+02 -0.24063687708E+02  0.18183614988E+02  0.59302005903E+02  0.50000112846E+02 0.  0.
        -12    1    1    2    0    0  0.10344645931E+02  0.24063687708E+02 -0.18183614988E+02  0.31885994097E+02  0.00000000000E+00 0.  1.
         11    1    3    3    0    0  0.45482313648E+01 -0.99460042180E+01 -0.10219543953E+02  0.14968249307E+02  0.51100000000E-03 0. -1.
        -11    1    3    3    0    0  0.39805524882E+01 -0.74807883835E+01 -0.12470817154E+01  0.85651740213E+01  0.51100000000E-03 0.  1.
        -12    1    3    3    0    0 -0.18873429784E+02 -0.66368951061E+01  0.29650240656E+02  0.35768582575E+02  0.00000000000E+00 0.  1.
</event>
<event>
 7    1  0.3755162E-013  0.5930195E+02  0.7816164E-02  0.1266605E+00
        -11   -1    0    0    0    0  0.00000000000E+00  0.00000000000E+00  0.45593999997E+02  0.45594000000E+02  0.51100000000E-03 0.  1.
         11   -1    0    0    0    0 -0.00000000000E+00 -0.00000000000E+00 -0.45593999997E+02  0.45594000000E+02  0.51100000000E-03 0. -1.
    9900012    2    1    2    0    0  0.28065904096E+02 -0.14556430493E+02 -0.41395270132E+01  0.59301947794E+02  0.50000006868E+02 0.  0.
        -12    1    1    2    0    0 -0.28065904096E+02  0.14556430493E+02  0.41395270132E+01  0.31886052206E+02  0.00000000000E+00 0.  1.
         11    1    3    3    0    0  0.20444545892E+02 -0.20339358096E+01 -0.16067431738E+02  0.26082153181E+02  0.51100000000E-03 0. -1.
        -11    1    3    3    0    0 -0.15067878535E+01 -0.13660668946E+02 -0.44410002106E+01  0.14443225707E+02  0.51100000000E-03 0.  1.
        -12    1    3    3    0    0  0.91281460575E+01  0.11381742629E+01  0.16368904936E+02  0.18776568906E+02  0.00000000000E+00 0.  1.
</event>
<event>
 7    1  0.3755162E-013  0.5930195E+02  0.7816164E-02  0.1266605E+00
        -11   -1    0    0    0    0  0.00000000000E+00  0.00000000000E+00  0.45593999997E+02  0.45594000000E+02  0.51100000000E-03 0.  1.
         11   -1    0    0    0    0 -0.00000000000E+00 -0.00000000000E+00 -0.45593999997E+02  0.45594000000E+02  0.51100000000E-03 0. -1.
    9900012    2    1    2    0    0 -0.96907504273E-01  0.30696353465E+02 -0.86281431519E+01  0.59301947229E+02  0.50000005838E+02 0.  0.
        -12    1    1    2    0    0  0.96907504273E-01 -0.30696353465E+02  0.86281431519E+01  0.31886052771E+02  0.00000000000E+00 0.  1.
         11    1    3    3    0    0  0.18874190760E+02  0.22188661430E+02 -0.15410740735E+02  0.32955465452E+02  0.51100000000E-03 0. -1.
        -11    1    3    3    0    0 -0.33325759251E+00  0.50879458980E+01 -0.19796684013E+01  0.54696747001E+01  0.51100000000E-03 0.  1.
        -12    1    3    3    0    0 -0.18637840672E+02  0.34197461367E+01  0.87622659841E+01  0.20876807077E+02  0.00000000000E+00 0.  1.
</event>
<event>
 7    1  0.3755162E-013  0.5930194E+02  0.7816164E-02  0.1266605E+00
        -11   -1    0    0    0    0  0.00000000000E+00  0.00000000000E+00  0.45593999997E+02  0.45594000000E+02  0.51100000000E-03 0.  1.
         11   -1    0    0    0    0 -0.00000000000E+00 -0.00000000000E+00 -0.45593999997E+02  0.45594000000E+02  0.51100000000E-03 0. -1.
    9900012    2    1    2    0    0  0.72778899866E+01  0.18399582641E+02 -0.25004170805E+02  0.59301939070E+02  0.49999990958E+02 0.  0.
        -12    1    1    2    0    0 -0.72778899866E+01 -0.18399582641E+02  0.25004170805E+02  0.31886060930E+02  0.00000000000E+00 0.  1.
         11    1    3    3    0    0 -0.36979870323E+01  0.34876238817E+01  0.85163067353E+01  0.99179690008E+01  0.51100000000E-03 0. -1.
        -11    1    3    3    0    0  0.10536934610E+02 -0.55178146820E+00  0.19105125809E+01  0.10722943269E+02  0.51100000000E-03 0.  1.
         12    1    3    3    0    0  0.43894240838E+00  0.15463740227E+02 -0.35430990121E+02  0.38661026800E+02  0.00000000000E+00 0. -1.
</event>
<event>
 7    1  0.3755162E-013  0.5930199E+02  0.7816164E-02  0.1266605E+00
        -11   -1    0    0    0    0  0.00000000000E+00  0.00000000000E+00  0.45593999997E+02  0.45594000000E+02  0.51100000000E-03 0.  1.
         11   -1    0    0    0    0 -0.00000000000E+00 -0.00000000000E+00 -0.45593999997E+02  0.45594000000E+02  0.51100000000E-03 0. -1.
    9900012    2    1    2    0    0 -0.23928585343E+02 -0.11505809982E+02 -0.17656637255E+02  0.59301988976E+02  0.50000081975E+02 0.  0.
        -12    1    1    2    0    0  0.23928585343E+02  0.11505809982E+02  0.17656637255E+02  0.31886011024E+02  0.00000000000E+00 0.  1.
         11    1    3    3    0    0 -0.45520889906E+01 -0.14485264033E+01  0.20942380420E+01  0.52158964864E+01  0.51100000000E-03 0. -1.
        -11    1    3    3    0    0  0.29917207806E+01  0.13748542028E+02  0.28602379021E+01  0.14358055657E+02  0.51100000000E-03 0.  1.
         12    1    3    3    0    0 -0.22368217133E+02 -0.23805825607E+02 -0.22611113199E+02  0.39728036833E+02  0.00000000000E+00 0. -1.
</event>
<event>
 7    1  0.3755162E-013  0.5930194E+02  0.7816164E-02  0.1266605E+00
        -11   -1    0    0    0    0  0.00000000000E+00  0.00000000000E+00  0.45593999997E+02  0.45594000000E+02  0.51100000000E-03 0.  1.
         11   -1    0    0    0    0 -0.00000000000E+00 -0.00000000000E+00 -0.45593999997E+02  0.45594000000E+02  0.51100000000E-03 0. -1.
    9900012    2    1    2    0    0 -0.11708385495E+02 -0.99394013282E+01 -0.27943570182E+02  0.59301935580E+02  0.49999984593E+02 0.  0.
        -12    1    1    2    0    0  0.11708385495E+02  0.99394013282E+01  0.27943570182E+02  0.31886064420E+02  0.00000000000E+00 0.  1.
         11    1    3    3    0    0 -0.43228633375E+01  0.24991243875E+01 -0.41742204624E+01  0.65082168732E+01  0.51100000000E-03 0. -1.
        -11    1    3    3    0    0 -0.19071486996E+02  0.83627702803E+01 -0.19552277981E+02  0.28564823078E+02  0.51100000000E-03 0.  1.
        -12    1    3    3    0    0  0.11685964838E+02 -0.20801295996E+02 -0.42170717392E+01  0.24228895628E+02  0.00000000000E+00 0.  1.
</event>
<event>
 7    1  0.3755162E-013  0.5930194E+02  0.7816164E-02  0.1266605E+00
        -11   -1    0    0    0    0  0.00000000000E+00  0.00000000000E+00  0.45593999997E+02  0.45594000000E+02  0.51100000000E-03 0. -1.
         11   -1    0    0    0    0 -0.00000000000E+00 -0.00000000000E+00 -0.45593999997E+02  0.45594000000E+02  0.51100000000E-03 0.  1.
    9900012    2    1    2    0    0 -0.14767943210E+01 -0.54261464687E+01  0.31386249987E+02  0.59301942306E+02  0.49999996861E+02 0.  0.
        -12    1    1    2    0    0  0.14767943210E+01  0.54261464687E+01 -0.31386249987E+02  0.31886057694E+02  0.00000000000E+00 0.  1.
         11    1    3    3    0    0 -0.12109419443E+02 -0.68205972964E+01  0.21172680872E+02  0.25326685577E+02  0.51100000000E-03 0. -1.
        -11    1    3    3    0    0  0.10278572815E+01 -0.13386067174E+02 -0.34106892627E+00  0.13429803173E+02  0.51100000000E-03 0.  1.
        -12    1    3    3    0    0  0.96047678407E+01  0.14780518002E+02  0.10554638042E+02  0.20545453557E+02  0.00000000000E+00 0.  1.
</event>
<event>
 7    1  0.3755162E-013  0.5930203E+02  0.7816164E-02  0.1266604E+00
        -11   -1    0    0    0    0  0.00000000000E+00  0.00000000000E+00  0.45593999997E+02  0.45594000000E+02  0.51100000000E-03 0.  1.
         11   -1    0    0    0    0 -0.00000000000E+00 -0.00000000000E+00 -0.45593999997E+02  0.45594000000E+02  0.51100000000E-03 0. -1.
    9900012    2    1    2    0    0  0.33264848878E+01 -0.11741512226E+02 -0.29458218498E+02  0.59302027408E+02  0.50000152065E+02 0.  0.
        -12    1    1    2    0    0 -0.33264848878E+01  0.11741512226E+02  0.29458218498E+02  0.31885972592E+02  0.00000000000E+00 0.  1.
         11    1    3    3    0    0  0.23852164691E+01  0.56206866364E+01 -0.61659986834E+01  0.86776100335E+01  0.51100000000E-03 0. -1.
        -11    1    3    3    0    0 -0.17798465764E+02  0.20396937722E+01 -0.80366296021E+01  0.19634998087E+02  0.51100000000E-03 0.  1.
         12    1    3    3    0    0  0.18739734183E+02 -0.19401892635E+02 -0.15255590213E+02  0.30989419288E+02  0.00000000000E+00 0. -1.
</event>
<event>
 7    1  0.3755162E-013  0.5930196E+02  0.7816164E-02  0.1266605E+00
        -11   -1    0    0    0    0  0.00000000000E+00  0.00000000000E+00  0.45593999997E+02  0.45594000000E+02  0.51100000000E-03 0.  1.
         11   -1    0    0    0    0 -0.00000000000E+00 -0.00000000000E+00 -0.45593999997E+02  0.45594000000E+02  0.51100000000E-03 0. -1.
    9900012    2    1    2    0    0 -0.45232772392E+01  0.29361404502E+02 -0.11583068136E+02  0.59301959500E+02  0.50000028217E+02 0.  0.
        -12    1    1    2    0    0  0.45232772392E+01 -0.29361404502E+02  0.11583068136E+02  0.31886040500E+02  0.00000000000E+00 0.  1.
         11    1    3    3    0    0 -0.18655402282E+02  0.46330524685E+01 -0.17324001995E+01  0.19300010885E+02  0.51100000000E-03 0.  1.
        -11    1    3    3    0    0  0.15156790466E+01  0.18754748439E+02 -0.16046907848E+02  0.24729357527E+02  0.51100000000E-03 0. -1.
        -12    1    3    3    0    0  0.12616445996E+02  0.59736035951E+01  0.61962399115E+01  0.15272591087E+02  0.00000000000E+00 0.  1.
</event>
<event>
 7    1  0.3755162E-013  0.5930198E+02  0.7816164E-02  0.1266605E+00
        -11   -1    0    0    0    0  0.00000000000E+00  0.00000000000E+00  0.45593999997E+02  0.45594000000E+02  0.51100000000E-03 0.  1.
         11   -1    0    0    0    0 -0.00000000000E+00 -0.00000000000E+00 -0.45593999997E+02  0.45594000000E+02  0.51100000000E-03 0. -1.
    9900012    2    1    2    0    0  0.27426801274E+02  0.14199765594E+02  0.79281508549E+01  0.59301978815E+02  0.50000063443E+02 0.  0.
        -12    1    1    2    0    0 -0.27426801274E+02 -0.14199765594E+02 -0.79281508549E+01  0.31886021185E+02  0.00000000000E+00 0.  1.
         11    1    3    3    0    0  0.78185096517E+01  0.43388533429E+01 -0.11021365950E+02  0.14192436337E+02  0.51100000000E-03 0.  1.
        -11    1    3    3    0    0 -0.87251269172E+01  0.72435118180E+01  0.81782556703E+00  0.11369482930E+02  0.51100000000E-03 0. -1.
        -12    1    3    3    0    0  0.28333418539E+02  0.26174004331E+01  0.18131691238E+02  0.33740059548E+02  0.00000000000E+00 0.  1.
</event>
<event>
 7    1  0.3755162E-013  0.5930191E+02  0.7816164E-02  0.1266605E+00
        -11   -1    0    0    0    0  0.00000000000E+00  0.00000000000E+00  0.45593999997E+02  0.45594000000E+02  0.51100000000E-03 0. -1.
         11   -1    0    0    0    0 -0.00000000000E+00 -0.00000000000E+00 -0.45593999997E+02  0.45594000000E+02  0.51100000000E-03 0.  1.
    9900012    2    1    2    0    0 -0.15814409458E+02  0.86941296638E+01  0.26287627845E+02  0.59301908755E+02  0.49999935672E+02 0.  0.
        -12    1    1    2    0    0  0.15814409458E+02 -0.86941296638E+01 -0.26287627845E+02  0.31886091245E+02  0.00000000000E+00 0.  1.
         11    1    3    3    0    0  0.13196503662E+01 -0.25445621047E+00  0.14280538708E+02  0.14343640093E+02  0.51100000000E-03 0. -1.
        -11    1    3    3    0    0  0.10860431292E+02  0.10619516780E+02  0.56192788130E+01  0.16195659885E+02  0.51100000000E-03 0.  1.
        -12    1    3    3    0    0 -0.27994491116E+02 -0.16709309055E+01  0.63878103240E+01  0.28762608777E+02  0.00000000000E+00 0.  1.
</event>
<event>
 7    1  0.3755162E-013  0.5930192E+02  0.7816164E-02  0.1266605E+00
        -11   -1    0    0    0    0  0.00000000000E+00  0.00000000000E+00  0.45593999997E+02  0.45594000000E+02  0.51100000000E-03 0.  1.
         11   -1    0    0    0    0 -0.00000000000E+00 -0.00000000000E+00 -0.45593999997E+02  0.45594000000E+02  0.51100000000E-03 0. -1.
    9900012    2    1    2    0    0 -0.54416379800E+00  0.25208749641E+02  0.19517816636E+02  0.59301916218E+02  0.49999949282E+02 0.  0.
        -12    1    1    2    0    0  0.54416379800E+00 -0.25208749641E+02 -0.19517816636E+02  0.31886083782E+02  0.00000000000E+00 0.  1.
         11    1    3    3    0    0  0.75735380354E+01  0.20747668155E+02  0.10187463378E+02  0.24323006035E+02  0.51100000000E-03 0. -1.
        -11    1    3    3    0    0  0.31060372661E+01 -0.97113708693E+01  0.13010466870E+02  0.16529683605E+02  0.51100000000E-03 0.  1.
         12    1    3    3    0    0 -0.11223739100E+02  0.14172452355E+02 -0.36801136117E+01  0.18449226578E+02  0.00000000000E+00 0. -1.
</event>
<event>
 7    1  0.3755162E-013  0.5930195E+02  0.7816164E-02  0.1266605E+00
        -11   -1    0    0    0    0  0.00000000000E+00  0.00000000000E+00  0.45593999997E+02  0.45594000000E+02  0.51100000000E-03 0. -1.
         11   -1    0    0    0    0 -0.00000000000E+00 -0.00000000000E+00 -0.45593999997E+02  0.45594000000E+02  0.51100000000E-03 0.  1.
    9900012    2    1    2    0    0  0.15173544018E+02  0.14629044966E+02  0.23926439923E+02  0.59301954116E+02  0.50000018399E+02 0.  0.
        -12    1    1    2    0    0 -0.15173544018E+02 -0.14629044966E+02 -0.23926439923E+02  0.31886045884E+02  0.00000000000E+00 0.  1.
         11    1    3    3    0    0  0.12101078381E+02 -0.13940091379E+02  0.77072747142E+01  0.20004107814E+02  0.51100000000E-03 0. -1.
        -11    1    3    3    0    0 -0.10708628406E+01 -0.17795655353E+01 -0.26157521117E+01  0.33400239652E+01  0.51100000000E-03 0.  1.
         12    1    3    3    0    0  0.41433284775E+01  0.30348701881E+02  0.18834917321E+02  0.35957822337E+02  0.00000000000E+00 0. -1.
</event>
<event>
 7    1  0.3755162E-013  0.5930197E+02  0.7816164E-02  0.1266605E+00
        -11   -1    0    0    0    0  0.00000000000E+00  0.00000000000E+00  0.45593999997E+02  0.45594000000E+02  0.51100000000E-03 0. -1.
         11   -1    0    0    0    0 -0.00000000000E+00 -0.00000000000E+00 -0.45593999997E+02  0.45594000000E+02  0.51100000000E-03 0.  1.
    9900012    2    1    2    0    0  0.23838270044E+02  0.19856034107E+02  0.73616215727E+01  0.59301973572E+02  0.50000053882E+02 0.  0.
        -12    1    1    2    0    0 -0.23838270044E+02 -0.19856034107E+02 -0.73616215727E+01  0.31886026428E+02  0.00000000000E+00 0.  1.
         11    1    3    3    0    0  0.40742788322E+01  0.12675566320E+02 -0.17094114142E+02  0.21667451814E+02  0.51100000000E-03 0.  1.
        -11    1    3    3    0    0  0.40962440873E+01  0.90130642769E+01  0.18540236490E+01  0.10072335739E+02  0.51100000000E-03 0. -1.
        -12    1    3    3    0    0  0.15667747125E+02 -0.18325964895E+01  0.22601712066E+02  0.27562186020E+02  0.00000000000E+00 0.  1.
</event>
<event>
 7    1  0.3755162E-013  0.5930173E+02  0.7816164E-02  0.1266606E+00
        -11   -1    0    0    0    0  0.00000000000E+00  0.00000000000E+00  0.45593999997E+02  0.45594000000E+02  0.51100000000E-03 0. -1.
         11   -1    0    0    0    0 -0.00000000000E+00 -0.00000000000E+00 -0.45593999997E+02  0.45594000000E+02  0.51100000000E-03 0.  1.
    9900012    2    1    2    0    0  0.79554670071E+01 -0.13624962944E+02  0.27709302071E+02  0.59301725652E+02  0.49999601734E+02 0.  0.
        -12    1    1    2    0    0 -0.79554670071E+01  0.13624962944E+02 -0.27709302071E+02  0.31886274348E+02  0.00000000000E+00 0.  1.
         11    1    3    3    0    0  0.22188108213E+01  0.62609353197E+01  0.19124468270E+02  0.20245190031E+02  0.51100000000E-03 0.  1.
        -11    1    3    3    0    0  0.14636043745E+02 -0.24076366395E+02  0.51858996450E+01  0.28649236477E+02  0.51100000000E-03 0. -1.
         12    1    3    3    0    0 -0.88993875588E+01  0.41904681317E+01  0.33989341563E+01  0.10407299145E+02  0.00000000000E+00 0. -1.
</event>
<event>
 7    1  0.3755162E-013  0.5930195E+02  0.7816164E-02  0.1266605E+00
        -11   -1    0    0    0    0  0.00000000000E+00  0.00000000000E+00  0.45593999997E+02  0.45594000000E+02  0.51100000000E-03 0.  1.
         11   -1    0    0    0    0 -0.00000000000E+00 -0.00000000000E+00 -0.45593999997E+02  0.45594000000E+02  0.51100000000E-03 0. -1.
    9900012    2    1    2    0    0 -0.18401054527E+02  0.16174554580E+02 -0.20408456772E+02  0.59301950834E+02  0.50000012414E+02 0.  0.
        -12    1    1    2    0    0  0.18401054527E+02 -0.16174554580E+02  0.20408456772E+02  0.31886049166E+02  0.00000000000E+00 0.  1.
         11    1    3    3    0    0 -0.24165564976E+01 -0.15386729702E+01  0.58516918640E+01  0.65153325125E+01  0.51100000000E-03 0. -1.
        -11    1    3    3    0    0  0.76509296103E+01  0.20439782860E+02 -0.10270145094E+02  0.24120475281E+02  0.51100000000E-03 0.  1.
         12    1    3    3    0    0 -0.23635427640E+02 -0.27265553096E+01 -0.15990003541E+02  0.28666143041E+02  0.00000000000E+00 0. -1.
</event>
<event>
 7    1  0.3755162E-013  0.5930195E+02  0.7816164E-02  0.1266605E+00
        -11   -1    0    0    0    0  0.00000000000E+00  0.00000000000E+00  0.45593999997E+02  0.45594000000E+02  0.51100000000E-03 0. -1.
         11   -1    0    0    0    0 -0.00000000000E+00 -0.00000000000E+00 -0.45593999997E+02  0.45594000000E+02  0.51100000000E-03 0.  1.
    9900012    2    1    2    0    0 -0.26451078062E+02  0.10045895453E+02 -0.14701723261E+02  0.59301949556E+02  0.50000010082E+02 0.  0.
        -12    1    1    2    0    0  0.26451078062E+02 -0.10045895453E+02  0.14701723261E+02  0.31886050444E+02  0.00000000000E+00 0.  1.
         11    1    3    3    0    0 -0.18791022969E+02  0.79323762126E+01 -0.20399178946E+02  0.28847038644E+02  0.51100000000E-03 0. -1.
        -11    1    3    3    0    0  0.65844348914E-01 -0.76327941927E+01 -0.86041140422E+01  0.11501941635E+02  0.51100000000E-03 0.  1.
         12    1    3    3    0    0 -0.77258994417E+01  0.97463134334E+01  0.14301569727E+02  0.18952969276E+02  0.00000000000E+00 0. -1.
</event>
<event>
 7    1  0.3755162E-013  0.5930193E+02  0.7816164E-02  0.1266605E+00
        -11   -1    0    0    0    0  0.00000000000E+00  0.00000000000E+00  0.45593999997E+02  0.45594000000E+02  0.51100000000E-03 0.  1.
         11   -1    0    0    0    0 -0.00000000000E+00 -0.00000000000E+00 -0.45593999997E+02  0.45594000000E+02  0.51100000000E-03 0. -1.
    9900012    2    1    2    0    0 -0.31531657133E+01  0.20858348627E+02 -0.23910425356E+02  0.59301927771E+02  0.49999970352E+02 0.  0.
        -12    1    1    2    0    0  0.31531657133E+01 -0.20858348627E+02  0.23910425356E+02  0.31886072229E+02  0.00000000000E+00 0.  1.
         11    1    3    3    0    0 -0.12033999082E+02  0.18366395678E+01 -0.21175279773E+02  0.24425045600E+02  0.51100000000E-03 0. -1.
        -11    1    3    3    0    0 -0.92774011879E+01  0.10536943967E+02  0.22628723879E+01  0.14220335884E+02  0.51100000000E-03 0.  1.
        -12    1    3    3    0    0  0.18158234557E+02  0.84847650919E+01 -0.49980179709E+01  0.20656546287E+02  0.00000000000E+00 0.  1.
</event>
<event>
 7    1  0.3755162E-013  0.5930183E+02  0.7816164E-02  0.1266605E+00
        -11   -1    0    0    0    0  0.00000000000E+00  0.00000000000E+00  0.45593999997E+02  0.45594000000E+02  0.51100000000E-03 0. -1.
         11   -1    0    0    0    0 -0.00000000000E+00 -0.00000000000E+00 -0.45593999997E+02  0.45594000000E+02  0.51100000000E-03 0.  1.
    9900012    2    1    2    0    0 -0.16529562947E+02  0.22685559605E+02  0.15128343816E+02  0.59301829762E+02  0.49999791606E+02 0.  0.
        -12    1    1    2    0    0  0.16529562947E+02 -0.22685559605E+02 -0.15128343816E+02  0.31886170238E+02  0.00000000000E+00 0.  1.
         11    1    3    3    0    0 -0.13839869325E+02  0.50517562934E+01 -0.37946560777E+01  0.15213863401E+02  0.51100000000E-03 0.  1.
        -11    1    3    3    0    0 -0.16302579913E+02  0.20194375887E+02  0.12917805541E+02  0.28990630030E+02  0.51100000000E-03 0. -1.
         12    1    3    3    0    0  0.13612886291E+02 -0.25605725748E+01  0.60051943527E+01  0.15097336331E+02  0.00000000000E+00 0. -1.
</event>
<event>
 7    1  0.3755162E-013  0.5930193E+02  0.7816164E-02  0.1266605E+00
        -11   -1    0    0    0    0  0.00000000000E+00  0.00000000000E+00  0.45593999997E+02  0.45594000000E+02  0.51100000000E-03 0. -1.
         11   -1    0    0    0    0 -0.00000000000E+00 -0.00000000000E+00 -0.45593999997E+02  0.45594000000E+02  0.51100000000E-03 0.  1.
    9900012    2    1    2    0    0 -0.10657040364E+02  0.11368073131E+02  0.27819345646E+02  0.59301927990E+02  0.49999970752E+02 0.  0.
        -12    1    1    2    0    0  0.10657040364E+02 -0.11368073131E+02 -0.27819345646E+02  0.31886072010E+02  0.00000000000E+00 0.  1.
         11    1    3    3    0    0  0.45104769377E+01  0.15724370057E+02 -0.15880936889E+01  0.16435396488E+02  0.51100000000E-03 0. -1.
        -11    1    3    3    0    0  0.29553653934E+01  0.78426706272E+01  0.37877127808E+01  0.91971971570E+01  0.51100000000E-03 0.  1.
        -12    1    3    3    0    0 -0.18122882695E+02 -0.12198967553E+02  0.25619726554E+02  0.33669334345E+02  0.00000000000E+00 0.  1.
</event>
<event>
 7    1  0.3755162E-013  0.5930194E+02  0.7816164E-02  0.1266605E+00
        -11   -1    0    0    0    0  0.00000000000E+00  0.00000000000E+00  0.45593999997E+02  0.45594000000E+02  0.51100000000E-03 0.  1.
         11   -1    0    0    0    0 -0.00000000000E+00 -0.00000000000E+00 -0.45593999997E+02  0.45594000000E+02  0.51100000000E-03 0. -1.
    9900012    2    1    2    0    0 -0.10699477839E+02  0.18354350824E+01 -0.29981210902E+02  0.59301942622E+02  0.49999997436E+02 0.  0.
        -12    1    1    2    0    0  0.10699477839E+02 -0.18354350824E+01  0.29981210902E+02  0.31886057378E+02  0.00000000000E+00 0.  1.
         11    1    3    3    0    0 -0.13883498034E+01  0.31717890321E+01 -0.15708656870E+02  0.16085697428E+02  0.51100000000E-03 0. -1.
        -11    1    3    3    0    0  0.86810235717E+01  0.13197322290E+02  0.44328924676E+00  0.15802721015E+02  0.51100000000E-03 0.  1.
        -12    1    3    3    0    0 -0.17992151607E+02 -0.14533676239E+02 -0.14715843279E+02  0.27413524179E+02  0.00000000000E+00 0.  1.
</event>
<event>
 7    1  0.3755162E-013  0.5930196E+02  0.7816164E-02  0.1266605E+00
        -11   -1    0    0    0    0  0.00000000000E+00  0.00000000000E+00  0.45593999997E+02  0.45594000000E+02  0.51100000000E-03 0. -1.
         11   -1    0    0    0    0 -0.00000000000E+00 -0.00000000000E+00 -0.45593999997E+02  0.45594000000E+02  0.51100000000E-03 0.  1.
    9900012    2    1    2    0    0 -0.25161832927E+02 -0.15936604450E+02 -0.11385358390E+02  0.59301959429E+02  0.50000028088E+02 0.  0.
        -12    1    1    2    0    0  0.25161832927E+02  0.15936604450E+02  0.11385358390E+02  0.31886040571E+02  0.00000000000E+00 0.  1.
         11    1    3    3    0    0 -0.46241649690E+01  0.94280298545E+01 -0.89348644773E+01  0.13787764579E+02  0.51100000000E-03 0. -1.
        -11    1    3    3    0    0 -0.86633690005E-01 -0.18269704186E+02 -0.11996023357E+02  0.21856215891E+02  0.51100000000E-03 0.  1.
         12    1    3    3    0    0 -0.20451034268E+02 -0.70949301189E+01  0.95455294447E+01  0.23657978958E+02  0.00000000000E+00 0. -1.
</event>
<event>
 7    1  0.3755162E-013  0.5930195E+02  0.7816164E-02  0.1266605E+00
        -11   -1    0    0    0    0  0.00000000000E+00  0.00000000000E+00  0.45593999997E+02  0.45594000000E+02  0.51100000000E-03 0.  1.
         11   -1    0    0    0    0 -0.00000000000E+00 -0.00000000000E+00 -0.45593999997E+02  0.45594000000E+02  0.51100000000E-03 0. -1.
    9900012    2    1    2    0    0  0.15497317860E+02 -0.26532271886E+02 -0.85200919320E+01  0.59301948523E+02  0.50000008198E+02 0.  0.
        -12    1    1    2    0    0 -0.15497317860E+02  0.26532271886E+02  0.85200919320E+01  0.31886051477E+02  0.00000000000E+00 0.  1.
         11    1    3    3    0    0 -0.33553210199E+01 -0.81042271557E+01 -0.87823009765E+01  0.12412311938E+02  0.51100000000E-03 0. -1.
        -11    1    3    3    0    0  0.13164655731E+02 -0.18039443686E+02  0.17730241788E+02  0.28514753429E+02  0.51100000000E-03 0.  1.
         12    1    3    3    0    0  0.56879831492E+01 -0.38860104432E+00 -0.17468032744E+02  0.18374883156E+02  0.00000000000E+00 0. -1.
</event>
<event>
 7    1  0.3755162E-013  0.5930193E+02  0.7816164E-02  0.1266605E+00
        -11   -1    0    0    0    0  0.00000000000E+00  0.00000000000E+00  0.45593999997E+02  0.45594000000E+02  0.51100000000E-03 0.  1.
         11   -1    0    0    0    0 -0.00000000000E+00 -0.00000000000E+00 -0.45593999997E+02  0.45594000000E+02  0.51100000000E-03 0. -1.
    9900012    2    1    2    0    0  0.22359959567E+02 -0.53571436034E+01 -0.22091953348E+02  0.59301934357E+02  0.49999982364E+02 0.  0.
        -12    1    1    2    0    0 -0.22359959567E+02  0.53571436034E+01  0.22091953348E+02  0.31886065643E+02  0.00000000000E+00 0.  1.
         11    1    3    3    0    0 -0.99761686289E+01 -0.54819095996E+01 -0.11714371263E+02  0.16334067703E+02  0.51100000000E-03 0. -1.
        -11    1    3    3    0    0  0.66552881002E+01 -0.78498490169E+01  0.55720450835E+01  0.11703019950E+02  0.51100000000E-03 0.  1.
         12    1    3    3    0    0  0.25680840095E+02  0.79746150131E+01 -0.15949627169E+02  0.31264846704E+02  0.00000000000E+00 0. -1.
</event>
<event>
 7    1  0.3755162E-013  0.5930195E+02  0.7816164E-02  0.1266605E+00
        -11   -1    0    0    0    0  0.00000000000E+00  0.00000000000E+00  0.45593999997E+02  0.45594000000E+02  0.51100000000E-03 0.  1.
         11   -1    0    0    0    0 -0.00000000000E+00 -0.00000000000E+00 -0.45593999997E+02  0.45594000000E+02  0.51100000000E-03 0. -1.
    9900012    2    1    2    0    0 -0.11441581845E+02  0.20183174875E+02 -0.21873499344E+02  0.59301947928E+02  0.50000007114E+02 0.  0.
        -12    1    1    2    0    0  0.11441581845E+02 -0.20183174875E+02  0.21873499344E+02  0.31886052072E+02  0.00000000000E+00 0.  1.
         11    1    3    3    0    0  0.24500733796E+01  0.16794884176E+01 -0.12236553709E+02  0.12591933443E+02  0.51100000000E-03 0. -1.
        -11    1    3    3    0    0 -0.42052200320E+01  0.12989455612E+01 -0.22643202953E+02  0.23066984530E+02  0.51100000000E-03 0.  1.
        -12    1    3    3    0    0 -0.96864351926E+01  0.17204740896E+02  0.13006257318E+02  0.23643029955E+02  0.00000000000E+00 0.  1.
</event>
<event>
 7    1  0.3755162E-013  0.5930195E+02  0.7816164E-02  0.1266605E+00
        -11   -1    0    0    0    0  0.00000000000E+00  0.00000000000E+00  0.45593999997E+02  0.45594000000E+02  0.51100000000E-03 0.  1.
         11   -1    0    0    0    0 -0.00000000000E+00 -0.00000000000E+00 -0.45593999997E+02  0.45594000000E+02  0.51100000000E-03 0. -1.
    9900012    2    1    2    0    0  0.90367154796E+01 -0.30554613675E+02 -0.12139630271E+01  0.59301947411E+02  0.50000006170E+02 0.  0.
        -12    1    1    2    0    0 -0.90367154796E+01  0.30554613675E+02  0.12139630271E+01  0.31886052589E+02  0.00000000000E+00 0.  1.
         11    1    3    3    0    0  0.17479504917E+02 -0.14108253040E+02 -0.90820165016E+01  0.24229298792E+02  0.51100000000E-03 0. -1.
        -11    1    3    3    0    0 -0.97041498537E+01 -0.21376578233E+02 -0.24142139971E+01  0.23599937517E+02  0.51100000000E-03 0.  1.
        -12    1    3    3    0    0  0.12613604164E+01  0.49302175975E+01  0.10282267472E+02  0.11472711101E+02  0.00000000000E+00 0.  1.
</event>
<event>
 7    1  0.3755162E-013  0.5930162E+02  0.7816164E-02  0.1266606E+00
        -11   -1    0    0    0    0  0.00000000000E+00  0.00000000000E+00  0.45593999997E+02  0.45594000000E+02  0.51100000000E-03 0.  1.
         11   -1    0    0    0    0 -0.00000000000E+00 -0.00000000000E+00 -0.45593999997E+02  0.45594000000E+02  0.51100000000E-03 0. -1.
    9900012    2    1    2    0    0 -0.14681624082E+02 -0.27978764280E+02 -0.42871931195E+01  0.59301617936E+02  0.49999405283E+02 0.  0.
        -12    1    1    2    0    0  0.14681624082E+02  0.27978764280E+02  0.42871931195E+01  0.31886382064E+02  0.00000000000E+00 0.  1.
         11    1    3    3    0    0 -0.25151627112E+02 -0.11881840978E+01 -0.59701351164E+00  0.25186753527E+02  0.51100000000E-03 0. -1.
        -11    1    3    3    0    0  0.19393186256E+01  0.23489364153E+01 -0.21210929222E+01  0.37118047444E+01  0.51100000000E-03 0.  1.
         12    1    3    3    0    0  0.85306844045E+01 -0.29139516597E+02 -0.15690866857E+01  0.30403059664E+02  0.00000000000E+00 0. -1.
</event>
<event>
 7    1  0.3755162E-013  0.5930191E+02  0.7816164E-02  0.1266605E+00
        -11   -1    0    0    0    0  0.00000000000E+00  0.00000000000E+00  0.45593999997E+02  0.45594000000E+02  0.51100000000E-03 0.  1.
         11   -1    0    0    0    0 -0.00000000000E+00 -0.00000000000E+00 -0.45593999997E+02  0.45594000000E+02  0.51100000000E-03 0. -1.
    9900012    2    1    2    0    0 -0.90968963462E+01  0.14098597530E+02 -0.27114543769E+02  0.59301914332E+02  0.49999945842E+02 0.  0.
        -12    1    1    2    0    0  0.90968963462E+01 -0.14098597530E+02  0.27114543769E+02  0.31886085668E+02  0.00000000000E+00 0.  1.
         11    1    3    3    0    0  0.10983687487E+02 -0.91600496890E+01  0.22541166592E+01  0.14478568413E+02  0.51100000000E-03 0. -1.
        -11    1    3    3    0    0 -0.50802793870E+01 -0.10154623823E+01 -0.30949555039E+01  0.60348282769E+01  0.51100000000E-03 0.  1.
         12    1    3    3    0    0 -0.15000304446E+02  0.24274109601E+02 -0.26273704924E+02  0.38788517642E+02  0.00000000000E+00 0. -1.
</event>
<event>
 7    1  0.3755162E-013  0.5930194E+02  0.7816164E-02  0.1266605E+00
        -11   -1    0    0    0    0  0.00000000000E+00  0.00000000000E+00  0.45593999997E+02  0.45594000000E+02  0.51100000000E-03 0. -1.
         11   -1    0    0    0    0 -0.00000000000E+00 -0.00000000000E+00 -0.45593999997E+02  0.45594000000E+02  0.51100000000E-03 0.  1.
    9900012    2    1    2    0    0 -0.24379058008E+01 -0.27679734256E+02  0.15640000850E+02  0.59301941922E+02  0.49999996159E+02 0.  0.
        -12    1    1    2    0    0  0.24379058008E+01  0.27679734256E+02 -0.15640000850E+02  0.31886058078E+02  0.00000000000E+00 0.  1.
         11    1    3    3    0    0 -0.38791793597E+01 -0.14025708880E+02  0.10940656507E+02  0.18206221660E+02  0.51100000000E-03 0. -1.
        -11    1    3    3    0    0  0.12214520610E+01 -0.18126190467E+02  0.18894163730E+02  0.26211450729E+02  0.51100000000E-03 0.  1.
        -12    1    3    3    0    0  0.21982149802E+00  0.44721650905E+01 -0.14194819387E+02  0.14884269533E+02  0.00000000000E+00 0.  1.
</event>
<event>
 7    1  0.3755162E-013  0.5930194E+02  0.7816164E-02  0.1266605E+00
        -11   -1    0    0    0    0  0.00000000000E+00  0.00000000000E+00  0.45593999997E+02  0.45594000000E+02  0.51100000000E-03 0. -1.
         11   -1    0    0    0    0 -0.00000000000E+00 -0.00000000000E+00 -0.45593999997E+02  0.45594000000E+02  0.51100000000E-03 0.  1.
    9900012    2    1    2    0    0 -0.13308732177E+02  0.56187639181E+01  0.28425832754E+02  0.59301939913E+02  0.49999992496E+02 0.  0.
        -12    1    1    2    0    0  0.13308732177E+02 -0.56187639181E+01 -0.28425832754E+02  0.31886060087E+02  0.00000000000E+00 0.  1.
         11    1    3    3    0    0  0.61516758513E+00 -0.32205023583E+01  0.12002390669E+02  0.12442164145E+02  0.51100000000E-03 0. -1.
        -11    1    3    3    0    0 -0.25265177039E+02 -0.52147519073E+01  0.10516677935E+02  0.27858989991E+02  0.51100000000E-03 0.  1.
        -12    1    3    3    0    0  0.11341277277E+02  0.14054018184E+02  0.59067641504E+01  0.19000785776E+02  0.00000000000E+00 0.  1.
</event>
<event>
 7    1  0.3755162E-013  0.5930192E+02  0.7816164E-02  0.1266605E+00
        -11   -1    0    0    0    0  0.00000000000E+00  0.00000000000E+00  0.45593999997E+02  0.45594000000E+02  0.51100000000E-03 0. -1.
         11   -1    0    0    0    0 -0.00000000000E+00 -0.00000000000E+00 -0.45593999997E+02  0.45594000000E+02  0.51100000000E-03 0.  1.
    9900012    2    1    2    0    0  0.27582326015E+02  0.11001884622E+01 -0.15960173158E+02  0.59301917609E+02  0.49999951818E+02 0.  0.
        -12    1    1    2    0    0 -0.27582326015E+02 -0.11001884622E+01  0.15960173158E+02  0.31886082391E+02  0.00000000000E+00 0.  1.
         11    1    3    3    0    0  0.19258280009E+02 -0.44830393455E+01  0.86472128537E+01  0.21581317872E+02  0.51100000000E-03 0. -1.
        -11    1    3    3    0    0 -0.23533983942E+01 -0.92361223832E+01 -0.44504557360E+01  0.10519077773E+02  0.51100000000E-03 0.  1.
         12    1    3    3    0    0  0.10677444400E+02  0.14819350191E+02 -0.20156930276E+02  0.27201521964E+02  0.00000000000E+00 0. -1.
</event>
<event>
 7    1  0.3755162E-013  0.5930193E+02  0.7816164E-02  0.1266605E+00
        -11   -1    0    0    0    0  0.00000000000E+00  0.00000000000E+00  0.45593999997E+02  0.45594000000E+02  0.51100000000E-03 0.  1.
         11   -1    0    0    0    0 -0.00000000000E+00 -0.00000000000E+00 -0.45593999997E+02  0.45594000000E+02  0.51100000000E-03 0. -1.
    9900012    2    1    2    0    0 -0.67275872729E+01 -0.16666515986E+02 -0.26337958045E+02  0.59301933770E+02  0.49999981292E+02 0.  0.
        -12    1    1    2    0    0  0.67275872729E+01  0.16666515986E+02  0.26337958045E+02  0.31886066230E+02  0.00000000000E+00 0.  1.
         11    1    3    3    0    0 -0.11586158352E+01  0.10244570762E+02  0.98591756818E+00  0.10356913365E+02  0.51100000000E-03 0. -1.
        -11    1    3    3    0    0 -0.97658982231E+01  0.17175149171E+01 -0.13833129020E+02  0.17019931973E+02  0.51100000000E-03 0.  1.
         12    1    3    3    0    0  0.41969267854E+01 -0.28628601665E+02 -0.13490746593E+02  0.31925088432E+02  0.00000000000E+00 0. -1.
</event>
<event>
 7    1  0.3755162E-013  0.5930197E+02  0.7816164E-02  0.1266605E+00
        -11   -1    0    0    0    0  0.00000000000E+00  0.00000000000E+00  0.45593999997E+02  0.45594000000E+02  0.51100000000E-03 0. -1.
         11   -1    0    0    0    0 -0.00000000000E+00 -0.00000000000E+00 -0.45593999997E+02  0.45594000000E+02  0.51100000000E-03 0.  1.
    9900012    2    1    2    0    0  0.29774017660E+02 -0.25502784183E+01  0.11123067936E+02  0.59301973469E+02  0.50000053693E+02 0.  0.
        -12    1    1    2    0    0 -0.29774017660E+02  0.25502784183E+01 -0.11123067936E+02  0.31886026531E+02  0.00000000000E+00 0.  1.
         11    1    3    3    0    0  0.15392422625E+02  0.53009606723E+01 -0.10085107447E+02  0.19150359025E+02  0.51100000000E-03 0. -1.
        -11    1    3    3    0    0  0.23573528014E+02 -0.34402342574E+01  0.13615671698E+02  0.27439623737E+02  0.51100000000E-03 0.  1.
        -12    1    3    3    0    0 -0.91919329786E+01 -0.44110048332E+01  0.75925036854E+01  0.12711990707E+02  0.00000000000E+00 0.  1.
</event>
<event>
 7    1  0.3755162E-013  0.5930195E+02  0.7816164E-02  0.1266605E+00
        -11   -1    0    0    0    0  0.00000000000E+00  0.00000000000E+00  0.45593999997E+02  0.45594000000E+02  0.51100000000E-03 0. -1.
         11   -1    0    0    0    0 -0.00000000000E+00 -0.00000000000E+00 -0.45593999997E+02  0.45594000000E+02  0.51100000000E-03 0.  1.
    9900012    2    1    2    0    0  0.21429238495E+02 -0.23062527469E+01  0.23498700952E+02  0.59301952728E+02  0.50000015867E+02 0.  0.
        -12    1    1    2    0    0 -0.21429238495E+02  0.23062527469E+01 -0.23498700952E+02  0.31886047272E+02  0.00000000000E+00 0.  1.
         11    1    3    3    0    0  0.11240678561E+02 -0.17638825726E+01 -0.28804060308E+01  0.11737157893E+02  0.51100000000E-03 0. -1.
        -11    1    3    3    0    0  0.18721856934E+02  0.55407612084E+01  0.37464054367E+00  0.19528141684E+02  0.51100000000E-03 0.  1.
         12    1    3    3    0    0 -0.85332970008E+01 -0.60831313827E+01  0.26004466439E+02  0.28036653151E+02  0.00000000000E+00 0. -1.
</event>
<event>
 7    1  0.3755162E-013  0.5930195E+02  0.7816164E-02  0.1266605E+00
        -11   -1    0    0    0    0  0.00000000000E+00  0.00000000000E+00  0.45593999997E+02  0.45594000000E+02  0.51100000000E-03 0. -1.
         11   -1    0    0    0    0 -0.00000000000E+00 -0.00000000000E+00 -0.45593999997E+02  0.45594000000E+02  0.51100000000E-03 0.  1.
    9900012    2    1    2    0    0  0.58013102106E+01  0.30784544980E+02 -0.59478469533E+01  0.59301948297E+02  0.50000007787E+02 0.  0.
        -12    1    1    2    0    0 -0.58013102106E+01 -0.30784544980E+02  0.59478469533E+01  0.31886051703E+02  0.00000000000E+00 0.  1.
         11    1    3    3    0    0  0.72758694572E+01  0.21766563344E+02 -0.99440861096E+01  0.25012125159E+02  0.51100000000E-03 0. -1.
        -11    1    3    3    0    0  0.13721591145E-01 -0.78784868717E+01 -0.96944367713E+01  0.12492111441E+02  0.51100000000E-03 0.  1.
         12    1    3    3    0    0 -0.14882808378E+01  0.16896468508E+02  0.13690675928E+02  0.21797711698E+02  0.00000000000E+00 0. -1.
</event>
<event>
 7    1  0.3755162E-013  0.5930193E+02  0.7816164E-02  0.1266605E+00
        -11   -1    0    0    0    0  0.00000000000E+00  0.00000000000E+00  0.45593999997E+02  0.45594000000E+02  0.51100000000E-03 0. -1.
         11   -1    0    0    0    0 -0.00000000000E+00 -0.00000000000E+00 -0.45593999997E+02  0.45594000000E+02  0.51100000000E-03 0.  1.
    9900012    2    1    2    0    0 -0.86565000567E+01  0.24041540951E+02 -0.19073298641E+02  0.59301930854E+02  0.49999975974E+02 0.  0.
        -12    1    1    2    0    0  0.86565000567E+01 -0.24041540951E+02  0.19073298641E+02  0.31886069146E+02  0.00000000000E+00 0.  1.
         11    1    3    3    0    0  0.51590956603E+01  0.77451338946E+01  0.13000486180E+02  0.15987995755E+02  0.51100000000E-03 0. -1.
        -11    1    3    3    0    0  0.29047199663E+01 -0.24549862951E+01 -0.60161337417E+01  0.71174589041E+01  0.51100000000E-03 0.  1.
        -12    1    3    3    0    0 -0.16720315683E+02  0.18751393351E+02 -0.26057651079E+02  0.36196476195E+02  0.00000000000E+00 0.  1.
</event>
<event>
 7    1  0.3755162E-013  0.5930197E+02  0.7816164E-02  0.1266605E+00
        -11   -1    0    0    0    0  0.00000000000E+00  0.00000000000E+00  0.45593999997E+02  0.45594000000E+02  0.51100000000E-03 0.  1.
         11   -1    0    0    0    0 -0.00000000000E+00 -0.00000000000E+00 -0.45593999997E+02  0.45594000000E+02  0.51100000000E-03 0. -1.
    9900012    2    1    2    0    0  0.91604152646E+01  0.22882857585E+02 -0.20228217265E+02  0.59301966180E+02  0.50000040400E+02 0.  0.
        -12    1    1    2    0    0 -0.91604152646E+01 -0.22882857585E+02  0.20228217265E+02  0.31886033820E+02  0.00000000000E+00 0.  1.
         11    1    3    3    0    0 -0.61295445341E+00 -0.25585505857E+01 -0.55022840412E+01  0.60989363165E+01  0.51100000000E-03 0. -1.
        -11    1    3    3    0    0  0.58462147633E+01 -0.11829067870E+02 -0.78826155810E+00  0.13218412548E+02  0.51100000000E-03 0.  1.
         12    1    3    3    0    0  0.39271549547E+01  0.37270476041E+02 -0.13937671666E+02  0.39984617315E+02  0.00000000000E+00 0. -1.
</event>
<event>
 7    1  0.3755162E-013  0.5930190E+02  0.7816164E-02  0.1266605E+00
        -11   -1    0    0    0    0  0.00000000000E+00  0.00000000000E+00  0.45593999997E+02  0.45594000000E+02  0.51100000000E-03 0.  1.
         11   -1    0    0    0    0 -0.00000000000E+00 -0.00000000000E+00 -0.45593999997E+02  0.45594000000E+02  0.51100000000E-03 0. -1.
    9900012    2    1    2    0    0  0.36817223201E+01  0.12467776628E+02 -0.29115679955E+02  0.59301900324E+02  0.49999920295E+02 0.  0.
        -12    1    1    2    0    0 -0.36817223201E+01 -0.12467776628E+02  0.29115679955E+02  0.31886099676E+02  0.00000000000E+00 0.  1.
         11    1    3    3    0    0  0.62037251325E+00  0.27465210255E+01 -0.23235623585E+02  0.23405607094E+02  0.51100000000E-03 0. -1.
        -11    1    3    3    0    0 -0.10527392773E+02  0.14869353137E+02 -0.10012618765E+02  0.20788847878E+02  0.51100000000E-03 0.  1.
        -12    1    3    3    0    0  0.13588742580E+02 -0.51480975337E+01  0.41325623945E+01  0.15107445352E+02  0.00000000000E+00 0.  1.
</event>
<event>
 7    1  0.3755162E-013  0.5930194E+02  0.7816164E-02  0.1266605E+00
        -11   -1    0    0    0    0  0.00000000000E+00  0.00000000000E+00  0.45593999997E+02  0.45594000000E+02  0.51100000000E-03 0.  1.
         11   -1    0    0    0    0 -0.00000000000E+00 -0.00000000000E+00 -0.45593999997E+02  0.45594000000E+02  0.51100000000E-03 0. -1.
    9900012    2    1    2    0    0 -0.30576538705E+02 -0.13721711495E+01  0.89394203322E+01  0.59301940214E+02  0.49999993044E+02 0.  0.
        -12    1    1    2    0    0  0.30576538705E+02  0.13721711495E+01 -0.89394203322E+01  0.31886059786E+02  0.00000000000E+00 0.  1.
         11    1    3    3    0    0 -0.29414678307E+02 -0.14635634491E+01  0.64135881343E+00  0.29458049143E+02  0.51100000000E-03 0.  1.
        -11    1    3    3    0    0 -0.13197623833E+02  0.45678001652E+01 -0.98220563340E+00  0.14000242903E+02  0.51100000000E-03 0. -1.
        -12    1    3    3    0    0  0.12035763436E+02 -0.44764078655E+01  0.92802671522E+01  0.15843648168E+02  0.00000000000E+00 0.  1.
</event>
<event>
 7    1  0.3755162E-013  0.5930193E+02  0.7816164E-02  0.1266605E+00
        -11   -1    0    0    0    0  0.00000000000E+00  0.00000000000E+00  0.45593999997E+02  0.45594000000E+02  0.51100000000E-03 0.  1.
         11   -1    0    0    0    0 -0.00000000000E+00 -0.00000000000E+00 -0.45593999997E+02  0.45594000000E+02  0.51100000000E-03 0. -1.
    9900012    2    1    2    0    0  0.24662737402E+02  0.12751245905E+02 -0.15680444326E+02  0.59301933725E+02  0.49999981210E+02 0.  0.
        -12    1    1    2    0    0 -0.24662737402E+02 -0.12751245905E+02  0.15680444326E+02  0.31886066275E+02  0.00000000000E+00 0.  1.
         11    1    3    3    0    0  0.20562299238E+02  0.15013344949E+02 -0.16278797790E+02  0.30219330473E+02  0.51100000000E-03 0. -1.
        -11    1    3    3    0    0  0.12716328255E+01 -0.14967688151E+02 -0.35227017991E+01  0.15429133704E+02  0.51100000000E-03 0.  1.
         12    1    3    3    0    0  0.28288053380E+01  0.12705589107E+02  0.41210552631E+01  0.13653469547E+02  0.00000000000E+00 0. -1.
</event>
<event>
 7    1  0.3755162E-013  0.5930189E+02  0.7816164E-02  0.1266605E+00
        -11   -1    0    0    0    0  0.00000000000E+00  0.00000000000E+00  0.45593999997E+02  0.45594000000E+02  0.51100000000E-03 0. -1.
         11   -1    0    0    0    0 -0.00000000000E+00 -0.00000000000E+00 -0.45593999997E+02  0.45594000000E+02  0.51100000000E-03 0.  1.
    9900012    2    1    2    0    0 -0.26314248199E+02 -0.41631291131E+01 -0.17520066870E+02  0.59301889459E+02  0.49999900480E+02 0.  0.
        -12    1    1    2    0    0  0.26314248199E+02  0.41631291131E+01  0.17520066870E+02  0.31886110541E+02  0.00000000000E+00 0.  1.
         11    1    3    3    0    0  0.17554918101E+01 -0.35367433243E+01  0.38434443943E+01  0.55102059771E+01  0.51100000000E-03 0. -1.
        -11    1    3    3    0    0  0.42885155688E+01 -0.79651375230E+01 -0.18370350028E+02  0.20476927063E+02  0.51100000000E-03 0.  1.
         12    1    3    3    0    0 -0.32358255578E+02  0.73387517341E+01 -0.29931612365E+01  0.33314756419E+02  0.00000000000E+00 0. -1.
</event>
<event>
 7    1  0.3755162E-013  0.5930210E+02  0.7816164E-02  0.1266604E+00
        -11   -1    0    0    0    0  0.00000000000E+00  0.00000000000E+00  0.45593999997E+02  0.45594000000E+02  0.51100000000E-03 0.  1.
         11   -1    0    0    0    0 -0.00000000000E+00 -0.00000000000E+00 -0.45593999997E+02  0.45594000000E+02  0.51100000000E-03 0. -1.
    9900012    2    1    2    0    0  0.36455808640E+01  0.16218937263E+02 -0.27209673988E+02  0.59302101168E+02  0.50000286585E+02 0.  0.
        -12    1    1    2    0    0 -0.36455808640E+01 -0.16218937263E+02  0.27209673988E+02  0.31885898832E+02  0.00000000000E+00 0.  1.
         11    1    3    3    0    0 -0.83191160526E+01 -0.49492122948E+01 -0.14928609548E+02  0.17792295455E+02  0.51100000000E-03 0. -1.
        -11    1    3    3    0    0 -0.17895330592E+01 -0.46777272609E+00 -0.15554390690E+02  0.15663981291E+02  0.51100000000E-03 0.  1.
        -12    1    3    3    0    0  0.13754229976E+02  0.21635922284E+02  0.32733262497E+01  0.25845824422E+02  0.00000000000E+00 0.  1.
</event>
<event>
 7    1  0.3755162E-013  0.5930192E+02  0.7816164E-02  0.1266605E+00
        -11   -1    0    0    0    0  0.00000000000E+00  0.00000000000E+00  0.45593999997E+02  0.45594000000E+02  0.51100000000E-03 0. -1.
         11   -1    0    0    0    0 -0.00000000000E+00 -0.00000000000E+00 -0.45593999997E+02  0.45594000000E+02  0.51100000000E-03 0.  1.
    9900012    2    1    2    0    0  0.15308563178E+01 -0.14423919981E+02  0.28395932125E+02  0.59301922318E+02  0.49999960407E+02 0.  0.
        -12    1    1    2    0    0 -0.15308563178E+01  0.14423919981E+02 -0.28395932125E+02  0.31886077682E+02  0.00000000000E+00 0.  1.
         11    1    3    3    0    0  0.10713526965E+02  0.60385963798E+01  0.18852175885E+02  0.22508861414E+02  0.51100000000E-03 0. -1.
        -11    1    3    3    0    0  0.80674570125E+01 -0.11448437809E+02  0.10188228702E+02  0.17319081825E+02  0.51100000000E-03 0.  1.
        -12    1    3    3    0    0 -0.17250127660E+02 -0.90140785521E+01 -0.64447246257E+00  0.19473979079E+02  0.00000000000E+00 0.  1.
</event>
<event>
 7    1  0.3755162E-013  0.5930194E+02  0.7816164E-02  0.1266605E+00
        -11   -1    0    0    0    0  0.00000000000E+00  0.00000000000E+00  0.45593999997E+02  0.45594000000E+02  0.51100000000E-03 0. -1.
         11   -1    0    0    0    0 -0.00000000000E+00 -0.00000000000E+00 -0.45593999997E+02  0.45594000000E+02  0.51100000000E-03 0.  1.
    9900012    2    1    2    0    0  0.22045014618E+01 -0.27539092269E+02  0.15920399496E+02  0.59301944273E+02  0.50000000448E+02 0.  0.
        -12    1    1    2    0    0 -0.22045014618E+01  0.27539092269E+02 -0.15920399496E+02  0.31886055727E+02  0.00000000000E+00 0.  1.
         11    1    3    3    0    0  0.61568558575E+01 -0.79903456015E+01  0.16234470136E+02  0.19113098068E+02  0.51100000000E-03 0. -1.
        -11    1    3    3    0    0  0.14461154380E+02 -0.32671324821E+01 -0.39478840789E+01  0.15342259599E+02  0.51100000000E-03 0.  1.
        -12    1    3    3    0    0 -0.18413508775E+02 -0.16281614185E+02  0.36338134392E+01  0.24846586607E+02  0.00000000000E+00 0.  1.
</event>
<event>
 7    1  0.3755162E-013  0.5930194E+02  0.7816164E-02  0.1266605E+00
        -11   -1    0    0    0    0  0.00000000000E+00  0.00000000000E+00  0.45593999997E+02  0.45594000000E+02  0.51100000000E-03 0.  1.
         11   -1    0    0    0    0 -0.00000000000E+00 -0.00000000000E+00 -0.45593999997E+02  0.45594000000E+02  0.51100000000E-03 0. -1.
    9900012    2    1    2    0    0 -0.23048953805E+02  0.85822681091E+01 -0.20293132516E+02  0.59301939963E+02  0.49999992587E+02 0.  0.
        -12    1    1    2    0    0  0.23048953805E+02 -0.85822681091E+01  0.20293132516E+02  0.31886060037E+02  0.00000000000E+00 0.  1.
         11    1    3    3    0    0 -0.23369694192E+02  0.23698054890E+01  0.40313800366E+00  0.23493001196E+02  0.51100000000E-03 0. -1.
        -11    1    3    3    0    0 -0.45968497928E+01  0.35196587461E+01  0.61131187162E+01  0.84195751915E+01  0.51100000000E-03 0.  1.
         12    1    3    3    0    0  0.49175901804E+01  0.26928038741E+01 -0.26809389236E+02  0.27389363575E+02  0.00000000000E+00 0. -1.
</event>
<event>
 7    1  0.3755162E-013  0.5930194E+02  0.7816164E-02  0.1266605E+00
        -11   -1    0    0    0    0  0.00000000000E+00  0.00000000000E+00  0.45593999997E+02  0.45594000000E+02  0.51100000000E-03 0. -1.
         11   -1    0    0    0    0 -0.00000000000E+00 -0.00000000000E+00 -0.45593999997E+02  0.45594000000E+02  0.51100000000E-03 0.  1.
    9900012    2    1    2    0    0  0.24196124393E+02 -0.20613993159E+02 -0.25162351602E+01  0.59301943658E+02  0.49999999326E+02 0.  0.
        -12    1    1    2    0    0 -0.24196124393E+02  0.20613993159E+02  0.25162351602E+01  0.31886056342E+02  0.00000000000E+00 0.  1.
         11    1    3    3    0    0  0.15091286323E+02 -0.66721186587E+01 -0.15293768218E+01  0.16571152163E+02  0.51100000000E-03 0. -1.
        -11    1    3    3    0    0  0.14267892884E+02 -0.73406118072E+00 -0.16424268027E+02  0.21768513813E+02  0.51100000000E-03 0.  1.
         12    1    3    3    0    0 -0.51630548136E+01 -0.13207813320E+02  0.15437409689E+02  0.20962277682E+02  0.00000000000E+00 0. -1.
</event>
<event>
 7    1  0.3755162E-013  0.5930197E+02  0.7816164E-02  0.1266605E+00
        -11   -1    0    0    0    0  0.00000000000E+00  0.00000000000E+00  0.45593999997E+02  0.45594000000E+02  0.51100000000E-03 0. -1.
         11   -1    0    0    0    0 -0.00000000000E+00 -0.00000000000E+00 -0.45593999997E+02  0.45594000000E+02  0.51100000000E-03 0.  1.
    9900012    2    1    2    0    0 -0.27921311907E+02  0.67536016857E+01  0.13838645136E+02  0.59301970245E+02  0.50000047815E+02 0.  0.
        -12    1    1    2    0    0  0.27921311907E+02 -0.67536016857E+01 -0.13838645136E+02  0.31886029755E+02  0.00000000000E+00 0.  1.
         11    1    3    3    0    0 -0.21567004146E+02 -0.79179353657E+00 -0.74276242722E+00  0.21594311777E+02  0.51100000000E-03 0. -1.
        -11    1    3    3    0    0  0.35939859711E+01  0.12188944400E+02 -0.62490457922E+01  0.14161132523E+02  0.51100000000E-03 0.  1.
        -12    1    3    3    0    0 -0.99482937322E+01 -0.46435491780E+01  0.20830453355E+02  0.23546525946E+02  0.00000000000E+00 0.  1.
</event>
<event>
 7    1  0.3755162E-013  0.5930194E+02  0.7816164E-02  0.1266605E+00
        -11   -1    0    0    0    0  0.00000000000E+00  0.00000000000E+00  0.45593999997E+02  0.45594000000E+02  0.51100000000E-03 0.  1.
         11   -1    0    0    0    0 -0.00000000000E+00 -0.00000000000E+00 -0.45593999997E+02  0.45594000000E+02  0.51100000000E-03 0. -1.
    9900012    2    1    2    0    0 -0.18287113206E+01  0.53923318005E+01 -0.31373541711E+02  0.59301944320E+02  0.50000000532E+02 0.  0.
        -12    1    1    2    0    0  0.18287113206E+01 -0.53923318005E+01  0.31373541711E+02  0.31886055680E+02  0.00000000000E+00 0.  1.
         11    1    3    3    0    0  0.10188094271E+02  0.46715565005E+01 -0.13152850333E+02  0.17280572246E+02  0.51100000000E-03 0. -1.
        -11    1    3    3    0    0  0.42782809749E+01 -0.35382144993E+01  0.86678605183E+01  0.10293418099E+02  0.51100000000E-03 0.  1.
        -12    1    3    3    0    0 -0.16295086566E+02  0.42589897993E+01 -0.26888551897E+02  0.31727953975E+02  0.00000000000E+00 0.  1.
</event>
<event>
 7    1  0.3755162E-013  0.5930194E+02  0.7816164E-02  0.1266605E+00
        -11   -1    0    0    0    0  0.00000000000E+00  0.00000000000E+00  0.45593999997E+02  0.45594000000E+02  0.51100000000E-03 0.  1.
         11   -1    0    0    0    0 -0.00000000000E+00 -0.00000000000E+00 -0.45593999997E+02  0.45594000000E+02  0.51100000000E-03 0. -1.
    9900012    2    1    2    0    0 -0.72079825769E+01  0.67901813922E+01 -0.30309388295E+02  0.59301943565E+02  0.49999999155E+02 0.  0.
        -12    1    1    2    0    0  0.72079825769E+01 -0.67901813922E+01  0.30309388295E+02  0.31886056435E+02  0.00000000000E+00 0.  1.
         11    1    3    3    0    0 -0.80499632000E+01 -0.84924871213E+01  0.40942977312E+01  0.12397077043E+02  0.51100000000E-03 0. -1.
        -11    1    3    3    0    0  0.40166507481E+00 -0.49341488699E+01  0.19377812109E+01  0.53162163411E+01  0.51100000000E-03 0.  1.
         12    1    3    3    0    0  0.44031554828E+00  0.20216817383E+02 -0.36341467237E+02  0.41588650181E+02  0.00000000000E+00 0. -1.
</event>
<event>
 7    1  0.3755162E-013  0.5930198E+02  0.7816164E-02  0.1266605E+00
        -11   -1    0    0    0    0  0.00000000000E+00  0.00000000000E+00  0.45593999997E+02  0.45594000000E+02  0.51100000000E-03 0.  1.
         11   -1    0    0    0    0 -0.00000000000E+00 -0.00000000000E+00 -0.45593999997E+02  0.45594000000E+02  0.51100000000E-03 0. -1.
    9900012    2    1    2    0    0 -0.30886091708E+02 -0.37034152917E+01  0.70037479803E+01  0.59301977489E+02  0.50000061025E+02 0.  0.
        -12    1    1    2    0    0  0.30886091708E+02  0.37034152917E+01 -0.70037479803E+01  0.31886022511E+02  0.00000000000E+00 0.  1.
         11    1    3    3    0    0 -0.13394106003E+02  0.19609486018E+01 -0.82360468527E+01  0.15845499773E+02  0.51100000000E-03 0. -1.
        -11    1    3    3    0    0 -0.18788088341E+02  0.88816944509E+01 -0.19825819468E+01  0.20876000366E+02  0.51100000000E-03 0.  1.
        -12    1    3    3    0    0  0.12961026366E+01 -0.14546058344E+02  0.17222376780E+02  0.22580477350E+02  0.00000000000E+00 0.  1.
</event>
<event>
 7    1  0.3755162E-013  0.5930196E+02  0.7816164E-02  0.1266605E+00
        -11   -1    0    0    0    0  0.00000000000E+00  0.00000000000E+00  0.45593999997E+02  0.45594000000E+02  0.51100000000E-03 0.  1.
         11   -1    0    0    0    0 -0.00000000000E+00 -0.00000000000E+00 -0.45593999997E+02  0.45594000000E+02  0.51100000000E-03 0. -1.
    9900012    2    1    2    0    0  0.18637028215E+02 -0.25313993070E+02  0.53462323688E+01  0.59301964399E+02  0.50000037152E+02 0.  0.
        -12    1    1    2    0    0 -0.18637028215E+02  0.25313993070E+02 -0.53462323688E+01  0.31886035601E+02  0.00000000000E+00 0.  1.
         11    1    3    3    0    0  0.78572961317E+01  0.87191715645E+01 -0.88007224743E+01  0.14670166039E+02  0.51100000000E-03 0. -1.
        -11    1    3    3    0    0  0.13411256414E+02 -0.14723865439E+02 -0.10127531628E+01  0.19941907665E+02  0.51100000000E-03 0.  1.
        -12    1    3    3    0    0 -0.26315243312E+01 -0.19309299195E+02  0.15159708006E+02  0.24689890695E+02  0.00000000000E+00 0.  1.
</event>
<event>
 7    1  0.3755162E-013  0.5930195E+02  0.7816164E-02  0.1266605E+00
        -11   -1    0    0    0    0  0.00000000000E+00  0.00000000000E+00  0.45593999997E+02  0.45594000000E+02  0.51100000000E-03 0. -1.
         11   -1    0    0    0    0 -0.00000000000E+00 -0.00000000000E+00 -0.45593999997E+02  0.45594000000E+02  0.51100000000E-03 0.  1.
    9900012    2    1    2    0    0  0.28640390531E+02  0.13251103335E+01  0.13953215347E+02  0.59301951237E+02  0.50000013149E+02 0.  0.
        -12    1    1    2    0    0 -0.28640390531E+02 -0.13251103335E+01 -0.13953215347E+02  0.31886048763E+02  0.00000000000E+00 0.  1.
         11    1    3    3    0    0 -0.61217508976E+01 -0.51250131917E+01  0.30079283717E+00  0.79894975348E+01  0.51100000000E-03 0. -1.
        -11    1    3    3    0    0  0.14854583045E+02 -0.14162349945E+02  0.84120146477E+01  0.22180910353E+02  0.51100000000E-03 0.  1.
        -12    1    3    3    0    0  0.19907558384E+02  0.20612473470E+02  0.52404078624E+01  0.29131543350E+02  0.00000000000E+00 0.  1.
</event>
<event>
 7    1  0.3755162E-013  0.5930193E+02  0.7816164E-02  0.1266605E+00
        -11   -1    0    0    0    0  0.00000000000E+00  0.00000000000E+00  0.45593999997E+02  0.45594000000E+02  0.51100000000E-03 0.  1.
         11   -1    0    0    0    0 -0.00000000000E+00 -0.00000000000E+00 -0.45593999997E+02  0.45594000000E+02  0.51100000000E-03 0. -1.
    9900012    2    1    2    0    0 -0.25526423054E+02 -0.73966181650E+01 -0.17618540348E+02  0.59301934106E+02  0.49999981905E+02 0.  0.
        -12    1    1    2    0    0  0.25526423054E+02  0.73966181650E+01  0.17618540348E+02  0.31886065894E+02  0.00000000000E+00 0.  1.
         11    1    3    3    0    0 -0.10338706397E+02  0.30763847311E+01 -0.90815060449E+01  0.14100593792E+02  0.51100000000E-03 0. -1.
        -11    1    3    3    0    0 -0.27413794829E+02 -0.15059946455E+02 -0.50256894242E+01  0.31679262754E+02  0.51100000000E-03 0.  1.
        -12    1    3    3    0    0  0.12226078172E+02  0.45869435593E+01 -0.35113448791E+01  0.13522077561E+02  0.00000000000E+00 0.  1.
</event>
<event>
 7    1  0.3755162E-013  0.5930195E+02  0.7816164E-02  0.1266605E+00
        -11   -1    0    0    0    0  0.00000000000E+00  0.00000000000E+00  0.45593999997E+02  0.45594000000E+02  0.51100000000E-03 0.  1.
         11   -1    0    0    0    0 -0.00000000000E+00 -0.00000000000E+00 -0.45593999997E+02  0.45594000000E+02  0.51100000000E-03 0. -1.
    9900012    2    1    2    0    0  0.14772343734E+02 -0.27997307343E+02 -0.38273660217E+01  0.59301951507E+02  0.50000013640E+02 0.  0.
        -12    1    1    2    0    0 -0.14772343734E+02  0.27997307343E+02  0.38273660217E+01  0.31886048493E+02  0.00000000000E+00 0.  1.
         11    1    3    3    0    0 -0.11995446579E+02 -0.33791237342E+01 -0.53430537669E+01  0.13559404104E+02  0.51100000000E-03 0. -1.
        -11    1    3    3    0    0 -0.29596542102E+00 -0.82018434109E+01  0.10033925497E+02  0.12962927602E+02  0.51100000000E-03 0.  1.
         12    1    3    3    0    0  0.27063755734E+02 -0.16416340198E+02 -0.85182377517E+01  0.32779619801E+02  0.00000000000E+00 0. -1.
</event>
<event>
 7    1  0.3755162E-013  0.5930195E+02  0.7816164E-02  0.1266605E+00
        -11   -1    0    0    0    0  0.00000000000E+00  0.00000000000E+00  0.45593999997E+02  0.45594000000E+02  0.51100000000E-03 0.  1.
         11   -1    0    0    0    0 -0.00000000000E+00 -0.00000000000E+00 -0.45593999997E+02  0.45594000000E+02  0.51100000000E-03 0. -1.
    9900012    2    1    2    0    0  0.42648709669E+01 -0.20959511921E+02 -0.23648039638E+02  0.59301952220E+02  0.50000014941E+02 0.  0.
        -12    1    1    2    0    0 -0.42648709669E+01  0.20959511921E+02  0.23648039638E+02  0.31886047780E+02  0.00000000000E+00 0.  1.
         11    1    3    3    0    0 -0.28068519627E+01 -0.10297602823E+02  0.90239417504E+01  0.13976786713E+02  0.51100000000E-03 0. -1.
        -11    1    3    3    0    0  0.44326509276E+01  0.53047205787E+01  0.18860266939E+01  0.71655810382E+01  0.51100000000E-03 0.  1.
         12    1    3    3    0    0  0.26390720020E+01 -0.15966629676E+02 -0.34558008082E+02  0.38159584469E+02  0.00000000000E+00 0. -1.
</event>
<event>
 7    1  0.3755162E-013  0.5930191E+02  0.7816164E-02  0.1266605E+00
        -11   -1    0    0    0    0  0.00000000000E+00  0.00000000000E+00  0.45593999997E+02  0.45594000000E+02  0.51100000000E-03 0. -1.
         11   -1    0    0    0    0 -0.00000000000E+00 -0.00000000000E+00 -0.45593999997E+02  0.45594000000E+02  0.51100000000E-03 0.  1.
    9900012    2    1    2    0    0 -0.16553522388E+02 -0.20021936074E+01  0.27178938331E+02  0.59301912572E+02  0.49999942632E+02 0.  0.
        -12    1    1    2    0    0  0.16553522388E+02  0.20021936074E+01 -0.27178938331E+02  0.31886087428E+02  0.00000000000E+00 0.  1.
         11    1    3    3    0    0 -0.60658783545E+01 -0.29021929098E+01  0.19051682656E+02  0.20203569392E+02  0.51100000000E-03 0. -1.
        -11    1    3    3    0    0 -0.21933778352E+02  0.48078657428E+01  0.13127850522E+02  0.26010510671E+02  0.51100000000E-03 0.  1.
         12    1    3    3    0    0  0.11446134318E+02 -0.39078664404E+01 -0.50005948469E+01  0.13087832508E+02  0.00000000000E+00 0. -1.
</event>
<event>
 7    1  0.3755162E-013  0.5930195E+02  0.7816164E-02  0.1266605E+00
        -11   -1    0    0    0    0  0.00000000000E+00  0.00000000000E+00  0.45593999997E+02  0.45594000000E+02  0.51100000000E-03 0.  1.
         11   -1    0    0    0    0 -0.00000000000E+00 -0.00000000000E+00 -0.45593999997E+02  0.45594000000E+02  0.51100000000E-03 0. -1.
    9900012    2    1    2    0    0 -0.12938462410E+02  0.34596941031E+01 -0.28936944810E+02  0.59301951833E+02  0.50000014234E+02 0.  0.
        -12    1    1    2    0    0  0.12938462410E+02 -0.34596941031E+01  0.28936944810E+02  0.31886048167E+02  0.00000000000E+00 0.  1.
         11    1    3    3    0    0 -0.63385384778E+01  0.14662606015E+02 -0.34544384279E+02  0.38058948628E+02  0.51100000000E-03 0. -1.
        -11    1    3    3    0    0 -0.10485172600E+02 -0.48795225308E+01  0.72395618977E+01  0.13644040506E+02  0.51100000000E-03 0.  1.
        -12    1    3    3    0    0  0.38852486684E+01 -0.63233893811E+01 -0.16321224284E+01  0.75989626991E+01  0.00000000000E+00 0.  1.
</event>
<event>
 7    1  0.3755162E-013  0.5930187E+02  0.7816164E-02  0.1266605E+00
        -11   -1    0    0    0    0  0.00000000000E+00  0.00000000000E+00  0.45593999997E+02  0.45594000000E+02  0.51100000000E-03 0. -1.
         11   -1    0    0    0    0 -0.00000000000E+00 -0.00000000000E+00 -0.45593999997E+02  0.45594000000E+02  0.51100000000E-03 0.  1.
    9900012    2    1    2    0    0 -0.67183281188E+01 -0.20599669203E+02  0.23393222361E+02  0.59301872038E+02  0.49999868707E+02 0.  0.
        -12    1    1    2    0    0  0.67183281188E+01  0.20599669203E+02 -0.23393222361E+02  0.31886127962E+02  0.00000000000E+00 0.  1.
         11    1    3    3    0    0  0.70930744520E+01  0.32504210355E+00 -0.56108204205E+01  0.90497880418E+01  0.51100000000E-03 0. -1.
        -11    1    3    3    0    0  0.50058843666E+00 -0.11439959587E+02 -0.47383692558E+01  0.12392554523E+02  0.51100000000E-03 0.  1.
         12    1    3    3    0    0 -0.14311991007E+02 -0.94847517193E+01  0.33742412038E+02  0.37859529473E+02  0.00000000000E+00 0. -1.
</event>
<event>
 7    1  0.3755162E-013  0.5930191E+02  0.7816164E-02  0.1266605E+00
        -11   -1    0    0    0    0  0.00000000000E+00  0.00000000000E+00  0.45593999997E+02  0.45594000000E+02  0.51100000000E-03 0.  1.
         11   -1    0    0    0    0 -0.00000000000E+00 -0.00000000000E+00 -0.45593999997E+02  0.45594000000E+02  0.51100000000E-03 0. -1.
    9900012    2    1    2    0    0 -0.42555671979E+01  0.28076505091E+02 -0.14502505864E+02  0.59301911080E+02  0.49999939911E+02 0.  0.
        -12    1    1    2    0    0  0.42555671979E+01 -0.28076505091E+02  0.14502505864E+02  0.31886088920E+02  0.00000000000E+00 0.  1.
         11    1    3    3    0    0 -0.16161542389E+02 -0.40620158786E+01 -0.10081827056E+02  0.19476618352E+02  0.51100000000E-03 0. -1.
        -11    1    3    3    0    0  0.58477601161E+01  0.19682884519E+02 -0.12255076566E+02  0.23912321997E+02  0.51100000000E-03 0.  1.
        -12    1    3    3    0    0  0.60582150751E+01  0.12455636450E+02  0.78343977577E+01  0.15912970732E+02  0.00000000000E+00 0.  1.
</event>
<event>
 7    1  0.3755162E-013  0.5930195E+02  0.7816164E-02  0.1266605E+00
        -11   -1    0    0    0    0  0.00000000000E+00  0.00000000000E+00  0.45593999997E+02  0.45594000000E+02  0.51100000000E-03 0. -1.
         11   -1    0    0    0    0 -0.00000000000E+00 -0.00000000000E+00 -0.45593999997E+02  0.45594000000E+02  0.51100000000E-03 0.  1.
    9900012    2    1    2    0    0  0.10503265785E+02  0.14228778155E+02  0.26531933048E+02  0.59301949896E+02  0.50000010703E+02 0.  0.
        -12    1    1    2    0    0 -0.10503265785E+02 -0.14228778155E+02 -0.26531933048E+02  0.31886050104E+02  0.00000000000E+00 0.  1.
         11    1    3    3    0    0  0.12555343954E+02  0.13900474083E+02  0.16634602788E+02  0.25051344309E+02  0.51100000000E-03 0. -1.
        -11    1    3    3    0    0  0.12448016090E+02 -0.14248316543E+00  0.14423857271E+02  0.19053111685E+02  0.51100000000E-03 0.  1.
        -12    1    3    3    0    0 -0.14500094259E+02  0.47078723723E+00 -0.45265270105E+01  0.15197493903E+02  0.00000000000E+00 0.  1.
</event>
<event>
 7    1  0.3755162E-013  0.5930197E+02  0.7816164E-02  0.1266605E+00
        -11   -1    0    0    0    0  0.00000000000E+00  0.00000000000E+00  0.45593999997E+02  0.45594000000E+02  0.51100000000E-03 0. -1.
         11   -1    0    0    0    0 -0.00000000000E+00 -0.00000000000E+00 -0.45593999997E+02  0.45594000000E+02  0.51100000000E-03 0.  1.
    9900012    2    1    2    0    0  0.10608837503E+02  0.30047080396E+02  0.11596331866E+01  0.59301965085E+02  0.50000038403E+02 0.  0.
        -12    1    1    2    0    0 -0.10608837503E+02 -0.30047080396E+02 -0.11596331866E+01  0.31886034915E+02  0.00000000000E+00 0.  1.
         11    1    3    3    0    0  0.27065042496E+01 -0.10999094223E+01 -0.77245141393E+01  0.82585159042E+01  0.51100000000E-03 0. -1.
        -11    1    3    3    0    0 -0.21415985522E+01 -0.87154213954E+01 -0.53138843218E-01  0.89748447594E+01  0.51100000000E-03 0.  1.
         12    1    3    3    0    0  0.10043931805E+02  0.39862411214E+02  0.89372861691E+01  0.42068604421E+02  0.00000000000E+00 0. -1.
</event>
<event>
 7    1  0.3755162E-013  0.5930194E+02  0.7816164E-02  0.1266605E+00
        -11   -1    0    0    0    0  0.00000000000E+00  0.00000000000E+00  0.45593999997E+02  0.45594000000E+02  0.51100000000E-03 0.  1.
         11   -1    0    0    0    0 -0.00000000000E+00 -0.00000000000E+00 -0.45593999997E+02  0.45594000000E+02  0.51100000000E-03 0. -1.
    9900012    2    1    2    0    0 -0.23161051992E+02  0.74433520161E+00 -0.21902801530E+02  0.59301935973E+02  0.49999985310E+02 0.  0.
        -12    1    1    2    0    0  0.23161051992E+02 -0.74433520161E+00  0.21902801530E+02  0.31886064027E+02  0.00000000000E+00 0.  1.
         11    1    3    3    0    0 -0.97165294344E+00 -0.34507205004E+00 -0.29583609895E+02  0.29601573587E+02  0.51100000000E-03 0. -1.
        -11    1    3    3    0    0 -0.38119804762E+01 -0.11923558099E+01 -0.56239098009E+01  0.68979177465E+01  0.51100000000E-03 0.  1.
        -12    1    3    3    0    0 -0.18377418573E+02  0.22817630615E+01  0.13304718166E+02  0.22802444639E+02  0.00000000000E+00 0.  1.
</event>
<event>
 7    1  0.3755162E-013  0.5930194E+02  0.7816164E-02  0.1266605E+00
        -11   -1    0    0    0    0  0.00000000000E+00  0.00000000000E+00  0.45593999997E+02  0.45594000000E+02  0.51100000000E-03 0.  1.
         11   -1    0    0    0    0 -0.00000000000E+00 -0.00000000000E+00 -0.45593999997E+02  0.45594000000E+02  0.51100000000E-03 0. -1.
    9900012    2    1    2    0    0 -0.28686202006E+01  0.24213436737E+02 -0.20547544113E+02  0.59301936124E+02  0.49999985585E+02 0.  0.
        -12    1    1    2    0    0  0.28686202006E+01 -0.24213436737E+02  0.20547544113E+02  0.31886063876E+02  0.00000000000E+00 0.  1.
         11    1    3    3    0    0  0.16389895763E+01 -0.66744045771E+00  0.10854671373E+02  0.10997984109E+02  0.51100000000E-03 0. -1.
        -11    1    3    3    0    0 -0.24336875461E+01 -0.44295642896E+01  0.31960460172E+00  0.50641901850E+01  0.51100000000E-03 0.  1.
         12    1    3    3    0    0 -0.20739222308E+01  0.29310441484E+02 -0.31721820087E+02  0.43239761829E+02  0.00000000000E+00 0. -1.
</event>
<event>
 7    1  0.3755162E-013  0.5930192E+02  0.7816164E-02  0.1266605E+00
        -11   -1    0    0    0    0  0.00000000000E+00  0.00000000000E+00  0.45593999997E+02  0.45594000000E+02  0.51100000000E-03 0. -1.
         11   -1    0    0    0    0 -0.00000000000E+00 -0.00000000000E+00 -0.45593999997E+02  0.45594000000E+02  0.51100000000E-03 0.  1.
    9900012    2    1    2    0    0  0.12008339663E+02 -0.11371030011E+02  0.27262095761E+02  0.59301915100E+02  0.49999947243E+02 0.  0.
        -12    1    1    2    0    0 -0.12008339663E+02  0.11371030011E+02 -0.27262095761E+02  0.31886084900E+02  0.00000000000E+00 0.  1.
         11    1    3    3    0    0  0.13184600497E+02 -0.10429373241E+02  0.15746727319E+02  0.23033995268E+02  0.51100000000E-03 0. -1.
        -11    1    3    3    0    0  0.15664559823E+01  0.11163099554E+01 -0.12177362732E+02  0.12328345211E+02  0.51100000000E-03 0.  1.
         12    1    3    3    0    0 -0.27427168167E+01 -0.20579667247E+01  0.23692731174E+02  0.23939574622E+02  0.00000000000E+00 0. -1.
</event>
<event>
 7    1  0.3755162E-013  0.5930195E+02  0.7816164E-02  0.1266605E+00
        -11   -1    0    0    0    0  0.00000000000E+00  0.00000000000E+00  0.45593999997E+02  0.45594000000E+02  0.51100000000E-03 0. -1.
         11   -1    0    0    0    0 -0.00000000000E+00 -0.00000000000E+00 -0.45593999997E+02  0.45594000000E+02  0.51100000000E-03 0.  1.
    9900012    2    1    2    0    0  0.31307433489E+02  0.29805220991E+01  0.52612795680E+01  0.59301953422E+02  0.50000017133E+02 0.  0.
        -12    1    1    2    0    0 -0.31307433489E+02 -0.29805220991E+01 -0.52612795680E+01  0.31886046578E+02  0.00000000000E+00 0.  1.
         11    1    3    3    0    0  0.15515790404E+02  0.38186177497E+01  0.11598441458E+02  0.19744503992E+02  0.51100000000E-03 0. -1.
        -11    1    3    3    0    0  0.11575796657E+02  0.22295889919E+01 -0.20951843736E+02  0.24040588419E+02  0.51100000000E-03 0.  1.
         12    1    3    3    0    0  0.42158464279E+01 -0.30676846425E+01  0.14614681846E+02  0.15516861011E+02  0.00000000000E+00 0. -1.
</event>
<event>
 7    1  0.3755162E-013  0.5930194E+02  0.7816164E-02  0.1266605E+00
        -11   -1    0    0    0    0  0.00000000000E+00  0.00000000000E+00  0.45593999997E+02  0.45594000000E+02  0.51100000000E-03 0. -1.
         11   -1    0    0    0    0 -0.00000000000E+00 -0.00000000000E+00 -0.45593999997E+02  0.45594000000E+02  0.51100000000E-03 0.  1.
    9900012    2    1    2    0    0 -0.27460437880E+02  0.10170839610E+02 -0.12617406465E+02  0.59301943912E+02  0.49999999788E+02 0.  0.
        -12    1    1    2    0    0  0.27460437880E+02 -0.10170839610E+02  0.12617406465E+02  0.31886056088E+02  0.00000000000E+00 0.  1.
         11    1    3    3    0    0  0.54990008616E+01  0.61307984643E+01  0.46767809634E+01  0.94709017906E+01  0.51100000000E-03 0. -1.
        -11    1    3    3    0    0 -0.73328104818E+01  0.16262710932E+02 -0.10263874153E+02  0.20581374816E+02  0.51100000000E-03 0.  1.
        -12    1    3    3    0    0 -0.25626628260E+02 -0.12222669787E+02 -0.70303132756E+01  0.29249667305E+02  0.00000000000E+00 0.  1.
</event>
<event>
 7    1  0.3755162E-013  0.5930192E+02  0.7816164E-02  0.1266605E+00
        -11   -1    0    0    0    0  0.00000000000E+00  0.00000000000E+00  0.45593999997E+02  0.45594000000E+02  0.51100000000E-03 0. -1.
         11   -1    0    0    0    0 -0.00000000000E+00 -0.00000000000E+00 -0.45593999997E+02  0.45594000000E+02  0.51100000000E-03 0.  1.
    9900012    2    1    2    0    0 -0.18089394202E+02  0.74151850070E+01  0.25189498231E+02  0.59301921966E+02  0.49999959764E+02 0.  0.
        -12    1    1    2    0    0  0.18089394202E+02 -0.74151850070E+01 -0.25189498231E+02  0.31886078034E+02  0.00000000000E+00 0.  1.
         11    1    3    3    0    0 -0.66435280567E+01  0.70254585196E+01  0.23922212376E+02  0.25802437436E+02  0.51100000000E-03 0. -1.
        -11    1    3    3    0    0 -0.73023553991E+01  0.84759192998E+01  0.13960001860E+02  0.17889864576E+02  0.51100000000E-03 0.  1.
        -12    1    3    3    0    0 -0.41435107462E+01 -0.80861928124E+01 -0.12692716005E+02  0.15609619953E+02  0.00000000000E+00 0.  1.
</event>
<event>
 7    1  0.3755162E-013  0.5930194E+02  0.7816164E-02  0.1266605E+00
        -11   -1    0    0    0    0  0.00000000000E+00  0.00000000000E+00  0.45593999997E+02  0.45594000000E+02  0.51100000000E-03 0.  1.
         11   -1    0    0    0    0 -0.00000000000E+00 -0.00000000000E+00 -0.45593999997E+02  0.45594000000E+02  0.51100000000E-03 0. -1.
    9900012    2    1    2    0    0  0.28792764845E+02  0.40995846780E+01 -0.13072514214E+02  0.59301944586E+02  0.50000001019E+02 0.  0.
        -12    1    1    2    0    0 -0.28792764845E+02 -0.40995846780E+01  0.13072514214E+02  0.31886055414E+02  0.00000000000E+00 0.  1.
         11    1    3    3    0    0  0.30152671332E+02 -0.26709117896E+00  0.42688382716E+01  0.30454521940E+02  0.51100000000E-03 0. -1.
        -11    1    3    3    0    0  0.96703656567E+01  0.66522319410E+01 -0.78877333714E+01  0.14141587596E+02  0.51100000000E-03 0.  1.
        -12    1    3    3    0    0 -0.11030272143E+02 -0.22855560840E+01 -0.94536191146E+01  0.14705835051E+02  0.00000000000E+00 0.  1.
</event>
<event>
 7    1  0.3755162E-013  0.5930194E+02  0.7816164E-02  0.1266605E+00
        -11   -1    0    0    0    0  0.00000000000E+00  0.00000000000E+00  0.45593999997E+02  0.45594000000E+02  0.51100000000E-03 0.  1.
         11   -1    0    0    0    0 -0.00000000000E+00 -0.00000000000E+00 -0.45593999997E+02  0.45594000000E+02  0.51100000000E-03 0. -1.
    9900012    2    1    2    0    0 -0.11085656401E+01  0.14681969239E+02 -0.28283068609E+02  0.59301935513E+02  0.49999984472E+02 0.  0.
        -12    1    1    2    0    0  0.11085656401E+01 -0.14681969239E+02  0.28283068609E+02  0.31886064487E+02  0.00000000000E+00 0.  1.
         11    1    3    3    0    0  0.47834495132E+01  0.11681878383E+02 -0.23884680496E+02  0.27015285200E+02  0.51100000000E-03 0. -1.
        -11    1    3    3    0    0 -0.71384644076E+01  0.13107326009E+02 -0.12345211842E+02  0.19369148791E+02  0.51100000000E-03 0.  1.
        -12    1    3    3    0    0  0.12464492543E+01 -0.10107235153E+02  0.79468237289E+01  0.12917501522E+02  0.00000000000E+00 0.  1.
</event>
<event>
 7    1  0.3755162E-013  0.5930190E+02  0.7816164E-02  0.1266605E+00
        -11   -1    0    0    0    0  0.00000000000E+00  0.00000000000E+00  0.45593999997E+02  0.45594000000E+02  0.51100000000E-03 0.  1.
         11   -1    0    0    0    0 -0.00000000000E+00 -0.00000000000E+00 -0.45593999997E+02  0.45594000000E+02  0.51100000000E-03 0. -1.
    9900012    2    1    2    0    0  0.31099754230E+02  0.70052032586E+01  0.67498063086E+00  0.59301902956E+02  0.49999925095E+02 0.  0.
        -12    1    1    2    0    0 -0.31099754230E+02 -0.70052032586E+01 -0.67498063086E+00  0.31886097044E+02  0.00000000000E+00 0.  1.
         11    1    3    3    0    0  0.16954564463E+02 -0.12964148176E+02 -0.16156348974E+02  0.26768526416E+02  0.51100000000E-03 0. -1.
        -11    1    3    3    0    0  0.56072043445E+01  0.36056706219E+01 -0.11504035725E+01  0.67649855754E+01  0.51100000000E-03 0.  1.
        -12    1    3    3    0    0  0.85379854223E+01  0.16363680813E+02  0.17981733177E+02  0.25768390964E+02  0.00000000000E+00 0.  1.
</event>
<event>
 7    1  0.3755162E-013  0.5930196E+02  0.7816164E-02  0.1266605E+00
        -11   -1    0    0    0    0  0.00000000000E+00  0.00000000000E+00  0.45593999997E+02  0.45594000000E+02  0.51100000000E-03 0. -1.
         11   -1    0    0    0    0 -0.00000000000E+00 -0.00000000000E+00 -0.45593999997E+02  0.45594000000E+02  0.51100000000E-03 0.  1.
    9900012    2    1    2    0    0 -0.19711029499E+02 -0.23438305225E+02  0.88792459213E+01  0.59301955343E+02  0.50000020636E+02 0.  0.
        -12    1    1    2    0    0  0.19711029499E+02  0.23438305225E+02 -0.88792459213E+01  0.31886044657E+02  0.00000000000E+00 0.  1.
         11    1    3    3    0    0  0.84163820701E+01 -0.65724125028E+01  0.51498153445E+00  0.10690991512E+02  0.51100000000E-03 0. -1.
        -11    1    3    3    0    0  0.64667333088E+01 -0.31073615572E+01  0.88312916283E+01  0.11378314797E+02  0.51100000000E-03 0.  1.
        -12    1    3    3    0    0 -0.34594144878E+02 -0.13758531165E+02 -0.46702724147E+00  0.37232649034E+02  0.00000000000E+00 0.  1.
</event>
<event>
 7    1  0.3755162E-013  0.5930197E+02  0.7816164E-02  0.1266605E+00
        -11   -1    0    0    0    0  0.00000000000E+00  0.00000000000E+00  0.45593999997E+02  0.45594000000E+02  0.51100000000E-03 0.  1.
         11   -1    0    0    0    0 -0.00000000000E+00 -0.00000000000E+00 -0.45593999997E+02  0.45594000000E+02  0.51100000000E-03 0. -1.
    9900012    2    1    2    0    0 -0.25395393440E+02 -0.15043601023E+02 -0.12061633365E+02  0.59301969530E+02  0.50000046509E+02 0.  0.
        -12    1    1    2    0    0  0.25395393440E+02  0.15043601023E+02  0.12061633365E+02  0.31886030470E+02  0.00000000000E+00 0.  1.
         11    1    3    3    0    0 -0.21142547380E+02 -0.12012619102E+02 -0.78141544695E+01  0.25541560989E+02  0.51100000000E-03 0. -1.
        -11    1    3    3    0    0 -0.14469226151E+02  0.83904913535E+01 -0.71046028332E+01  0.18172348011E+02  0.51100000000E-03 0.  1.
        -12    1    3    3    0    0  0.10216380090E+02 -0.11421473274E+02  0.28571239375E+01  0.15588060530E+02  0.00000000000E+00 0.  1.
</event>
<event>
 7    1  0.3755162E-013  0.5930195E+02  0.7816164E-02  0.1266605E+00
        -11   -1    0    0    0    0  0.00000000000E+00  0.00000000000E+00  0.45593999997E+02  0.45594000000E+02  0.51100000000E-03 0.  1.
         11   -1    0    0    0    0 -0.00000000000E+00 -0.00000000000E+00 -0.45593999997E+02  0.45594000000E+02  0.51100000000E-03 0. -1.
    9900012    2    1    2    0    0  0.12013908011E+02 -0.28393272576E+02  0.81368394895E+01  0.59301951795E+02  0.50000014166E+02 0.  0.
        -12    1    1    2    0    0 -0.12013908011E+02  0.28393272576E+02 -0.81368394895E+01  0.31886048205E+02  0.00000000000E+00 0.  1.
         11    1    3    3    0    0  0.85692130621E+01 -0.32174796978E+01  0.55952408530E+01  0.10728015127E+02  0.51100000000E-03 0. -1.
        -11    1    3    3    0    0  0.12222139892E+02  0.61306813152E+01  0.76396361253E+01  0.15663013673E+02  0.51100000000E-03 0.  1.
         12    1    3    3    0    0 -0.87774449433E+01 -0.31306474193E+02 -0.50980374887E+01  0.32910922995E+02  0.00000000000E+00 0. -1.
</event>
<event>
 7    1  0.3755162E-013  0.5930190E+02  0.7816164E-02  0.1266605E+00
        -11   -1    0    0    0    0  0.00000000000E+00  0.00000000000E+00  0.45593999997E+02  0.45594000000E+02  0.51100000000E-03 0. -1.
         11   -1    0    0    0    0 -0.00000000000E+00 -0.00000000000E+00 -0.45593999997E+02  0.45594000000E+02  0.51100000000E-03 0.  1.
    9900012    2    1    2    0    0  0.20519497095E+02  0.11807203527E+02  0.21360324605E+02  0.59301901409E+02  0.49999922273E+02 0.  0.
        -12    1    1    2    0    0 -0.20519497095E+02 -0.11807203527E+02 -0.21360324605E+02  0.31886098591E+02  0.00000000000E+00 0.  1.
         11    1    3    3    0    0  0.21119079638E+02 -0.28119753213E+01  0.17121065117E+01  0.21374144168E+02  0.51100000000E-03 0. -1.
        -11    1    3    3    0    0 -0.83812780313E-01 -0.48649708473E+01 -0.46824332215E+01  0.67527880955E+01  0.51100000000E-03 0.  1.
         12    1    3    3    0    0 -0.51576976265E+00  0.19484149696E+02  0.24330651315E+02  0.31174969145E+02  0.00000000000E+00 0. -1.
</event>
<event>
 7    1  0.3755162E-013  0.5930194E+02  0.7816164E-02  0.1266605E+00
        -11   -1    0    0    0    0  0.00000000000E+00  0.00000000000E+00  0.45593999997E+02  0.45594000000E+02  0.51100000000E-03 0. -1.
         11   -1    0    0    0    0 -0.00000000000E+00 -0.00000000000E+00 -0.45593999997E+02  0.45594000000E+02  0.51100000000E-03 0.  1.
    9900012    2    1    2    0    0  0.82799523274E+01 -0.29419373822E+02 -0.90919455558E+01  0.59301942849E+02  0.49999997851E+02 0.  0.
        -12    1    1    2    0    0 -0.82799523274E+01  0.29419373822E+02  0.90919455558E+01  0.31886057151E+02  0.00000000000E+00 0.  1.
         11    1    3    3    0    0  0.12830958386E+02  0.23432844192E+01  0.70472016987E+00  0.13062201413E+02  0.51100000000E-03 0. -1.
        -11    1    3    3    0    0 -0.53289221759E+01 -0.40166920204E+01 -0.16402189382E+02  0.17707711403E+02  0.51100000000E-03 0.  1.
         12    1    3    3    0    0  0.77791611693E+00 -0.27745966221E+02  0.66055236563E+01  0.28532030033E+02  0.00000000000E+00 0. -1.
</event>
<event>
 7    1  0.3755162E-013  0.5930193E+02  0.7816164E-02  0.1266605E+00
        -11   -1    0    0    0    0  0.00000000000E+00  0.00000000000E+00  0.45593999997E+02  0.45594000000E+02  0.51100000000E-03 0.  1.
         11   -1    0    0    0    0 -0.00000000000E+00 -0.00000000000E+00 -0.45593999997E+02  0.45594000000E+02  0.51100000000E-03 0. -1.
    9900012    2    1    2    0    0  0.78231143064E+01  0.28495362092E+02 -0.11980598441E+02  0.59301929104E+02  0.49999972782E+02 0.  0.
        -12    1    1    2    0    0 -0.78231143064E+01 -0.28495362092E+02  0.11980598441E+02  0.31886070896E+02  0.00000000000E+00 0.  1.
         11    1    3    3    0    0 -0.61601140922E+01  0.81835947540E+01  0.17082014319E+01  0.10384420115E+02  0.51100000000E-03 0. -1.
        -11    1    3    3    0    0  0.79395820295E+01  0.98774921665E+01  0.13899270811E+02  0.18809347241E+02  0.51100000000E-03 0.  1.
        -12    1    3    3    0    0  0.60436463691E+01  0.10434275171E+02 -0.27588070684E+02  0.30108161748E+02  0.00000000000E+00 0.  1.
</event>
<event>
 7    1  0.3755162E-013  0.5930191E+02  0.7816164E-02  0.1266605E+00
        -11   -1    0    0    0    0  0.00000000000E+00  0.00000000000E+00  0.45593999997E+02  0.45594000000E+02  0.51100000000E-03 0. -1.
         11   -1    0    0    0    0 -0.00000000000E+00 -0.00000000000E+00 -0.45593999997E+02  0.45594000000E+02  0.51100000000E-03 0.  1.
    9900012    2    1    2    0    0  0.32361188001E+01  0.23018982128E+02  0.21826055540E+02  0.59301910502E+02  0.49999938856E+02 0.  0.
        -12    1    1    2    0    0 -0.32361188001E+01 -0.23018982128E+02 -0.21826055540E+02  0.31886089498E+02  0.00000000000E+00 0.  1.
         11    1    3    3    0    0  0.10099031305E+02  0.26380484373E+02  0.17131142298E+02  0.33036289528E+02  0.51100000000E-03 0. -1.
        -11    1    3    3    0    0  0.62775023563E+01 -0.18150137482E+01 -0.62890825442E+01  0.90693919448E+01  0.51100000000E-03 0.  1.
        -12    1    3    3    0    0 -0.13140414861E+02 -0.15464884976E+01  0.10983995786E+02  0.17196229029E+02  0.00000000000E+00 0.  1.
</event>
<event>
 7    1  0.3755162E-013  0.5930196E+02  0.7816164E-02  0.1266605E+00
        -11   -1    0    0    0    0  0.00000000000E+00  0.00000000000E+00  0.45593999997E+02  0.45594000000E+02  0.51100000000E-03 0.  1.
         11   -1    0    0    0    0 -0.00000000000E+00 -0.00000000000E+00 -0.45593999997E+02  0.45594000000E+02  0.51100000000E-03 0. -1.
    9900012    2    1    2    0    0 -0.17445502070E+02  0.14208732498E+01 -0.26652492250E+02  0.59301956557E+02  0.50000022851E+02 0.  0.
        -12    1    1    2    0    0  0.17445502070E+02 -0.14208732498E+01  0.26652492250E+02  0.31886043443E+02  0.00000000000E+00 0.  1.
         11    1    3    3    0    0  0.56184413131E+01  0.27332672724E+01 -0.64370967538E+01  0.89707216906E+01  0.51100000000E-03 0. -1.
        -11    1    3    3    0    0  0.79541414948E+01 -0.41084805578E+01  0.50046392180E+01  0.10256431805E+02  0.51100000000E-03 0.  1.
        -12    1    3    3    0    0 -0.31018084878E+02  0.27960865352E+01 -0.25220034714E+02  0.40074803061E+02  0.00000000000E+00 0.  1.
</event>
<event>
 7    1  0.3755162E-013  0.5930196E+02  0.7816164E-02  0.1266605E+00
        -11   -1    0    0    0    0  0.00000000000E+00  0.00000000000E+00  0.45593999997E+02  0.45594000000E+02  0.51100000000E-03 0.  1.
         11   -1    0    0    0    0 -0.00000000000E+00 -0.00000000000E+00 -0.45593999997E+02  0.45594000000E+02  0.51100000000E-03 0. -1.
    9900012    2    1    2    0    0  0.36445928219E+01 -0.23140640438E+02 -0.21632092934E+02  0.59301956950E+02  0.50000023567E+02 0.  0.
        -12    1    1    2    0    0 -0.36445928219E+01  0.23140640438E+02  0.21632092934E+02  0.31886043050E+02  0.00000000000E+00 0.  1.
         11    1    3    3    0    0 -0.87102296657E+01  0.91725811911E+01 -0.99496363577E+01  0.16093464837E+02  0.51100000000E-03 0. -1.
        -11    1    3    3    0    0  0.19279489590E+01 -0.10341515671E+02 -0.15354585560E+02  0.18612555750E+02  0.51100000000E-03 0.  1.
        -12    1    3    3    0    0  0.10426873529E+02 -0.21971705958E+02  0.36721289844E+01  0.24595936363E+02  0.00000000000E+00 0.  1.
</event>
<event>
 7    1  0.3755162E-013  0.5930200E+02  0.7816164E-02  0.1266605E+00
        -11   -1    0    0    0    0  0.00000000000E+00  0.00000000000E+00  0.45593999997E+02  0.45594000000E+02  0.51100000000E-03 0.  1.
         11   -1    0    0    0    0 -0.00000000000E+00 -0.00000000000E+00 -0.45593999997E+02  0.45594000000E+02  0.51100000000E-03 0. -1.
    9900012    2    1    2    0    0  0.54440453401E+01  0.15927454466E+01 -0.31377425417E+02  0.59301995334E+02  0.50000093571E+02 0.  0.
        -12    1    1    2    0    0 -0.54440453401E+01 -0.15927454466E+01  0.31377425417E+02  0.31886004666E+02  0.00000000000E+00 0.  1.
         11    1    3    3    0    0 -0.32721760703E+00 -0.18625241820E+01 -0.22074641920E+00  0.19038899479E+01  0.51100000000E-03 0. -1.
        -11    1    3    3    0    0  0.90819026982E+00 -0.12902680994E+02  0.76340587794E+01  0.15019415438E+02  0.51100000000E-03 0.  1.
         12    1    3    3    0    0  0.48630726773E+01  0.16357950623E+02 -0.38790737777E+02  0.42378689948E+02  0.00000000000E+00 0. -1.
</event>
<event>
 7    1  0.3755162E-013  0.5930190E+02  0.7816164E-02  0.1266605E+00
        -11   -1    0    0    0    0  0.00000000000E+00  0.00000000000E+00  0.45593999997E+02  0.45594000000E+02  0.51100000000E-03 0.  1.
         11   -1    0    0    0    0 -0.00000000000E+00 -0.00000000000E+00 -0.45593999997E+02  0.45594000000E+02  0.51100000000E-03 0. -1.
    9900012    2    1    2    0    0 -0.15809194968E+02 -0.19157602260E+02 -0.19994471275E+02  0.59301901909E+02  0.49999923186E+02 0.  0.
        -12    1    1    2    0    0  0.15809194968E+02  0.19157602260E+02  0.19994471275E+02  0.31886098091E+02  0.00000000000E+00 0.  1.
         11    1    3    3    0    0  0.62737673258E+01  0.30632110437E+01 -0.23145053456E+02  0.24175130156E+02  0.51100000000E-03 0. -1.
        -11    1    3    3    0    0  0.84501336002E+00  0.16200014965E+01  0.70925098361E+00  0.19599718483E+01  0.51100000000E-03 0.  1.
        -12    1    3    3    0    0 -0.22927975653E+02 -0.23840814800E+02  0.24413311966E+01  0.33166799905E+02  0.00000000000E+00 0.  1.
</event>
<event>
 7    1  0.3755162E-013  0.5930194E+02  0.7816164E-02  0.1266605E+00
        -11   -1    0    0    0    0  0.00000000000E+00  0.00000000000E+00  0.45593999997E+02  0.45594000000E+02  0.51100000000E-03 0. -1.
         11   -1    0    0    0    0 -0.00000000000E+00 -0.00000000000E+00 -0.45593999997E+02  0.45594000000E+02  0.51100000000E-03 0.  1.
    9900012    2    1    2    0    0  0.25419556042E+02 -0.28207353660E+01  0.19042330418E+02  0.59301941524E+02  0.49999995434E+02 0.  0.
        -12    1    1    2    0    0 -0.25419556042E+02  0.28207353660E+01 -0.19042330418E+02  0.31886058476E+02  0.00000000000E+00 0.  1.
         11    1    3    3    0    0  0.92906536915E+01  0.10741494107E+01  0.62158319066E+01  0.11229719922E+02  0.51100000000E-03 0. -1.
        -11    1    3    3    0    0  0.14721794754E+02 -0.86763856986E+01 -0.13187396174E+02  0.21585141363E+02  0.51100000000E-03 0.  1.
         12    1    3    3    0    0  0.14071075965E+01  0.47815009219E+01  0.26013894686E+02  0.26487080239E+02  0.00000000000E+00 0. -1.
</event>
<event>
 7    1  0.3755162E-013  0.5930191E+02  0.7816164E-02  0.1266605E+00
        -11   -1    0    0    0    0  0.00000000000E+00  0.00000000000E+00  0.45593999997E+02  0.45594000000E+02  0.51100000000E-03 0.  1.
         11   -1    0    0    0    0 -0.00000000000E+00 -0.00000000000E+00 -0.45593999997E+02  0.45594000000E+02  0.51100000000E-03 0. -1.
    9900012    2    1    2    0    0  0.73416841373E+01  0.26135954785E+02 -0.16725252595E+02  0.59301913177E+02  0.49999943736E+02 0.  0.
        -12    1    1    2    0    0 -0.73416841373E+01 -0.26135954785E+02  0.16725252595E+02  0.31886086823E+02  0.00000000000E+00 0.  1.
         11    1    3    3    0    0 -0.37486455457E+01 -0.96469522604E+00 -0.50789793519E+01  0.63858446446E+01  0.51100000000E-03 0. -1.
        -11    1    3    3    0    0  0.10075235810E+01 -0.10131258399E+02 -0.10056182788E+02  0.14310286966E+02  0.51100000000E-03 0.  1.
         12    1    3    3    0    0  0.10082806102E+02  0.37231908410E+02 -0.15900904545E+01  0.38605781567E+02  0.00000000000E+00 0. -1.
</event>
<event>
 7    1  0.3755162E-013  0.5930188E+02  0.7816164E-02  0.1266605E+00
        -11   -1    0    0    0    0  0.00000000000E+00  0.00000000000E+00  0.45593999997E+02  0.45594000000E+02  0.51100000000E-03 0.  1.
         11   -1    0    0    0    0 -0.00000000000E+00 -0.00000000000E+00 -0.45593999997E+02  0.45594000000E+02  0.51100000000E-03 0. -1.
    9900012    2    1    2    0    0 -0.31832519664E+02 -0.13528690257E+01 -0.12589199217E+01  0.59301883239E+02  0.49999889136E+02 0.  0.
        -12    1    1    2    0    0  0.31832519664E+02  0.13528690257E+01  0.12589199217E+01  0.31886116761E+02  0.00000000000E+00 0.  1.
         11    1    3    3    0    0 -0.20969735045E+02 -0.19727304622E+01 -0.21900205874E+02  0.30384872402E+02  0.51100000000E-03 0. -1.
        -11    1    3    3    0    0  0.40952387903E+01  0.30374903227E+01  0.53081672185E+01  0.73602967122E+01  0.51100000000E-03 0.  1.
        -12    1    3    3    0    0 -0.14958023409E+02 -0.24176288861E+01  0.15333118734E+02  0.21556714124E+02  0.00000000000E+00 0.  1.
</event>
<event>
 7    1  0.3755162E-013  0.5930192E+02  0.7816164E-02  0.1266605E+00
        -11   -1    0    0    0    0  0.00000000000E+00  0.00000000000E+00  0.45593999997E+02  0.45594000000E+02  0.51100000000E-03 0. -1.
         11   -1    0    0    0    0 -0.00000000000E+00 -0.00000000000E+00 -0.45593999997E+02  0.45594000000E+02  0.51100000000E-03 0.  1.
    9900012    2    1    2    0    0 -0.26060211817E+02  0.13822744435E+01  0.18321485078E+02  0.59301919368E+02  0.49999955027E+02 0.  0.
        -12    1    1    2    0    0  0.26060211817E+02 -0.13822744435E+01 -0.18321485078E+02  0.31886080632E+02  0.00000000000E+00 0.  1.
         11    1    3    3    0    0 -0.51099024944E+01 -0.27667952663E+01 -0.67906946198E+00  0.58504183734E+01  0.51100000000E-03 0. -1.
        -11    1    3    3    0    0 -0.29500867359E+02  0.72746535478E+01 -0.21138813101E+01  0.30458008038E+02  0.51100000000E-03 0.  1.
         12    1    3    3    0    0  0.85505580372E+01 -0.31255838380E+01  0.21114435850E+02  0.22993492957E+02  0.00000000000E+00 0. -1.
</event>
<event>
 7    1  0.3755162E-013  0.5930195E+02  0.7816164E-02  0.1266605E+00
        -11   -1    0    0    0    0  0.00000000000E+00  0.00000000000E+00  0.45593999997E+02  0.45594000000E+02  0.51100000000E-03 0.  1.
         11   -1    0    0    0    0 -0.00000000000E+00 -0.00000000000E+00 -0.45593999997E+02  0.45594000000E+02  0.51100000000E-03 0. -1.
    9900012    2    1    2    0    0  0.22568254325E+02 -0.25485275518E+01 -0.22380771408E+02  0.59301952506E+02  0.50000015463E+02 0.  0.
        -12    1    1    2    0    0 -0.22568254325E+02  0.25485275518E+01  0.22380771408E+02  0.31886047494E+02  0.00000000000E+00 0.  1.
         11    1    3    3    0    0  0.29949446803E+02 -0.10198567377E+01 -0.31164175899E+02  0.43234422990E+02  0.51100000000E-03 0. -1.
        -11    1    3    3    0    0 -0.96845441041E+00  0.93524153146E+00 -0.25102960159E+01  0.28485376978E+01  0.51100000000E-03 0.  1.
        -12    1    3    3    0    0 -0.64127380680E+01 -0.24639123455E+01  0.11293700506E+02  0.13218991819E+02  0.00000000000E+00 0.  1.
</event>
<event>
 7    1  0.3755162E-013  0.5930193E+02  0.7816164E-02  0.1266605E+00
        -11   -1    0    0    0    0  0.00000000000E+00  0.00000000000E+00  0.45593999997E+02  0.45594000000E+02  0.51100000000E-03 0. -1.
         11   -1    0    0    0    0 -0.00000000000E+00 -0.00000000000E+00 -0.45593999997E+02  0.45594000000E+02  0.51100000000E-03 0.  1.
    9900012    2    1    2    0    0 -0.15945973227E+01 -0.27689912189E+02 -0.15730458661E+02  0.59301932394E+02  0.49999978783E+02 0.  0.
        -12    1    1    2    0    0  0.15945973227E+01  0.27689912189E+02  0.15730458661E+02  0.31886067606E+02  0.00000000000E+00 0.  1.
         11    1    3    3    0    0 -0.38459144817E+01  0.13629652132E+00  0.14847523463E+01  0.41248181455E+01  0.51100000000E-03 0. -1.
        -11    1    3    3    0    0 -0.67596648293E+01  0.38050327220E+01  0.98818615557E+01  0.12562743756E+02  0.51100000000E-03 0.  1.
        -12    1    3    3    0    0  0.90109819883E+01 -0.31631241433E+02 -0.27097072563E+02  0.42614370492E+02  0.00000000000E+00 0.  1.
</event>
<event>
 7    1  0.3755162E-013  0.5930191E+02  0.7816164E-02  0.1266605E+00
        -11   -1    0    0    0    0  0.00000000000E+00  0.00000000000E+00  0.45593999997E+02  0.45594000000E+02  0.51100000000E-03 0.  1.
         11   -1    0    0    0    0 -0.00000000000E+00 -0.00000000000E+00 -0.45593999997E+02  0.45594000000E+02  0.51100000000E-03 0. -1.
    9900012    2    1    2    0    0 -0.22444789929E+01 -0.34240067177E+01 -0.31622161902E+02  0.59301911634E+02  0.49999940922E+02 0.  0.
        -12    1    1    2    0    0  0.22444789929E+01  0.34240067177E+01  0.31622161902E+02  0.31886088366E+02  0.00000000000E+00 0.  1.
         11    1    3    3    0    0  0.12269806645E+01 -0.73288350033E+01 -0.35605469882E+02  0.36372610435E+02  0.51100000000E-03 0. -1.
        -11    1    3    3    0    0 -0.12074780983E+01  0.79905948989E+01 -0.71913045012E+01  0.10817692494E+02  0.51100000000E-03 0.  1.
        -12    1    3    3    0    0 -0.22639815592E+01 -0.40857666132E+01  0.11174612482E+02  0.12111608706E+02  0.00000000000E+00 0.  1.
</event>
<event>
 7    1  0.3755162E-013  0.5930195E+02  0.7816164E-02  0.1266605E+00
        -11   -1    0    0    0    0  0.00000000000E+00  0.00000000000E+00  0.45593999997E+02  0.45594000000E+02  0.51100000000E-03 0. -1.
         11   -1    0    0    0    0 -0.00000000000E+00 -0.00000000000E+00 -0.45593999997E+02  0.45594000000E+02  0.51100000000E-03 0.  1.
    9900012    2    1    2    0    0  0.82208144628E+01  0.23617922618E+02  0.19782122753E+02  0.59301945998E+02  0.50000003592E+02 0.  0.
        -12    1    1    2    0    0 -0.82208144628E+01 -0.23617922618E+02 -0.19782122753E+02  0.31886054002E+02  0.00000000000E+00 0.  1.
         11    1    3    3    0    0  0.64694159471E+01  0.52840463346E+00 -0.16148230511E+01  0.66888121442E+01  0.51100000000E-03 0. -1.
        -11    1    3    3    0    0  0.16886951671E+02  0.12509291961E+02 -0.38175031128E+01  0.21359420694E+02  0.51100000000E-03 0.  1.
         12    1    3    3    0    0 -0.15135553156E+02  0.10580226024E+02  0.25214448917E+02  0.31253713159E+02  0.00000000000E+00 0. -1.
</event>
<event>
 7    1  0.3755162E-013  0.5930191E+02  0.7816164E-02  0.1266605E+00
        -11   -1    0    0    0    0  0.00000000000E+00  0.00000000000E+00  0.45593999997E+02  0.45594000000E+02  0.51100000000E-03 0.  1.
         11   -1    0    0    0    0 -0.00000000000E+00 -0.00000000000E+00 -0.45593999997E+02  0.45594000000E+02  0.51100000000E-03 0. -1.
    9900012    2    1    2    0    0  0.11019569306E+02  0.12066622250E+02 -0.27380439198E+02  0.59301910072E+02  0.49999938073E+02 0.  0.
        -12    1    1    2    0    0 -0.11019569306E+02 -0.12066622250E+02  0.27380439198E+02  0.31886089928E+02  0.00000000000E+00 0.  1.
         11    1    3    3    0    0 -0.16707783576E+01 -0.18809514220E+01 -0.25525074442E+01  0.35839605307E+01  0.51100000000E-03 0. -1.
        -11    1    3    3    0    0  0.19979257444E+02 -0.11167779776E+02 -0.65347148983E+01  0.23803204242E+02  0.51100000000E-03 0.  1.
         12    1    3    3    0    0 -0.72889097802E+01  0.25115353447E+02 -0.18293216856E+02  0.31914745299E+02  0.00000000000E+00 0. -1.
</event>
<event>
 7    1  0.3755162E-013  0.5930192E+02  0.7816164E-02  0.1266605E+00
        -11   -1    0    0    0    0  0.00000000000E+00  0.00000000000E+00  0.45593999997E+02  0.45594000000E+02  0.51100000000E-03 0.  1.
         11   -1    0    0    0    0 -0.00000000000E+00 -0.00000000000E+00 -0.45593999997E+02  0.45594000000E+02  0.51100000000E-03 0. -1.
    9900012    2    1    2    0    0  0.11591879842E+02  0.12541032046E+02 -0.26927176942E+02  0.59301921202E+02  0.49999958371E+02 0.  0.
        -12    1    1    2    0    0 -0.11591879842E+02 -0.12541032046E+02  0.26927176942E+02  0.31886078798E+02  0.00000000000E+00 0.  1.
         11    1    3    3    0    0 -0.15226853961E+01 -0.86295662000E+01 -0.65971251246E+01  0.10968593519E+02  0.51100000000E-03 0.  1.
        -11    1    3    3    0    0  0.55660992190E+01  0.17100909328E+02 -0.30267539909E+02  0.35207194333E+02  0.51100000000E-03 0. -1.
         12    1    3    3    0    0  0.75484660195E+01  0.40696889186E+01  0.99374880922E+01  0.13126133350E+02  0.00000000000E+00 0. -1.
</event>
<event>
 7    1  0.3755162E-013  0.5930189E+02  0.7816164E-02  0.1266605E+00
        -11   -1    0    0    0    0  0.00000000000E+00  0.00000000000E+00  0.45593999997E+02  0.45594000000E+02  0.51100000000E-03 0.  1.
         11   -1    0    0    0    0 -0.00000000000E+00 -0.00000000000E+00 -0.45593999997E+02  0.45594000000E+02  0.51100000000E-03 0. -1.
    9900012    2    1    2    0    0 -0.21022447765E+02 -0.39217102453E+01 -0.23651659923E+02  0.59301888002E+02  0.49999897822E+02 0.  0.
        -12    1    1    2    0    0  0.21022447765E+02  0.39217102453E+01  0.23651659923E+02  0.31886111998E+02  0.00000000000E+00 0.  1.
         11    1    3    3    0    0  0.98267706526E+01  0.44780274445E+01 -0.31733515743E+01  0.11255590243E+02  0.51100000000E-03 0.  1.
        -11    1    3    3    0    0 -0.16790503052E+01 -0.13566926241E+02 -0.84634080631E+01  0.16078245360E+02  0.51100000000E-03 0. -1.
        -12    1    3    3    0    0 -0.29170168112E+02  0.51671885517E+01 -0.12014900285E+02  0.31968052398E+02  0.00000000000E+00 0.  1.
</event>
<event>
 7    1  0.3755162E-013  0.5930194E+02  0.7816164E-02  0.1266605E+00
        -11   -1    0    0    0    0  0.00000000000E+00  0.00000000000E+00  0.45593999997E+02  0.45594000000E+02  0.51100000000E-03 0. -1.
         11   -1    0    0    0    0 -0.00000000000E+00 -0.00000000000E+00 -0.45593999997E+02  0.45594000000E+02  0.51100000000E-03 0.  1.
    9900012    2    1    2    0    0  0.18018831391E+02 -0.24696324006E+02  0.90627883129E+01  0.59301939784E+02  0.49999992261E+02 0.  0.
        -12    1    1    2    0    0 -0.18018831391E+02  0.24696324006E+02 -0.90627883129E+01  0.31886060216E+02  0.00000000000E+00 0.  1.
         11    1    3    3    0    0 -0.95583258835E+01 -0.40506066802E+01  0.15365993659E+02  0.18544076401E+02  0.51100000000E-03 0. -1.
        -11    1    3    3    0    0 -0.32956689782E+01 -0.34200108235E+00 -0.37772646683E+00  0.33348277765E+01  0.51100000000E-03 0.  1.
         12    1    3    3    0    0  0.30872826252E+02 -0.20303716243E+02 -0.59254788790E+01  0.37423035607E+02  0.00000000000E+00 0. -1.
</event>
<event>
 7    1  0.3755162E-013  0.5930197E+02  0.7816164E-02  0.1266605E+00
        -11   -1    0    0    0    0  0.00000000000E+00  0.00000000000E+00  0.45593999997E+02  0.45594000000E+02  0.51100000000E-03 0.  1.
         11   -1    0    0    0    0 -0.00000000000E+00 -0.00000000000E+00 -0.45593999997E+02  0.45594000000E+02  0.51100000000E-03 0. -1.
    9900012    2    1    2    0    0  0.13717251469E+01  0.17191762936E+02 -0.26819409039E+02  0.59301967887E+02  0.50000043513E+02 0.  0.
        -12    1    1    2    0    0 -0.13717251469E+01 -0.17191762936E+02  0.26819409039E+02  0.31886032113E+02  0.00000000000E+00 0.  1.
         11    1    3    3    0    0  0.39422174976E+00 -0.62551325806E+01  0.63326692008E+01  0.89098144681E+01  0.51100000000E-03 0.  1.
        -11    1    3    3    0    0  0.14481693328E+02  0.66527149722E+01 -0.18041443935E+02  0.24072219624E+02  0.51100000000E-03 0. -1.
         12    1    3    3    0    0 -0.13504189931E+02  0.16794180544E+02 -0.15110634305E+02  0.26319933794E+02  0.00000000000E+00 0. -1.
</event>
<event>
 7    1  0.3755162E-013  0.5930193E+02  0.7816164E-02  0.1266605E+00
        -11   -1    0    0    0    0  0.00000000000E+00  0.00000000000E+00  0.45593999997E+02  0.45594000000E+02  0.51100000000E-03 0.  1.
         11   -1    0    0    0    0 -0.00000000000E+00 -0.00000000000E+00 -0.45593999997E+02  0.45594000000E+02  0.51100000000E-03 0. -1.
    9900012    2    1    2    0    0 -0.18423042340E+01  0.26810653956E+02 -0.17161467075E+02  0.59301934036E+02  0.49999981778E+02 0.  0.
        -12    1    1    2    0    0  0.18423042340E+01 -0.26810653956E+02  0.17161467075E+02  0.31886065964E+02  0.00000000000E+00 0.  1.
         11    1    3    3    0    0 -0.12806298064E+02  0.19564170834E+02 -0.22285265973E+02  0.32301565447E+02  0.51100000000E-03 0. -1.
        -11    1    3    3    0    0  0.10715849020E+02  0.12671056390E+02 -0.33561969597E+01  0.16930716126E+02  0.51100000000E-03 0.  1.
        -12    1    3    3    0    0  0.24814481056E+00 -0.54245732681E+01  0.84799958576E+01  0.10069652463E+02  0.00000000000E+00 0.  1.
</event>
<event>
 7    1  0.3755162E-013  0.5930194E+02  0.7816164E-02  0.1266605E+00
        -11   -1    0    0    0    0  0.00000000000E+00  0.00000000000E+00  0.45593999997E+02  0.45594000000E+02  0.51100000000E-03 0. -1.
         11   -1    0    0    0    0 -0.00000000000E+00 -0.00000000000E+00 -0.45593999997E+02  0.45594000000E+02  0.51100000000E-03 0.  1.
    9900012    2    1    2    0    0  0.25201138985E+02 -0.88207850523E+01  0.17430353787E+02  0.59301938967E+02  0.49999990771E+02 0.  0.
        -12    1    1    2    0    0 -0.25201138985E+02  0.88207850523E+01 -0.17430353787E+02  0.31886061033E+02  0.00000000000E+00 0.  1.
         11    1    3    3    0    0  0.34590088890E+01  0.43623466561E+01 -0.73310233212E+01  0.92053633301E+01  0.51100000000E-03 0. -1.
        -11    1    3    3    0    0  0.27898732135E+02 -0.17468075683E+02  0.11511863755E+02  0.34871133193E+02  0.51100000000E-03 0.  1.
         12    1    3    3    0    0 -0.61566020392E+01  0.42849439744E+01  0.13249513353E+02  0.15225442444E+02  0.00000000000E+00 0. -1.
</event>
<event>
 7    1  0.3755162E-013  0.5930195E+02  0.7816164E-02  0.1266605E+00
        -11   -1    0    0    0    0  0.00000000000E+00  0.00000000000E+00  0.45593999997E+02  0.45594000000E+02  0.51100000000E-03 0.  1.
         11   -1    0    0    0    0 -0.00000000000E+00 -0.00000000000E+00 -0.45593999997E+02  0.45594000000E+02  0.51100000000E-03 0. -1.
    9900012    2    1    2    0    0  0.19188225397E+02  0.24708693363E+01  0.25346145910E+02  0.59301948165E+02  0.50000007545E+02 0.  0.
        -12    1    1    2    0    0 -0.19188225397E+02 -0.24708693363E+01 -0.25346145910E+02  0.31886051835E+02  0.00000000000E+00 0.  1.
         11    1    3    3    0    0  0.95225236064E+01  0.46021106095E+01 -0.14111231533E+02  0.17634759243E+02  0.51100000000E-03 0. -1.
        -11    1    3    3    0    0  0.29790685433E+00 -0.17666818149E+01  0.93588776849E+00  0.20213360199E+01  0.51100000000E-03 0.  1.
        -12    1    3    3    0    0  0.93677949359E+01 -0.36455945834E+00  0.38521489675E+02  0.39645852902E+02  0.00000000000E+00 0.  1.
</event>
<event>
 7    1  0.3755162E-013  0.5930194E+02  0.7816164E-02  0.1266605E+00
        -11   -1    0    0    0    0  0.00000000000E+00  0.00000000000E+00  0.45593999997E+02  0.45594000000E+02  0.51100000000E-03 0.  1.
         11   -1    0    0    0    0 -0.00000000000E+00 -0.00000000000E+00 -0.45593999997E+02  0.45594000000E+02  0.51100000000E-03 0. -1.
    9900012    2    1    2    0    0  0.11345667187E+02 -0.13240836705E+02 -0.26696006487E+02  0.59301942186E+02  0.49999996641E+02 0.  0.
        -12    1    1    2    0    0 -0.11345667187E+02  0.13240836705E+02  0.26696006487E+02  0.31886057814E+02  0.00000000000E+00 0.  1.
         11    1    3    3    0    0  0.20329506371E+02  0.39288034860E+01 -0.12777013682E+02  0.24330565243E+02  0.51100000000E-03 0.  1.
        -11    1    3    3    0    0  0.62385458817E+01  0.20591200911E+01 -0.67523073267E+01  0.94208855615E+01  0.51100000000E-03 0. -1.
        -12    1    3    3    0    0 -0.15222385066E+02 -0.19228760283E+02 -0.71666854780E+01  0.25550491382E+02  0.00000000000E+00 0.  1.
</event>
<event>
 7    1  0.3755162E-013  0.5930197E+02  0.7816164E-02  0.1266605E+00
        -11   -1    0    0    0    0  0.00000000000E+00  0.00000000000E+00  0.45593999997E+02  0.45594000000E+02  0.51100000000E-03 0.  1.
         11   -1    0    0    0    0 -0.00000000000E+00 -0.00000000000E+00 -0.45593999997E+02  0.45594000000E+02  0.51100000000E-03 0. -1.
    9900012    2    1    2    0    0 -0.23943234741E+00  0.31806093694E+02  0.22437139881E+01  0.59301965809E+02  0.50000039725E+02 0.  0.
        -12    1    1    2    0    0  0.23943234741E+00 -0.31806093694E+02 -0.22437139881E+01  0.31886034191E+02  0.00000000000E+00 0.  1.
         11    1    3    3    0    0  0.12107071703E+02  0.10757942751E+02 -0.11090342239E+01  0.16234052933E+02  0.51100000000E-03 0. -1.
        -11    1    3    3    0    0  0.10737119472E+02  0.10594932915E+02  0.83477244772E+01  0.17240152036E+02  0.51100000000E-03 0.  1.
        -12    1    3    3    0    0 -0.23083623523E+02  0.10453218029E+02 -0.49949762652E+01  0.25827760840E+02  0.00000000000E+00 0.  1.
</event>
<event>
 7    1  0.3755162E-013  0.5930193E+02  0.7816164E-02  0.1266605E+00
        -11   -1    0    0    0    0  0.00000000000E+00  0.00000000000E+00  0.45593999997E+02  0.45594000000E+02  0.51100000000E-03 0.  1.
         11   -1    0    0    0    0 -0.00000000000E+00 -0.00000000000E+00 -0.45593999997E+02  0.45594000000E+02  0.51100000000E-03 0. -1.
    9900012    2    1    2    0    0  0.50659623380E+01  0.13100541164E+02 -0.28625750125E+02  0.59301925870E+02  0.49999966884E+02 0.  0.
        -12    1    1    2    0    0 -0.50659623380E+01 -0.13100541164E+02  0.28625750125E+02  0.31886074130E+02  0.00000000000E+00 0.  1.
         11    1    3    3    0    0 -0.21976711040E+01  0.61782315900E+01 -0.12102314069E+02  0.13764676166E+02  0.51100000000E-03 0. -1.
        -11    1    3    3    0    0 -0.11387992584E+02  0.15812303003E+02 -0.15413829550E+02  0.24845551775E+02  0.51100000000E-03 0.  1.
        -12    1    3    3    0    0  0.18651626026E+02 -0.88899934285E+01 -0.11096065056E+01  0.20691697929E+02  0.00000000000E+00 0.  1.
</event>
<event>
 7    1  0.3755162E-013  0.5930193E+02  0.7816164E-02  0.1266605E+00
        -11   -1    0    0    0    0  0.00000000000E+00  0.00000000000E+00  0.45593999997E+02  0.45594000000E+02  0.51100000000E-03 0. -1.
         11   -1    0    0    0    0 -0.00000000000E+00 -0.00000000000E+00 -0.45593999997E+02  0.45594000000E+02  0.51100000000E-03 0.  1.
    9900012    2    1    2    0    0 -0.26753752853E+02  0.49149644034E+01  0.16637347757E+02  0.59301929261E+02  0.49999973069E+02 0.  0.
        -12    1    1    2    0    0  0.26753752853E+02 -0.49149644034E+01 -0.16637347757E+02  0.31886070739E+02  0.00000000000E+00 0.  1.
         11    1    3    3    0    0  0.19884878672E+00 -0.10163227449E+02  0.75013906351E+01  0.12633352475E+02  0.51100000000E-03 0. -1.
        -11    1    3    3    0    0 -0.19446373546E+01  0.25786805448E+01 -0.11483845784E+02  0.11929372240E+02  0.51100000000E-03 0.  1.
         12    1    3    3    0    0 -0.25007964285E+02  0.12499511308E+02  0.20619802906E+02  0.34739204546E+02  0.00000000000E+00 0. -1.
</event>
<event>
 7    1  0.3755162E-013  0.5930197E+02  0.7816164E-02  0.1266605E+00
        -11   -1    0    0    0    0  0.00000000000E+00  0.00000000000E+00  0.45593999997E+02  0.45594000000E+02  0.51100000000E-03 0.  1.
         11   -1    0    0    0    0 -0.00000000000E+00 -0.00000000000E+00 -0.45593999997E+02  0.45594000000E+02  0.51100000000E-03 0. -1.
    9900012    2    1    2    0    0 -0.64916798197E+01 -0.30939377865E+02 -0.41631769833E+01  0.59301967758E+02  0.50000043279E+02 0.  0.
        -12    1    1    2    0    0  0.64916798197E+01  0.30939377865E+02  0.41631769833E+01  0.31886032242E+02  0.00000000000E+00 0.  1.
         11    1    3    3    0    0  0.90956728928E+01 -0.84544224728E+01 -0.10059061651E+01  0.12458746815E+02  0.51100000000E-03 0. -1.
        -11    1    3    3    0    0 -0.50725355468E+01 -0.30876825997E+02  0.40988904783E+01  0.31558040243E+02  0.51100000000E-03 0.  1.
        -12    1    3    3    0    0 -0.10514817166E+02  0.83918706056E+01 -0.72561612966E+01  0.15285180701E+02  0.00000000000E+00 0.  1.
</event>
<event>
 7    1  0.3755162E-013  0.5930196E+02  0.7816164E-02  0.1266605E+00
        -11   -1    0    0    0    0  0.00000000000E+00  0.00000000000E+00  0.45593999997E+02  0.45594000000E+02  0.51100000000E-03 0. -1.
         11   -1    0    0    0    0 -0.00000000000E+00 -0.00000000000E+00 -0.45593999997E+02  0.45594000000E+02  0.51100000000E-03 0.  1.
    9900012    2    1    2    0    0 -0.29079830096E+02  0.76658134505E+01  0.10598030454E+02  0.59301961303E+02  0.50000031507E+02 0.  0.
        -12    1    1    2    0    0  0.29079830096E+02 -0.76658134505E+01 -0.10598030454E+02  0.31886038697E+02  0.00000000000E+00 0.  1.
         11    1    3    3    0    0 -0.30210277327E+02 -0.11870472220E+02  0.37948545515E+01  0.32679808571E+02  0.51100000000E-03 0. -1.
        -11    1    3    3    0    0 -0.54984437045E+01  0.59395872094E+00  0.35032295344E+00  0.55415157283E+01  0.51100000000E-03 0.  1.
        -12    1    3    3    0    0  0.66288909357E+01  0.18942326950E+02  0.64528529486E+01  0.21080637004E+02  0.00000000000E+00 0.  1.
</event>
<event>
 7    1  0.3755162E-013  0.5930194E+02  0.7816164E-02  0.1266605E+00
        -11   -1    0    0    0    0  0.00000000000E+00  0.00000000000E+00  0.45593999997E+02  0.45594000000E+02  0.51100000000E-03 0. -1.
         11   -1    0    0    0    0 -0.00000000000E+00 -0.00000000000E+00 -0.45593999997E+02  0.45594000000E+02  0.51100000000E-03 0.  1.
    9900012    2    1    2    0    0  0.17808229503E+02  0.26221991541E+02 -0.34633622693E+01  0.59301941031E+02  0.49999994535E+02 0.  0.
        -12    1    1    2    0    0 -0.17808229503E+02 -0.26221991541E+02  0.34633622693E+01  0.31886058969E+02  0.00000000000E+00 0.  1.
         11    1    3    3    0    0  0.37778585728E-01 -0.51782874654E+01  0.77416966448E+01  0.93139656160E+01  0.51100000000E-03 0. -1.
        -11    1    3    3    0    0  0.26526521157E+02  0.19921646667E+02 -0.28231065838E+01  0.33294117524E+02  0.51100000000E-03 0.  1.
         12    1    3    3    0    0 -0.87560702406E+01  0.11478632339E+02 -0.83819523302E+01  0.16693857891E+02  0.00000000000E+00 0. -1.
</event>
<event>
 7    1  0.3755162E-013  0.5930195E+02  0.7816164E-02  0.1266605E+00
        -11   -1    0    0    0    0  0.00000000000E+00  0.00000000000E+00  0.45593999997E+02  0.45594000000E+02  0.51100000000E-03 0. -1.
         11   -1    0    0    0    0 -0.00000000000E+00 -0.00000000000E+00 -0.45593999997E+02  0.45594000000E+02  0.51100000000E-03 0.  1.
    9900012    2    1    2    0    0  0.29029675538E+02 -0.83535876817E+01  0.10208605679E+02  0.59301951030E+02  0.50000012771E+02 0.  0.
        -12    1    1    2    0    0 -0.29029675538E+02  0.83535876817E+01 -0.10208605679E+02  0.31886048970E+02  0.00000000000E+00 0.  1.
         11    1    3    3    0    0  0.37954751141E+01 -0.57580808424E+00  0.81886498367E+01  0.90438472289E+01  0.51100000000E-03 0. -1.
        -11    1    3    3    0    0 -0.45818661302E+01  0.99703107701E+00  0.15637447414E+02  0.16325358498E+02  0.51100000000E-03 0.  1.
        -12    1    3    3    0    0  0.29816066554E+02 -0.87748106745E+01 -0.13617491571E+02  0.33932745304E+02  0.00000000000E+00 0.  1.
</event>
<event>
 7    1  0.3755162E-013  0.5930194E+02  0.7816164E-02  0.1266605E+00
        -11   -1    0    0    0    0  0.00000000000E+00  0.00000000000E+00  0.45593999997E+02  0.45594000000E+02  0.51100000000E-03 0.  1.
         11   -1    0    0    0    0 -0.00000000000E+00 -0.00000000000E+00 -0.45593999997E+02  0.45594000000E+02  0.51100000000E-03 0. -1.
    9900012    2    1    2    0    0  0.13226443416E+02  0.20942271780E+02 -0.20079917683E+02  0.59301942751E+02  0.49999997672E+02 0.  0.
        -12    1    1    2    0    0 -0.13226443416E+02 -0.20942271780E+02  0.20079917683E+02  0.31886057249E+02  0.00000000000E+00 0.  1.
         11    1    3    3    0    0 -0.77354790809E+01  0.16104661793E+01 -0.84661105218E+01  0.11580425966E+02  0.51100000000E-03 0. -1.
        -11    1    3    3    0    0 -0.89434927298E+01 -0.14572391734E+01  0.11373316836E+01  0.91325315130E+01  0.51100000000E-03 0.  1.
         12    1    3    3    0    0  0.29905415227E+02  0.20789044774E+02 -0.12751138845E+02  0.38588985272E+02  0.00000000000E+00 0. -1.
</event>
<event>
 7    1  0.3755162E-013  0.5930191E+02  0.7816164E-02  0.1266605E+00
        -11   -1    0    0    0    0  0.00000000000E+00  0.00000000000E+00  0.45593999997E+02  0.45594000000E+02  0.51100000000E-03 0.  1.
         11   -1    0    0    0    0 -0.00000000000E+00 -0.00000000000E+00 -0.45593999997E+02  0.45594000000E+02  0.51100000000E-03 0. -1.
    9900012    2    1    2    0    0  0.13613358756E+02  0.22599918520E+02 -0.17906501337E+02  0.59301911437E+02  0.49999940563E+02 0.  0.
        -12    1    1    2    0    0 -0.13613358756E+02 -0.22599918520E+02  0.17906501337E+02  0.31886088563E+02  0.00000000000E+00 0.  1.
         11    1    3    3    0    0  0.15110671561E+02  0.52645979432E+01 -0.21838141423E+02  0.27073101182E+02  0.51100000000E-03 0. -1.
        -11    1    3    3    0    0  0.72421299106E+01 -0.23959653874E+01 -0.47296346486E+01  0.89754409335E+01  0.51100000000E-03 0.  1.
        -12    1    3    3    0    0 -0.87394427165E+01  0.19731285964E+02  0.86612747344E+01  0.23253369322E+02  0.00000000000E+00 0.  1.
</event>
<event>
 7    1  0.3755162E-013  0.5930194E+02  0.7816164E-02  0.1266605E+00
        -11   -1    0    0    0    0  0.00000000000E+00  0.00000000000E+00  0.45593999997E+02  0.45594000000E+02  0.51100000000E-03 0.  1.
         11   -1    0    0    0    0 -0.00000000000E+00 -0.00000000000E+00 -0.45593999997E+02  0.45594000000E+02  0.51100000000E-03 0. -1.
    9900012    2    1    2    0    0 -0.12539496490E+01  0.27936319206E+02 -0.15320262019E+02  0.59301941152E+02  0.49999994756E+02 0.  0.
        -12    1    1    2    0    0  0.12539496490E+01 -0.27936319206E+02  0.15320262019E+02  0.31886058848E+02  0.00000000000E+00 0.  1.
         11    1    3    3    0    0  0.15148208727E+02  0.15464256668E+02 -0.72380203508E+01  0.22825433200E+02  0.51100000000E-03 0. -1.
        -11    1    3    3    0    0  0.93499096091E+00  0.17487834471E+02 -0.35724173982E+01  0.17873464379E+02  0.51100000000E-03 0.  1.
        -12    1    3    3    0    0 -0.17337149337E+02 -0.50157719330E+01 -0.45098242704E+01  0.18603043573E+02  0.00000000000E+00 0.  1.
</event>
<event>
 7    1  0.3755162E-013  0.5930195E+02  0.7816164E-02  0.1266605E+00
        -11   -1    0    0    0    0  0.00000000000E+00  0.00000000000E+00  0.45593999997E+02  0.45594000000E+02  0.51100000000E-03 0.  1.
         11   -1    0    0    0    0 -0.00000000000E+00 -0.00000000000E+00 -0.45593999997E+02  0.45594000000E+02  0.51100000000E-03 0. -1.
    9900012    2    1    2    0    0 -0.30639302973E+01  0.13371325315E+02 -0.28784375776E+02  0.59301948216E+02  0.50000007639E+02 0.  0.
        -12    1    1    2    0    0  0.30639302973E+01 -0.13371325315E+02  0.28784375776E+02  0.31886051784E+02  0.00000000000E+00 0.  1.
         11    1    3    3    0    0  0.25500162281E+01 -0.84260922734E+01 -0.80860700783E+01  0.11953499209E+02  0.51100000000E-03 0. -1.
        -11    1    3    3    0    0 -0.45659695017E+01 -0.92934090968E+01 -0.10151735456E+02  0.14500802156E+02  0.51100000000E-03 0.  1.
        -12    1    3    3    0    0 -0.10479770237E+01  0.31090826685E+02 -0.10546570241E+02  0.32847646851E+02  0.00000000000E+00 0.  1.
</event>
<event>
 7    1  0.3755162E-013  0.5930194E+02  0.7816164E-02  0.1266605E+00
        -11   -1    0    0    0    0  0.00000000000E+00  0.00000000000E+00  0.45593999997E+02  0.45594000000E+02  0.51100000000E-03 0.  1.
         11   -1    0    0    0    0 -0.00000000000E+00 -0.00000000000E+00 -0.45593999997E+02  0.45594000000E+02  0.51100000000E-03 0. -1.
    9900012    2    1    2    0    0  0.23485632946E+02  0.95359669514E+01 -0.19344533008E+02  0.59301943833E+02  0.49999999645E+02 0.  0.
        -12    1    1    2    0    0 -0.23485632946E+02 -0.95359669514E+01  0.19344533008E+02  0.31886056167E+02  0.00000000000E+00 0.  1.
         11    1    3    3    0    0  0.40168626414E+01 -0.47019774208E+01 -0.23694962136E+02  0.24488671014E+02  0.51100000000E-03 0. -1.
        -11    1    3    3    0    0  0.10001707604E+02  0.12589169312E+02 -0.89521949249E+01  0.18402802319E+02  0.51100000000E-03 0.  1.
         12    1    3    3    0    0  0.94670627009E+01  0.16487750601E+01  0.13302624052E+02  0.16410470501E+02  0.00000000000E+00 0. -1.
</event>
<event>
 7    1  0.3755162E-013  0.5930185E+02  0.7816164E-02  0.1266605E+00
        -11   -1    0    0    0    0  0.00000000000E+00  0.00000000000E+00  0.45593999997E+02  0.45594000000E+02  0.51100000000E-03 0. -1.
         11   -1    0    0    0    0 -0.00000000000E+00 -0.00000000000E+00 -0.45593999997E+02  0.45594000000E+02  0.51100000000E-03 0.  1.
    9900012    2    1    2    0    0  0.24992113501E+02 -0.18971287788E+02 -0.56754683896E+01  0.59301851926E+02  0.49999832028E+02 0.  0.
        -12    1    1    2    0    0 -0.24992113501E+02  0.18971287788E+02  0.56754683896E+01  0.31886148074E+02  0.00000000000E+00 0.  1.
         11    1    3    3    0    0  0.11769111454E+01  0.25626942825E+01 -0.34484341953E+01  0.44546852291E+01  0.51100000000E-03 0. -1.
        -11    1    3    3    0    0  0.20093164582E+02 -0.29108462190E+02 -0.15899860443E+02  0.38779419752E+02  0.51100000000E-03 0.  1.
         12    1    3    3    0    0  0.37220377736E+01  0.75744801188E+01  0.13672826248E+02  0.16067746944E+02  0.00000000000E+00 0. -1.
</event>
<event>
 7    1  0.3755162E-013  0.5930192E+02  0.7816164E-02  0.1266605E+00
        -11   -1    0    0    0    0  0.00000000000E+00  0.00000000000E+00  0.45593999997E+02  0.45594000000E+02  0.51100000000E-03 0. -1.
         11   -1    0    0    0    0 -0.00000000000E+00 -0.00000000000E+00 -0.45593999997E+02  0.45594000000E+02  0.51100000000E-03 0.  1.
    9900012    2    1    2    0    0 -0.48408643531E+01 -0.19335259656E+02  0.24888474220E+02  0.59301915532E+02  0.49999948031E+02 0.  0.
        -12    1    1    2    0    0  0.48408643531E+01  0.19335259656E+02 -0.24888474220E+02  0.31886084468E+02  0.00000000000E+00 0.  1.
         11    1    3    3    0    0  0.95298610328E+01 -0.14661302183E+02  0.12948280308E+02  0.21758446548E+02  0.51100000000E-03 0. -1.
        -11    1    3    3    0    0  0.83710548306E+01  0.86614399945E+00 -0.39051461138E+01  0.92776576158E+01  0.51100000000E-03 0.  1.
        -12    1    3    3    0    0 -0.22741780217E+02 -0.55401014726E+01  0.15845340027E+02  0.28265811368E+02  0.00000000000E+00 0.  1.
</event>
<event>
 7    1  0.3755162E-013  0.5930194E+02  0.7816164E-02  0.1266605E+00
        -11   -1    0    0    0    0  0.00000000000E+00  0.00000000000E+00  0.45593999997E+02  0.45594000000E+02  0.51100000000E-03 0.  1.
         11   -1    0    0    0    0 -0.00000000000E+00 -0.00000000000E+00 -0.45593999997E+02  0.45594000000E+02  0.51100000000E-03 0. -1.
    9900012    2    1    2    0    0 -0.12569421192E+02 -0.26634240985E+02 -0.12220798438E+02  0.59301936329E+02  0.49999985960E+02 0.  0.
        -12    1    1    2    0    0  0.12569421192E+02  0.26634240985E+02  0.12220798438E+02  0.31886063671E+02  0.00000000000E+00 0.  1.
         11    1    3    3    0    0 -0.18591619628E+02 -0.10033196986E+02  0.21865242124E+01  0.21238979508E+02  0.51100000000E-03 0. -1.
        -11    1    3    3    0    0 -0.16705934483E+00 -0.15364674825E+02  0.61559669493E+01  0.16552856873E+02  0.51100000000E-03 0.  1.
        -12    1    3    3    0    0  0.61892577810E+01 -0.12363691737E+01 -0.20563289600E+02  0.21510099948E+02  0.00000000000E+00 0.  1.
</event>
<event>
 7    1  0.3755162E-013  0.5930195E+02  0.7816164E-02  0.1266605E+00
        -11   -1    0    0    0    0  0.00000000000E+00  0.00000000000E+00  0.45593999997E+02  0.45594000000E+02  0.51100000000E-03 0.  1.
         11   -1    0    0    0    0 -0.00000000000E+00 -0.00000000000E+00 -0.45593999997E+02  0.45594000000E+02  0.51100000000E-03 0. -1.
    9900012    2    1    2    0    0  0.14693455663E+02  0.23757687208E+02 -0.15375131427E+02  0.59301952782E+02  0.50000015966E+02 0.  0.
        -12    1    1    2    0    0 -0.14693455663E+02 -0.23757687208E+02  0.15375131427E+02  0.31886047218E+02  0.00000000000E+00 0.  1.
         11    1    3    3    0    0 -0.43463340583E+01  0.15332390810E+02 -0.24109707335E+02  0.28900706146E+02  0.51100000000E-03 0. -1.
        -11    1    3    3    0    0  0.31176899136E+01  0.22806645154E+01 -0.64757094994E+01  0.75403073420E+01  0.51100000000E-03 0.  1.
        -12    1    3    3    0    0  0.15922099808E+02  0.61446318821E+01  0.15210285407E+02  0.22860939294E+02  0.00000000000E+00 0.  1.
</event>
<event>
 7    1  0.3755162E-013  0.5930193E+02  0.7816164E-02  0.1266605E+00
        -11   -1    0    0    0    0  0.00000000000E+00  0.00000000000E+00  0.45593999997E+02  0.45594000000E+02  0.51100000000E-03 0.  1.
         11   -1    0    0    0    0 -0.00000000000E+00 -0.00000000000E+00 -0.45593999997E+02  0.45594000000E+02  0.51100000000E-03 0. -1.
    9900012    2    1    2    0    0  0.10025824218E+02 -0.29399434124E+02  0.72025968978E+01  0.59301932821E+02  0.49999979561E+02 0.  0.
        -12    1    1    2    0    0 -0.10025824218E+02  0.29399434124E+02 -0.72025968978E+01  0.31886067179E+02  0.00000000000E+00 0.  1.
         11    1    3    3    0    0  0.75192419602E+01 -0.18173618772E+02 -0.78230566307E-01  0.19667880903E+02  0.51100000000E-03 0. -1.
        -11    1    3    3    0    0 -0.13871613950E+02 -0.15872696336E+02  0.81174063950E+01  0.22588856753E+02  0.51100000000E-03 0.  1.
         12    1    3    3    0    0  0.16378196208E+02  0.46468809843E+01 -0.83657893087E+00  0.17045195165E+02  0.00000000000E+00 0. -1.
</event>
<event>
 7    1  0.3755162E-013  0.5930193E+02  0.7816164E-02  0.1266605E+00
        -11   -1    0    0    0    0  0.00000000000E+00  0.00000000000E+00  0.45593999997E+02  0.45594000000E+02  0.51100000000E-03 0.  1.
         11   -1    0    0    0    0 -0.00000000000E+00 -0.00000000000E+00 -0.45593999997E+02  0.45594000000E+02  0.51100000000E-03 0. -1.
    9900012    2    1    2    0    0 -0.27110035995E+02 -0.15803701933E+02  0.56577689386E+01  0.59301931007E+02  0.49999976254E+02 0.  0.
        -12    1    1    2    0    0  0.27110035995E+02  0.15803701933E+02 -0.56577689386E+01  0.31886068993E+02  0.00000000000E+00 0.  1.
         11    1    3    3    0    0 -0.24713776838E+02 -0.11233418416E+02  0.24136074029E+01  0.27254099799E+02  0.51100000000E-03 0. -1.
        -11    1    3    3    0    0 -0.10568874313E+01 -0.91530610518E+01  0.15980238807E+02  0.18446234582E+02  0.51100000000E-03 0.  1.
        -12    1    3    3    0    0 -0.13393717252E+01  0.45827775339E+01 -0.12736077271E+02  0.13601596627E+02  0.00000000000E+00 0.  1.
</event>
<event>
 7    1  0.3755162E-013  0.5930194E+02  0.7816164E-02  0.1266605E+00
        -11   -1    0    0    0    0  0.00000000000E+00  0.00000000000E+00  0.45593999997E+02  0.45594000000E+02  0.51100000000E-03 0. -1.
         11   -1    0    0    0    0 -0.00000000000E+00 -0.00000000000E+00 -0.45593999997E+02  0.45594000000E+02  0.51100000000E-03 0.  1.
    9900012    2    1    2    0    0  0.31727834240E+02 -0.20415873690E+01  0.24284047487E+01  0.59301942010E+02  0.49999996319E+02 0.  0.
        -12    1    1    2    0    0 -0.31727834240E+02  0.20415873690E+01 -0.24284047487E+01  0.31886057990E+02  0.00000000000E+00 0.  1.
         11    1    3    3    0    0  0.45686458787E+01 -0.16291420915E+02 -0.59592459423E+01  0.17938660292E+02  0.51100000000E-03 0. -1.
        -11    1    3    3    0    0 -0.44647919367E+01  0.68813070009E+00 -0.26372512563E+01  0.52309640936E+01  0.51100000000E-03 0.  1.
        -12    1    3    3    0    0  0.31623980298E+02  0.13561702846E+02  0.11024901947E+02  0.36132317624E+02  0.00000000000E+00 0.  1.
</event>
<event>
 7    1  0.3755162E-013  0.5930193E+02  0.7816164E-02  0.1266605E+00
        -11   -1    0    0    0    0  0.00000000000E+00  0.00000000000E+00  0.45593999997E+02  0.45594000000E+02  0.51100000000E-03 0. -1.
         11   -1    0    0    0    0 -0.00000000000E+00 -0.00000000000E+00 -0.45593999997E+02  0.45594000000E+02  0.51100000000E-03 0.  1.
    9900012    2    1    2    0    0 -0.11929317059E+02 -0.12821598440E+02  0.26646193189E+02  0.59301927751E+02  0.49999970314E+02 0.  0.
        -12    1    1    2    0    0  0.11929317059E+02  0.12821598440E+02 -0.26646193189E+02  0.31886072249E+02  0.00000000000E+00 0.  1.
         11    1    3    3    0    0 -0.69080894943E+01 -0.82612567990E+01 -0.80638720398E+01  0.13453478989E+02  0.51100000000E-03 0.  1.
        -11    1    3    3    0    0 -0.13865665585E+02  0.64358872433E+01  0.22418224433E+02  0.27134002906E+02  0.51100000000E-03 0. -1.
         12    1    3    3    0    0  0.88444380197E+01 -0.10996228884E+02  0.12291840796E+02  0.18714445856E+02  0.00000000000E+00 0. -1.
</event>
<event>
 7    1  0.3755162E-013  0.5930197E+02  0.7816164E-02  0.1266605E+00
        -11   -1    0    0    0    0  0.00000000000E+00  0.00000000000E+00  0.45593999997E+02  0.45594000000E+02  0.51100000000E-03 0.  1.
         11   -1    0    0    0    0 -0.00000000000E+00 -0.00000000000E+00 -0.45593999997E+02  0.45594000000E+02  0.51100000000E-03 0. -1.
    9900012    2    1    2    0    0 -0.78757797258E+01  0.28033594831E+02 -0.12992644312E+02  0.59301966197E+02  0.50000040432E+02 0.  0.
        -12    1    1    2    0    0  0.78757797258E+01 -0.28033594831E+02  0.12992644312E+02  0.31886033803E+02  0.00000000000E+00 0.  1.
         11    1    3    3    0    0 -0.17991150056E+02  0.69371536129E+01  0.18785330054E+01  0.19373550709E+02  0.51100000000E-03 0. -1.
        -11    1    3    3    0    0 -0.83671968400E+01  0.14108760894E+02 -0.11117118143E+02  0.19815585608E+02  0.51100000000E-03 0.  1.
        -12    1    3    3    0    0  0.18482567170E+02  0.69876803238E+01 -0.37540591745E+01  0.20112829880E+02  0.00000000000E+00 0.  1.
</event>
<event>
 7    1  0.3755162E-013  0.5930195E+02  0.7816164E-02  0.1266605E+00
        -11   -1    0    0    0    0  0.00000000000E+00  0.00000000000E+00  0.45593999997E+02  0.45594000000E+02  0.51100000000E-03 0.  1.
         11   -1    0    0    0    0 -0.00000000000E+00 -0.00000000000E+00 -0.45593999997E+02  0.45594000000E+02  0.51100000000E-03 0. -1.
    9900012    2    1    2    0    0 -0.20841230443E+02  0.79913413241E+01 -0.22770633987E+02  0.59301949841E+02  0.50000010602E+02 0.  0.
        -12    1    1    2    0    0  0.20841230443E+02 -0.79913413241E+01  0.22770633987E+02  0.31886050159E+02  0.00000000000E+00 0.  1.
         11    1    3    3    0    0 -0.21009677342E+02  0.33172865245E+01 -0.17961897334E+01  0.21345660677E+02  0.51100000000E-03 0. -1.
        -11    1    3    3    0    0 -0.42760491125E+01 -0.69080114140E+01  0.47398581135E+01  0.94059275409E+01  0.51100000000E-03 0.  1.
         12    1    3    3    0    0  0.44444960119E+01  0.11582066214E+02 -0.25714302367E+02  0.28550361623E+02  0.00000000000E+00 0. -1.
</event>
<event>
 7    1  0.3755162E-013  0.5930172E+02  0.7816164E-02  0.1266606E+00
        -11   -1    0    0    0    0  0.00000000000E+00  0.00000000000E+00  0.45593999997E+02  0.45594000000E+02  0.51100000000E-03 0. -1.
         11   -1    0    0    0    0 -0.00000000000E+00 -0.00000000000E+00 -0.45593999997E+02  0.45594000000E+02  0.51100000000E-03 0.  1.
    9900012    2    1    2    0    0 -0.28431006008E+02 -0.11937953417E+01  0.14387068442E+02  0.59301717866E+02  0.49999587534E+02 0.  0.
        -12    1    1    2    0    0  0.28431006008E+02  0.11937953417E+01 -0.14387068442E+02  0.31886282134E+02  0.00000000000E+00 0.  1.
         11    1    3    3    0    0 -0.36577990878E+01  0.21457556776E+01  0.10627066036E+02  0.11441953259E+02  0.51100000000E-03 0. -1.
        -11    1    3    3    0    0  0.21419385676E+01 -0.15070735239E+02 -0.67810480226E+01  0.16664260380E+02  0.51100000000E-03 0.  1.
         12    1    3    3    0    0 -0.26915145488E+02  0.11731184220E+02  0.10541050429E+02  0.31195504227E+02  0.00000000000E+00 0. -1.
</event>
<event>
 7    1  0.3755162E-013  0.5930192E+02  0.7816164E-02  0.1266605E+00
        -11   -1    0    0    0    0  0.00000000000E+00  0.00000000000E+00  0.45593999997E+02  0.45594000000E+02  0.51100000000E-03 0.  1.
         11   -1    0    0    0    0 -0.00000000000E+00 -0.00000000000E+00 -0.45593999997E+02  0.45594000000E+02  0.51100000000E-03 0. -1.
    9900012    2    1    2    0    0 -0.29052354819E+02  0.10447609951E+02 -0.79705946334E+01  0.59301917565E+02  0.49999951739E+02 0.  0.
        -12    1    1    2    0    0  0.29052354819E+02 -0.10447609951E+02  0.79705946334E+01  0.31886082435E+02  0.00000000000E+00 0.  1.
         11    1    3    3    0    0  0.39233574280E+01  0.52140939298E+01  0.33328330249E+01  0.73271607905E+01  0.51100000000E-03 0. -1.
        -11    1    3    3    0    0  0.58964507452E+01  0.23449839200E+01  0.65337408219E+01  0.91080651274E+01  0.51100000000E-03 0.  1.
         12    1    3    3    0    0 -0.38872162992E+02  0.28885321011E+01 -0.17837168480E+02  0.42866691647E+02  0.00000000000E+00 0. -1.
</event>
<event>
 7    1  0.3755162E-013  0.5930195E+02  0.7816164E-02  0.1266605E+00
        -11   -1    0    0    0    0  0.00000000000E+00  0.00000000000E+00  0.45593999997E+02  0.45594000000E+02  0.51100000000E-03 0.  1.
         11   -1    0    0    0    0 -0.00000000000E+00 -0.00000000000E+00 -0.45593999997E+02  0.45594000000E+02  0.51100000000E-03 0. -1.
    9900012    2    1    2    0    0 -0.54072986698E+00  0.17738017784E+02 -0.26491334985E+02  0.59301945164E+02  0.50000002072E+02 0.  0.
        -12    1    1    2    0    0  0.54072986698E+00 -0.17738017784E+02  0.26491334985E+02  0.31886054836E+02  0.00000000000E+00 0.  1.
         11    1    3    3    0    0  0.40079809524E+01 -0.82593629509E+01 -0.12042024705E+02  0.15142369264E+02  0.51100000000E-03 0. -1.
        -11    1    3    3    0    0 -0.41996347122E+01  0.19042936833E+02  0.76816973467E+01  0.20958980160E+02  0.51100000000E-03 0.  1.
         12    1    3    3    0    0 -0.34907610719E+00  0.69544439017E+01 -0.22131007627E+02  0.23200595740E+02  0.00000000000E+00 0. -1.
</event>
<event>
 7    1  0.3755162E-013  0.5930208E+02  0.7816164E-02  0.1266604E+00
        -11   -1    0    0    0    0  0.00000000000E+00  0.00000000000E+00  0.45593999997E+02  0.45594000000E+02  0.51100000000E-03 0.  1.
         11   -1    0    0    0    0 -0.00000000000E+00 -0.00000000000E+00 -0.45593999997E+02  0.45594000000E+02  0.51100000000E-03 0. -1.
    9900012    2    1    2    0    0  0.29018266139E+02  0.69677311844E+01 -0.11229550031E+02  0.59302080827E+02  0.50000249489E+02 0.  0.
        -12    1    1    2    0    0 -0.29018266139E+02 -0.69677311844E+01  0.11229550031E+02  0.31885919173E+02  0.00000000000E+00 0.  1.
         11    1    3    3    0    0  0.25219995969E+02 -0.89970072884E+01 -0.13918362518E+02  0.30178057464E+02  0.51100000000E-03 0. -1.
        -11    1    3    3    0    0  0.13904225955E+02  0.76009545811E+01  0.21867368596E+01  0.15996369223E+02  0.51100000000E-03 0.  1.
        -12    1    3    3    0    0 -0.10105955785E+02  0.83637838917E+01  0.50207562680E+00  0.13127654141E+02  0.00000000000E+00 0.  1.
</event>
<event>
 7    1  0.3755162E-013  0.5930192E+02  0.7816164E-02  0.1266605E+00
        -11   -1    0    0    0    0  0.00000000000E+00  0.00000000000E+00  0.45593999997E+02  0.45594000000E+02  0.51100000000E-03 0.  1.
         11   -1    0    0    0    0 -0.00000000000E+00 -0.00000000000E+00 -0.45593999997E+02  0.45594000000E+02  0.51100000000E-03 0. -1.
    9900012    2    1    2    0    0 -0.22327632739E+02  0.12688885871E+02 -0.18899492096E+02  0.59301924515E+02  0.49999964413E+02 0.  0.
        -12    1    1    2    0    0  0.22327632739E+02 -0.12688885871E+02  0.18899492096E+02  0.31886075485E+02  0.00000000000E+00 0.  1.
         11    1    3    3    0    0  0.43967092869E+01 -0.19236948974E+01 -0.30404610144E+01  0.56812021662E+01  0.51100000000E-03 0. -1.
        -11    1    3    3    0    0  0.49501565327E+01 -0.42244419783E+01  0.75456405817E+01  0.99642687526E+01  0.51100000000E-03 0.  1.
         12    1    3    3    0    0 -0.31674498559E+02  0.18837022747E+02 -0.23404671663E+02  0.43656453596E+02  0.00000000000E+00 0. -1.
</event>
<event>
 7    1  0.3755162E-013  0.5930189E+02  0.7816164E-02  0.1266605E+00
        -11   -1    0    0    0    0  0.00000000000E+00  0.00000000000E+00  0.45593999997E+02  0.45594000000E+02  0.51100000000E-03 0.  1.
         11   -1    0    0    0    0 -0.00000000000E+00 -0.00000000000E+00 -0.45593999997E+02  0.45594000000E+02  0.51100000000E-03 0. -1.
    9900012    2    1    2    0    0  0.23082399530E+02  0.14520632575E+01 -0.21950358980E+02  0.59301891502E+02  0.49999904206E+02 0.  0.
        -12    1    1    2    0    0 -0.23082399530E+02 -0.14520632575E+01  0.21950358980E+02  0.31886108498E+02  0.00000000000E+00 0.  1.
         11    1    3    3    0    0  0.10794281979E+01 -0.17742977427E+01 -0.11028058635E+02  0.11221914954E+02  0.51100000000E-03 0. -1.
        -11    1    3    3    0    0  0.39638241131E+01 -0.17579993509E+02  0.10512772862E+01  0.18051959937E+02  0.51100000000E-03 0.  1.
        -12    1    3    3    0    0  0.18039147219E+02  0.20806354509E+02 -0.11973577631E+02  0.30028016612E+02  0.00000000000E+00 0.  1.
</event>
<event>
 7    1  0.3755162E-013  0.5930195E+02  0.7816164E-02  0.1266605E+00
        -11   -1    0    0    0    0  0.00000000000E+00  0.00000000000E+00  0.45593999997E+02  0.45594000000E+02  0.51100000000E-03 0. -1.
         11   -1    0    0    0    0 -0.00000000000E+00 -0.00000000000E+00 -0.45593999997E+02  0.45594000000E+02  0.51100000000E-03 0.  1.
    9900012    2    1    2    0    0  0.10382527666E+02 -0.21883437901E+02  0.20737372624E+02  0.59301947274E+02  0.50000005921E+02 0.  0.
        -12    1    1    2    0    0 -0.10382527666E+02  0.21883437901E+02 -0.20737372624E+02  0.31886052726E+02  0.00000000000E+00 0.  1.
         11    1    3    3    0    0 -0.12600475254E+00  0.22037311904E+01  0.16841710709E+01  0.27764619239E+01  0.51100000000E-03 0. -1.
        -11    1    3    3    0    0  0.12060426624E+02 -0.69624680399E+01 -0.13698749144E+02  0.19534215621E+02  0.51100000000E-03 0.  1.
         12    1    3    3    0    0 -0.15518942049E+01 -0.17124701051E+02  0.32751950697E+02  0.36991269729E+02  0.00000000000E+00 0. -1.
</event>
<event>
 7    1  0.3755162E-013  0.5930196E+02  0.7816164E-02  0.1266605E+00
        -11   -1    0    0    0    0  0.00000000000E+00  0.00000000000E+00  0.45593999997E+02  0.45594000000E+02  0.51100000000E-03 0.  1.
         11   -1    0    0    0    0 -0.00000000000E+00 -0.00000000000E+00 -0.45593999997E+02  0.45594000000E+02  0.51100000000E-03 0. -1.
    9900012    2    1    2    0    0  0.31905273765E+00 -0.28217918366E+02 -0.14844752774E+02  0.59301962359E+02  0.50000033432E+02 0.  0.
        -12    1    1    2    0    0 -0.31905273765E+00  0.28217918366E+02  0.14844752774E+02  0.31886037641E+02  0.00000000000E+00 0.  1.
         11    1    3    3    0    0  0.60011462848E+01 -0.17548054956E+02  0.36944178107E+01  0.18910227727E+02  0.51100000000E-03 0. -1.
        -11    1    3    3    0    0  0.32212167290E+01 -0.10018906430E+02  0.74618348391E+01  0.12900918676E+02  0.51100000000E-03 0.  1.
         12    1    3    3    0    0 -0.89033102761E+01 -0.65095697945E+00 -0.26001005423E+02  0.27490815955E+02  0.00000000000E+00 0. -1.
</event>
<event>
 7    1  0.3755162E-013  0.5930186E+02  0.7816164E-02  0.1266605E+00
        -11   -1    0    0    0    0  0.00000000000E+00  0.00000000000E+00  0.45593999997E+02  0.45594000000E+02  0.51100000000E-03 0. -1.
         11   -1    0    0    0    0 -0.00000000000E+00 -0.00000000000E+00 -0.45593999997E+02  0.45594000000E+02  0.51100000000E-03 0.  1.
    9900012    2    1    2    0    0  0.31400345153E+02 -0.53397010538E+01 -0.14940048053E+01  0.59301856717E+02  0.49999840766E+02 0.  0.
        -12    1    1    2    0    0 -0.31400345153E+02  0.53397010538E+01  0.14940048053E+01  0.31886143283E+02  0.00000000000E+00 0.  1.
         11    1    3    3    0    0  0.19596798081E+02  0.91107914957E+00  0.66903738193E+01  0.20727413305E+02  0.51100000000E-03 0. -1.
        -11    1    3    3    0    0 -0.40612876202E+01 -0.29159270398E+01  0.11815264130E+02  0.12829542251E+02  0.51100000000E-03 0.  1.
         12    1    3    3    0    0  0.15864834693E+02 -0.33348531636E+01 -0.19999642755E+02  0.25744901161E+02  0.00000000000E+00 0. -1.
</event>
<event>
 7    1  0.3755162E-013  0.5930195E+02  0.7816164E-02  0.1266605E+00
        -11   -1    0    0    0    0  0.00000000000E+00  0.00000000000E+00  0.45593999997E+02  0.45594000000E+02  0.51100000000E-03 0.  1.
         11   -1    0    0    0    0 -0.00000000000E+00 -0.00000000000E+00 -0.45593999997E+02  0.45594000000E+02  0.51100000000E-03 0. -1.
    9900012    2    1    2    0    0 -0.24554166911E+02  0.17945530330E+02  0.95797310532E+01  0.59301946331E+02  0.50000004201E+02 0.  0.
        -12    1    1    2    0    0  0.24554166911E+02 -0.17945530330E+02 -0.95797310532E+01  0.31886053669E+02  0.00000000000E+00 0.  1.
         11    1    3    3    0    0  0.23233093891E+01  0.93041859298E+01  0.16537185317E+02  0.19116593337E+02  0.51100000000E-03 0.  1.
        -11    1    3    3    0    0 -0.36887792732E+01 -0.87563045203E+01 -0.58840156462E+01  0.11175938518E+02  0.51100000000E-03 0. -1.
         12    1    3    3    0    0 -0.23188697027E+02  0.17397648921E+02 -0.10734386175E+01  0.29009414476E+02  0.00000000000E+00 0. -1.
</event>
<event>
 7    1  0.3755162E-013  0.5930194E+02  0.7816164E-02  0.1266605E+00
        -11   -1    0    0    0    0  0.00000000000E+00  0.00000000000E+00  0.45593999997E+02  0.45594000000E+02  0.51100000000E-03 0.  1.
         11   -1    0    0    0    0 -0.00000000000E+00 -0.00000000000E+00 -0.45593999997E+02  0.45594000000E+02  0.51100000000E-03 0. -1.
    9900012    2    1    2    0    0 -0.26479524334E+02  0.17681373707E+02  0.17102424791E+01  0.59301935419E+02  0.49999984300E+02 0.  0.
        -12    1    1    2    0    0  0.26479524334E+02 -0.17681373707E+02 -0.17102424791E+01  0.31886064581E+02  0.00000000000E+00 0.  1.
         11    1    3    3    0    0 -0.80352989930E+01  0.26141913385E+02 -0.11288039628E+02  0.29586914409E+02  0.51100000000E-03 0. -1.
        -11    1    3    3    0    0 -0.51082652958E+01  0.47741028518E+01  0.72377489334E+01  0.10063371317E+02  0.51100000000E-03 0.  1.
        -12    1    3    3    0    0 -0.13335960045E+02 -0.13234642530E+02  0.57605331739E+01  0.19651649694E+02  0.00000000000E+00 0.  1.
</event>
<event>
 7    1  0.3755162E-013  0.5930216E+02  0.7816164E-02  0.1266604E+00
        -11   -1    0    0    0    0  0.00000000000E+00  0.00000000000E+00  0.45593999997E+02  0.45594000000E+02  0.51100000000E-03 0.  1.
         11   -1    0    0    0    0 -0.00000000000E+00 -0.00000000000E+00 -0.45593999997E+02  0.45594000000E+02  0.51100000000E-03 0. -1.
    9900012    2    1    2    0    0 -0.15450195824E+02  0.27720640756E+02 -0.30925776034E+01  0.59302164411E+02  0.50000401925E+02 0.  0.
        -12    1    1    2    0    0  0.15450195824E+02 -0.27720640756E+02  0.30925776034E+01  0.31885835589E+02  0.00000000000E+00 0.  1.
         11    1    3    3    0    0 -0.40478857354E+01 -0.14151341388E+01 -0.11093368771E+02  0.11893309653E+02  0.51100000000E-03 0. -1.
        -11    1    3    3    0    0 -0.23822885100E+02  0.20922781370E+02  0.37740012615E+01  0.31930169441E+02  0.51100000000E-03 0.  1.
         12    1    3    3    0    0  0.12420575011E+02  0.82129935251E+01  0.42267899057E+01  0.15478685318E+02  0.00000000000E+00 0. -1.
</event>
<event>
 7    1  0.3755162E-013  0.5930190E+02  0.7816164E-02  0.1266605E+00
        -11   -1    0    0    0    0  0.00000000000E+00  0.00000000000E+00  0.45593999997E+02  0.45594000000E+02  0.51100000000E-03 0. -1.
         11   -1    0    0    0    0 -0.00000000000E+00 -0.00000000000E+00 -0.45593999997E+02  0.45594000000E+02  0.51100000000E-03 0.  1.
    9900012    2    1    2    0    0  0.26990646480E+02 -0.11373933612E+02  0.12604038549E+02  0.59301903485E+02  0.49999926060E+02 0.  0.
        -12    1    1    2    0    0 -0.26990646480E+02  0.11373933612E+02 -0.12604038549E+02  0.31886096515E+02  0.00000000000E+00 0.  1.
         11    1    3    3    0    0  0.44698662671E+01  0.10920525908E+02 -0.10601557570E+01  0.11847426769E+02  0.51100000000E-03 0. -1.
        -11    1    3    3    0    0  0.59531671367E+01  0.74875770787E+01  0.88578656634E+01  0.13037092998E+02  0.51100000000E-03 0.  1.
         12    1    3    3    0    0  0.16567613076E+02 -0.29782036599E+02  0.48063286427E+01  0.34417383718E+02  0.00000000000E+00 0. -1.
</event>
<event>
 7    1  0.3755162E-013  0.5930194E+02  0.7816164E-02  0.1266605E+00
        -11   -1    0    0    0    0  0.00000000000E+00  0.00000000000E+00  0.45593999997E+02  0.45594000000E+02  0.51100000000E-03 0.  1.
         11   -1    0    0    0    0 -0.00000000000E+00 -0.00000000000E+00 -0.45593999997E+02  0.45594000000E+02  0.51100000000E-03 0. -1.
    9900012    2    1    2    0    0 -0.27547657317E+02  0.13750719788E+02 -0.82924859058E+01  0.59301936573E+02  0.49999986405E+02 0.  0.
        -12    1    1    2    0    0  0.27547657317E+02 -0.13750719788E+02  0.82924859058E+01  0.31886063427E+02  0.00000000000E+00 0.  1.
         11    1    3    3    0    0 -0.72250944546E+01 -0.14419113030E+01 -0.23926678031E+02  0.25035315455E+02  0.51100000000E-03 0. -1.
        -11    1    3    3    0    0 -0.71068099994E+01 -0.30267646363E+01  0.60115997909E+01  0.97881246845E+01  0.51100000000E-03 0.  1.
        -12    1    3    3    0    0 -0.13215752863E+02  0.18219395727E+02  0.96225923346E+01  0.24478496433E+02  0.00000000000E+00 0.  1.
</event>
<event>
 7    1  0.3755162E-013  0.5930191E+02  0.7816164E-02  0.1266605E+00
        -11   -1    0    0    0    0  0.00000000000E+00  0.00000000000E+00  0.45593999997E+02  0.45594000000E+02  0.51100000000E-03 0. -1.
         11   -1    0    0    0    0 -0.00000000000E+00 -0.00000000000E+00 -0.45593999997E+02  0.45594000000E+02  0.51100000000E-03 0.  1.
    9900012    2    1    2    0    0  0.21417413916E+02 -0.21902995650E+02  0.88473820079E+01  0.59301905763E+02  0.49999930214E+02 0.  0.
        -12    1    1    2    0    0 -0.21417413916E+02  0.21902995650E+02 -0.88473820079E+01  0.31886094237E+02  0.00000000000E+00 0.  1.
         11    1    3    3    0    0  0.65615626235E+01 -0.14144889241E+02  0.16790966221E+02  0.22914374149E+02  0.51100000000E-03 0. -1.
        -11    1    3    3    0    0  0.54194453073E+01  0.70434933188E+01  0.85271747540E+01  0.12316407557E+02  0.51100000000E-03 0.  1.
        -12    1    3    3    0    0  0.94364059853E+01 -0.14801599727E+02 -0.16470758967E+02  0.24071124057E+02  0.00000000000E+00 0.  1.
</event>
<event>
 7    1  0.3755162E-013  0.5930192E+02  0.7816164E-02  0.1266605E+00
        -11   -1    0    0    0    0  0.00000000000E+00  0.00000000000E+00  0.45593999997E+02  0.45594000000E+02  0.51100000000E-03 0.  1.
         11   -1    0    0    0    0 -0.00000000000E+00 -0.00000000000E+00 -0.45593999997E+02  0.45594000000E+02  0.51100000000E-03 0. -1.
    9900012    2    1    2    0    0  0.37137860086E+01 -0.22423649555E+02 -0.22363134466E+02  0.59301920764E+02  0.49999957573E+02 0.  0.
        -12    1    1    2    0    0 -0.37137860086E+01  0.22423649555E+02  0.22363134466E+02  0.31886079236E+02  0.00000000000E+00 0.  1.
         11    1    3    3    0    0  0.76815082410E+01 -0.12498035814E+02 -0.55178673979E+01  0.15673331775E+02  0.51100000000E-03 0.  1.
        -11    1    3    3    0    0 -0.92871787561E+01 -0.16982331172E+02 -0.24990890170E+02  0.31610059365E+02  0.51100000000E-03 0. -1.
        -12    1    3    3    0    0  0.53194565237E+01  0.70567174302E+01  0.81456231023E+01  0.12018529624E+02  0.00000000000E+00 0.  1.
</event>
<event>
 7    1  0.3755162E-013  0.5930194E+02  0.7816164E-02  0.1266605E+00
        -11   -1    0    0    0    0  0.00000000000E+00  0.00000000000E+00  0.45593999997E+02  0.45594000000E+02  0.51100000000E-03 0. -1.
         11   -1    0    0    0    0 -0.00000000000E+00 -0.00000000000E+00 -0.45593999997E+02  0.45594000000E+02  0.51100000000E-03 0.  1.
    9900012    2    1    2    0    0 -0.20027122704E+02 -0.97303823235E+01  0.22824428285E+02  0.59301944890E+02  0.50000001572E+02 0.  0.
        -12    1    1    2    0    0  0.20027122704E+02  0.97303823235E+01 -0.22824428285E+02  0.31886055110E+02  0.00000000000E+00 0.  1.
         11    1    3    3    0    0 -0.14622542807E+02  0.36363688779E+01  0.84908082276E+01  0.17295541662E+02  0.51100000000E-03 0. -1.
        -11    1    3    3    0    0 -0.17546389577E+02 -0.40196765801E+01  0.18817458507E+02  0.26040935695E+02  0.51100000000E-03 0.  1.
        -12    1    3    3    0    0  0.12141809680E+02 -0.93470746213E+01 -0.44838384495E+01  0.15965467532E+02  0.00000000000E+00 0.  1.
</event>
<event>
 7    1  0.3755162E-013  0.5930183E+02  0.7816164E-02  0.1266605E+00
        -11   -1    0    0    0    0  0.00000000000E+00  0.00000000000E+00  0.45593999997E+02  0.45594000000E+02  0.51100000000E-03 0. -1.
         11   -1    0    0    0    0 -0.00000000000E+00 -0.00000000000E+00 -0.45593999997E+02  0.45594000000E+02  0.51100000000E-03 0.  1.
    9900012    2    1    2    0    0 -0.24306605974E+02 -0.55253858674E+01  0.19884330262E+02  0.59301834145E+02  0.49999799600E+02 0.  0.
        -12    1    1    2    0    0  0.24306605974E+02  0.55253858674E+01 -0.19884330262E+02  0.31886165855E+02  0.00000000000E+00 0.  1.
         11    1    3    3    0    0 -0.19068854133E+01 -0.98167968647E+00 -0.86276989587E+00  0.23117696989E+01  0.51100000000E-03 0. -1.
        -11    1    3    3    0    0 -0.25870251040E+02 -0.46195171390E+01 -0.84367240321E+01  0.27600509780E+02  0.51100000000E-03 0.  1.
         12    1    3    3    0    0  0.34705304790E+01  0.75810958064E-01  0.29183824190E+02  0.29389554666E+02  0.00000000000E+00 0. -1.
</event>
<event>
 7    1  0.3755162E-013  0.5930196E+02  0.7816164E-02  0.1266605E+00
        -11   -1    0    0    0    0  0.00000000000E+00  0.00000000000E+00  0.45593999997E+02  0.45594000000E+02  0.51100000000E-03 0. -1.
         11   -1    0    0    0    0 -0.00000000000E+00 -0.00000000000E+00 -0.45593999997E+02  0.45594000000E+02  0.51100000000E-03 0.  1.
    9900012    2    1    2    0    0  0.10311027046E+02 -0.30171862951E+02  0.24656522586E+00  0.59301962505E+02  0.50000033699E+02 0.  0.
        -12    1    1    2    0    0 -0.10311027046E+02  0.30171862951E+02 -0.24656522586E+00  0.31886037495E+02  0.00000000000E+00 0.  1.
         11    1    3    3    0    0  0.63380649091E+01 -0.11145557169E+01 -0.88552035554E+01  0.10946594516E+02  0.51100000000E-03 0. -1.
        -11    1    3    3    0    0  0.14440120949E+02 -0.81845599565E+01 -0.89347490168E+01  0.18850301190E+02  0.51100000000E-03 0.  1.
         12    1    3    3    0    0 -0.10467158812E+02 -0.20872747278E+02  0.18036517798E+02  0.29505066799E+02  0.00000000000E+00 0. -1.
</event>
<event>
 7    1  0.3755162E-013  0.5930205E+02  0.7816164E-02  0.1266604E+00
        -11   -1    0    0    0    0  0.00000000000E+00  0.00000000000E+00  0.45593999997E+02  0.45594000000E+02  0.51100000000E-03 0.  1.
         11   -1    0    0    0    0 -0.00000000000E+00 -0.00000000000E+00 -0.45593999997E+02  0.45594000000E+02  0.51100000000E-03 0. -1.
    9900012    2    1    2    0    0 -0.20882125865E+02  0.12095084045E+02 -0.20841293185E+02  0.59302051052E+02  0.50000195186E+02 0.  0.
        -12    1    1    2    0    0  0.20882125865E+02 -0.12095084045E+02  0.20841293185E+02  0.31885948948E+02  0.00000000000E+00 0.  1.
         11    1    3    3    0    0 -0.11446593870E+02  0.13150911602E+02 -0.25803799686E+02  0.31141725477E+02  0.51100000000E-03 0. -1.
        -11    1    3    3    0    0  0.14484666267E+01  0.98638177041E+01  0.75777172481E+01  0.12522569793E+02  0.51100000000E-03 0.  1.
        -12    1    3    3    0    0 -0.10883998621E+02 -0.10919645261E+02 -0.26152107472E+01  0.15637755781E+02  0.00000000000E+00 0.  1.
</event>
<event>
 7    1  0.3755162E-013  0.5930205E+02  0.7816164E-02  0.1266604E+00
        -11   -1    0    0    0    0  0.00000000000E+00  0.00000000000E+00  0.45593999997E+02  0.45594000000E+02  0.51100000000E-03 0.  1.
         11   -1    0    0    0    0 -0.00000000000E+00 -0.00000000000E+00 -0.45593999997E+02  0.45594000000E+02  0.51100000000E-03 0. -1.
    9900012    2    1    2    0    0  0.43246594414E+01 -0.98605813587E+01 -0.30012996919E+02  0.59302051244E+02  0.50000195536E+02 0.  0.
        -12    1    1    2    0    0 -0.43246594414E+01  0.98605813587E+01  0.30012996919E+02  0.31885948756E+02  0.00000000000E+00 0.  1.
         11    1    3    3    0    0 -0.79123930714E+01 -0.40603431720E+01 -0.27656145989E+02  0.29050899504E+02  0.51100000000E-03 0. -1.
        -11    1    3    3    0    0 -0.73221602864E+01 -0.34279959795E+01  0.46656255544E+01  0.93345192576E+01  0.51100000000E-03 0.  1.
         12    1    3    3    0    0  0.19559212799E+02 -0.23722422072E+01 -0.70224764850E+01  0.20916632482E+02  0.00000000000E+00 0. -1.
</event>
<event>
 7    1  0.3755162E-013  0.5930196E+02  0.7816164E-02  0.1266605E+00
        -11   -1    0    0    0    0  0.00000000000E+00  0.00000000000E+00  0.45593999997E+02  0.45594000000E+02  0.51100000000E-03 0.  1.
         11   -1    0    0    0    0 -0.00000000000E+00 -0.00000000000E+00 -0.45593999997E+02  0.45594000000E+02  0.51100000000E-03 0. -1.
    9900012    2    1    2    0    0  0.16595458793E+02 -0.85426360316E+01 -0.25852155273E+02  0.59301955793E+02  0.50000021458E+02 0.  0.
        -12    1    1    2    0    0 -0.16595458793E+02  0.85426360316E+01  0.25852155273E+02  0.31886044207E+02  0.00000000000E+00 0.  1.
         11    1    3    3    0    0  0.20636258729E+02  0.71598556063E+01 -0.17724961016E+02  0.28129929789E+02  0.51100000000E-03 0. -1.
        -11    1    3    3    0    0 -0.62527609463E+01  0.27839980884E+01  0.49267723058E+01  0.84333119485E+01  0.51100000000E-03 0.  1.
         12    1    3    3    0    0  0.22119610098E+01 -0.18486489726E+02 -0.13053966563E+02  0.22738714056E+02  0.00000000000E+00 0. -1.
</event>
<event>
 7    1  0.3755162E-013  0.5930199E+02  0.7816164E-02  0.1266605E+00
        -11   -1    0    0    0    0  0.00000000000E+00  0.00000000000E+00  0.45593999997E+02  0.45594000000E+02  0.51100000000E-03 0. -1.
         11   -1    0    0    0    0 -0.00000000000E+00 -0.00000000000E+00 -0.45593999997E+02  0.45594000000E+02  0.51100000000E-03 0.  1.
    9900012    2    1    2    0    0 -0.17210152367E+02  0.26763712775E+02  0.20571139217E+01  0.59301993921E+02  0.50000090992E+02 0.  0.
        -12    1    1    2    0    0  0.17210152367E+02 -0.26763712775E+02 -0.20571139217E+01  0.31886006079E+02  0.00000000000E+00 0.  1.
         11    1    3    3    0    0 -0.15303780089E+02  0.19983235431E+01  0.18470414946E+02  0.24069798723E+02  0.51100000000E-03 0. -1.
        -11    1    3    3    0    0  0.29249346430E+01 -0.22740396621E+01 -0.21075084763E+01  0.42624044024E+01  0.51100000000E-03 0.  1.
        -12    1    3    3    0    0 -0.48313069205E+01  0.27039428894E+02 -0.14305792548E+02  0.30969790796E+02  0.00000000000E+00 0.  1.
</event>
<event>
 7    1  0.3755162E-013  0.5930194E+02  0.7816164E-02  0.1266605E+00
        -11   -1    0    0    0    0  0.00000000000E+00  0.00000000000E+00  0.45593999997E+02  0.45594000000E+02  0.51100000000E-03 0. -1.
         11   -1    0    0    0    0 -0.00000000000E+00 -0.00000000000E+00 -0.45593999997E+02  0.45594000000E+02  0.51100000000E-03 0.  1.
    9900012    2    1    2    0    0 -0.29300184039E+01 -0.18513049943E+02  0.25795406489E+02  0.59301936870E+02  0.49999986945E+02 0.  0.
        -12    1    1    2    0    0  0.29300184039E+01  0.18513049943E+02 -0.25795406489E+02  0.31886063130E+02  0.00000000000E+00 0.  1.
         11    1    3    3    0    0 -0.10604894707E+02 -0.41052307258E+00  0.18167086581E+02  0.21039851617E+02  0.51100000000E-03 0. -1.
        -11    1    3    3    0    0 -0.10145293600E+02 -0.51430436765E+01 -0.54777216260E+01  0.12624710490E+02  0.51100000000E-03 0.  1.
         12    1    3    3    0    0  0.17820169903E+02 -0.12959483194E+02  0.13106041533E+02  0.25637374762E+02  0.00000000000E+00 0. -1.
</event>
<event>
 7    1  0.3755162E-013  0.5930188E+02  0.7816164E-02  0.1266605E+00
        -11   -1    0    0    0    0  0.00000000000E+00  0.00000000000E+00  0.45593999997E+02  0.45594000000E+02  0.51100000000E-03 0.  1.
         11   -1    0    0    0    0 -0.00000000000E+00 -0.00000000000E+00 -0.45593999997E+02  0.45594000000E+02  0.51100000000E-03 0. -1.
    9900012    2    1    2    0    0  0.37459284873E+01 -0.24248405643E+02 -0.20364361314E+02  0.59301884398E+02  0.49999891249E+02 0.  0.
        -12    1    1    2    0    0 -0.37459284873E+01  0.24248405643E+02  0.20364361314E+02  0.31886115602E+02  0.00000000000E+00 0.  1.
         11    1    3    3    0    0  0.36264358344E+01 -0.16217805201E+02 -0.81394940999E+01  0.18504583401E+02  0.51100000000E-03 0. -1.
        -11    1    3    3    0    0  0.13646978141E+02 -0.10587150943E+02  0.57066529116E+01  0.18190482819E+02  0.51100000000E-03 0.  1.
        -12    1    3    3    0    0 -0.13527485488E+02  0.25565505007E+01 -0.17931520126E+02  0.22606818178E+02  0.00000000000E+00 0.  1.
</event>
<event>
 7    1  0.3755162E-013  0.5930196E+02  0.7816164E-02  0.1266605E+00
        -11   -1    0    0    0    0  0.00000000000E+00  0.00000000000E+00  0.45593999997E+02  0.45594000000E+02  0.51100000000E-03 0. -1.
         11   -1    0    0    0    0 -0.00000000000E+00 -0.00000000000E+00 -0.45593999997E+02  0.45594000000E+02  0.51100000000E-03 0.  1.
    9900012    2    1    2    0    0  0.11675120015E+02 -0.14494520464E+02  0.25890542255E+02  0.59301957143E+02  0.50000023918E+02 0.  0.
        -12    1    1    2    0    0 -0.11675120015E+02  0.14494520464E+02 -0.25890542255E+02  0.31886042857E+02  0.00000000000E+00 0.  1.
         11    1    3    3    0    0  0.39753859398E+01 -0.12103467720E+02  0.26325692169E+02  0.29246191080E+02  0.51100000000E-03 0. -1.
        -11    1    3    3    0    0 -0.83347087596E+01  0.67627902300E+01 -0.36045386128E+01  0.11322340777E+02  0.51100000000E-03 0.  1.
        -12    1    3    3    0    0  0.16034442835E+02 -0.91538429734E+01  0.31693886986E+01  0.18733425286E+02  0.00000000000E+00 0.  1.
</event>
<event>
 7    1  0.3755162E-013  0.5930196E+02  0.7816164E-02  0.1266605E+00
        -11   -1    0    0    0    0  0.00000000000E+00  0.00000000000E+00  0.45593999997E+02  0.45594000000E+02  0.51100000000E-03 0. -1.
         11   -1    0    0    0    0 -0.00000000000E+00 -0.00000000000E+00 -0.45593999997E+02  0.45594000000E+02  0.51100000000E-03 0.  1.
    9900012    2    1    2    0    0  0.11744159031E+02 -0.27381355343E+02  0.11360264033E+02  0.59301960881E+02  0.50000030737E+02 0.  0.
        -12    1    1    2    0    0 -0.11744159031E+02  0.27381355343E+02 -0.11360264033E+02  0.31886039119E+02  0.00000000000E+00 0.  1.
         11    1    3    3    0    0 -0.67326035120E+01 -0.50752921641E+01  0.89357065010E+01  0.12285495168E+02  0.51100000000E-03 0. -1.
        -11    1    3    3    0    0  0.96492716002E+00 -0.27496184909E+02 -0.36809359210E+01  0.27758252079E+02  0.51100000000E-03 0.  1.
        -12    1    3    3    0    0  0.17511835383E+02  0.51901217298E+01  0.61054934532E+01  0.19258213634E+02  0.00000000000E+00 0.  1.
</event>
<event>
 7    1  0.3755162E-013  0.5930193E+02  0.7816164E-02  0.1266605E+00
        -11   -1    0    0    0    0  0.00000000000E+00  0.00000000000E+00  0.45593999997E+02  0.45594000000E+02  0.51100000000E-03 0. -1.
         11   -1    0    0    0    0 -0.00000000000E+00 -0.00000000000E+00 -0.45593999997E+02  0.45594000000E+02  0.51100000000E-03 0.  1.
    9900012    2    1    2    0    0  0.43953692907E+01 -0.28519920460E+02  0.13565272331E+02  0.59301925490E+02  0.49999966191E+02 0.  0.
        -12    1    1    2    0    0 -0.43953692907E+01  0.28519920460E+02 -0.13565272331E+02  0.31886074510E+02  0.00000000000E+00 0.  1.
         11    1    3    3    0    0  0.21178569423E+02 -0.17810638327E+02  0.84415356022E+01  0.28931127942E+02  0.51100000000E-03 0.  1.
        -11    1    3    3    0    0 -0.11017830340E+02 -0.15884285601E+02  0.94282381050E+01  0.21508016842E+02  0.51100000000E-03 0. -1.
        -12    1    3    3    0    0 -0.57653697931E+01  0.51750034672E+01 -0.43045013767E+01  0.88627807058E+01  0.00000000000E+00 0.  1.
</event>
<event>
 7    1  0.3755162E-013  0.5930194E+02  0.7816164E-02  0.1266605E+00
        -11   -1    0    0    0    0  0.00000000000E+00  0.00000000000E+00  0.45593999997E+02  0.45594000000E+02  0.51100000000E-03 0. -1.
         11   -1    0    0    0    0 -0.00000000000E+00 -0.00000000000E+00 -0.45593999997E+02  0.45594000000E+02  0.51100000000E-03 0.  1.
    9900012    2    1    2    0    0 -0.23344577406E+02 -0.21604832453E+02  0.22322718034E+01  0.59301935380E+02  0.49999984229E+02 0.  0.
        -12    1    1    2    0    0  0.23344577406E+02  0.21604832453E+02 -0.22322718034E+01  0.31886064620E+02  0.00000000000E+00 0.  1.
         11    1    3    3    0    0 -0.11326277637E+02 -0.12231438536E+01  0.17293731280E+02  0.20708785281E+02  0.51100000000E-03 0. -1.
        -11    1    3    3    0    0  0.81895416069E+01 -0.28508642935E+01 -0.24105387208E+01  0.90003731110E+01  0.51100000000E-03 0.  1.
         12    1    3    3    0    0 -0.20207841375E+02 -0.17530824305E+02 -0.12650920755E+02  0.29592776988E+02  0.00000000000E+00 0. -1.
</event>
<event>
 7    1  0.3755162E-013  0.5930200E+02  0.7816164E-02  0.1266605E+00
        -11   -1    0    0    0    0  0.00000000000E+00  0.00000000000E+00  0.45593999997E+02  0.45594000000E+02  0.51100000000E-03 0.  1.
         11   -1    0    0    0    0 -0.00000000000E+00 -0.00000000000E+00 -0.45593999997E+02  0.45594000000E+02  0.51100000000E-03 0. -1.
    9900012    2    1    2    0    0 -0.14231730303E+02  0.13715981861E+02 -0.25020926574E+02  0.59301998801E+02  0.50000099893E+02 0.  0.
        -12    1    1    2    0    0  0.14231730303E+02 -0.13715981861E+02  0.25020926574E+02  0.31886001199E+02  0.00000000000E+00 0.  1.
         11    1    3    3    0    0 -0.21366207317E+02 -0.54962688647E+01 -0.12937021995E+02  0.25575189636E+02  0.51100000000E-03 0. -1.
        -11    1    3    3    0    0 -0.58611890251E+01  0.12156680100E+02  0.15862247408E+01  0.13588764367E+02  0.51100000000E-03 0.  1.
        -12    1    3    3    0    0  0.12995666039E+02  0.70555706258E+01 -0.13670129320E+02  0.20138044798E+02  0.00000000000E+00 0.  1.
</event>
<event>
 7    1  0.3755162E-013  0.5930195E+02  0.7816164E-02  0.1266605E+00
        -11   -1    0    0    0    0  0.00000000000E+00  0.00000000000E+00  0.45593999997E+02  0.45594000000E+02  0.51100000000E-03 0. -1.
         11   -1    0    0    0    0 -0.00000000000E+00 -0.00000000000E+00 -0.45593999997E+02  0.45594000000E+02  0.51100000000E-03 0.  1.
    9900012    2    1    2    0    0  0.19575456661E+02 -0.25065084152E+02  0.22941899918E+01  0.59301948900E+02  0.50000008886E+02 0.  0.
        -12    1    1    2    0    0 -0.19575456661E+02  0.25065084152E+02 -0.22941899918E+01  0.31886051100E+02  0.00000000000E+00 0.  1.
         11    1    3    3    0    0 -0.50157895810E-01 -0.59784192119E+01 -0.37238155784E+01  0.70434945028E+01  0.51100000000E-03 0. -1.
        -11    1    3    3    0    0  0.24390254775E+02  0.63170160523E+01 -0.17890834328E+01  0.25258464711E+02  0.51100000000E-03 0.  1.
         12    1    3    3    0    0 -0.47646402178E+01 -0.25403680992E+02  0.78070890030E+01  0.26999989686E+02  0.00000000000E+00 0. -1.
</event>
<event>
 7    1  0.3755162E-013  0.5930193E+02  0.7816164E-02  0.1266605E+00
        -11   -1    0    0    0    0  0.00000000000E+00  0.00000000000E+00  0.45593999997E+02  0.45594000000E+02  0.51100000000E-03 0. -1.
         11   -1    0    0    0    0 -0.00000000000E+00 -0.00000000000E+00 -0.45593999997E+02  0.45594000000E+02  0.51100000000E-03 0.  1.
    9900012    2    1    2    0    0 -0.20748648833E+02 -0.23933317497E+02  0.36621699902E+01  0.59301927745E+02  0.49999970304E+02 0.  0.
        -12    1    1    2    0    0  0.20748648833E+02  0.23933317497E+02 -0.36621699902E+01  0.31886072255E+02  0.00000000000E+00 0.  1.
         11    1    3    3    0    0  0.12661037717E+02 -0.21473671988E+02  0.60456731764E+01  0.25650938172E+02  0.51100000000E-03 0.  1.
        -11    1    3    3    0    0 -0.17003101934E+02 -0.21390782198E+01 -0.17927435928E+01  0.17230643078E+02  0.51100000000E-03 0. -1.
        -12    1    3    3    0    0 -0.16406584615E+02 -0.32056728974E+00 -0.59075959339E+00  0.16420346495E+02  0.00000000000E+00 0.  1.
</event>
<event>
 7    1  0.3755162E-013  0.5930193E+02  0.7816164E-02  0.1266605E+00
        -11   -1    0    0    0    0  0.00000000000E+00  0.00000000000E+00  0.45593999997E+02  0.45594000000E+02  0.51100000000E-03 0.  1.
         11   -1    0    0    0    0 -0.00000000000E+00 -0.00000000000E+00 -0.45593999997E+02  0.45594000000E+02  0.51100000000E-03 0. -1.
    9900012    2    1    2    0    0 -0.95790742121E+00  0.22398088930E+02 -0.22674425836E+02  0.59301928412E+02  0.49999971521E+02 0.  0.
        -12    1    1    2    0    0  0.95790742121E+00 -0.22398088930E+02  0.22674425836E+02  0.31886071588E+02  0.00000000000E+00 0.  1.
         11    1    3    3    0    0 -0.66014852755E+01 -0.19436205710E+00 -0.23029186752E+01  0.69943419374E+01  0.51100000000E-03 0.  1.
        -11    1    3    3    0    0 -0.70316385884E+01  0.30604131503E+02 -0.20150827010E+02  0.37311025659E+02  0.51100000000E-03 0. -1.
        -12    1    3    3    0    0  0.12675216443E+02 -0.80116805161E+01 -0.22068015040E+00  0.14996560815E+02  0.00000000000E+00 0.  1.
</event>
<event>
 7    1  0.3755162E-013  0.5930196E+02  0.7816164E-02  0.1266605E+00
        -11   -1    0    0    0    0  0.00000000000E+00  0.00000000000E+00  0.45593999997E+02  0.45594000000E+02  0.51100000000E-03 0.  1.
         11   -1    0    0    0    0 -0.00000000000E+00 -0.00000000000E+00 -0.45593999997E+02  0.45594000000E+02  0.51100000000E-03 0. -1.
    9900012    2    1    2    0    0  0.17397993611E+00  0.31885522967E+02 -0.51179778759E-01  0.59301961311E+02  0.50000031520E+02 0.  0.
        -12    1    1    2    0    0 -0.17397993611E+00 -0.31885522967E+02  0.51179778759E-01  0.31886038689E+02  0.00000000000E+00 0.  1.
         11    1    3    3    0    0  0.14650819805E+02  0.11053551740E+01 -0.22734423883E+01  0.14867308821E+02  0.51100000000E-03 0. -1.
        -11    1    3    3    0    0 -0.22657376686E+01 -0.53054935384E+01 -0.19994325175E+01  0.61056989380E+01  0.51100000000E-03 0.  1.
         12    1    3    3    0    0 -0.12211102200E+02  0.36085661332E+02  0.42216951270E+01  0.38328953552E+02  0.00000000000E+00 0. -1.
</event>
<event>
 7    1  0.3755162E-013  0.5930196E+02  0.7816164E-02  0.1266605E+00
        -11   -1    0    0    0    0  0.00000000000E+00  0.00000000000E+00  0.45593999997E+02  0.45594000000E+02  0.51100000000E-03 0. -1.
         11   -1    0    0    0    0 -0.00000000000E+00 -0.00000000000E+00 -0.45593999997E+02  0.45594000000E+02  0.51100000000E-03 0.  1.
    9900012    2    1    2    0    0  0.43110477660E+01  0.12556544749E+02  0.28990823277E+02  0.59301956295E+02  0.50000022373E+02 0.  0.
        -12    1    1    2    0    0 -0.43110477660E+01 -0.12556544749E+02 -0.28990823277E+02  0.31886043705E+02  0.00000000000E+00 0.  1.
         11    1    3    3    0    0  0.79899740701E+01  0.27931341127E+02  0.11042101974E+02  0.31079374496E+02  0.51100000000E-03 0. -1.
        -11    1    3    3    0    0  0.10231157574E+01  0.27726149164E+01  0.33110249369E+01  0.44381353880E+01  0.51100000000E-03 0.  1.
        -12    1    3    3    0    0 -0.47020420614E+01 -0.18147411294E+02  0.14637696366E+02  0.23784446411E+02  0.00000000000E+00 0.  1.
</event>
<event>
 7    1  0.3755162E-013  0.5930193E+02  0.7816164E-02  0.1266605E+00
        -11   -1    0    0    0    0  0.00000000000E+00  0.00000000000E+00  0.45593999997E+02  0.45594000000E+02  0.51100000000E-03 0. -1.
         11   -1    0    0    0    0 -0.00000000000E+00 -0.00000000000E+00 -0.45593999997E+02  0.45594000000E+02  0.51100000000E-03 0.  1.
    9900012    2    1    2    0    0  0.15959987661E+02 -0.90712245728E+01 -0.26071306551E+02  0.59301931778E+02  0.49999977659E+02 0.  0.
        -12    1    1    2    0    0 -0.15959987661E+02  0.90712245728E+01  0.26071306551E+02  0.31886068222E+02  0.00000000000E+00 0.  1.
         11    1    3    3    0    0  0.59040937261E+01  0.93793869880E+01  0.88919809683E+01  0.14209100915E+02  0.51100000000E-03 0. -1.
        -11    1    3    3    0    0 -0.16253740818E+01  0.82505672856E+00  0.14085844160E+01  0.23036210255E+01  0.51100000000E-03 0.  1.
        -12    1    3    3    0    0  0.11681268016E+02 -0.19275668289E+02 -0.36371871935E+02  0.42789209838E+02  0.00000000000E+00 0.  1.
</event>
<event>
 7    1  0.3755162E-013  0.5930194E+02  0.7816164E-02  0.1266605E+00
        -11   -1    0    0    0    0  0.00000000000E+00  0.00000000000E+00  0.45593999997E+02  0.45594000000E+02  0.51100000000E-03 0.  1.
         11   -1    0    0    0    0 -0.00000000000E+00 -0.00000000000E+00 -0.45593999997E+02  0.45594000000E+02  0.51100000000E-03 0. -1.
    9900012    2    1    2    0    0  0.12398213787E+02 -0.65657533140E+01 -0.28633828923E+02  0.59301937520E+02  0.49999988131E+02 0.  0.
        -12    1    1    2    0    0 -0.12398213787E+02  0.65657533140E+01  0.28633828923E+02  0.31886062480E+02  0.00000000000E+00 0.  1.
         11    1    3    3    0    0  0.54282861539E+01 -0.19560932721E+02 -0.20749790660E+02  0.29028437646E+02  0.51100000000E-03 0. -1.
        -11    1    3    3    0    0  0.26577255061E+01 -0.65975572075E+01 -0.73161633218E+01  0.10203798900E+02  0.51100000000E-03 0.  1.
        -12    1    3    3    0    0  0.43122021271E+01  0.19592736614E+02 -0.56787494096E+00  0.20069700974E+02  0.00000000000E+00 0.  1.
</event>
<event>
 7    1  0.3755162E-013  0.5930196E+02  0.7816164E-02  0.1266605E+00
        -11   -1    0    0    0    0  0.00000000000E+00  0.00000000000E+00  0.45593999997E+02  0.45594000000E+02  0.51100000000E-03 0.  1.
         11   -1    0    0    0    0 -0.00000000000E+00 -0.00000000000E+00 -0.45593999997E+02  0.45594000000E+02  0.51100000000E-03 0. -1.
    9900012    2    1    2    0    0 -0.21003041966E+02 -0.83003726938E+01 -0.22509896394E+02  0.59301962392E+02  0.50000033491E+02 0.  0.
        -12    1    1    2    0    0  0.21003041966E+02  0.83003726938E+01  0.22509896394E+02  0.31886037608E+02  0.00000000000E+00 0.  1.
         11    1    3    3    0    0 -0.52671644769E+01 -0.21017379847E+02 -0.14561441600E+02  0.26105724640E+02  0.51100000000E-03 0. -1.
        -11    1    3    3    0    0 -0.70653741216E+01 -0.70267146696E+01 -0.57902952354E+01  0.11524831873E+02  0.51100000000E-03 0.  1.
        -12    1    3    3    0    0 -0.86705033677E+01  0.19743721823E+02 -0.21581595589E+01  0.21671405878E+02  0.00000000000E+00 0.  1.
</event>
<event>
 7    1  0.3755162E-013  0.5930217E+02  0.7816164E-02  0.1266604E+00
        -11   -1    0    0    0    0  0.00000000000E+00  0.00000000000E+00  0.45593999997E+02  0.45594000000E+02  0.51100000000E-03 0.  1.
         11   -1    0    0    0    0 -0.00000000000E+00 -0.00000000000E+00 -0.45593999997E+02  0.45594000000E+02  0.51100000000E-03 0. -1.
    9900012    2    1    2    0    0  0.23956923857E+02  0.17319487467E+02 -0.11950206331E+02  0.59302168065E+02  0.50000408589E+02 0.  0.
        -12    1    1    2    0    0 -0.23956923857E+02 -0.17319487467E+02  0.11950206331E+02  0.31885831935E+02  0.00000000000E+00 0.  1.
         11    1    3    3    0    0  0.20631393440E+01  0.66195207886E+01 -0.19168534254E+02  0.20383996299E+02  0.51100000000E-03 0. -1.
        -11    1    3    3    0    0  0.21481888732E+02  0.18777390767E+02  0.71631194447E+00  0.28540761212E+02  0.51100000000E-03 0.  1.
        -12    1    3    3    0    0  0.41189578141E+00 -0.80774240883E+01  0.65020159777E+01  0.10377410554E+02  0.00000000000E+00 0.  1.
</event>
<event>
 7    1  0.3755162E-013  0.5930194E+02  0.7816164E-02  0.1266605E+00
        -11   -1    0    0    0    0  0.00000000000E+00  0.00000000000E+00  0.45593999997E+02  0.45594000000E+02  0.51100000000E-03 0.  1.
         11   -1    0    0    0    0 -0.00000000000E+00 -0.00000000000E+00 -0.45593999997E+02  0.45594000000E+02  0.51100000000E-03 0. -1.
    9900012    2    1    2    0    0  0.15176016284E+02 -0.13881804800E+02 -0.24366061281E+02  0.59301938514E+02  0.49999989944E+02 0.  0.
        -12    1    1    2    0    0 -0.15176016284E+02  0.13881804800E+02  0.24366061281E+02  0.31886061486E+02  0.00000000000E+00 0.  1.
         11    1    3    3    0    0  0.22645382213E+02 -0.22476009823E+01 -0.20788296188E+02  0.30822366950E+02  0.51100000000E-03 0. -1.
        -11    1    3    3    0    0  0.16927716145E+01 -0.16708923736E+02 -0.58093303322E+01  0.17770816732E+02  0.51100000000E-03 0.  1.
        -12    1    3    3    0    0 -0.91621375432E+01  0.50747199191E+01  0.22315652393E+01  0.10708754831E+02  0.00000000000E+00 0.  1.
</event>
<event>
 7    1  0.3755162E-013  0.5930193E+02  0.7816164E-02  0.1266605E+00
        -11   -1    0    0    0    0  0.00000000000E+00  0.00000000000E+00  0.45593999997E+02  0.45594000000E+02  0.51100000000E-03 0.  1.
         11   -1    0    0    0    0 -0.00000000000E+00 -0.00000000000E+00 -0.45593999997E+02  0.45594000000E+02  0.51100000000E-03 0. -1.
    9900012    2    1    2    0    0  0.27822105507E+02 -0.15316435748E+02  0.28388303808E+01  0.59301925974E+02  0.49999967074E+02 0.  0.
        -12    1    1    2    0    0 -0.27822105507E+02  0.15316435748E+02 -0.28388303808E+01  0.31886074026E+02  0.00000000000E+00 0.  1.
         11    1    3    3    0    0  0.21863691308E+02 -0.26906325096E+02 -0.34630963936E+01  0.34841991399E+02  0.51100000000E-03 0. -1.
        -11    1    3    3    0    0  0.44035638840E+01  0.27765235832E+01  0.12522132352E+02  0.13561130373E+02  0.51100000000E-03 0.  1.
        -12    1    3    3    0    0  0.15548503151E+01  0.88133657649E+01 -0.62202055774E+01  0.10898804202E+02  0.00000000000E+00 0.  1.
</event>
<event>
 7    1  0.3755162E-013  0.5930196E+02  0.7816164E-02  0.1266605E+00
        -11   -1    0    0    0    0  0.00000000000E+00  0.00000000000E+00  0.45593999997E+02  0.45594000000E+02  0.51100000000E-03 0. -1.
         11   -1    0    0    0    0 -0.00000000000E+00 -0.00000000000E+00 -0.45593999997E+02  0.45594000000E+02  0.51100000000E-03 0.  1.
    9900012    2    1    2    0    0  0.17350440334E+02  0.20383900369E+02 -0.17325655725E+02  0.59301960416E+02  0.50000029888E+02 0.  0.
        -12    1    1    2    0    0 -0.17350440334E+02 -0.20383900369E+02  0.17325655725E+02  0.31886039584E+02  0.00000000000E+00 0.  1.
         11    1    3    3    0    0 -0.47363338176E+01  0.28502356239E+01  0.10963463641E+02  0.12278201677E+02  0.51100000000E-03 0. -1.
        -11    1    3    3    0    0  0.10103765024E+02  0.44077221144E+00  0.19297581179E+01  0.10295839667E+02  0.51100000000E-03 0.  1.
         12    1    3    3    0    0  0.11983009128E+02  0.17092892534E+02 -0.30218877484E+02  0.36727919072E+02  0.00000000000E+00 0. -1.
</event>
<event>
 7    1  0.3755162E-013  0.5930199E+02  0.7816164E-02  0.1266605E+00
        -11   -1    0    0    0    0  0.00000000000E+00  0.00000000000E+00  0.45593999997E+02  0.45594000000E+02  0.51100000000E-03 0. -1.
         11   -1    0    0    0    0 -0.00000000000E+00 -0.00000000000E+00 -0.45593999997E+02  0.45594000000E+02  0.51100000000E-03 0.  1.
    9900012    2    1    2    0    0 -0.10053946158E+02  0.75638579276E+01  0.29298873780E+02  0.59301987630E+02  0.50000079520E+02 0.  0.
        -12    1    1    2    0    0  0.10053946158E+02 -0.75638579276E+01 -0.29298873780E+02  0.31886012370E+02  0.00000000000E+00 0.  1.
         11    1    3    3    0    0 -0.19608099579E+02  0.79853541187E+01  0.12350211679E+02  0.24510633984E+02  0.51100000000E-03 0. -1.
        -11    1    3    3    0    0 -0.73141560348E+01 -0.44814605254E+01  0.15069528480E+02  0.17339868968E+02  0.51100000000E-03 0.  1.
        -12    1    3    3    0    0  0.16868309456E+02  0.40599643343E+01  0.18791336208E+01  0.17451484678E+02  0.00000000000E+00 0.  1.
</event>
<event>
 7    1  0.3755162E-013  0.5930194E+02  0.7816164E-02  0.1266605E+00
        -11   -1    0    0    0    0  0.00000000000E+00  0.00000000000E+00  0.45593999997E+02  0.45594000000E+02  0.51100000000E-03 0.  1.
         11   -1    0    0    0    0 -0.00000000000E+00 -0.00000000000E+00 -0.45593999997E+02  0.45594000000E+02  0.51100000000E-03 0. -1.
    9900012    2    1    2    0    0 -0.19380006945E+02  0.20774324607E+02 -0.14476312094E+02  0.59301939662E+02  0.49999992037E+02 0.  0.
        -12    1    1    2    0    0  0.19380006945E+02 -0.20774324607E+02  0.14476312094E+02  0.31886060338E+02  0.00000000000E+00 0.  1.
         11    1    3    3    0    0 -0.17212589198E+02 -0.19379386021E+01 -0.19351894779E+02  0.25971612671E+02  0.51100000000E-03 0. -1.
        -11    1    3    3    0    0 -0.49913879639E+01  0.48925098985E+01 -0.84020727011E+01  0.10929109426E+02  0.51100000000E-03 0.  1.
        -12    1    3    3    0    0  0.28239702169E+01  0.17819753310E+02  0.13277655386E+02  0.22401217565E+02  0.00000000000E+00 0.  1.
</event>
<event>
 7    1  0.3755162E-013  0.5930194E+02  0.7816164E-02  0.1266605E+00
        -11   -1    0    0    0    0  0.00000000000E+00  0.00000000000E+00  0.45593999997E+02  0.45594000000E+02  0.51100000000E-03 0.  1.
         11   -1    0    0    0    0 -0.00000000000E+00 -0.00000000000E+00 -0.45593999997E+02  0.45594000000E+02  0.51100000000E-03 0. -1.
    9900012    2    1    2    0    0 -0.11998353140E+01  0.67682902449E+01 -0.31136333902E+02  0.59301942758E+02  0.49999997684E+02 0.  0.
        -12    1    1    2    0    0  0.11998353140E+01 -0.67682902449E+01  0.31136333902E+02  0.31886057242E+02  0.00000000000E+00 0.  1.
         11    1    3    3    0    0  0.78360068748E+00  0.10106051055E+02 -0.28306754573E+02  0.30066902945E+02  0.51100000000E-03 0. -1.
        -11    1    3    3    0    0  0.10336132934E+02 -0.75358649849E+01  0.53473975863E+01  0.13864327114E+02  0.51100000000E-03 0.  1.
         12    1    3    3    0    0 -0.12319568936E+02  0.41981041754E+01 -0.81769769148E+01  0.15370712700E+02  0.00000000000E+00 0. -1.
</event>
<event>
 7    1  0.3755162E-013  0.5930197E+02  0.7816164E-02  0.1266605E+00
        -11   -1    0    0    0    0  0.00000000000E+00  0.00000000000E+00  0.45593999997E+02  0.45594000000E+02  0.51100000000E-03 0.  1.
         11   -1    0    0    0    0 -0.00000000000E+00 -0.00000000000E+00 -0.45593999997E+02  0.45594000000E+02  0.51100000000E-03 0. -1.
    9900012    2    1    2    0    0 -0.19378507132E+02  0.12674822664E+02 -0.21921245100E+02  0.59301973986E+02  0.50000054637E+02 0.  0.
        -12    1    1    2    0    0  0.19378507132E+02 -0.12674822664E+02  0.21921245100E+02  0.31886026014E+02  0.00000000000E+00 0.  1.
         11    1    3    3    0    0 -0.40784360340E+01  0.48266972472E+01 -0.26507494202E+02  0.27250282492E+02  0.51100000000E-03 0.  1.
        -11    1    3    3    0    0 -0.19976061236E+01  0.97434582884E+00 -0.10537587252E+02  0.10769425490E+02  0.51100000000E-03 0. -1.
        -12    1    3    3    0    0 -0.13302464974E+02  0.68737795883E+01  0.15123836354E+02  0.21282266005E+02  0.00000000000E+00 0.  1.
</event>
<event>
 7    1  0.3755162E-013  0.5930195E+02  0.7816164E-02  0.1266605E+00
        -11   -1    0    0    0    0  0.00000000000E+00  0.00000000000E+00  0.45593999997E+02  0.45594000000E+02  0.51100000000E-03 0.  1.
         11   -1    0    0    0    0 -0.00000000000E+00 -0.00000000000E+00 -0.45593999997E+02  0.45594000000E+02  0.51100000000E-03 0. -1.
    9900012    2    1    2    0    0 -0.11728578344E+02 -0.53114213302E+01 -0.29171041699E+02  0.59301946303E+02  0.50000004150E+02 0.  0.
        -12    1    1    2    0    0  0.11728578344E+02  0.53114213302E+01  0.29171041699E+02  0.31886053697E+02  0.00000000000E+00 0.  1.
         11    1    3    3    0    0 -0.10761134024E+02  0.11628027314E+02 -0.15206786734E+02  0.21960405000E+02  0.51100000000E-03 0. -1.
        -11    1    3    3    0    0 -0.53734169074E+01  0.73629088720E+01 -0.75183427084E+01  0.11815731618E+02  0.51100000000E-03 0.  1.
        -12    1    3    3    0    0  0.44059725873E+01 -0.24302357516E+02 -0.64459122568E+01  0.25525809686E+02  0.00000000000E+00 0.  1.
</event>
<event>
 7    1  0.3755162E-013  0.5930194E+02  0.7816164E-02  0.1266605E+00
        -11   -1    0    0    0    0  0.00000000000E+00  0.00000000000E+00  0.45593999997E+02  0.45594000000E+02  0.51100000000E-03 0.  1.
         11   -1    0    0    0    0 -0.00000000000E+00 -0.00000000000E+00 -0.45593999997E+02  0.45594000000E+02  0.51100000000E-03 0. -1.
    9900012    2    1    2    0    0  0.13818290226E+02  0.28255453847E+02 -0.52349903840E+01  0.59301938137E+02  0.49999989256E+02 0.  0.
        -12    1    1    2    0    0 -0.13818290226E+02 -0.28255453847E+02  0.52349903840E+01  0.31886061863E+02  0.00000000000E+00 0.  1.
         11    1    3    3    0    0  0.20464781056E+01  0.53460852012E+01 -0.16431192766E+02  0.17399792976E+02  0.51100000000E-03 0. -1.
        -11    1    3    3    0    0 -0.92065133801E+00 -0.49262117172E+00 -0.86396729168E+01  0.87025411735E+01  0.51100000000E-03 0.  1.
        -12    1    3    3    0    0  0.12692463458E+02  0.23401989817E+02  0.19835875299E+02  0.33199603987E+02  0.00000000000E+00 0.  1.
</event>
<event>
 7    1  0.3755162E-013  0.5930176E+02  0.7816164E-02  0.1266605E+00
        -11   -1    0    0    0    0  0.00000000000E+00  0.00000000000E+00  0.45593999997E+02  0.45594000000E+02  0.51100000000E-03 0.  1.
         11   -1    0    0    0    0 -0.00000000000E+00 -0.00000000000E+00 -0.45593999997E+02  0.45594000000E+02  0.51100000000E-03 0. -1.
    9900012    2    1    2    0    0  0.12156191943E+02 -0.22880901176E+01 -0.29389180753E+02  0.59301759954E+02  0.49999664293E+02 0.  0.
        -12    1    1    2    0    0 -0.12156191943E+02  0.22880901176E+01  0.29389180753E+02  0.31886240046E+02  0.00000000000E+00 0.  1.
         11    1    3    3    0    0 -0.47487346257E+01  0.11431903609E+02 -0.22046260660E+02  0.25283918012E+02  0.51100000000E-03 0. -1.
        -11    1    3    3    0    0 -0.63701181261E+01 -0.45725460277E+01  0.36216269702E+00  0.78496970767E+01  0.51100000000E-03 0.  1.
        -12    1    3    3    0    0  0.23275044694E+02 -0.91474476992E+01 -0.77050827900E+01  0.26168144866E+02  0.00000000000E+00 0.  1.
</event>
<event>
 7    1  0.3755162E-013  0.5930195E+02  0.7816164E-02  0.1266605E+00
        -11   -1    0    0    0    0  0.00000000000E+00  0.00000000000E+00  0.45593999997E+02  0.45594000000E+02  0.51100000000E-03 0.  1.
         11   -1    0    0    0    0 -0.00000000000E+00 -0.00000000000E+00 -0.45593999997E+02  0.45594000000E+02  0.51100000000E-03 0. -1.
    9900012    2    1    2    0    0 -0.52964735458E+01 -0.17445243266E+02 -0.26159717458E+02  0.59301953489E+02  0.50000017256E+02 0.  0.
        -12    1    1    2    0    0  0.52964735458E+01  0.17445243266E+02  0.26159717458E+02  0.31886046511E+02  0.00000000000E+00 0.  1.
         11    1    3    3    0    0  0.26036865198E+01 -0.21436200203E+02 -0.13040827178E+02  0.25226038856E+02  0.51100000000E-03 0.  1.
        -11    1    3    3    0    0 -0.79892991698E+01 -0.11453376537E+02 -0.24068888132E+00  0.13966626891E+02  0.51100000000E-03 0. -1.
         12    1    3    3    0    0  0.89139104303E-01  0.15444333474E+02 -0.12878201398E+02  0.20109287742E+02  0.00000000000E+00 0. -1.
</event>
<event>
 7    1  0.3755162E-013  0.5930197E+02  0.7816164E-02  0.1266605E+00
        -11   -1    0    0    0    0  0.00000000000E+00  0.00000000000E+00  0.45593999997E+02  0.45594000000E+02  0.51100000000E-03 0.  1.
         11   -1    0    0    0    0 -0.00000000000E+00 -0.00000000000E+00 -0.45593999997E+02  0.45594000000E+02  0.51100000000E-03 0. -1.
    9900012    2    1    2    0    0  0.20987855963E+01  0.31756708686E+01 -0.31658007444E+02  0.59301965098E+02  0.50000038427E+02 0.  0.
        -12    1    1    2    0    0 -0.20987855963E+01 -0.31756708686E+01  0.31658007444E+02  0.31886034902E+02  0.00000000000E+00 0.  1.
         11    1    3    3    0    0  0.26774091053E+01  0.11584420067E+02 -0.23131603436E+02  0.26008429125E+02  0.51100000000E-03 0. -1.
        -11    1    3    3    0    0  0.13905459548E+02  0.20510393821E+01 -0.16606373277E+01  0.14153666818E+02  0.51100000000E-03 0.  1.
        -12    1    3    3    0    0 -0.14484083057E+02 -0.10459788581E+02 -0.68657666808E+01  0.19139869155E+02  0.00000000000E+00 0.  1.
</event>
<event>
 7    1  0.3755162E-013  0.5930195E+02  0.7816164E-02  0.1266605E+00
        -11   -1    0    0    0    0  0.00000000000E+00  0.00000000000E+00  0.45593999997E+02  0.45594000000E+02  0.51100000000E-03 0.  1.
         11   -1    0    0    0    0 -0.00000000000E+00 -0.00000000000E+00 -0.45593999997E+02  0.45594000000E+02  0.51100000000E-03 0. -1.
    9900012    2    1    2    0    0  0.16119878879E+02  0.19943976884E+02  0.18950125309E+02  0.59301953549E+02  0.50000017365E+02 0.  0.
        -12    1    1    2    0    0 -0.16119878879E+02 -0.19943976884E+02 -0.18950125309E+02  0.31886046451E+02  0.00000000000E+00 0.  1.
         11    1    3    3    0    0 -0.14072087499E+00  0.15899510575E+01 -0.19871540809E+01  0.25488288158E+01  0.51100000000E-03 0. -1.
        -11    1    3    3    0    0 -0.29032556437E+01  0.81516121562E+01  0.31459030166E+02  0.32627415670E+02  0.51100000000E-03 0.  1.
         12    1    3    3    0    0  0.19163855398E+02  0.10202413670E+02 -0.10521750776E+02  0.24125709063E+02  0.00000000000E+00 0. -1.
</event>
<event>
 7    1  0.3755162E-013  0.5930195E+02  0.7816164E-02  0.1266605E+00
        -11   -1    0    0    0    0  0.00000000000E+00  0.00000000000E+00  0.45593999997E+02  0.45594000000E+02  0.51100000000E-03 0.  1.
         11   -1    0    0    0    0 -0.00000000000E+00 -0.00000000000E+00 -0.45593999997E+02  0.45594000000E+02  0.51100000000E-03 0. -1.
    9900012    2    1    2    0    0  0.22667588699E+02 -0.17657748277E+02 -0.13824055793E+02  0.59301950226E+02  0.50000011304E+02 0.  0.
        -12    1    1    2    0    0 -0.22667588699E+02  0.17657748277E+02  0.13824055793E+02  0.31886049774E+02  0.00000000000E+00 0.  1.
         11    1    3    3    0    0  0.90923109717E+01  0.20271435556E+01  0.55887042146E+01  0.10863380913E+02  0.51100000000E-03 0.  1.
        -11    1    3    3    0    0  0.25140485614E+02 -0.62614783121E+01 -0.71054906727E+01  0.26865184263E+02  0.51100000000E-03 0. -1.
        -12    1    3    3    0    0 -0.11565207887E+02 -0.13423413520E+02 -0.12307269335E+02  0.21573385049E+02  0.00000000000E+00 0.  1.
</event>
<event>
 7    1  0.3755162E-013  0.5930193E+02  0.7816164E-02  0.1266605E+00
        -11   -1    0    0    0    0  0.00000000000E+00  0.00000000000E+00  0.45593999997E+02  0.45594000000E+02  0.51100000000E-03 0. -1.
         11   -1    0    0    0    0 -0.00000000000E+00 -0.00000000000E+00 -0.45593999997E+02  0.45594000000E+02  0.51100000000E-03 0.  1.
    9900012    2    1    2    0    0  0.21177843512E+02  0.23826235339E+02 -0.72872425707E+00  0.59301928036E+02  0.49999970835E+02 0.  0.
        -12    1    1    2    0    0 -0.21177843512E+02 -0.23826235339E+02  0.72872425707E+00  0.31886071964E+02  0.00000000000E+00 0.  1.
         11    1    3    3    0    0  0.51598083492E+01 -0.13120744528E+01  0.76249450604E+00  0.53783417242E+01  0.51100000000E-03 0. -1.
        -11    1    3    3    0    0  0.23158447766E+02  0.29571714952E+02 -0.12934543911E+02  0.39725337690E+02  0.51100000000E-03 0.  1.
        -12    1    3    3    0    0 -0.71404126040E+01 -0.44334051603E+01  0.11443325148E+02  0.14198248621E+02  0.00000000000E+00 0.  1.
</event>
<event>
 7    1  0.3755162E-013  0.5930194E+02  0.7816164E-02  0.1266605E+00
        -11   -1    0    0    0    0  0.00000000000E+00  0.00000000000E+00  0.45593999997E+02  0.45594000000E+02  0.51100000000E-03 0. -1.
         11   -1    0    0    0    0 -0.00000000000E+00 -0.00000000000E+00 -0.45593999997E+02  0.45594000000E+02  0.51100000000E-03 0.  1.
    9900012    2    1    2    0    0  0.30945942675E+02  0.46937757835E+01  0.60858555737E+01  0.59301944471E+02  0.50000000808E+02 0.  0.
        -12    1    1    2    0    0 -0.30945942675E+02 -0.46937757835E+01 -0.60858555737E+01  0.31886055529E+02  0.00000000000E+00 0.  1.
         11    1    3    3    0    0  0.14655097417E+02 -0.93787270942E+00 -0.72691991739E+01  0.16385748149E+02  0.51100000000E-03 0. -1.
        -11    1    3    3    0    0  0.21468743401E+02 -0.52131199288E+01 -0.33421430819E+01  0.22343980917E+02  0.51100000000E-03 0.  1.
        -12    1    3    3    0    0 -0.51778981426E+01  0.10844768422E+02  0.16697197830E+02  0.20572215405E+02  0.00000000000E+00 0.  1.
</event>
<event>
 7    1  0.3755162E-013  0.5930194E+02  0.7816164E-02  0.1266605E+00
        -11   -1    0    0    0    0  0.00000000000E+00  0.00000000000E+00  0.45593999997E+02  0.45594000000E+02  0.51100000000E-03 0.  1.
         11   -1    0    0    0    0 -0.00000000000E+00 -0.00000000000E+00 -0.45593999997E+02  0.45594000000E+02  0.51100000000E-03 0. -1.
    9900012    2    1    2    0    0 -0.14018273426E+02 -0.52352477103E+01 -0.28156726100E+02  0.59301936695E+02  0.49999986627E+02 0.  0.
        -12    1    1    2    0    0  0.14018273426E+02  0.52352477103E+01  0.28156726100E+02  0.31886063305E+02  0.00000000000E+00 0.  1.
         11    1    3    3    0    0 -0.62169525435E+01 -0.43425259595E+01  0.37342608329E+01  0.84529719546E+01  0.51100000000E-03 0. -1.
        -11    1    3    3    0    0  0.12019699104E+01 -0.60174403894E+01  0.77451337498E+01  0.98813671913E+01  0.51100000000E-03 0.  1.
         12    1    3    3    0    0 -0.90032907928E+01  0.51247186386E+01 -0.39636120682E+02  0.40967597549E+02  0.00000000000E+00 0. -1.
</event>
<event>
 7    1  0.3755162E-013  0.5930194E+02  0.7816164E-02  0.1266605E+00
        -11   -1    0    0    0    0  0.00000000000E+00  0.00000000000E+00  0.45593999997E+02  0.45594000000E+02  0.51100000000E-03 0. -1.
         11   -1    0    0    0    0 -0.00000000000E+00 -0.00000000000E+00 -0.45593999997E+02  0.45594000000E+02  0.51100000000E-03 0.  1.
    9900012    2    1    2    0    0  0.92957143469E+01  0.91835997752E+01  0.29085593628E+02  0.59301944007E+02  0.49999999963E+02 0.  0.
        -12    1    1    2    0    0 -0.92957143469E+01 -0.91835997752E+01 -0.29085593628E+02  0.31886055993E+02  0.00000000000E+00 0.  1.
         11    1    3    3    0    0 -0.38014529840E+01 -0.56231343352E+01  0.66906133184E+01  0.95307392882E+01  0.51100000000E-03 0. -1.
        -11    1    3    3    0    0 -0.10253989457E+02  0.15625609482E+02  0.18093506300E+02  0.26013053299E+02  0.51100000000E-03 0.  1.
         12    1    3    3    0    0  0.23351156788E+02 -0.81887537191E+00  0.43014740104E+01  0.23758151420E+02  0.00000000000E+00 0. -1.
</event>
<event>
 7    1  0.3755162E-013  0.5930193E+02  0.7816164E-02  0.1266605E+00
        -11   -1    0    0    0    0  0.00000000000E+00  0.00000000000E+00  0.45593999997E+02  0.45594000000E+02  0.51100000000E-03 0.  1.
         11   -1    0    0    0    0 -0.00000000000E+00 -0.00000000000E+00 -0.45593999997E+02  0.45594000000E+02  0.51100000000E-03 0. -1.
    9900012    2    1    2    0    0 -0.10950400013E+02  0.29546538141E+02 -0.48797748772E+01  0.59301931265E+02  0.49999976724E+02 0.  0.
        -12    1    1    2    0    0  0.10950400013E+02 -0.29546538141E+02  0.48797748772E+01  0.31886068735E+02  0.00000000000E+00 0.  1.
         11    1    3    3    0    0  0.38306627081E+01  0.96002606866E+01 -0.11876341167E+02  0.15744410494E+02  0.51100000000E-03 0. -1.
        -11    1    3    3    0    0  0.93500395655E+01  0.15274706608E+02  0.62453045140E+01  0.18966911466E+02  0.51100000000E-03 0.  1.
         12    1    3    3    0    0 -0.24131102286E+02  0.46715708464E+01  0.75126177553E+00  0.24590609305E+02  0.00000000000E+00 0. -1.
</event>
<event>
 7    1  0.3755162E-013  0.5930218E+02  0.7816164E-02  0.1266604E+00
        -11   -1    0    0    0    0  0.00000000000E+00  0.00000000000E+00  0.45593999997E+02  0.45594000000E+02  0.51100000000E-03 0.  1.
         11   -1    0    0    0    0 -0.00000000000E+00 -0.00000000000E+00 -0.45593999997E+02  0.45594000000E+02  0.51100000000E-03 0. -1.
    9900012    2    1    2    0    0 -0.52051305390E+01 -0.74891770321E+00 -0.31449184196E+02  0.59302181079E+02  0.50000432324E+02 0.  0.
        -12    1    1    2    0    0  0.52051305390E+01  0.74891770321E+00  0.31449184196E+02  0.31885818921E+02  0.00000000000E+00 0.  1.
         11    1    3    3    0    0  0.49648823721E+01  0.14947740376E+02 -0.16766642280E+02  0.23004462457E+02  0.51100000000E-03 0. -1.
        -11    1    3    3    0    0  0.44882152179E+01 -0.94087303143E+01 -0.17237436779E+02  0.20144416322E+02  0.51100000000E-03 0.  1.
         12    1    3    3    0    0 -0.14658228129E+02 -0.62879277650E+01  0.25548948631E+01  0.16153302301E+02  0.00000000000E+00 0. -1.
</event>
<event>
 7    1  0.3755162E-013  0.5930199E+02  0.7816164E-02  0.1266605E+00
        -11   -1    0    0    0    0  0.00000000000E+00  0.00000000000E+00  0.45593999997E+02  0.45594000000E+02  0.51100000000E-03 0.  1.
         11   -1    0    0    0    0 -0.00000000000E+00 -0.00000000000E+00 -0.45593999997E+02  0.45594000000E+02  0.51100000000E-03 0. -1.
    9900012    2    1    2    0    0  0.50206180054E+01  0.14625078371E+01 -0.31454287944E+02  0.59301987951E+02  0.50000080106E+02 0.  0.
        -12    1    1    2    0    0 -0.50206180054E+01 -0.14625078371E+01  0.31454287944E+02  0.31886012049E+02  0.00000000000E+00 0.  1.
         11    1    3    3    0    0  0.10952957680E+01  0.64243144661E+01 -0.14457924756E+02  0.15858848562E+02  0.51100000000E-03 0. -1.
        -11    1    3    3    0    0 -0.41393161459E+01  0.73550998787E+01 -0.25209587124E+02  0.26584858766E+02  0.51100000000E-03 0.  1.
        -12    1    3    3    0    0  0.80646383834E+01 -0.12316906508E+02  0.82132239362E+01  0.16858280624E+02  0.00000000000E+00 0.  1.
</event>
<event>
 7    1  0.3755162E-013  0.5930193E+02  0.7816164E-02  0.1266605E+00
        -11   -1    0    0    0    0  0.00000000000E+00  0.00000000000E+00  0.45593999997E+02  0.45594000000E+02  0.51100000000E-03 0.  1.
         11   -1    0    0    0    0 -0.00000000000E+00 -0.00000000000E+00 -0.45593999997E+02  0.45594000000E+02  0.51100000000E-03 0. -1.
    9900012    2    1    2    0    0 -0.19991810028E+02 -0.50134272305E+01 -0.24329297534E+02  0.59301927190E+02  0.49999969291E+02 0.  0.
        -12    1    1    2    0    0  0.19991810028E+02  0.50134272305E+01  0.24329297534E+02  0.31886072810E+02  0.00000000000E+00 0.  1.
         11    1    3    3    0    0 -0.94439725281E+01  0.48847209466E+01 -0.34017657889E+01  0.11163383295E+02  0.51100000000E-03 0. -1.
        -11    1    3    3    0    0  0.11664745366E+02  0.73242989815E+01 -0.12988275603E+02  0.18931638688E+02  0.51100000000E-03 0.  1.
         12    1    3    3    0    0 -0.22212582865E+02 -0.17222447159E+02 -0.79392561420E+01  0.29206905207E+02  0.00000000000E+00 0. -1.
</event>
<event>
 7    1  0.3755162E-013  0.5930194E+02  0.7816164E-02  0.1266605E+00
        -11   -1    0    0    0    0  0.00000000000E+00  0.00000000000E+00  0.45593999997E+02  0.45594000000E+02  0.51100000000E-03 0.  1.
         11   -1    0    0    0    0 -0.00000000000E+00 -0.00000000000E+00 -0.45593999997E+02  0.45594000000E+02  0.51100000000E-03 0. -1.
    9900012    2    1    2    0    0 -0.86766645539E+01 -0.30469646974E+02 -0.36106863826E+01  0.59301937988E+02  0.49999988984E+02 0.  0.
        -12    1    1    2    0    0  0.86766645539E+01  0.30469646974E+02  0.36106863826E+01  0.31886062012E+02  0.00000000000E+00 0.  1.
         11    1    3    3    0    0 -0.21399783992E+02 -0.11308905167E+02  0.56022816766E+01  0.24844066720E+02  0.51100000000E-03 0. -1.
        -11    1    3    3    0    0  0.18397525180E+01  0.56793639396E+01 -0.58371606402E+00  0.59983821811E+01  0.51100000000E-03 0.  1.
         12    1    3    3    0    0  0.10883366920E+02 -0.24840105747E+02 -0.86292519952E+01  0.28459489086E+02  0.00000000000E+00 0. -1.
</event>
<event>
 7    1  0.3755162E-013  0.5930204E+02  0.7816164E-02  0.1266604E+00
        -11   -1    0    0    0    0  0.00000000000E+00  0.00000000000E+00  0.45593999997E+02  0.45594000000E+02  0.51100000000E-03 0. -1.
         11   -1    0    0    0    0 -0.00000000000E+00 -0.00000000000E+00 -0.45593999997E+02  0.45594000000E+02  0.51100000000E-03 0.  1.
    9900012    2    1    2    0    0 -0.21612028161E+01  0.26008665164E+02  0.18319204769E+02  0.59302035617E+02  0.50000167037E+02 0.  0.
        -12    1    1    2    0    0  0.21612028161E+01 -0.26008665164E+02 -0.18319204769E+02  0.31885964383E+02  0.00000000000E+00 0.  1.
         11    1    3    3    0    0 -0.20220938265E+02  0.80489040850E+01 -0.28615933147E+01  0.21951307884E+02  0.51100000000E-03 0. -1.
        -11    1    3    3    0    0 -0.26152625781E+01 -0.86672720261E+00  0.13349642924E+01  0.30615264688E+01  0.51100000000E-03 0.  1.
        -12    1    3    3    0    0  0.20674998027E+02  0.18826488282E+02  0.19845833792E+02  0.34289201264E+02  0.00000000000E+00 0.  1.
</event>
<event>
 7    1  0.3755162E-013  0.5930194E+02  0.7816164E-02  0.1266605E+00
        -11   -1    0    0    0    0  0.00000000000E+00  0.00000000000E+00  0.45593999997E+02  0.45594000000E+02  0.51100000000E-03 0.  1.
         11   -1    0    0    0    0 -0.00000000000E+00 -0.00000000000E+00 -0.45593999997E+02  0.45594000000E+02  0.51100000000E-03 0. -1.
    9900012    2    1    2    0    0  0.21743184460E+02 -0.29917985557E+01 -0.23130149817E+02  0.59301940983E+02  0.49999994447E+02 0.  0.
        -12    1    1    2    0    0 -0.21743184460E+02  0.29917985557E+01  0.23130149817E+02  0.31886059017E+02  0.00000000000E+00 0.  1.
         11    1    3    3    0    0  0.51694485749E+01 -0.67220189393E+01 -0.25465708096E+02  0.26840473660E+02  0.51100000000E-03 0. -1.
        -11    1    3    3    0    0  0.14139733290E+02 -0.10399317324E+02 -0.15102249477E+01  0.17616998552E+02  0.51100000000E-03 0.  1.
        -12    1    3    3    0    0  0.24340025956E+01  0.14129537708E+02  0.38457832267E+01  0.14844468771E+02  0.00000000000E+00 0.  1.
</event>
<event>
 7    1  0.3755162E-013  0.5930192E+02  0.7816164E-02  0.1266605E+00
        -11   -1    0    0    0    0  0.00000000000E+00  0.00000000000E+00  0.45593999997E+02  0.45594000000E+02  0.51100000000E-03 0.  1.
         11   -1    0    0    0    0 -0.00000000000E+00 -0.00000000000E+00 -0.45593999997E+02  0.45594000000E+02  0.51100000000E-03 0. -1.
    9900012    2    1    2    0    0 -0.17353445304E+02  0.50868239153E+01 -0.26262215425E+02  0.59301924662E+02  0.49999964681E+02 0.  0.
        -12    1    1    2    0    0  0.17353445304E+02 -0.50868239153E+01  0.26262215425E+02  0.31886075338E+02  0.00000000000E+00 0.  1.
         11    1    3    3    0    0  0.13679887997E+02  0.51084813661E+00 -0.15196776448E+02  0.20453418201E+02  0.51100000000E-03 0. -1.
        -11    1    3    3    0    0 -0.16072510403E+02 -0.73569647691E+01 -0.82458803949E+01  0.19505001026E+02  0.51100000000E-03 0.  1.
        -12    1    3    3    0    0 -0.14960822898E+02  0.11932940548E+02 -0.28195585819E+01  0.19343505435E+02  0.00000000000E+00 0.  1.
</event>
<event>
 7    1  0.3755162E-013  0.5930183E+02  0.7816164E-02  0.1266605E+00
        -11   -1    0    0    0    0  0.00000000000E+00  0.00000000000E+00  0.45593999997E+02  0.45594000000E+02  0.51100000000E-03 0.  1.
         11   -1    0    0    0    0 -0.00000000000E+00 -0.00000000000E+00 -0.45593999997E+02  0.45594000000E+02  0.51100000000E-03 0. -1.
    9900012    2    1    2    0    0  0.22145720505E+02 -0.14649419926E+02 -0.17654722255E+02  0.59301832799E+02  0.49999797145E+02 0.  0.
        -12    1    1    2    0    0 -0.22145720505E+02  0.14649419926E+02  0.17654722255E+02  0.31886167201E+02  0.00000000000E+00 0.  1.
         11    1    3    3    0    0  0.20595477684E+02 -0.68971304755E+01 -0.20029804431E+02  0.29545510244E+02  0.51100000000E-03 0. -1.
        -11    1    3    3    0    0  0.11240299767E+02  0.34436942530E+01 -0.55071962106E+01  0.12982009834E+02  0.51100000000E-03 0.  1.
        -12    1    3    3    0    0 -0.96900569455E+01 -0.11195983704E+02  0.78822783861E+01  0.16774312721E+02  0.00000000000E+00 0.  1.
</event>
<event>
 7    1  0.3755162E-013  0.5930195E+02  0.7816164E-02  0.1266605E+00
        -11   -1    0    0    0    0  0.00000000000E+00  0.00000000000E+00  0.45593999997E+02  0.45594000000E+02  0.51100000000E-03 0.  1.
         11   -1    0    0    0    0 -0.00000000000E+00 -0.00000000000E+00 -0.45593999997E+02  0.45594000000E+02  0.51100000000E-03 0. -1.
    9900012    2    1    2    0    0  0.24383716933E+02 -0.33034182146E+01 -0.20279097336E+02  0.59301952705E+02  0.50000015825E+02 0.  0.
        -12    1    1    2    0    0 -0.24383716933E+02  0.33034182146E+01  0.20279097336E+02  0.31886047295E+02  0.00000000000E+00 0.  1.
         11    1    3    3    0    0  0.18242553504E+02 -0.36267403528E+01 -0.24318628128E+01  0.18757877303E+02  0.51100000000E-03 0. -1.
        -11    1    3    3    0    0  0.17337720709E+02 -0.48172481828E-01  0.23020106678E+01  0.17489943778E+02  0.51100000000E-03 0.  1.
        -12    1    3    3    0    0 -0.11196557280E+02  0.37149462004E+00 -0.20149245191E+02  0.23054131624E+02  0.00000000000E+00 0.  1.
</event>
<event>
 7    1  0.3755162E-013  0.5930190E+02  0.7816164E-02  0.1266605E+00
        -11   -1    0    0    0    0  0.00000000000E+00  0.00000000000E+00  0.45593999997E+02  0.45594000000E+02  0.51100000000E-03 0.  1.
         11   -1    0    0    0    0 -0.00000000000E+00 -0.00000000000E+00 -0.45593999997E+02  0.45594000000E+02  0.51100000000E-03 0. -1.
    9900012    2    1    2    0    0 -0.30606609400E+01  0.30438983591E+02 -0.89902104047E+01  0.59301901923E+02  0.49999923212E+02 0.  0.
        -12    1    1    2    0    0  0.30606609400E+01 -0.30438983591E+02  0.89902104047E+01  0.31886098077E+02  0.00000000000E+00 0.  1.
         11    1    3    3    0    0  0.13252746431E+02  0.61871036250E+01 -0.57944401425E+00  0.14637325400E+02  0.51100000000E-03 0. -1.
        -11    1    3    3    0    0  0.92699228741E+01  0.12440979287E+02 -0.11011238583E+01  0.15553839067E+02  0.51100000000E-03 0.  1.
        -12    1    3    3    0    0 -0.25583330246E+02  0.11810900679E+02 -0.73096425322E+01  0.29110737456E+02  0.00000000000E+00 0.  1.
</event>
<event>
 7    1  0.3755162E-013  0.5930194E+02  0.7816164E-02  0.1266605E+00
        -11   -1    0    0    0    0  0.00000000000E+00  0.00000000000E+00  0.45593999997E+02  0.45594000000E+02  0.51100000000E-03 0.  1.
         11   -1    0    0    0    0 -0.00000000000E+00 -0.00000000000E+00 -0.45593999997E+02  0.45594000000E+02  0.51100000000E-03 0. -1.
    9900012    2    1    2    0    0  0.12205110879E+02 -0.28379029075E+02  0.78985255925E+01  0.59301941458E+02  0.49999995313E+02 0.  0.
        -12    1    1    2    0    0 -0.12205110879E+02  0.28379029075E+02 -0.78985255925E+01  0.31886058542E+02  0.00000000000E+00 0.  1.
         11    1    3    3    0    0  0.10548906341E+02 -0.20001753801E+02  0.11816703287E+02  0.25514389214E+02  0.51100000000E-03 0. -1.
        -11    1    3    3    0    0  0.68606334038E+01 -0.16063793423E+02  0.75533684453E+01  0.19030689030E+02  0.51100000000E-03 0.  1.
        -12    1    3    3    0    0 -0.52044288666E+01  0.76865181489E+01 -0.11471546139E+02  0.14756863214E+02  0.00000000000E+00 0.  1.
</event>
<event>
 7    1  0.3755162E-013  0.5930198E+02  0.7816164E-02  0.1266605E+00
        -11   -1    0    0    0    0  0.00000000000E+00  0.00000000000E+00  0.45593999997E+02  0.45594000000E+02  0.51100000000E-03 0. -1.
         11   -1    0    0    0    0 -0.00000000000E+00 -0.00000000000E+00 -0.45593999997E+02  0.45594000000E+02  0.51100000000E-03 0.  1.
    9900012    2    1    2    0    0 -0.48780786233E+01 -0.31444652919E+02  0.20387918196E+01  0.59301976097E+02  0.50000058487E+02 0.  0.
        -12    1    1    2    0    0  0.48780786233E+01  0.31444652919E+02 -0.20387918196E+01  0.31886023903E+02  0.00000000000E+00 0.  1.
         11    1    3    3    0    0 -0.76009882253E+01 -0.51563438918E+01 -0.16395778545E+02  0.18793202460E+02  0.51100000000E-03 0. -1.
        -11    1    3    3    0    0  0.96709694381E+01 -0.11533323702E+02 -0.10636843995E+01  0.15088957229E+02  0.51100000000E-03 0.  1.
        -12    1    3    3    0    0 -0.69480598361E+01 -0.14754985325E+02  0.19498254764E+02  0.25419816409E+02  0.00000000000E+00 0.  1.
</event>
<event>
 7    1  0.3755162E-013  0.5930200E+02  0.7816164E-02  0.1266605E+00
        -11   -1    0    0    0    0  0.00000000000E+00  0.00000000000E+00  0.45593999997E+02  0.45594000000E+02  0.51100000000E-03 0.  1.
         11   -1    0    0    0    0 -0.00000000000E+00 -0.00000000000E+00 -0.45593999997E+02  0.45594000000E+02  0.51100000000E-03 0. -1.
    9900012    2    1    2    0    0 -0.60371644327E+01  0.86196298300E+00 -0.31297392715E+02  0.59301997972E+02  0.50000098382E+02 0.  0.
        -12    1    1    2    0    0  0.60371644327E+01 -0.86196298300E+00  0.31297392715E+02  0.31886002028E+02  0.00000000000E+00 0.  1.
         11    1    3    3    0    0 -0.12473881690E+02  0.61080357306E+01 -0.28207762659E+02  0.31441750896E+02  0.51100000000E-03 0. -1.
        -11    1    3    3    0    0  0.17829552101E+01  0.98697776772E+01 -0.61302057462E+01  0.11754610305E+02  0.51100000000E-03 0.  1.
         12    1    3    3    0    0  0.46537620472E+01 -0.15115850425E+02  0.30405756909E+01  0.16105636771E+02  0.00000000000E+00 0. -1.
</event>
<event>
 7    1  0.3755162E-013  0.5930192E+02  0.7816164E-02  0.1266605E+00
        -11   -1    0    0    0    0  0.00000000000E+00  0.00000000000E+00  0.45593999997E+02  0.45594000000E+02  0.51100000000E-03 0.  1.
         11   -1    0    0    0    0 -0.00000000000E+00 -0.00000000000E+00 -0.45593999997E+02  0.45594000000E+02  0.51100000000E-03 0. -1.
    9900012    2    1    2    0    0  0.26236347047E+02  0.16640589759E+01 -0.18044588236E+02  0.59301918973E+02  0.49999954307E+02 0.  0.
        -12    1    1    2    0    0 -0.26236347047E+02 -0.16640589759E+01  0.18044588236E+02  0.31886081027E+02  0.00000000000E+00 0.  1.
         11    1    3    3    0    0  0.20583350721E+01 -0.38553708674E+01 -0.14906196352E+02  0.15533683328E+02  0.51100000000E-03 0. -1.
        -11    1    3    3    0    0  0.28481513835E+01 -0.60508342816E+01  0.13004488071E+02  0.14623312622E+02  0.51100000000E-03 0.  1.
         12    1    3    3    0    0  0.21329860591E+02  0.11570264125E+02 -0.16142879955E+02  0.29144923023E+02  0.00000000000E+00 0. -1.
</event>
<event>
 7    1  0.3755162E-013  0.5930194E+02  0.7816164E-02  0.1266605E+00
        -11   -1    0    0    0    0  0.00000000000E+00  0.00000000000E+00  0.45593999997E+02  0.45594000000E+02  0.51100000000E-03 0.  1.
         11   -1    0    0    0    0 -0.00000000000E+00 -0.00000000000E+00 -0.45593999997E+02  0.45594000000E+02  0.51100000000E-03 0. -1.
    9900012    2    1    2    0    0 -0.47124720166E+01  0.66701648985E+01 -0.30822433556E+02  0.59301938741E+02  0.49999990359E+02 0.  0.
        -12    1    1    2    0    0  0.47124720166E+01 -0.66701648985E+01  0.30822433556E+02  0.31886061259E+02  0.00000000000E+00 0.  1.
         11    1    3    3    0    0  0.92778688608E+01  0.53925635657E+01 -0.22208152587E+02  0.24664967747E+02  0.51100000000E-03 0. -1.
        -11    1    3    3    0    0  0.68123928721E+01  0.39494083362E-01 -0.11731008580E+02  0.13565648491E+02  0.51100000000E-03 0.  1.
        -12    1    3    3    0    0 -0.20802733749E+02  0.12381072495E+01  0.31167276104E+01  0.21071322503E+02  0.00000000000E+00 0.  1.
</event>
<event>
 7    1  0.3755162E-013  0.5930194E+02  0.7816164E-02  0.1266605E+00
        -11   -1    0    0    0    0  0.00000000000E+00  0.00000000000E+00  0.45593999997E+02  0.45594000000E+02  0.51100000000E-03 0. -1.
         11   -1    0    0    0    0 -0.00000000000E+00 -0.00000000000E+00 -0.45593999997E+02  0.45594000000E+02  0.51100000000E-03 0.  1.
    9900012    2    1    2    0    0 -0.28071378595E+01 -0.10937554572E+02  0.29819635768E+02  0.59301940345E+02  0.49999993283E+02 0.  0.
        -12    1    1    2    0    0  0.28071378595E+01  0.10937554572E+02 -0.29819635768E+02  0.31886059655E+02  0.00000000000E+00 0.  1.
         11    1    3    3    0    0 -0.59554839164E+01 -0.12845990186E+02 -0.89955433874E+01  0.16775191613E+02  0.51100000000E-03 0. -1.
        -11    1    3    3    0    0  0.43859137831E+01 -0.30578268915E+01  0.25884414322E+01  0.59402503584E+01  0.51100000000E-03 0.  1.
         12    1    3    3    0    0 -0.12375677262E+01  0.49662625056E+01  0.36226737724E+02  0.36586498374E+02  0.00000000000E+00 0. -1.
</event>
<event>
 7    1  0.3755162E-013  0.5930194E+02  0.7816164E-02  0.1266605E+00
        -11   -1    0    0    0    0  0.00000000000E+00  0.00000000000E+00  0.45593999997E+02  0.45594000000E+02  0.51100000000E-03 0. -1.
         11   -1    0    0    0    0 -0.00000000000E+00 -0.00000000000E+00 -0.45593999997E+02  0.45594000000E+02  0.51100000000E-03 0.  1.
    9900012    2    1    2    0    0  0.31025006779E+02 -0.66428673916E+01 -0.31689301209E+01  0.59301939551E+02  0.49999991836E+02 0.  0.
        -12    1    1    2    0    0 -0.31025006779E+02  0.66428673916E+01  0.31689301209E+01  0.31886060449E+02  0.00000000000E+00 0.  1.
         11    1    3    3    0    0  0.16107291603E+02 -0.33731881450E+01 -0.27794072409E+01  0.16689767701E+02  0.51100000000E-03 0. -1.
        -11    1    3    3    0    0  0.23560909315E+02 -0.10163281702E+02 -0.10410407404E+02  0.27690888850E+02  0.51100000000E-03 0.  1.
        -12    1    3    3    0    0 -0.86431941388E+01  0.68936024557E+01  0.10020884524E+02  0.14921283000E+02  0.00000000000E+00 0.  1.
</event>
<event>
 7    1  0.3755162E-013  0.5930188E+02  0.7816164E-02  0.1266605E+00
        -11   -1    0    0    0    0  0.00000000000E+00  0.00000000000E+00  0.45593999997E+02  0.45594000000E+02  0.51100000000E-03 0. -1.
         11   -1    0    0    0    0 -0.00000000000E+00 -0.00000000000E+00 -0.45593999997E+02  0.45594000000E+02  0.51100000000E-03 0.  1.
    9900012    2    1    2    0    0  0.12025796531E+02  0.39049463696E+01  0.29272101788E+02  0.59301884974E+02  0.49999892300E+02 0.  0.
        -12    1    1    2    0    0 -0.12025796531E+02 -0.39049463696E+01 -0.29272101788E+02  0.31886115026E+02  0.00000000000E+00 0.  1.
         11    1    3    3    0    0  0.35449004225E+01 -0.36999840527E+01  0.29713393772E+02  0.30151981207E+02  0.51100000000E-03 0. -1.
        -11    1    3    3    0    0  0.43296299793E+01 -0.79188633016E+01  0.70190204274E+01  0.11433317094E+02  0.51100000000E-03 0.  1.
         12    1    3    3    0    0  0.41512661291E+01  0.15523793724E+02 -0.74603124115E+01  0.17716586673E+02  0.00000000000E+00 0. -1.
</event>
<event>
 7    1  0.3755162E-013  0.5930194E+02  0.7816164E-02  0.1266605E+00
        -11   -1    0    0    0    0  0.00000000000E+00  0.00000000000E+00  0.45593999997E+02  0.45594000000E+02  0.51100000000E-03 0. -1.
         11   -1    0    0    0    0 -0.00000000000E+00 -0.00000000000E+00 -0.45593999997E+02  0.45594000000E+02  0.51100000000E-03 0.  1.
    9900012    2    1    2    0    0  0.13188461449E+02 -0.27013725407E+02  0.10632216114E+02  0.59301938857E+02  0.49999990569E+02 0.  0.
        -12    1    1    2    0    0 -0.13188461449E+02  0.27013725407E+02 -0.10632216114E+02  0.31886061143E+02  0.00000000000E+00 0.  1.
         11    1    3    3    0    0  0.11293751594E+02  0.32665925331E+01 -0.70630983899E+00  0.11777874414E+02  0.51100000000E-03 0. -1.
        -11    1    3    3    0    0 -0.11730871661E+02 -0.64721981805E+00 -0.26359556689E+01  0.12040785106E+02  0.51100000000E-03 0.  1.
         12    1    3    3    0    0  0.13625581515E+02 -0.29633098122E+02  0.13974481622E+02  0.35483279337E+02  0.00000000000E+00 0. -1.
</event>
<event>
 7    1  0.3755162E-013  0.5930228E+02  0.7816164E-02  0.1266604E+00
        -11   -1    0    0    0    0  0.00000000000E+00  0.00000000000E+00  0.45593999997E+02  0.45594000000E+02  0.51100000000E-03 0.  1.
         11   -1    0    0    0    0 -0.00000000000E+00 -0.00000000000E+00 -0.45593999997E+02  0.45594000000E+02  0.51100000000E-03 0. -1.
    9900012    2    1    2    0    0  0.74847678936E+01 -0.22527339211E+02 -0.21288403012E+02  0.59302284309E+02  0.50000620587E+02 0.  0.
        -12    1    1    2    0    0 -0.74847678936E+01  0.22527339211E+02  0.21288403012E+02  0.31885715691E+02  0.00000000000E+00 0.  1.
         11    1    3    3    0    0  0.58162887377E+01  0.10114020567E+02 -0.18781299918E+01  0.11817360079E+02  0.51100000000E-03 0. -1.
        -11    1    3    3    0    0  0.19630971938E+01 -0.22684212737E+02  0.29948511817E+01  0.22965112496E+02  0.51100000000E-03 0.  1.
         12    1    3    3    0    0 -0.29461803794E+00 -0.99571470401E+01 -0.22405124202E+02  0.24519811734E+02  0.00000000000E+00 0. -1.
</event>
<event>
 7    1  0.3755162E-013  0.5930193E+02  0.7816164E-02  0.1266605E+00
        -11   -1    0    0    0    0  0.00000000000E+00  0.00000000000E+00  0.45593999997E+02  0.45594000000E+02  0.51100000000E-03 0.  1.
         11   -1    0    0    0    0 -0.00000000000E+00 -0.00000000000E+00 -0.45593999997E+02  0.45594000000E+02  0.51100000000E-03 0. -1.
    9900012    2    1    2    0    0 -0.15439106247E+02 -0.21930292509E+02 -0.17245799753E+02  0.59301931876E+02  0.49999977839E+02 0.  0.
        -12    1    1    2    0    0  0.15439106247E+02  0.21930292509E+02  0.17245799753E+02  0.31886068124E+02  0.00000000000E+00 0.  1.
         11    1    3    3    0    0  0.38596298137E+01 -0.14528046644E+02 -0.24020783712E+02  0.28336529992E+02  0.51100000000E-03 0. -1.
        -11    1    3    3    0    0 -0.11743539940E+02 -0.87396570906E+01 -0.61952265806E+01  0.15895696557E+02  0.51100000000E-03 0.  1.
        -12    1    3    3    0    0 -0.75551961207E+01  0.13374112255E+01  0.12970210539E+02  0.15069705327E+02  0.00000000000E+00 0.  1.
</event>
<event>
 7    1  0.3755162E-013  0.5930195E+02  0.7816164E-02  0.1266605E+00
        -11   -1    0    0    0    0  0.00000000000E+00  0.00000000000E+00  0.45593999997E+02  0.45594000000E+02  0.51100000000E-03 0. -1.
         11   -1    0    0    0    0 -0.00000000000E+00 -0.00000000000E+00 -0.45593999997E+02  0.45594000000E+02  0.51100000000E-03 0.  1.
    9900012    2    1    2    0    0  0.28279807458E+02 -0.99724838018E+01  0.10840764726E+02  0.59301950967E+02  0.50000012656E+02 0.  0.
        -12    1    1    2    0    0 -0.28279807458E+02  0.99724838018E+01 -0.10840764726E+02  0.31886049033E+02  0.00000000000E+00 0.  1.
         11    1    3    3    0    0  0.32276519627E+01 -0.28102443092E+01  0.74166543286E+01  0.85628249989E+01  0.51100000000E-03 0. -1.
        -11    1    3    3    0    0  0.18606724504E+02 -0.20851623166E+02  0.14972704113E+02  0.31704609351E+02  0.51100000000E-03 0.  1.
        -12    1    3    3    0    0  0.64454309921E+01  0.13689383673E+02 -0.11548593716E+02  0.19034516617E+02  0.00000000000E+00 0.  1.
</event>
<event>
 7    1  0.3755162E-013  0.5930196E+02  0.7816164E-02  0.1266605E+00
        -11   -1    0    0    0    0  0.00000000000E+00  0.00000000000E+00  0.45593999997E+02  0.45594000000E+02  0.51100000000E-03 0.  1.
         11   -1    0    0    0    0 -0.00000000000E+00 -0.00000000000E+00 -0.45593999997E+02  0.45594000000E+02  0.51100000000E-03 0. -1.
    9900012    2    1    2    0    0  0.15957723528E+02  0.27771630545E+01 -0.27465575481E+02  0.59301962126E+02  0.50000033007E+02 0.  0.
        -12    1    1    2    0    0 -0.15957723528E+02 -0.27771630545E+01  0.27465575481E+02  0.31886037874E+02  0.00000000000E+00 0.  1.
         11    1    3    3    0    0  0.10140129340E+02  0.98973206986E+01 -0.22594323381E+02  0.26669882439E+02  0.51100000000E-03 0. -1.
        -11    1    3    3    0    0  0.83897152863E+01 -0.54337376094E+01 -0.17217403688E+02  0.19908586514E+02  0.51100000000E-03 0.  1.
        -12    1    3    3    0    0 -0.25721210981E+01 -0.16864200347E+01  0.12346151588E+02  0.12723493172E+02  0.00000000000E+00 0.  1.
</event>
<event>
 7    1  0.3755162E-013  0.5930196E+02  0.7816164E-02  0.1266605E+00
        -11   -1    0    0    0    0  0.00000000000E+00  0.00000000000E+00  0.45593999997E+02  0.45594000000E+02  0.51100000000E-03 0. -1.
         11   -1    0    0    0    0 -0.00000000000E+00 -0.00000000000E+00 -0.45593999997E+02  0.45594000000E+02  0.51100000000E-03 0.  1.
    9900012    2    1    2    0    0  0.14301336375E+02  0.24600040220E+02  0.14388515969E+02  0.59301959281E+02  0.50000027818E+02 0.  0.
        -12    1    1    2    0    0 -0.14301336375E+02 -0.24600040220E+02 -0.14388515969E+02  0.31886040719E+02  0.00000000000E+00 0.  1.
         11    1    3    3    0    0 -0.13767020221E+02  0.64382105656E+01  0.27988265975E+01  0.15453634900E+02  0.51100000000E-03 0. -1.
        -11    1    3    3    0    0  0.65062899070E+01 -0.18668805756E+01 -0.64337741531E+01  0.93386563033E+01  0.51100000000E-03 0.  1.
         12    1    3    3    0    0  0.21562066689E+02  0.20028710230E+02  0.18023463525E+02  0.34509668077E+02  0.00000000000E+00 0. -1.
</event>
<event>
 7    1  0.3755162E-013  0.5930194E+02  0.7816164E-02  0.1266605E+00
        -11   -1    0    0    0    0  0.00000000000E+00  0.00000000000E+00  0.45593999997E+02  0.45594000000E+02  0.51100000000E-03 0.  1.
         11   -1    0    0    0    0 -0.00000000000E+00 -0.00000000000E+00 -0.45593999997E+02  0.45594000000E+02  0.51100000000E-03 0. -1.
    9900012    2    1    2    0    0 -0.25001406370E+02 -0.16699157490E+02 -0.10620204765E+02  0.59301938302E+02  0.49999989558E+02 0.  0.
        -12    1    1    2    0    0  0.25001406370E+02  0.16699157490E+02  0.10620204765E+02  0.31886061698E+02  0.00000000000E+00 0.  1.
         11    1    3    3    0    0 -0.10826455906E+02 -0.17734196234E+02 -0.32727634798E+01  0.21033897513E+02  0.51100000000E-03 0. -1.
        -11    1    3    3    0    0  0.76839952947E+01 -0.76961569889E+01 -0.97519108459E+01  0.14607339987E+02  0.51100000000E-03 0.  1.
         12    1    3    3    0    0 -0.21858945758E+02  0.87311957327E+01  0.24044695609E+01  0.23660700802E+02  0.00000000000E+00 0. -1.
</event>
<event>
 7    1  0.3755162E-013  0.5930196E+02  0.7816164E-02  0.1266605E+00
        -11   -1    0    0    0    0  0.00000000000E+00  0.00000000000E+00  0.45593999997E+02  0.45594000000E+02  0.51100000000E-03 0.  1.
         11   -1    0    0    0    0 -0.00000000000E+00 -0.00000000000E+00 -0.45593999997E+02  0.45594000000E+02  0.51100000000E-03 0. -1.
    9900012    2    1    2    0    0 -0.16273974056E+02  0.15276640561E+02 -0.22770630007E+02  0.59301959648E+02  0.50000028488E+02 0.  0.
        -12    1    1    2    0    0  0.16273974056E+02 -0.15276640561E+02  0.22770630007E+02  0.31886040352E+02  0.00000000000E+00 0.  1.
         11    1    3    3    0    0 -0.61607035157E+01 -0.14221925281E+02 -0.17098525111E+02  0.23077629595E+02  0.51100000000E-03 0.  1.
        -11    1    3    3    0    0 -0.96133747790E+01  0.11655293585E+02 -0.96618606816E+01  0.17933610771E+02  0.51100000000E-03 0. -1.
        -12    1    3    3    0    0 -0.49989576158E+00  0.17843272257E+02  0.39897557862E+01  0.18290719282E+02  0.00000000000E+00 0.  1.
</event>
<event>
 7    1  0.3755162E-013  0.5930188E+02  0.7816164E-02  0.1266605E+00
        -11   -1    0    0    0    0  0.00000000000E+00  0.00000000000E+00  0.45593999997E+02  0.45594000000E+02  0.51100000000E-03 0. -1.
         11   -1    0    0    0    0 -0.00000000000E+00 -0.00000000000E+00 -0.45593999997E+02  0.45594000000E+02  0.51100000000E-03 0.  1.
    9900012    2    1    2    0    0  0.15985325506E+01 -0.29885889940E+02  0.11000128697E+02  0.59301881466E+02  0.49999885902E+02 0.  0.
        -12    1    1    2    0    0 -0.15985325506E+01  0.29885889940E+02 -0.11000128697E+02  0.31886118534E+02  0.00000000000E+00 0.  1.
         11    1    3    3    0    0 -0.35093425194E+00 -0.66419330216E+01 -0.95656868247E+01  0.11650785115E+02  0.51100000000E-03 0. -1.
        -11    1    3    3    0    0  0.18733612821E+02 -0.10034251438E+02  0.71215550376E+01  0.22413188030E+02  0.51100000000E-03 0.  1.
         12    1    3    3    0    0 -0.16784146019E+02 -0.13209705480E+02  0.13444260484E+02  0.25237908321E+02  0.00000000000E+00 0. -1.
</event>
<event>
 7    1  0.3755162E-013  0.5930194E+02  0.7816164E-02  0.1266605E+00
        -11   -1    0    0    0    0  0.00000000000E+00  0.00000000000E+00  0.45593999997E+02  0.45594000000E+02  0.51100000000E-03 0.  1.
         11   -1    0    0    0    0 -0.00000000000E+00 -0.00000000000E+00 -0.45593999997E+02  0.45594000000E+02  0.51100000000E-03 0. -1.
    9900012    2    1    2    0    0 -0.48411717387E+01  0.18868743678E+01 -0.31459871525E+02  0.59301941055E+02  0.49999994578E+02 0.  0.
        -12    1    1    2    0    0  0.48411717387E+01 -0.18868743678E+01  0.31459871525E+02  0.31886058945E+02  0.00000000000E+00 0.  1.
         11    1    3    3    0    0 -0.15081431445E+00 -0.47223280241E+01 -0.34634668762E+01  0.58582190117E+01  0.51100000000E-03 0. -1.
        -11    1    3    3    0    0 -0.11721185081E+02  0.10399730621E+02  0.72771668910E+01  0.17277086992E+02  0.51100000000E-03 0.  1.
        -12    1    3    3    0    0  0.70308276570E+01 -0.37905282289E+01 -0.35273571540E+02  0.36166635052E+02  0.00000000000E+00 0.  1.
</event>
<event>
 7    1  0.3755162E-013  0.5930193E+02  0.7816164E-02  0.1266605E+00
        -11   -1    0    0    0    0  0.00000000000E+00  0.00000000000E+00  0.45593999997E+02  0.45594000000E+02  0.51100000000E-03 0. -1.
         11   -1    0    0    0    0 -0.00000000000E+00 -0.00000000000E+00 -0.45593999997E+02  0.45594000000E+02  0.51100000000E-03 0.  1.
    9900012    2    1    2    0    0 -0.49884305893E+01  0.42702565702E+01  0.31202598998E+02  0.59301925999E+02  0.49999967121E+02 0.  0.
        -12    1    1    2    0    0  0.49884305893E+01 -0.42702565702E+01 -0.31202598998E+02  0.31886074001E+02  0.00000000000E+00 0.  1.
         11    1    3    3    0    0 -0.10487271481E+02  0.56102507855E+01  0.45364751853E+01  0.12729390573E+02  0.51100000000E-03 0. -1.
        -11    1    3    3    0    0 -0.98365736024E+01 -0.73439537327E+01 -0.30042987587E+01  0.12637944768E+02  0.51100000000E-03 0.  1.
         12    1    3    3    0    0  0.15335414494E+02  0.60039595175E+01  0.29670422572E+02  0.33934590659E+02  0.00000000000E+00 0. -1.
</event>
<event>
 7    1  0.3755162E-013  0.5930194E+02  0.7816164E-02  0.1266605E+00
        -11   -1    0    0    0    0  0.00000000000E+00  0.00000000000E+00  0.45593999997E+02  0.45594000000E+02  0.51100000000E-03 0.  1.
         11   -1    0    0    0    0 -0.00000000000E+00 -0.00000000000E+00 -0.45593999997E+02  0.45594000000E+02  0.51100000000E-03 0. -1.
    9900012    2    1    2    0    0  0.21960988756E+02 -0.12592988859E+00 -0.23117528935E+02  0.59301936751E+02  0.49999986729E+02 0.  0.
        -12    1    1    2    0    0 -0.21960988756E+02  0.12592988859E+00  0.23117528935E+02  0.31886063249E+02  0.00000000000E+00 0.  1.
         11    1    3    3    0    0  0.12533422329E+02  0.73059623932E+00  0.25444838997E+00  0.12557276392E+02  0.51100000000E-03 0. -1.
        -11    1    3    3    0    0  0.16995036734E+02  0.11781346608E+02 -0.19830358228E+01  0.20774114489E+02  0.51100000000E-03 0.  1.
        -12    1    3    3    0    0 -0.75674703071E+01 -0.12637872736E+02 -0.21388941502E+02  0.25970545869E+02  0.00000000000E+00 0.  1.
</event>
<event>
 7    1  0.3755162E-013  0.5930199E+02  0.7816164E-02  0.1266605E+00
        -11   -1    0    0    0    0  0.00000000000E+00  0.00000000000E+00  0.45593999997E+02  0.45594000000E+02  0.51100000000E-03 0.  1.
         11   -1    0    0    0    0 -0.00000000000E+00 -0.00000000000E+00 -0.45593999997E+02  0.45594000000E+02  0.51100000000E-03 0. -1.
    9900012    2    1    2    0    0  0.18349815243E+02 -0.22569220327E+02 -0.13062620400E+02  0.59301992452E+02  0.50000088314E+02 0.  0.
        -12    1    1    2    0    0 -0.18349815243E+02  0.22569220327E+02  0.13062620400E+02  0.31886007548E+02  0.00000000000E+00 0.  1.
         11    1    3    3    0    0  0.15934435116E+02 -0.14315019694E+02 -0.83680982694E+01  0.22996762385E+02  0.51100000000E-03 0. -1.
        -11    1    3    3    0    0  0.41762549186E+01  0.29376044427E+01 -0.18069335062E+02  0.18776887252E+02  0.51100000000E-03 0.  1.
         12    1    3    3    0    0 -0.17608747915E+01 -0.11191805076E+02  0.13374812932E+02  0.17528342815E+02  0.00000000000E+00 0. -1.
</event>
<event>
 7    1  0.3755162E-013  0.5930195E+02  0.7816164E-02  0.1266605E+00
        -11   -1    0    0    0    0  0.00000000000E+00  0.00000000000E+00  0.45593999997E+02  0.45594000000E+02  0.51100000000E-03 0.  1.
         11   -1    0    0    0    0 -0.00000000000E+00 -0.00000000000E+00 -0.45593999997E+02  0.45594000000E+02  0.51100000000E-03 0. -1.
    9900012    2    1    2    0    0  0.23200481605E+01 -0.17055279580E+02 -0.26841293889E+02  0.59301949089E+02  0.50000009231E+02 0.  0.
        -12    1    1    2    0    0 -0.23200481605E+01  0.17055279580E+02  0.26841293889E+02  0.31886050911E+02  0.00000000000E+00 0.  1.
         11    1    3    3    0    0  0.51747132737E+01 -0.91010072109E+01 -0.70274429598E+01  0.12609161135E+02  0.51100000000E-03 0. -1.
        -11    1    3    3    0    0  0.92697037167E+01 -0.19522233509E+02 -0.11964446045E+01  0.21644317687E+02  0.51100000000E-03 0.  1.
         12    1    3    3    0    0 -0.12124368830E+02  0.11567961140E+02 -0.18617406325E+02  0.25048470267E+02  0.00000000000E+00 0. -1.
</event>
<event>
 7    1  0.3755162E-013  0.5930193E+02  0.7816164E-02  0.1266605E+00
        -11   -1    0    0    0    0  0.00000000000E+00  0.00000000000E+00  0.45593999997E+02  0.45594000000E+02  0.51100000000E-03 0.  1.
         11   -1    0    0    0    0 -0.00000000000E+00 -0.00000000000E+00 -0.45593999997E+02  0.45594000000E+02  0.51100000000E-03 0. -1.
    9900012    2    1    2    0    0  0.16438904011E+02  0.14662668455E+02 -0.23054070939E+02  0.59301927834E+02  0.49999970467E+02 0.  0.
        -12    1    1    2    0    0 -0.16438904011E+02 -0.14662668455E+02  0.23054070939E+02  0.31886072166E+02  0.00000000000E+00 0.  1.
         11    1    3    3    0    0  0.31147296882E+01 -0.34682834102E+01 -0.24298074997E+02  0.24741200045E+02  0.51100000000E-03 0. -1.
        -11    1    3    3    0    0  0.15993762558E+01 -0.65564601328E+01  0.25121944755E+01  0.72011315239E+01  0.51100000000E-03 0.  1.
        -12    1    3    3    0    0  0.11724798067E+02  0.24687411998E+02 -0.12681904177E+01  0.27359596265E+02  0.00000000000E+00 0.  1.
</event>
<event>
 7    1  0.3755162E-013  0.5930200E+02  0.7816164E-02  0.1266605E+00
        -11   -1    0    0    0    0  0.00000000000E+00  0.00000000000E+00  0.45593999997E+02  0.45594000000E+02  0.51100000000E-03 0. -1.
         11   -1    0    0    0    0 -0.00000000000E+00 -0.00000000000E+00 -0.45593999997E+02  0.45594000000E+02  0.51100000000E-03 0.  1.
    9900012    2    1    2    0    0 -0.29377489584E+01 -0.30721327354E+02  0.80179088705E+01  0.59301997021E+02  0.50000096646E+02 0.  0.
        -12    1    1    2    0    0  0.29377489584E+01  0.30721327354E+02 -0.80179088705E+01  0.31886002979E+02  0.00000000000E+00 0.  1.
         11    1    3    3    0    0  0.64503131703E+01 -0.13377324061E+02 -0.12026530745E+01  0.14899856164E+02  0.51100000000E-03 0. -1.
        -11    1    3    3    0    0  0.32452149280E+00  0.93512867091E+01 -0.70041377730E+01  0.11688020513E+02  0.51100000000E-03 0.  1.
        -12    1    3    3    0    0 -0.97125836216E+01 -0.26695290002E+02  0.16224699718E+02  0.32714120343E+02  0.00000000000E+00 0.  1.
</event>
<event>
 7    1  0.3755162E-013  0.5930195E+02  0.7816164E-02  0.1266605E+00
        -11   -1    0    0    0    0  0.00000000000E+00  0.00000000000E+00  0.45593999997E+02  0.45594000000E+02  0.51100000000E-03 0. -1.
         11   -1    0    0    0    0 -0.00000000000E+00 -0.00000000000E+00 -0.45593999997E+02  0.45594000000E+02  0.51100000000E-03 0.  1.
    9900012    2    1    2    0    0  0.23190646270E+02  0.21442751209E+02  0.43729586676E+01  0.59301946288E+02  0.50000004121E+02 0.  0.
        -12    1    1    2    0    0 -0.23190646270E+02 -0.21442751209E+02 -0.43729586676E+01  0.31886053712E+02  0.00000000000E+00 0.  1.
         11    1    3    3    0    0  0.27473697068E+02  0.10259162844E+02  0.97055731119E+01  0.30890979307E+02  0.51100000000E-03 0. -1.
        -11    1    3    3    0    0  0.10303638366E+02  0.37512159468E+01  0.64133625833E+00  0.10983983663E+02  0.51100000000E-03 0.  1.
         12    1    3    3    0    0 -0.14586689164E+02  0.74323724179E+01 -0.59739507025E+01  0.17426983317E+02  0.00000000000E+00 0. -1.
</event>
<event>
 7    1  0.3755162E-013  0.5930192E+02  0.7816164E-02  0.1266605E+00
        -11   -1    0    0    0    0  0.00000000000E+00  0.00000000000E+00  0.45593999997E+02  0.45594000000E+02  0.51100000000E-03 0. -1.
         11   -1    0    0    0    0 -0.00000000000E+00 -0.00000000000E+00 -0.45593999997E+02  0.45594000000E+02  0.51100000000E-03 0.  1.
    9900012    2    1    2    0    0 -0.21367444032E+02  0.13521440811E+02  0.19424850457E+02  0.59301924021E+02  0.49999963512E+02 0.  0.
        -12    1    1    2    0    0  0.21367444032E+02 -0.13521440811E+02 -0.19424850457E+02  0.31886075979E+02  0.00000000000E+00 0.  1.
         11    1    3    3    0    0 -0.86424821234E+01  0.69105230217E+01  0.13142131002E+02  0.17180321103E+02  0.51100000000E-03 0. -1.
        -11    1    3    3    0    0 -0.23027038637E+02 -0.74652229969E+01  0.37090037420E+01  0.24489401214E+02  0.51100000000E-03 0.  1.
         12    1    3    3    0    0  0.10302076729E+02  0.14076140786E+02  0.25737157134E+01  0.17632201704E+02  0.00000000000E+00 0. -1.
</event>
<event>
 7    1  0.3755162E-013  0.5930193E+02  0.7816164E-02  0.1266605E+00
        -11   -1    0    0    0    0  0.00000000000E+00  0.00000000000E+00  0.45593999997E+02  0.45594000000E+02  0.51100000000E-03 0.  1.
         11   -1    0    0    0    0 -0.00000000000E+00 -0.00000000000E+00 -0.45593999997E+02  0.45594000000E+02  0.51100000000E-03 0. -1.
    9900012    2    1    2    0    0  0.29452852284E+02 -0.12915674309E+01  0.12148372131E+02  0.59301927813E+02  0.49999970428E+02 0.  0.
        -12    1    1    2    0    0 -0.29452852284E+02  0.12915674309E+01 -0.12148372131E+02  0.31886072187E+02  0.00000000000E+00 0.  1.
         11    1    3    3    0    0  0.18497522217E+02 -0.14246328125E+02 -0.13381605719E+02  0.26910658949E+02  0.51100000000E-03 0. -1.
        -11    1    3    3    0    0 -0.19405624297E+01  0.23778662179E+01  0.25133404270E+01  0.39669775216E+01  0.51100000000E-03 0.  1.
        -12    1    3    3    0    0  0.12895892496E+02  0.10576894476E+02  0.23016637423E+02  0.28424291342E+02  0.00000000000E+00 0.  1.
</event>
<event>
 7    1  0.3755162E-013  0.5930194E+02  0.7816164E-02  0.1266605E+00
        -11   -1    0    0    0    0  0.00000000000E+00  0.00000000000E+00  0.45593999997E+02  0.45594000000E+02  0.51100000000E-03 0. -1.
         11   -1    0    0    0    0 -0.00000000000E+00 -0.00000000000E+00 -0.45593999997E+02  0.45594000000E+02  0.51100000000E-03 0.  1.
    9900012    2    1    2    0    0 -0.31710223749E+02  0.32979632234E+01  0.55308132590E+00  0.59301941124E+02  0.49999994705E+02 0.  0.
        -12    1    1    2    0    0  0.31710223749E+02 -0.32979632234E+01 -0.55308132590E+00  0.31886058876E+02  0.00000000000E+00 0.  1.
         11    1    3    3    0    0 -0.46071274494E+01  0.15555665796E+02  0.12505210083E+02  0.20483765307E+02  0.51100000000E-03 0. -1.
        -11    1    3    3    0    0  0.18878259900E+01 -0.18686359453E+01 -0.71785103123E+01  0.76541947865E+01  0.51100000000E-03 0.  1.
         12    1    3    3    0    0 -0.28990922290E+02 -0.10389066627E+02 -0.47736184452E+01  0.31163981030E+02  0.00000000000E+00 0. -1.
</event>
<event>
 7    1  0.3755162E-013  0.5930187E+02  0.7816164E-02  0.1266605E+00
        -11   -1    0    0    0    0  0.00000000000E+00  0.00000000000E+00  0.45593999997E+02  0.45594000000E+02  0.51100000000E-03 0.  1.
         11   -1    0    0    0    0 -0.00000000000E+00 -0.00000000000E+00 -0.45593999997E+02  0.45594000000E+02  0.51100000000E-03 0. -1.
    9900012    2    1    2    0    0 -0.11839706837E+02 -0.29571504295E+02 -0.14397069566E+01  0.59301870094E+02  0.49999865162E+02 0.  0.
        -12    1    1    2    0    0  0.11839706837E+02  0.29571504295E+02  0.14397069566E+01  0.31886129906E+02  0.00000000000E+00 0.  1.
         11    1    3    3    0    0  0.17587471669E+01 -0.31217306872E+01 -0.13433941952E+01  0.38266306727E+01  0.51100000000E-03 0. -1.
        -11    1    3    3    0    0  0.97408856588E+01 -0.28841232968E+02  0.64498828252E+01  0.31117560336E+02  0.51100000000E-03 0.  1.
         12    1    3    3    0    0 -0.23339339662E+02  0.23914593600E+01 -0.65461955866E+01  0.24357679085E+02  0.00000000000E+00 0. -1.
</event>
<event>
 7    1  0.3755162E-013  0.5930199E+02  0.7816164E-02  0.1266605E+00
        -11   -1    0    0    0    0  0.00000000000E+00  0.00000000000E+00  0.45593999997E+02  0.45594000000E+02  0.51100000000E-03 0.  1.
         11   -1    0    0    0    0 -0.00000000000E+00 -0.00000000000E+00 -0.45593999997E+02  0.45594000000E+02  0.51100000000E-03 0. -1.
    9900012    2    1    2    0    0  0.13065312273E+02  0.12819875118E+02 -0.26108734893E+02  0.59301990207E+02  0.50000084219E+02 0.  0.
        -12    1    1    2    0    0 -0.13065312273E+02 -0.12819875118E+02  0.26108734893E+02  0.31886009793E+02  0.00000000000E+00 0.  1.
         11    1    3    3    0    0  0.16543589812E+01 -0.44097366457E+01  0.77606963947E+01  0.90780553928E+01  0.51100000000E-03 0.  1.
        -11    1    3    3    0    0 -0.91162672566E+01  0.13279942541E+02 -0.13182076518E+02  0.20814186128E+02  0.51100000000E-03 0. -1.
         12    1    3    3    0    0  0.20527220548E+02  0.39496692227E+01 -0.20687354770E+02  0.29409748686E+02  0.00000000000E+00 0. -1.
</event>
<event>
 7    1  0.3755162E-013  0.5930193E+02  0.7816164E-02  0.1266605E+00
        -11   -1    0    0    0    0  0.00000000000E+00  0.00000000000E+00  0.45593999997E+02  0.45594000000E+02  0.51100000000E-03 0. -1.
         11   -1    0    0    0    0 -0.00000000000E+00 -0.00000000000E+00 -0.45593999997E+02  0.45594000000E+02  0.51100000000E-03 0.  1.
    9900012    2    1    2    0    0 -0.14944825909E+02 -0.13905785790E+02  0.24494947373E+02  0.59301934914E+02  0.49999983379E+02 0.  0.
        -12    1    1    2    0    0  0.14944825909E+02  0.13905785790E+02 -0.24494947373E+02  0.31886065086E+02  0.00000000000E+00 0.  1.
         11    1    3    3    0    0 -0.23516685194E+02 -0.63249986428E+01  0.32456659881E+02  0.40576777364E+02  0.51100000000E-03 0. -1.
        -11    1    3    3    0    0 -0.25621458203E+01 -0.32872570874E+01  0.35023060065E+00  0.41825006991E+01  0.51100000000E-03 0.  1.
        -12    1    3    3    0    0  0.11134005105E+02 -0.42935300595E+01 -0.83119431091E+01  0.14542656851E+02  0.00000000000E+00 0.  1.
</event>
<event>
 7    1  0.3755162E-013  0.5930194E+02  0.7816164E-02  0.1266605E+00
        -11   -1    0    0    0    0  0.00000000000E+00  0.00000000000E+00  0.45593999997E+02  0.45594000000E+02  0.51100000000E-03 0.  1.
         11   -1    0    0    0    0 -0.00000000000E+00 -0.00000000000E+00 -0.45593999997E+02  0.45594000000E+02  0.51100000000E-03 0. -1.
    9900012    2    1    2    0    0  0.77575856702E+01  0.42338276569E+01 -0.30636833231E+02  0.59301937488E+02  0.49999988073E+02 0.  0.
        -12    1    1    2    0    0 -0.77575856702E+01 -0.42338276569E+01  0.30636833231E+02  0.31886062512E+02  0.00000000000E+00 0.  1.
         11    1    3    3    0    0 -0.52202637838E+01  0.97960889365E+01 -0.26203422550E+02  0.28457580115E+02  0.51100000000E-03 0. -1.
        -11    1    3    3    0    0 -0.50528735778E+01 -0.62907491390E+01 -0.91432395006E+01  0.12194420238E+02  0.51100000000E-03 0.  1.
         12    1    3    3    0    0  0.18030723032E+02  0.72848785942E+00  0.47098288193E+01  0.18649937134E+02  0.00000000000E+00 0. -1.
</event>
<event>
 7    1  0.3755162E-013  0.5930194E+02  0.7816164E-02  0.1266605E+00
        -11   -1    0    0    0    0  0.00000000000E+00  0.00000000000E+00  0.45593999997E+02  0.45594000000E+02  0.51100000000E-03 0. -1.
         11   -1    0    0    0    0 -0.00000000000E+00 -0.00000000000E+00 -0.45593999997E+02  0.45594000000E+02  0.51100000000E-03 0.  1.
    9900012    2    1    2    0    0 -0.16253673610E+01 -0.26241605452E+02  0.18040430215E+02  0.59301940380E+02  0.49999993348E+02 0.  0.
        -12    1    1    2    0    0  0.16253673610E+01  0.26241605452E+02 -0.18040430215E+02  0.31886059620E+02  0.00000000000E+00 0.  1.
         11    1    3    3    0    0  0.79896865522E+00 -0.18226940559E+02  0.48093928764E+01  0.18867696551E+02  0.51100000000E-03 0. -1.
        -11    1    3    3    0    0  0.14636003211E+02  0.16718451876E+01 -0.29260755612E+01  0.15018973826E+02  0.51100000000E-03 0.  1.
        -12    1    3    3    0    0 -0.17060339227E+02 -0.96865100808E+01  0.16157112899E+02  0.25415270003E+02  0.00000000000E+00 0.  1.
</event>
<event>
 7    1  0.3755162E-013  0.5930199E+02  0.7816164E-02  0.1266605E+00
        -11   -1    0    0    0    0  0.00000000000E+00  0.00000000000E+00  0.45593999997E+02  0.45594000000E+02  0.51100000000E-03 0. -1.
         11   -1    0    0    0    0 -0.00000000000E+00 -0.00000000000E+00 -0.45593999997E+02  0.45594000000E+02  0.51100000000E-03 0.  1.
    9900012    2    1    2    0    0 -0.15043410440E+02  0.27295853603E+02  0.67342157361E+01  0.59301992361E+02  0.50000088148E+02 0.  0.
        -12    1    1    2    0    0  0.15043410440E+02 -0.27295853603E+02 -0.67342157361E+01  0.31886007639E+02  0.00000000000E+00 0.  1.
         11    1    3    3    0    0 -0.69704773058E+01  0.57311304518E+01  0.98218856183E+01  0.13338022623E+02  0.51100000000E-03 0. -1.
        -11    1    3    3    0    0 -0.18198859653E+01  0.25549632357E+02  0.12649423554E+02  0.28567527282E+02  0.51100000000E-03 0.  1.
        -12    1    3    3    0    0 -0.62530471692E+01 -0.39849092058E+01 -0.15737093436E+02  0.17396442455E+02  0.00000000000E+00 0.  1.
</event>
<event>
 7    1  0.3755162E-013  0.5930195E+02  0.7816164E-02  0.1266605E+00
        -11   -1    0    0    0    0  0.00000000000E+00  0.00000000000E+00  0.45593999997E+02  0.45594000000E+02  0.51100000000E-03 0.  1.
         11   -1    0    0    0    0 -0.00000000000E+00 -0.00000000000E+00 -0.45593999997E+02  0.45594000000E+02  0.51100000000E-03 0. -1.
    9900012    2    1    2    0    0  0.20623618696E+02 -0.23297698224E+02  0.69716626371E+01  0.59301945516E+02  0.50000002714E+02 0.  0.
        -12    1    1    2    0    0 -0.20623618696E+02  0.23297698224E+02 -0.69716626371E+01  0.31886054484E+02  0.00000000000E+00 0.  1.
         11    1    3    3    0    0 -0.68531923551E-02  0.91855129270E+00  0.13095575096E+02  0.13127751932E+02  0.51100000000E-03 0. -1.
        -11    1    3    3    0    0  0.14078101462E+02 -0.52291634450E+01  0.11920159826E+02  0.19173609510E+02  0.51100000000E-03 0.  1.
         12    1    3    3    0    0  0.65523704266E+01 -0.18987086072E+02 -0.18044072285E+02  0.27000584074E+02  0.00000000000E+00 0. -1.
</event>
<event>
 7    1  0.3755162E-013  0.5930195E+02  0.7816164E-02  0.1266605E+00
        -11   -1    0    0    0    0  0.00000000000E+00  0.00000000000E+00  0.45593999997E+02  0.45594000000E+02  0.51100000000E-03 0.  1.
         11   -1    0    0    0    0 -0.00000000000E+00 -0.00000000000E+00 -0.45593999997E+02  0.45594000000E+02  0.51100000000E-03 0. -1.
    9900012    2    1    2    0    0  0.87481752585E+01 -0.26576842903E+02  0.15292512714E+02  0.59301951419E+02  0.50000013479E+02 0.  0.
        -12    1    1    2    0    0 -0.87481752585E+01  0.26576842903E+02 -0.15292512714E+02  0.31886048581E+02  0.00000000000E+00 0.  1.
         11    1    3    3    0    0 -0.32370471388E+00 -0.27719365638E+02 -0.91118812514E+01  0.29180376905E+02  0.51100000000E-03 0. -1.
        -11    1    3    3    0    0 -0.42263597085E+01 -0.34916226990E+00  0.51021678077E+01  0.66344666157E+01  0.51100000000E-03 0.  1.
        -12    1    3    3    0    0  0.13298239681E+02  0.14916850053E+01  0.19302226158E+02  0.23487107898E+02  0.00000000000E+00 0.  1.
</event>
<event>
 7    1  0.3755162E-013  0.5930195E+02  0.7816164E-02  0.1266605E+00
        -11   -1    0    0    0    0  0.00000000000E+00  0.00000000000E+00  0.45593999997E+02  0.45594000000E+02  0.51100000000E-03 0.  1.
         11   -1    0    0    0    0 -0.00000000000E+00 -0.00000000000E+00 -0.45593999997E+02  0.45594000000E+02  0.51100000000E-03 0. -1.
    9900012    2    1    2    0    0 -0.28985513441E+02  0.14309851360E+01 -0.13210314394E+02  0.59301951103E+02  0.50000012903E+02 0.  0.
        -12    1    1    2    0    0  0.28985513441E+02 -0.14309851360E+01  0.13210314394E+02  0.31886048897E+02  0.00000000000E+00 0.  1.
         11    1    3    3    0    0  0.11354156084E+02 -0.88317395212E-01 -0.80448093452E+01  0.13915589028E+02  0.51100000000E-03 0.  1.
        -11    1    3    3    0    0 -0.21135720089E+01 -0.39141339757E+01 -0.51114195082E+01  0.67760048012E+01  0.51100000000E-03 0. -1.
         12    1    3    3    0    0 -0.38226097516E+02  0.54334365069E+01 -0.54085540406E-01  0.38610357274E+02  0.00000000000E+00 0. -1.
</event>
<event>
 7    1  0.3755162E-013  0.5930194E+02  0.7816164E-02  0.1266605E+00
        -11   -1    0    0    0    0  0.00000000000E+00  0.00000000000E+00  0.45593999997E+02  0.45594000000E+02  0.51100000000E-03 0. -1.
         11   -1    0    0    0    0 -0.00000000000E+00 -0.00000000000E+00 -0.45593999997E+02  0.45594000000E+02  0.51100000000E-03 0.  1.
    9900012    2    1    2    0    0  0.27064639156E+02 -0.13873242217E+02  0.95791190394E+01  0.59301936213E+02  0.49999985748E+02 0.  0.
        -12    1    1    2    0    0 -0.27064639156E+02  0.13873242217E+02 -0.95791190394E+01  0.31886063787E+02  0.00000000000E+00 0.  1.
         11    1    3    3    0    0  0.11402651371E+02  0.36706437696E+01  0.11131599100E+02  0.16352571136E+02  0.51100000000E-03 0. -1.
        -11    1    3    3    0    0  0.16085015437E+02  0.55542441452E+01 -0.82286169530E+01  0.18902049805E+02  0.51100000000E-03 0.  1.
        -12    1    3    3    0    0 -0.42302765153E+00 -0.23098130132E+02  0.66761368922E+01  0.24047315272E+02  0.00000000000E+00 0.  1.
</event>
<event>
 7    1  0.3755162E-013  0.5930190E+02  0.7816164E-02  0.1266605E+00
        -11   -1    0    0    0    0  0.00000000000E+00  0.00000000000E+00  0.45593999997E+02  0.45594000000E+02  0.51100000000E-03 0.  1.
         11   -1    0    0    0    0 -0.00000000000E+00 -0.00000000000E+00 -0.45593999997E+02  0.45594000000E+02  0.51100000000E-03 0. -1.
    9900012    2    1    2    0    0  0.19376858356E+02  0.25053197544E+02  0.36875215878E+01  0.59301903306E+02  0.49999925734E+02 0.  0.
        -12    1    1    2    0    0 -0.19376858356E+02 -0.25053197544E+02 -0.36875215878E+01  0.31886096694E+02  0.00000000000E+00 0.  1.
         11    1    3    3    0    0  0.34216058484E+01  0.58478170871E+01  0.87799555367E+01  0.11090174514E+02  0.51100000000E-03 0. -1.
        -11    1    3    3    0    0 -0.70845772996E+01  0.10792578134E+02  0.12544740429E+02  0.18001152491E+02  0.51100000000E-03 0.  1.
         12    1    3    3    0    0  0.23039829807E+02  0.84128023224E+01 -0.17637174378E+02  0.30210576302E+02  0.00000000000E+00 0. -1.
</event>
<event>
 7    1  0.3755162E-013  0.5930197E+02  0.7816164E-02  0.1266605E+00
        -11   -1    0    0    0    0  0.00000000000E+00  0.00000000000E+00  0.45593999997E+02  0.45594000000E+02  0.51100000000E-03 0. -1.
         11   -1    0    0    0    0 -0.00000000000E+00 -0.00000000000E+00 -0.45593999997E+02  0.45594000000E+02  0.51100000000E-03 0.  1.
    9900012    2    1    2    0    0 -0.25528794166E+02 -0.52411722998E+01  0.18371980632E+02  0.59301970284E+02  0.50000047886E+02 0.  0.
        -12    1    1    2    0    0  0.25528794166E+02  0.52411722998E+01 -0.18371980632E+02  0.31886029716E+02  0.00000000000E+00 0.  1.
         11    1    3    3    0    0 -0.14824921736E+02 -0.13158265566E+02  0.33265592344E+01  0.20099359537E+02  0.51100000000E-03 0.  1.
        -11    1    3    3    0    0 -0.15350552300E+02 -0.77629801421E+01  0.33368560855E+00  0.17205076662E+02  0.51100000000E-03 0. -1.
        -12    1    3    3    0    0  0.46466798694E+01  0.15680073409E+02  0.14711735790E+02  0.21997534086E+02  0.00000000000E+00 0.  1.
</event>
<event>
 7    1  0.3755162E-013  0.5930194E+02  0.7816164E-02  0.1266605E+00
        -11   -1    0    0    0    0  0.00000000000E+00  0.00000000000E+00  0.45593999997E+02  0.45594000000E+02  0.51100000000E-03 0. -1.
         11   -1    0    0    0    0 -0.00000000000E+00 -0.00000000000E+00 -0.45593999997E+02  0.45594000000E+02  0.51100000000E-03 0.  1.
    9900012    2    1    2    0    0  0.97483467808E-01  0.27178171660E+02  0.16675072041E+02  0.59301944342E+02  0.50000000573E+02 0.  0.
        -12    1    1    2    0    0 -0.97483467808E-01 -0.27178171660E+02 -0.16675072041E+02  0.31886055658E+02  0.00000000000E+00 0.  1.
         11    1    3    3    0    0 -0.72995016236E+01  0.62185493043E+01 -0.82369192134E+01  0.12641199223E+02  0.51100000000E-03 0. -1.
        -11    1    3    3    0    0 -0.49908350548E+00  0.12275932601E+02 -0.59436524880E+01  0.13648245701E+02  0.51100000000E-03 0.  1.
        -12    1    3    3    0    0  0.78960685969E+01  0.86836897555E+01  0.30855643743E+02  0.33012499418E+02  0.00000000000E+00 0.  1.
</event>
<event>
 7    1  0.3755162E-013  0.5930188E+02  0.7816164E-02  0.1266605E+00
        -11   -1    0    0    0    0  0.00000000000E+00  0.00000000000E+00  0.45593999997E+02  0.45594000000E+02  0.51100000000E-03 0. -1.
         11   -1    0    0    0    0 -0.00000000000E+00 -0.00000000000E+00 -0.45593999997E+02  0.45594000000E+02  0.51100000000E-03 0.  1.
    9900012    2    1    2    0    0  0.17904993177E+01  0.12169421108E+02  0.29418089402E+02  0.59301879478E+02  0.49999882276E+02 0.  0.
        -12    1    1    2    0    0 -0.17904993177E+01 -0.12169421108E+02 -0.29418089402E+02  0.31886120522E+02  0.00000000000E+00 0.  1.
         11    1    3    3    0    0  0.19410509663E+01  0.30444917604E+01  0.18080217364E+02  0.18437214246E+02  0.51100000000E-03 0. -1.
        -11    1    3    3    0    0 -0.85035936607E+01  0.40780366888E+01  0.23470284837E+02  0.25294184292E+02  0.51100000000E-03 0.  1.
        -12    1    3    3    0    0  0.83530420121E+01  0.50468926587E+01 -0.12132412800E+02  0.15570480940E+02  0.00000000000E+00 0.  1.
</event>
<event>
 7    1  0.3755162E-013  0.5930233E+02  0.7816164E-02  0.1266603E+00
        -11   -1    0    0    0    0  0.00000000000E+00  0.00000000000E+00  0.45593999997E+02  0.45594000000E+02  0.51100000000E-03 0.  1.
         11   -1    0    0    0    0 -0.00000000000E+00 -0.00000000000E+00 -0.45593999997E+02  0.45594000000E+02  0.51100000000E-03 0. -1.
    9900012    2    1    2    0    0  0.11902604171E+02 -0.25664293636E+02 -0.14709444192E+02  0.59302333905E+02  0.50000711037E+02 0.  0.
        -12    1    1    2    0    0 -0.11902604171E+02  0.25664293636E+02  0.14709444192E+02  0.31885666095E+02  0.00000000000E+00 0.  1.
         11    1    3    3    0    0  0.17623778348E+02 -0.10859581147E+01 -0.13397249441E+02  0.22164457159E+02  0.51100000000E-03 0. -1.
        -11    1    3    3    0    0  0.17218943018E+01  0.54322518509E+01  0.20040512009E+01  0.60407368453E+01  0.51100000000E-03 0.  1.
         12    1    3    3    0    0 -0.74430684788E+01 -0.30010587372E+02 -0.33162459519E+01  0.31097139901E+02  0.00000000000E+00 0. -1.
</event>
<event>
 7    1  0.3755162E-013  0.5930193E+02  0.7816164E-02  0.1266605E+00
        -11   -1    0    0    0    0  0.00000000000E+00  0.00000000000E+00  0.45593999997E+02  0.45594000000E+02  0.51100000000E-03 0.  1.
         11   -1    0    0    0    0 -0.00000000000E+00 -0.00000000000E+00 -0.45593999997E+02  0.45594000000E+02  0.51100000000E-03 0. -1.
    9900012    2    1    2    0    0 -0.24804803113E+02 -0.14759846112E+02 -0.13549538816E+02  0.59301932246E+02  0.49999978513E+02 0.  0.
        -12    1    1    2    0    0  0.24804803113E+02  0.14759846112E+02  0.13549538816E+02  0.31886067754E+02  0.00000000000E+00 0.  1.
         11    1    3    3    0    0 -0.13256432738E+02  0.10570485478E+02 -0.13385193288E+02  0.21601656691E+02  0.51100000000E-03 0. -1.
        -11    1    3    3    0    0 -0.65728910375E+01  0.36176926452E+01  0.31584741228E+01  0.81404272438E+01  0.51100000000E-03 0.  1.
         12    1    3    3    0    0 -0.49754793369E+01 -0.28948024235E+02 -0.33228196502E+01  0.29559848311E+02  0.00000000000E+00 0. -1.
</event>
<event>
 7    1  0.3755162E-013  0.5930193E+02  0.7816164E-02  0.1266605E+00
        -11   -1    0    0    0    0  0.00000000000E+00  0.00000000000E+00  0.45593999997E+02  0.45594000000E+02  0.51100000000E-03 0.  1.
         11   -1    0    0    0    0 -0.00000000000E+00 -0.00000000000E+00 -0.45593999997E+02  0.45594000000E+02  0.51100000000E-03 0. -1.
    9900012    2    1    2    0    0  0.28245603974E+02 -0.12304549023E+02  0.82161661676E+01  0.59301930047E+02  0.49999974503E+02 0.  0.
        -12    1    1    2    0    0 -0.28245603974E+02  0.12304549023E+02 -0.82161661676E+01  0.31886069953E+02  0.00000000000E+00 0.  1.
         11    1    3    3    0    0 -0.94867835158E+01  0.45483954607E+00 -0.55461152533E+01  0.10998424212E+02  0.51100000000E-03 0. -1.
        -11    1    3    3    0    0  0.15200387720E+02  0.13920833636E+01  0.15351688074E+02  0.21648649148E+02  0.51100000000E-03 0.  1.
        -12    1    3    3    0    0  0.22531999770E+02 -0.14151471933E+02 -0.15894066536E+01  0.26654856687E+02  0.00000000000E+00 0.  1.
</event>
<event>
 7    1  0.3755162E-013  0.5930194E+02  0.7816164E-02  0.1266605E+00
        -11   -1    0    0    0    0  0.00000000000E+00  0.00000000000E+00  0.45593999997E+02  0.45594000000E+02  0.51100000000E-03 0.  1.
         11   -1    0    0    0    0 -0.00000000000E+00 -0.00000000000E+00 -0.45593999997E+02  0.45594000000E+02  0.51100000000E-03 0. -1.
    9900012    2    1    2    0    0 -0.20176341706E+02  0.58257112382E+01  0.23993683709E+02  0.59301944522E+02  0.50000000901E+02 0.  0.
        -12    1    1    2    0    0  0.20176341706E+02 -0.58257112382E+01 -0.23993683709E+02  0.31886055478E+02  0.00000000000E+00 0.  1.
         11    1    3    3    0    0  0.59804881227E+01  0.92915926261E+01  0.14709050020E+01  0.11147353655E+02  0.51100000000E-03 0. -1.
        -11    1    3    3    0    0 -0.32727156119E+01 -0.15486954706E+02  0.39196425180E+01  0.16307054647E+02  0.51100000000E-03 0.  1.
        -12    1    3    3    0    0 -0.22884114217E+02  0.12021073318E+02  0.18603136189E+02  0.31847536220E+02  0.00000000000E+00 0.  1.
</event>
<event>
 7    1  0.3755162E-013  0.5930203E+02  0.7816164E-02  0.1266604E+00
        -11   -1    0    0    0    0  0.00000000000E+00  0.00000000000E+00  0.45593999997E+02  0.45594000000E+02  0.51100000000E-03 0.  1.
         11   -1    0    0    0    0 -0.00000000000E+00 -0.00000000000E+00 -0.45593999997E+02  0.45594000000E+02  0.51100000000E-03 0. -1.
    9900012    2    1    2    0    0 -0.14493739957E+02 -0.14139246023E+02 -0.24631858553E+02  0.59302027664E+02  0.50000152533E+02 0.  0.
        -12    1    1    2    0    0  0.14493739957E+02  0.14139246023E+02  0.24631858553E+02  0.31885972336E+02  0.00000000000E+00 0.  1.
         11    1    3    3    0    0  0.35515640836E+01 -0.23830753854E+02 -0.57588882907E+01  0.24772630690E+02  0.51100000000E-03 0. -1.
        -11    1    3    3    0    0  0.18889141569E+01 -0.41982414335E+01 -0.25986080827E+01  0.52863968877E+01  0.51100000000E-03 0.  1.
        -12    1    3    3    0    0 -0.19934218197E+02  0.13889749264E+02 -0.16274362179E+02  0.29243000087E+02  0.00000000000E+00 0.  1.
</event>
<event>
 7    1  0.3755162E-013  0.5930194E+02  0.7816164E-02  0.1266605E+00
        -11   -1    0    0    0    0  0.00000000000E+00  0.00000000000E+00  0.45593999997E+02  0.45594000000E+02  0.51100000000E-03 0. -1.
         11   -1    0    0    0    0 -0.00000000000E+00 -0.00000000000E+00 -0.45593999997E+02  0.45594000000E+02  0.51100000000E-03 0.  1.
    9900012    2    1    2    0    0 -0.29693545752E+02 -0.11604160700E+02 -0.59815286718E+00  0.59301937344E+02  0.49999987810E+02 0.  0.
        -12    1    1    2    0    0  0.29693545752E+02  0.11604160700E+02  0.59815286718E+00  0.31886062656E+02  0.00000000000E+00 0.  1.
         11    1    3    3    0    0 -0.12409763678E+02 -0.16817454906E+02  0.11351163996E+01  0.20931256856E+02  0.51100000000E-03 0. -1.
        -11    1    3    3    0    0  0.62483445687E+01 -0.56530261861E+01  0.70673472594E+01  0.10997541200E+02  0.51100000000E-03 0.  1.
        -12    1    3    3    0    0 -0.23532126643E+02  0.10866320392E+02 -0.88006165262E+01  0.27373139287E+02  0.00000000000E+00 0.  1.
</event>
<event>
 7    1  0.3755162E-013  0.5930192E+02  0.7816164E-02  0.1266605E+00
        -11   -1    0    0    0    0  0.00000000000E+00  0.00000000000E+00  0.45593999997E+02  0.45594000000E+02  0.51100000000E-03 0.  1.
         11   -1    0    0    0    0 -0.00000000000E+00 -0.00000000000E+00 -0.45593999997E+02  0.45594000000E+02  0.51100000000E-03 0. -1.
    9900012    2    1    2    0    0 -0.18662457898E+02 -0.22851704886E+02 -0.12092732990E+02  0.59301922440E+02  0.49999960629E+02 0.  0.
        -12    1    1    2    0    0  0.18662457898E+02  0.22851704886E+02  0.12092732990E+02  0.31886077560E+02  0.00000000000E+00 0.  1.
         11    1    3    3    0    0 -0.14386513698E+02  0.70678558547E+01 -0.97940701938E+01  0.18784306588E+02  0.51100000000E-03 0. -1.
        -11    1    3    3    0    0 -0.54659482137E+01  0.36765550883E+01 -0.20517777723E+01  0.68995245836E+01  0.51100000000E-03 0.  1.
        -12    1    3    3    0    0  0.11900040130E+01 -0.33596115829E+02 -0.24688502348E+00  0.33618091269E+02  0.00000000000E+00 0.  1.
</event>
<event>
 7    1  0.3755162E-013  0.5930198E+02  0.7816164E-02  0.1266605E+00
        -11   -1    0    0    0    0  0.00000000000E+00  0.00000000000E+00  0.45593999997E+02  0.45594000000E+02  0.51100000000E-03 0.  1.
         11   -1    0    0    0    0 -0.00000000000E+00 -0.00000000000E+00 -0.45593999997E+02  0.45594000000E+02  0.51100000000E-03 0. -1.
    9900012    2    1    2    0    0 -0.15859165155E+02 -0.10468173276E+02 -0.25605123558E+02  0.59301982319E+02  0.50000069834E+02 0.  0.
        -12    1    1    2    0    0  0.15859165155E+02  0.10468173276E+02  0.25605123558E+02  0.31886017681E+02  0.00000000000E+00 0.  1.
         11    1    3    3    0    0 -0.12715695272E+02 -0.89263850750E+01 -0.34549782742E+01  0.15915593985E+02  0.51100000000E-03 0. -1.
        -11    1    3    3    0    0 -0.90799411244E+01  0.14735291376E+02 -0.30079766198E+01  0.17567642595E+02  0.51100000000E-03 0.  1.
        -12    1    3    3    0    0  0.59364712417E+01 -0.16277079577E+02 -0.19142168664E+02  0.25818745738E+02  0.00000000000E+00 0.  1.
</event>
<event>
 7    1  0.3755162E-013  0.5930196E+02  0.7816164E-02  0.1266605E+00
        -11   -1    0    0    0    0  0.00000000000E+00  0.00000000000E+00  0.45593999997E+02  0.45594000000E+02  0.51100000000E-03 0.  1.
         11   -1    0    0    0    0 -0.00000000000E+00 -0.00000000000E+00 -0.45593999997E+02  0.45594000000E+02  0.51100000000E-03 0. -1.
    9900012    2    1    2    0    0  0.38789483137E+00 -0.29562149409E+02 -0.11943550816E+02  0.59301960012E+02  0.50000029151E+02 0.  0.
        -12    1    1    2    0    0 -0.38789483137E+00  0.29562149409E+02  0.11943550816E+02  0.31886039988E+02  0.00000000000E+00 0.  1.
         11    1    3    3    0    0 -0.99826682056E+01 -0.73496742309E+01  0.13571373603E+01  0.12470493089E+02  0.51100000000E-03 0.  1.
        -11    1    3    3    0    0  0.24757775887E+01  0.15950532800E+01  0.11312644988E+02  0.11689722260E+02  0.51100000000E-03 0. -1.
         12    1    3    3    0    0  0.78947854483E+01 -0.23807528458E+02 -0.24613333164E+02  0.35141744663E+02  0.00000000000E+00 0. -1.
</event>
<event>
 7    1  0.3755162E-013  0.5930198E+02  0.7816164E-02  0.1266605E+00
        -11   -1    0    0    0    0  0.00000000000E+00  0.00000000000E+00  0.45593999997E+02  0.45594000000E+02  0.51100000000E-03 0.  1.
         11   -1    0    0    0    0 -0.00000000000E+00 -0.00000000000E+00 -0.45593999997E+02  0.45594000000E+02  0.51100000000E-03 0. -1.
    9900012    2    1    2    0    0 -0.22583322253E+00 -0.29448163948E+02 -0.12225921906E+02  0.59301975992E+02  0.50000058296E+02 0.  0.
        -12    1    1    2    0    0  0.22583322253E+00  0.29448163948E+02  0.12225921906E+02  0.31886024008E+02  0.00000000000E+00 0.  1.
         11    1    3    3    0    0  0.33163832423E+01 -0.25350543200E+02 -0.16282432883E+02  0.30311154039E+02  0.51100000000E-03 0. -1.
        -11    1    3    3    0    0  0.27579063296E+01 -0.83444104460E+01 -0.98151567495E+01  0.13174692987E+02  0.51100000000E-03 0.  1.
        -12    1    3    3    0    0 -0.63001227944E+01  0.42467896976E+01  0.13871667727E+02  0.15816128966E+02  0.00000000000E+00 0.  1.
</event>
<event>
 7    1  0.3755162E-013  0.5930195E+02  0.7816164E-02  0.1266605E+00
        -11   -1    0    0    0    0  0.00000000000E+00  0.00000000000E+00  0.45593999997E+02  0.45594000000E+02  0.51100000000E-03 0.  1.
         11   -1    0    0    0    0 -0.00000000000E+00 -0.00000000000E+00 -0.45593999997E+02  0.45594000000E+02  0.51100000000E-03 0. -1.
    9900012    2    1    2    0    0 -0.74404850481E+01  0.21917185726E+02 -0.21931627268E+02  0.59301950974E+02  0.50000012668E+02 0.  0.
        -12    1    1    2    0    0  0.74404850481E+01 -0.21917185726E+02  0.21931627268E+02  0.31886049026E+02  0.00000000000E+00 0.  1.
         11    1    3    3    0    0  0.59592526050E+01 -0.33135458046E+01 -0.82658364501E+01  0.10715238210E+02  0.51100000000E-03 0.  1.
        -11    1    3    3    0    0 -0.52366026552E+01  0.29320438701E+02  0.26374479283E+01  0.29900940868E+02  0.51100000000E-03 0. -1.
         12    1    3    3    0    0 -0.81631349979E+01 -0.40897071700E+01 -0.16303238746E+02  0.18685771896E+02  0.00000000000E+00 0. -1.
</event>
<event>
 7    1  0.3755162E-013  0.5930192E+02  0.7816164E-02  0.1266605E+00
        -11   -1    0    0    0    0  0.00000000000E+00  0.00000000000E+00  0.45593999997E+02  0.45594000000E+02  0.51100000000E-03 0.  1.
         11   -1    0    0    0    0 -0.00000000000E+00 -0.00000000000E+00 -0.45593999997E+02  0.45594000000E+02  0.51100000000E-03 0. -1.
    9900012    2    1    2    0    0 -0.11765541094E+02 -0.29221186628E+02 -0.49413117026E+01  0.59301917354E+02  0.49999951354E+02 0.  0.
        -12    1    1    2    0    0  0.11765541094E+02  0.29221186628E+02  0.49413117026E+01  0.31886082646E+02  0.00000000000E+00 0.  1.
         11    1    3    3    0    0  0.32577518448E+01 -0.24086983267E+01 -0.12788682010E+02  0.13415109486E+02  0.51100000000E-03 0. -1.
        -11    1    3    3    0    0 -0.21433273101E+02 -0.11567457488E+02  0.14174585528E+02  0.28179959967E+02  0.51100000000E-03 0.  1.
         12    1    3    3    0    0  0.64099801622E+01 -0.15245030813E+02 -0.63272152209E+01  0.17706847902E+02  0.00000000000E+00 0. -1.
</event>
<event>
 7    1  0.3755162E-013  0.5930197E+02  0.7816164E-02  0.1266605E+00
        -11   -1    0    0    0    0  0.00000000000E+00  0.00000000000E+00  0.45593999997E+02  0.45594000000E+02  0.51100000000E-03 0.  1.
         11   -1    0    0    0    0 -0.00000000000E+00 -0.00000000000E+00 -0.45593999997E+02  0.45594000000E+02  0.51100000000E-03 0. -1.
    9900012    2    1    2    0    0 -0.63915781137E+01 -0.23757203968E+02  0.20284527737E+02  0.59301967373E+02  0.50000042576E+02 0.  0.
        -12    1    1    2    0    0  0.63915781137E+01  0.23757203968E+02 -0.20284527737E+02  0.31886032627E+02  0.00000000000E+00 0.  1.
         11    1    3    3    0    0 -0.13391539798E+02 -0.78986526882E+01 -0.12226924527E+02  0.19779275419E+02  0.51100000000E-03 0. -1.
        -11    1    3    3    0    0  0.48635877038E+01 -0.12865434986E+02  0.10760757410E+02  0.17463327376E+02  0.51100000000E-03 0.  1.
        -12    1    3    3    0    0  0.21363739804E+01 -0.29931162938E+01  0.21750694855E+02  0.22059364578E+02  0.00000000000E+00 0.  1.
</event>
<event>
 7    1  0.3755162E-013  0.5930197E+02  0.7816164E-02  0.1266605E+00
        -11   -1    0    0    0    0  0.00000000000E+00  0.00000000000E+00  0.45593999997E+02  0.45594000000E+02  0.51100000000E-03 0. -1.
         11   -1    0    0    0    0 -0.00000000000E+00 -0.00000000000E+00 -0.45593999997E+02  0.45594000000E+02  0.51100000000E-03 0.  1.
    9900012    2    1    2    0    0 -0.19634724397E+02 -0.24976474377E+02  0.27152390226E+01  0.59301965480E+02  0.50000039124E+02 0.  0.
        -12    1    1    2    0    0  0.19634724397E+02  0.24976474377E+02 -0.27152390226E+01  0.31886034520E+02  0.00000000000E+00 0.  1.
         11    1    3    3    0    0 -0.24275562674E+01 -0.12948589515E+01  0.18510391961E+01  0.33160270660E+01  0.51100000000E-03 0. -1.
        -11    1    3    3    0    0 -0.10694401761E+02 -0.76313440383E+01  0.23835206656E+02  0.27216258330E+02  0.51100000000E-03 0.  1.
        -12    1    3    3    0    0 -0.65127663680E+01 -0.16050271387E+02 -0.22971006830E+02  0.28769680084E+02  0.00000000000E+00 0.  1.
</event>
<event>
 7    1  0.3755162E-013  0.5930195E+02  0.7816164E-02  0.1266605E+00
        -11   -1    0    0    0    0  0.00000000000E+00  0.00000000000E+00  0.45593999997E+02  0.45594000000E+02  0.51100000000E-03 0. -1.
         11   -1    0    0    0    0 -0.00000000000E+00 -0.00000000000E+00 -0.45593999997E+02  0.45594000000E+02  0.51100000000E-03 0.  1.
    9900012    2    1    2    0    0  0.19664071356E+01  0.18119795266E+02  0.26163459325E+02  0.59301947542E+02  0.50000006410E+02 0.  0.
        -12    1    1    2    0    0 -0.19664071356E+01 -0.18119795266E+02 -0.26163459325E+02  0.31886052458E+02  0.00000000000E+00 0.  1.
         11    1    3    3    0    0  0.88957610660E+00 -0.50037254540E+00  0.54423405200E+01  0.55372185193E+01  0.51100000000E-03 0. -1.
        -11    1    3    3    0    0 -0.21532988593E+02  0.15085713258E+02  0.14610717288E+02  0.30078587104E+02  0.51100000000E-03 0.  1.
         12    1    3    3    0    0  0.22609819622E+02  0.35344545530E+01  0.61104015164E+01  0.23686141919E+02  0.00000000000E+00 0. -1.
</event>
<event>
 7    1  0.3755162E-013  0.5930201E+02  0.7816164E-02  0.1266605E+00
        -11   -1    0    0    0    0  0.00000000000E+00  0.00000000000E+00  0.45593999997E+02  0.45594000000E+02  0.51100000000E-03 0.  1.
         11   -1    0    0    0    0 -0.00000000000E+00 -0.00000000000E+00 -0.45593999997E+02  0.45594000000E+02  0.51100000000E-03 0. -1.
    9900012    2    1    2    0    0 -0.13425031370E+02  0.65269499090E+01 -0.28175945439E+02  0.59302008659E+02  0.50000117872E+02 0.  0.
        -12    1    1    2    0    0  0.13425031370E+02 -0.65269499090E+01  0.28175945439E+02  0.31885991341E+02  0.00000000000E+00 0.  1.
         11    1    3    3    0    0 -0.20090422343E+01  0.67182999483E+01 -0.88774272297E+00  0.70682312001E+01  0.51100000000E-03 0. -1.
        -11    1    3    3    0    0  0.10258644234E+02  0.14170184664E+02 -0.55802444394E+01  0.18362272277E+02  0.51100000000E-03 0.  1.
        -12    1    3    3    0    0 -0.21674633370E+02 -0.14361534703E+02 -0.21707958277E+02  0.33871505182E+02  0.00000000000E+00 0.  1.
</event>
<event>
 7    1  0.3755162E-013  0.5930195E+02  0.7816164E-02  0.1266605E+00
        -11   -1    0    0    0    0  0.00000000000E+00  0.00000000000E+00  0.45593999997E+02  0.45594000000E+02  0.51100000000E-03 0.  1.
         11   -1    0    0    0    0 -0.00000000000E+00 -0.00000000000E+00 -0.45593999997E+02  0.45594000000E+02  0.51100000000E-03 0. -1.
    9900012    2    1    2    0    0  0.45653657002E+01  0.42175911174E+01 -0.31274421191E+02  0.59301951960E+02  0.50000014466E+02 0.  0.
        -12    1    1    2    0    0 -0.45653657002E+01 -0.42175911174E+01  0.31274421191E+02  0.31886048040E+02  0.00000000000E+00 0.  1.
         11    1    3    3    0    0 -0.14501170231E+02 -0.16647817208E+01  0.35560656421E+01  0.15023349805E+02  0.51100000000E-03 0. -1.
        -11    1    3    3    0    0  0.12668724410E+01 -0.11076457490E+01  0.20998111030E+01  0.26909202546E+01  0.51100000000E-03 0.  1.
         12    1    3    3    0    0  0.17799663490E+02  0.69900185871E+01 -0.36930297936E+02  0.41587681900E+02  0.00000000000E+00 0. -1.
</event>
<event>
 7    1  0.3755162E-013  0.5930195E+02  0.7816164E-02  0.1266605E+00
        -11   -1    0    0    0    0  0.00000000000E+00  0.00000000000E+00  0.45593999997E+02  0.45594000000E+02  0.51100000000E-03 0.  1.
         11   -1    0    0    0    0 -0.00000000000E+00 -0.00000000000E+00 -0.45593999997E+02  0.45594000000E+02  0.51100000000E-03 0. -1.
    9900012    2    1    2    0    0  0.15713151630E+02 -0.14099474515E+02 -0.23896062853E+02  0.59301950768E+02  0.50000012292E+02 0.  0.
        -12    1    1    2    0    0 -0.15713151630E+02  0.14099474515E+02  0.23896062853E+02  0.31886049232E+02  0.00000000000E+00 0.  1.
         11    1    3    3    0    0  0.26494620749E+01 -0.99449141944E+01  0.66894628125E+01  0.12274766010E+02  0.51100000000E-03 0. -1.
        -11    1    3    3    0    0  0.90234560959E+01 -0.20457196282E+01  0.54275459784E+01  0.10726881388E+02  0.51100000000E-03 0.  1.
         12    1    3    3    0    0  0.40402334596E+01 -0.21088406923E+01 -0.36013071644E+02  0.36300303369E+02  0.00000000000E+00 0. -1.
</event>
<event>
 7    1  0.3755162E-013  0.5930193E+02  0.7816164E-02  0.1266605E+00
        -11   -1    0    0    0    0  0.00000000000E+00  0.00000000000E+00  0.45593999997E+02  0.45594000000E+02  0.51100000000E-03 0. -1.
         11   -1    0    0    0    0 -0.00000000000E+00 -0.00000000000E+00 -0.45593999997E+02  0.45594000000E+02  0.51100000000E-03 0.  1.
    9900012    2    1    2    0    0 -0.12442476592E+02 -0.28705916002E+02  0.61544233839E+01  0.59301925226E+02  0.49999965711E+02 0.  0.
        -12    1    1    2    0    0  0.12442476592E+02  0.28705916002E+02 -0.61544233839E+01  0.31886074774E+02  0.00000000000E+00 0.  1.
         11    1    3    3    0    0 -0.10361410835E+02  0.87659847420E+00  0.35098259873E+01  0.10974795584E+02  0.51100000000E-03 0. -1.
        -11    1    3    3    0    0 -0.13503867415E+02 -0.30316954997E+02  0.10070834519E+02  0.34682760900E+02  0.51100000000E-03 0.  1.
        -12    1    3    3    0    0  0.11422801658E+02  0.73444052044E+00 -0.74262371219E+01  0.13644368743E+02  0.00000000000E+00 0.  1.
</event>
<event>
 7    1  0.3755162E-013  0.5930195E+02  0.7816164E-02  0.1266605E+00
        -11   -1    0    0    0    0  0.00000000000E+00  0.00000000000E+00  0.45593999997E+02  0.45594000000E+02  0.51100000000E-03 0. -1.
         11   -1    0    0    0    0 -0.00000000000E+00 -0.00000000000E+00 -0.45593999997E+02  0.45594000000E+02  0.51100000000E-03 0.  1.
    9900012    2    1    2    0    0 -0.34785031278E+01 -0.28213505035E+02  0.14443628592E+02  0.59301948861E+02  0.50000008814E+02 0.  0.
        -12    1    1    2    0    0  0.34785031278E+01  0.28213505035E+02 -0.14443628592E+02  0.31886051139E+02  0.00000000000E+00 0.  1.
         11    1    3    3    0    0 -0.27136129088E+01 -0.11907198178E+02  0.56014420752E+01  0.13435818437E+02  0.51100000000E-03 0. -1.
        -11    1    3    3    0    0 -0.97317390340E+01 -0.52547972643E+01  0.23168224759E+02  0.25672675701E+02  0.51100000000E-03 0.  1.
        -12    1    3    3    0    0  0.89668488149E+01 -0.11051509592E+02 -0.14326038242E+02  0.20193454723E+02  0.00000000000E+00 0.  1.
</event>
<event>
 7    1  0.3755162E-013  0.5930205E+02  0.7816164E-02  0.1266604E+00
        -11   -1    0    0    0    0  0.00000000000E+00  0.00000000000E+00  0.45593999997E+02  0.45594000000E+02  0.51100000000E-03 0.  1.
         11   -1    0    0    0    0 -0.00000000000E+00 -0.00000000000E+00 -0.45593999997E+02  0.45594000000E+02  0.51100000000E-03 0. -1.
    9900012    2    1    2    0    0 -0.12115364923E+01  0.41922833179E+01 -0.31585922549E+02  0.59302053827E+02  0.50000200247E+02 0.  0.
        -12    1    1    2    0    0  0.12115364923E+01 -0.41922833179E+01  0.31585922549E+02  0.31885946173E+02  0.00000000000E+00 0.  1.
         11    1    3    3    0    0  0.46812272726E+01  0.19633944338E+01  0.86657857049E+01  0.10043139381E+02  0.51100000000E-03 0. -1.
        -11    1    3    3    0    0  0.27013829319E+01  0.68521397160E+01  0.47367848265E+00  0.73806273445E+01  0.51100000000E-03 0.  1.
         12    1    3    3    0    0 -0.85941466967E+01 -0.46232508320E+01 -0.40725386737E+02  0.41878287101E+02  0.00000000000E+00 0. -1.
</event>
<event>
 7    1  0.3755162E-013  0.5930192E+02  0.7816164E-02  0.1266605E+00
        -11   -1    0    0    0    0  0.00000000000E+00  0.00000000000E+00  0.45593999997E+02  0.45594000000E+02  0.51100000000E-03 0. -1.
         11   -1    0    0    0    0 -0.00000000000E+00 -0.00000000000E+00 -0.45593999997E+02  0.45594000000E+02  0.51100000000E-03 0.  1.
    9900012    2    1    2    0    0 -0.85617129612E+00 -0.22743032133E+02  0.22332561590E+02  0.59301923931E+02  0.49999963348E+02 0.  0.
        -12    1    1    2    0    0  0.85617129612E+00  0.22743032133E+02 -0.22332561590E+02  0.31886076069E+02  0.00000000000E+00 0.  1.
         11    1    3    3    0    0  0.10969074562E+02 -0.27558383654E+02  0.79696511975E+00  0.29671876585E+02  0.51100000000E-03 0. -1.
        -11    1    3    3    0    0 -0.35256988960E+00 -0.18548100022E+01 -0.19122422737E+01  0.26872470013E+01  0.51100000000E-03 0.  1.
        -12    1    3    3    0    0 -0.11472675969E+02  0.66701615235E+01  0.23447838744E+02  0.26942800345E+02  0.00000000000E+00 0.  1.
</event>
<event>
 7    1  0.3755162E-013  0.5930194E+02  0.7816164E-02  0.1266605E+00
        -11   -1    0    0    0    0  0.00000000000E+00  0.00000000000E+00  0.45593999997E+02  0.45594000000E+02  0.51100000000E-03 0.  1.
         11   -1    0    0    0    0 -0.00000000000E+00 -0.00000000000E+00 -0.45593999997E+02  0.45594000000E+02  0.51100000000E-03 0. -1.
    9900012    2    1    2    0    0  0.25583209585E+01 -0.31696871450E+02 -0.23417834281E+01  0.59301943244E+02  0.49999998571E+02 0.  0.
        -12    1    1    2    0    0 -0.25583209585E+01  0.31696871450E+02  0.23417834281E+01  0.31886056756E+02  0.00000000000E+00 0.  1.
         11    1    3    3    0    0  0.88149394967E+01 -0.12301437279E+02 -0.92821573872E+01  0.17753505668E+02  0.51100000000E-03 0. -1.
        -11    1    3    3    0    0  0.11356102993E+02  0.26084126080E+01  0.65381914163E+01  0.13360869686E+02  0.51100000000E-03 0.  1.
         12    1    3    3    0    0 -0.17612721531E+02 -0.22003846778E+02  0.40218254286E+00  0.28187567890E+02  0.00000000000E+00 0. -1.
</event>
<event>
 7    1  0.3755162E-013  0.5930182E+02  0.7816164E-02  0.1266605E+00
        -11   -1    0    0    0    0  0.00000000000E+00  0.00000000000E+00  0.45593999997E+02  0.45594000000E+02  0.51100000000E-03 0. -1.
         11   -1    0    0    0    0 -0.00000000000E+00 -0.00000000000E+00 -0.45593999997E+02  0.45594000000E+02  0.51100000000E-03 0.  1.
    9900012    2    1    2    0    0 -0.16523025118E+02 -0.84724363480E+01  0.25921723109E+02  0.59301823283E+02  0.49999779790E+02 0.  0.
        -12    1    1    2    0    0  0.16523025118E+02  0.84724363480E+01 -0.25921723109E+02  0.31886176717E+02  0.00000000000E+00 0.  1.
         11    1    3    3    0    0 -0.25470946215E+02 -0.15150346025E+02  0.27120888475E+02  0.40172685717E+02  0.51100000000E-03 0. -1.
        -11    1    3    3    0    0 -0.36862208137E+01  0.10574842843E+01 -0.34025704729E+01  0.51267907099E+01  0.51100000000E-03 0.  1.
        -12    1    3    3    0    0  0.12634141911E+02  0.56204253927E+01  0.22034051063E+01  0.14002346856E+02  0.00000000000E+00 0.  1.
</event>
<event>
 7    1  0.3755162E-013  0.5930195E+02  0.7816164E-02  0.1266605E+00
        -11   -1    0    0    0    0  0.00000000000E+00  0.00000000000E+00  0.45593999997E+02  0.45594000000E+02  0.51100000000E-03 0.  1.
         11   -1    0    0    0    0 -0.00000000000E+00 -0.00000000000E+00 -0.45593999997E+02  0.45594000000E+02  0.51100000000E-03 0. -1.
    9900012    2    1    2    0    0  0.24522030426E+02  0.20346431477E+02 -0.11886437449E+01  0.59301950951E+02  0.50000012626E+02 0.  0.
        -12    1    1    2    0    0 -0.24522030426E+02 -0.20346431477E+02  0.11886437449E+01  0.31886049049E+02  0.00000000000E+00 0.  1.
         11    1    3    3    0    0 -0.14025988989E+01  0.19120609099E+02 -0.33029046907E+01  0.19454412241E+02  0.51100000000E-03 0. -1.
        -11    1    3    3    0    0  0.20702671449E+02  0.14430444787E+02 -0.12073998562E+01  0.25264523675E+02  0.51100000000E-03 0.  1.
        -12    1    3    3    0    0  0.52219578754E+01 -0.13204622409E+02  0.33216608020E+01  0.14583015034E+02  0.00000000000E+00 0.  1.
</event>
<event>
 7    1  0.3755162E-013  0.5930187E+02  0.7816164E-02  0.1266605E+00
        -11   -1    0    0    0    0  0.00000000000E+00  0.00000000000E+00  0.45593999997E+02  0.45594000000E+02  0.51100000000E-03 0.  1.
         11   -1    0    0    0    0 -0.00000000000E+00 -0.00000000000E+00 -0.45593999997E+02  0.45594000000E+02  0.51100000000E-03 0. -1.
    9900012    2    1    2    0    0  0.73482908102E+01  0.25735534342E+02 -0.17332346727E+02  0.59301869021E+02  0.49999863206E+02 0.  0.
        -12    1    1    2    0    0 -0.73482908102E+01 -0.25735534342E+02  0.17332346727E+02  0.31886130979E+02  0.00000000000E+00 0.  1.
         11    1    3    3    0    0  0.12953392980E+02  0.99415286439E+01 -0.23314121466E+02  0.28463531781E+02  0.51100000000E-03 0. -1.
        -11    1    3    3    0    0  0.99271526658E+01  0.75609773351E+01  0.76867281770E+00  0.12502303647E+02  0.51100000000E-03 0.  1.
        -12    1    3    3    0    0 -0.15532254836E+02  0.82330283634E+01  0.52131019210E+01  0.18336033594E+02  0.00000000000E+00 0.  1.
</event>
<event>
 7    1  0.3755162E-013  0.5930195E+02  0.7816164E-02  0.1266605E+00
        -11   -1    0    0    0    0  0.00000000000E+00  0.00000000000E+00  0.45593999997E+02  0.45594000000E+02  0.51100000000E-03 0.  1.
         11   -1    0    0    0    0 -0.00000000000E+00 -0.00000000000E+00 -0.45593999997E+02  0.45594000000E+02  0.51100000000E-03 0. -1.
    9900012    2    1    2    0    0 -0.28804253438E+02 -0.82467074399E+01 -0.10909943161E+02  0.59301951962E+02  0.50000014470E+02 0.  0.
        -12    1    1    2    0    0  0.28804253438E+02  0.82467074399E+01  0.10909943161E+02  0.31886048038E+02  0.00000000000E+00 0.  1.
         11    1    3    3    0    0 -0.45613221137E+01  0.50761416651E+01  0.23909678236E+01  0.72311548887E+01  0.51100000000E-03 0. -1.
        -11    1    3    3    0    0 -0.16194677931E+02  0.12229914048E-01  0.13492704210E+02  0.21078918616E+02  0.51100000000E-03 0.  1.
         12    1    3    3    0    0 -0.80482533931E+01 -0.13335079019E+02 -0.26793615194E+02  0.30991878457E+02  0.00000000000E+00 0. -1.
</event>
<event>
 7    1  0.3755162E-013  0.5930196E+02  0.7816164E-02  0.1266605E+00
        -11   -1    0    0    0    0  0.00000000000E+00  0.00000000000E+00  0.45593999997E+02  0.45594000000E+02  0.51100000000E-03 0.  1.
         11   -1    0    0    0    0 -0.00000000000E+00 -0.00000000000E+00 -0.45593999997E+02  0.45594000000E+02  0.51100000000E-03 0. -1.
    9900012    2    1    2    0    0 -0.11149259476E+02  0.14803468554E+01 -0.29836591139E+02  0.59301959411E+02  0.50000028055E+02 0.  0.
        -12    1    1    2    0    0  0.11149259476E+02 -0.14803468554E+01  0.29836591139E+02  0.31886040589E+02  0.00000000000E+00 0.  1.
         11    1    3    3    0    0  0.21786200498E+01  0.12158897864E+02 -0.32452064810E+02  0.34723503471E+02  0.51100000000E-03 0. -1.
        -11    1    3    3    0    0 -0.65416446159E+01  0.26897753156E+01 -0.40730349893E+01  0.81619617626E+01  0.51100000000E-03 0.  1.
        -12    1    3    3    0    0 -0.67862349099E+01 -0.13368326324E+02  0.66885086604E+01  0.16416494177E+02  0.00000000000E+00 0.  1.
</event>
<event>
 7    1  0.3755162E-013  0.5930194E+02  0.7816164E-02  0.1266605E+00
        -11   -1    0    0    0    0  0.00000000000E+00  0.00000000000E+00  0.45593999997E+02  0.45594000000E+02  0.51100000000E-03 0. -1.
         11   -1    0    0    0    0 -0.00000000000E+00 -0.00000000000E+00 -0.45593999997E+02  0.45594000000E+02  0.51100000000E-03 0.  1.
    9900012    2    1    2    0    0  0.47754009386E+01 -0.30677629451E+02 -0.72663099712E+01  0.59301942491E+02  0.49999997198E+02 0.  0.
        -12    1    1    2    0    0 -0.47754009386E+01  0.30677629451E+02  0.72663099712E+01  0.31886057509E+02  0.00000000000E+00 0.  1.
         11    1    3    3    0    0  0.80494648094E+01 -0.23145368541E+02 -0.22524910277E+01  0.24608447426E+02  0.51100000000E-03 0. -1.
        -11    1    3    3    0    0 -0.11963243125E+02 -0.16577157392E+02  0.16155547635E+01  0.20506861065E+02  0.51100000000E-03 0.  1.
         12    1    3    3    0    0  0.86891792547E+01  0.90448964829E+01 -0.66293737070E+01  0.14186634000E+02  0.00000000000E+00 0. -1.
</event>
<event>
 7    1  0.3755162E-013  0.5930194E+02  0.7816164E-02  0.1266605E+00
        -11   -1    0    0    0    0  0.00000000000E+00  0.00000000000E+00  0.45593999997E+02  0.45594000000E+02  0.51100000000E-03 0.  1.
         11   -1    0    0    0    0 -0.00000000000E+00 -0.00000000000E+00 -0.45593999997E+02  0.45594000000E+02  0.51100000000E-03 0. -1.
    9900012    2    1    2    0    0 -0.19696310416E+02 -0.85040895601E+01 -0.23589329758E+02  0.59301942519E+02  0.49999997248E+02 0.  0.
        -12    1    1    2    0    0  0.19696310416E+02  0.85040895601E+01  0.23589329758E+02  0.31886057481E+02  0.00000000000E+00 0.  1.
         11    1    3    3    0    0 -0.89098366479E+01  0.13478443224E+01 -0.13332448562E+02  0.16092111680E+02  0.51100000000E-03 0. -1.
        -11    1    3    3    0    0 -0.74772106160E+01 -0.65134969351E+01 -0.25446009558E+02  0.27309956492E+02  0.51100000000E-03 0.  1.
         12    1    3    3    0    0 -0.33092631526E+01 -0.33384369473E+01  0.15189128361E+02  0.15899874347E+02  0.00000000000E+00 0. -1.
</event>
<event>
 7    1  0.3755162E-013  0.5930192E+02  0.7816164E-02  0.1266605E+00
        -11   -1    0    0    0    0  0.00000000000E+00  0.00000000000E+00  0.45593999997E+02  0.45594000000E+02  0.51100000000E-03 0.  1.
         11   -1    0    0    0    0 -0.00000000000E+00 -0.00000000000E+00 -0.45593999997E+02  0.45594000000E+02  0.51100000000E-03 0. -1.
    9900012    2    1    2    0    0 -0.22127182972E+02  0.16914555000E+02 -0.15524414722E+02  0.59301923891E+02  0.49999963276E+02 0.  0.
        -12    1    1    2    0    0  0.22127182972E+02 -0.16914555000E+02  0.15524414722E+02  0.31886076109E+02  0.00000000000E+00 0.  1.
         11    1    3    3    0    0 -0.20843031265E+02  0.16312251101E+02 -0.16082076535E+02  0.30970222380E+02  0.51100000000E-03 0. -1.
        -11    1    3    3    0    0 -0.10510893587E+02  0.10454188526E+02  0.61942231724E-01  0.14824735371E+02  0.51100000000E-03 0.  1.
        -12    1    3    3    0    0  0.92267418789E+01 -0.98518846279E+01  0.49571958106E+00  0.13506966141E+02  0.00000000000E+00 0.  1.
</event>
<event>
 7    1  0.3755162E-013  0.5930194E+02  0.7816164E-02  0.1266605E+00
        -11   -1    0    0    0    0  0.00000000000E+00  0.00000000000E+00  0.45593999997E+02  0.45594000000E+02  0.51100000000E-03 0. -1.
         11   -1    0    0    0    0 -0.00000000000E+00 -0.00000000000E+00 -0.45593999997E+02  0.45594000000E+02  0.51100000000E-03 0.  1.
    9900012    2    1    2    0    0  0.28260380534E+02 -0.10231064529E+02  0.10648799821E+02  0.59301941496E+02  0.49999995382E+02 0.  0.
        -12    1    1    2    0    0 -0.28260380534E+02  0.10231064529E+02 -0.10648799821E+02  0.31886058504E+02  0.00000000000E+00 0.  1.
         11    1    3    3    0    0 -0.37806800685E+01  0.39229654999E+01  0.16419601525E+02  0.17299899265E+02  0.51100000000E-03 0. -1.
        -11    1    3    3    0    0 -0.12390016393E+01  0.51312168490E+00  0.41031398219E+01  0.43167320492E+01  0.51100000000E-03 0.  1.
        -12    1    3    3    0    0  0.33280062242E+02 -0.14667151714E+02 -0.98739415251E+01  0.37685310181E+02  0.00000000000E+00 0.  1.
</event>
<event>
 7    1  0.3755162E-013  0.5930193E+02  0.7816164E-02  0.1266605E+00
        -11   -1    0    0    0    0  0.00000000000E+00  0.00000000000E+00  0.45593999997E+02  0.45594000000E+02  0.51100000000E-03 0. -1.
         11   -1    0    0    0    0 -0.00000000000E+00 -0.00000000000E+00 -0.45593999997E+02  0.45594000000E+02  0.51100000000E-03 0.  1.
    9900012    2    1    2    0    0 -0.26384826147E+02  0.22188958664E+00  0.17902881926E+02  0.59301929890E+02  0.49999974217E+02 0.  0.
        -12    1    1    2    0    0  0.26384826147E+02 -0.22188958664E+00 -0.17902881926E+02  0.31886070110E+02  0.00000000000E+00 0.  1.
         11    1    3    3    0    0 -0.98827621354E+01 -0.50013898698E+01  0.33564038383E+01  0.11573605101E+02  0.51100000000E-03 0. -1.
        -11    1    3    3    0    0 -0.11636224549E+02  0.21201243386E+02 -0.19367252805E+01  0.24262014507E+02  0.51100000000E-03 0.  1.
         12    1    3    3    0    0 -0.48658394630E+01 -0.15977963929E+02  0.16483203368E+02  0.23466310282E+02  0.00000000000E+00 0. -1.
</event>
<event>
 7    1  0.3755162E-013  0.5930196E+02  0.7816164E-02  0.1266605E+00
        -11   -1    0    0    0    0  0.00000000000E+00  0.00000000000E+00  0.45593999997E+02  0.45594000000E+02  0.51100000000E-03 0.  1.
         11   -1    0    0    0    0 -0.00000000000E+00 -0.00000000000E+00 -0.45593999997E+02  0.45594000000E+02  0.51100000000E-03 0. -1.
    9900012    2    1    2    0    0 -0.15748598351E+02 -0.10624849768E+02 -0.25608856368E+02  0.59301963760E+02  0.50000035987E+02 0.  0.
        -12    1    1    2    0    0  0.15748598351E+02  0.10624849768E+02  0.25608856368E+02  0.31886036240E+02  0.00000000000E+00 0.  1.
         11    1    3    3    0    0 -0.29726388274E+02 -0.66878372382E+01 -0.63153096642E+01  0.31117012439E+02  0.51100000000E-03 0. -1.
        -11    1    3    3    0    0  0.66382416852E+01 -0.87049072358E+01 -0.14616132035E+02  0.18261242525E+02  0.51100000000E-03 0.  1.
        -12    1    3    3    0    0  0.73395482376E+01  0.47678947059E+01 -0.46774146694E+01  0.99237087950E+01  0.00000000000E+00 0.  1.
</event>
<event>
 7    1  0.3755162E-013  0.5930191E+02  0.7816164E-02  0.1266605E+00
        -11   -1    0    0    0    0  0.00000000000E+00  0.00000000000E+00  0.45593999997E+02  0.45594000000E+02  0.51100000000E-03 0.  1.
         11   -1    0    0    0    0 -0.00000000000E+00 -0.00000000000E+00 -0.45593999997E+02  0.45594000000E+02  0.51100000000E-03 0. -1.
    9900012    2    1    2    0    0 -0.29924580697E+02 -0.80575898763E+00  0.10981475364E+02  0.59301912460E+02  0.49999942427E+02 0.  0.
        -12    1    1    2    0    0  0.29924580697E+02  0.80575898763E+00 -0.10981475364E+02  0.31886087540E+02  0.00000000000E+00 0.  1.
         11    1    3    3    0    0  0.38465003605E+00 -0.13822290678E+02  0.32169798294E+01  0.14196923424E+02  0.51100000000E-03 0. -1.
        -11    1    3    3    0    0 -0.49005266008E+01 -0.83020247637E+01 -0.32229355139E+01  0.10164944158E+02  0.51100000000E-03 0.  1.
        -12    1    3    3    0    0 -0.25408704133E+02  0.21318556454E+02  0.10987431049E+02  0.34940044877E+02  0.00000000000E+00 0.  1.
</event>
<event>
 7    1  0.3755162E-013  0.5930194E+02  0.7816164E-02  0.1266605E+00
        -11   -1    0    0    0    0  0.00000000000E+00  0.00000000000E+00  0.45593999997E+02  0.45594000000E+02  0.51100000000E-03 0.  1.
         11   -1    0    0    0    0 -0.00000000000E+00 -0.00000000000E+00 -0.45593999997E+02  0.45594000000E+02  0.51100000000E-03 0. -1.
    9900012    2    1    2    0    0  0.17983940959E+02 -0.26231424584E+02  0.22827763996E+01  0.59301939782E+02  0.49999992258E+02 0.  0.
        -12    1    1    2    0    0 -0.17983940959E+02  0.26231424584E+02 -0.22827763996E+01  0.31886060218E+02  0.00000000000E+00 0.  1.
         11    1    3    3    0    0 -0.72027871451E+01  0.17551146339E+01 -0.53886602233E+01  0.91650547897E+01  0.51100000000E-03 0. -1.
        -11    1    3    3    0    0 -0.70924800229E+01 -0.39197352833E+01 -0.27307022059E+01  0.85512766511E+01  0.51100000000E-03 0.  1.
        -12    1    3    3    0    0  0.32279208127E+02 -0.24066803934E+02  0.10402138829E+02  0.41585608342E+02  0.00000000000E+00 0.  1.
</event>
<event>
 7    1  0.3755162E-013  0.5930195E+02  0.7816164E-02  0.1266605E+00
        -11   -1    0    0    0    0  0.00000000000E+00  0.00000000000E+00  0.45593999997E+02  0.45594000000E+02  0.51100000000E-03 0.  1.
         11   -1    0    0    0    0 -0.00000000000E+00 -0.00000000000E+00 -0.45593999997E+02  0.45594000000E+02  0.51100000000E-03 0. -1.
    9900012    2    1    2    0    0  0.46762656567E+01 -0.10094768771E+02 -0.29882240820E+02  0.59301950802E+02  0.50000012354E+02 0.  0.
        -12    1    1    2    0    0 -0.46762656567E+01  0.10094768771E+02  0.29882240820E+02  0.31886049198E+02  0.00000000000E+00 0.  1.
         11    1    3    3    0    0 -0.47672498281E+01 -0.92999943875E+01  0.20969555663E+01  0.10658976941E+02  0.51100000000E-03 0.  1.
        -11    1    3    3    0    0  0.69891824340E+01 -0.72504223885E+00 -0.39815618496E+02  0.40430901967E+02  0.51100000000E-03 0. -1.
         12    1    3    3    0    0  0.24543330509E+01 -0.69732144496E-01  0.78364221097E+01  0.82120718931E+01  0.00000000000E+00 0. -1.
</event>
<event>
 7    1  0.3755162E-013  0.5930193E+02  0.7816164E-02  0.1266605E+00
        -11   -1    0    0    0    0  0.00000000000E+00  0.00000000000E+00  0.45593999997E+02  0.45594000000E+02  0.51100000000E-03 0.  1.
         11   -1    0    0    0    0 -0.00000000000E+00 -0.00000000000E+00 -0.45593999997E+02  0.45594000000E+02  0.51100000000E-03 0. -1.
    9900012    2    1    2    0    0 -0.59176350534E+01 -0.22511475197E+02 -0.21793040880E+02  0.59301928574E+02  0.49999971816E+02 0.  0.
        -12    1    1    2    0    0  0.59176350534E+01  0.22511475197E+02  0.21793040880E+02  0.31886071426E+02  0.00000000000E+00 0.  1.
         11    1    3    3    0    0  0.57438962153E+01 -0.15239899698E+02 -0.16596020379E+02  0.23252414481E+02  0.51100000000E-03 0. -1.
        -11    1    3    3    0    0  0.21192295854E+01 -0.88724903172E+01  0.11281790925E+02  0.14508308834E+02  0.51100000000E-03 0.  1.
        -12    1    3    3    0    0 -0.13780760854E+02  0.16009148177E+01 -0.16478811427E+02  0.21541205259E+02  0.00000000000E+00 0.  1.
</event>
<event>
 7    1  0.3755162E-013  0.5930193E+02  0.7816164E-02  0.1266605E+00
        -11   -1    0    0    0    0  0.00000000000E+00  0.00000000000E+00  0.45593999997E+02  0.45594000000E+02  0.51100000000E-03 0.  1.
         11   -1    0    0    0    0 -0.00000000000E+00 -0.00000000000E+00 -0.45593999997E+02  0.45594000000E+02  0.51100000000E-03 0. -1.
    9900012    2    1    2    0    0  0.10259545099E+02 -0.16235073171E+02 -0.25453597974E+02  0.59301929117E+02  0.49999972807E+02 0.  0.
        -12    1    1    2    0    0 -0.10259545099E+02  0.16235073171E+02  0.25453597974E+02  0.31886070883E+02  0.00000000000E+00 0.  1.
         11    1    3    3    0    0  0.86881353667E+01  0.20195798667E+01 -0.11155203824E+02  0.14282890870E+02  0.51100000000E-03 0. -1.
        -11    1    3    3    0    0  0.29380654257E+00  0.87641850337E+01  0.64857741344E+01  0.10906994452E+02  0.51100000000E-03 0.  1.
         12    1    3    3    0    0  0.12776031895E+01 -0.27018838072E+02 -0.20784168284E+02  0.34112043796E+02  0.00000000000E+00 0. -1.
</event>
<event>
 7    1  0.3755162E-013  0.5930168E+02  0.7816164E-02  0.1266606E+00
        -11   -1    0    0    0    0  0.00000000000E+00  0.00000000000E+00  0.45593999997E+02  0.45594000000E+02  0.51100000000E-03 0. -1.
         11   -1    0    0    0    0 -0.00000000000E+00 -0.00000000000E+00 -0.45593999997E+02  0.45594000000E+02  0.51100000000E-03 0.  1.
    9900012    2    1    2    0    0  0.16243873234E+02  0.14499596297E+02  0.23294537088E+02  0.59301683678E+02  0.49999525183E+02 0.  0.
        -12    1    1    2    0    0 -0.16243873234E+02 -0.14499596297E+02 -0.23294537088E+02  0.31886316322E+02  0.00000000000E+00 0.  1.
         11    1    3    3    0    0  0.15846622032E+02 -0.93477295409E+01  0.12226579691E+02  0.22090376380E+02  0.51100000000E-03 0. -1.
        -11    1    3    3    0    0  0.49660400382E+01  0.40068088776E+01 -0.73665349575E+01  0.97458662305E+01  0.51100000000E-03 0.  1.
        -12    1    3    3    0    0 -0.45687888368E+01  0.19840516960E+02  0.18434492354E+02  0.27465441068E+02  0.00000000000E+00 0.  1.
</event>
<event>
 7    1  0.3755162E-013  0.5930194E+02  0.7816164E-02  0.1266605E+00
        -11   -1    0    0    0    0  0.00000000000E+00  0.00000000000E+00  0.45593999997E+02  0.45594000000E+02  0.51100000000E-03 0.  1.
         11   -1    0    0    0    0 -0.00000000000E+00 -0.00000000000E+00 -0.45593999997E+02  0.45594000000E+02  0.51100000000E-03 0. -1.
    9900012    2    1    2    0    0  0.13356665527E+02  0.19134538425E+02 -0.21729926416E+02  0.59301940714E+02  0.49999993956E+02 0.  0.
        -12    1    1    2    0    0 -0.13356665527E+02 -0.19134538425E+02  0.21729926416E+02  0.31886059286E+02  0.00000000000E+00 0.  1.
         11    1    3    3    0    0  0.10085671106E+02  0.18290212724E+02 -0.15117868481E+02  0.25783766033E+02  0.51100000000E-03 0. -1.
        -11    1    3    3    0    0  0.64914566462E+01  0.15617955642E+02  0.24586939283E+00  0.16915082023E+02  0.51100000000E-03 0.  1.
         12    1    3    3    0    0 -0.32204622255E+01 -0.14773629941E+02 -0.68579273278E+01  0.16603092658E+02  0.00000000000E+00 0. -1.
</event>
<event>
 7    1  0.3755162E-013  0.5930196E+02  0.7816164E-02  0.1266605E+00
        -11   -1    0    0    0    0  0.00000000000E+00  0.00000000000E+00  0.45593999997E+02  0.45594000000E+02  0.51100000000E-03 0. -1.
         11   -1    0    0    0    0 -0.00000000000E+00 -0.00000000000E+00 -0.45593999997E+02  0.45594000000E+02  0.51100000000E-03 0.  1.
    9900012    2    1    2    0    0 -0.65202310176E+01 -0.31210024459E+02  0.37521954750E+00  0.59301955577E+02  0.50000021063E+02 0.  0.
        -12    1    1    2    0    0  0.65202310176E+01  0.31210024459E+02 -0.37521954750E+00  0.31886044423E+02  0.00000000000E+00 0.  1.
         11    1    3    3    0    0  0.44029316419E+01 -0.10776986173E+02  0.21016072532E+01  0.11829877063E+02  0.51100000000E-03 0. -1.
        -11    1    3    3    0    0 -0.38394798412E+01 -0.27907074015E+02 -0.13994834726E+02  0.31454757745E+02  0.51100000000E-03 0.  1.
         12    1    3    3    0    0 -0.70836828183E+01  0.74740357285E+01  0.12268447020E+02  0.16017320769E+02  0.00000000000E+00 0. -1.
</event>
<event>
 7    1  0.3755162E-013  0.5930197E+02  0.7816164E-02  0.1266605E+00
        -11   -1    0    0    0    0  0.00000000000E+00  0.00000000000E+00  0.45593999997E+02  0.45594000000E+02  0.51100000000E-03 0. -1.
         11   -1    0    0    0    0 -0.00000000000E+00 -0.00000000000E+00 -0.45593999997E+02  0.45594000000E+02  0.51100000000E-03 0.  1.
    9900012    2    1    2    0    0 -0.48818511414E+00  0.21131046828E+02  0.23873821409E+02  0.59301971501E+02  0.50000050105E+02 0.  0.
        -12    1    1    2    0    0  0.48818511414E+00 -0.21131046828E+02 -0.23873821409E+02  0.31886028499E+02  0.00000000000E+00 0.  1.
         11    1    3    3    0    0  0.80981072087E+01  0.30945266819E+02  0.28024526065E+02  0.42527202357E+02  0.51100000000E-03 0. -1.
        -11    1    3    3    0    0  0.16269512412E+01  0.18014443279E+00  0.55768087427E+00  0.17292861466E+01  0.51100000000E-03 0.  1.
        -12    1    3    3    0    0 -0.10213243564E+02 -0.99943644238E+01 -0.47083855306E+01  0.15045482998E+02  0.00000000000E+00 0.  1.
</event>
<event>
 7    1  0.3755162E-013  0.5930197E+02  0.7816164E-02  0.1266605E+00
        -11   -1    0    0    0    0  0.00000000000E+00  0.00000000000E+00  0.45593999997E+02  0.45594000000E+02  0.51100000000E-03 0. -1.
         11   -1    0    0    0    0 -0.00000000000E+00 -0.00000000000E+00 -0.45593999997E+02  0.45594000000E+02  0.51100000000E-03 0.  1.
    9900012    2    1    2    0    0  0.61596989034E+01  0.18154123001E+02  0.25479501187E+02  0.59301967740E+02  0.50000043246E+02 0.  0.
        -12    1    1    2    0    0 -0.61596989034E+01 -0.18154123001E+02 -0.25479501187E+02  0.31886032260E+02  0.00000000000E+00 0.  1.
         11    1    3    3    0    0 -0.37769604698E+01  0.19812345994E+01  0.66805518001E+00  0.43170613747E+01  0.51100000000E-03 0. -1.
        -11    1    3    3    0    0 -0.51219541146E+01  0.14037766133E+02 -0.93247752556E+01  0.17613765236E+02  0.51100000000E-03 0.  1.
         12    1    3    3    0    0  0.15058613488E+02  0.21351222690E+01  0.34136221262E+02  0.37371141130E+02  0.00000000000E+00 0. -1.
</event>
<event>
 7    1  0.3755162E-013  0.5930193E+02  0.7816164E-02  0.1266605E+00
        -11   -1    0    0    0    0  0.00000000000E+00  0.00000000000E+00  0.45593999997E+02  0.45594000000E+02  0.51100000000E-03 0.  1.
         11   -1    0    0    0    0 -0.00000000000E+00 -0.00000000000E+00 -0.45593999997E+02  0.45594000000E+02  0.51100000000E-03 0. -1.
    9900012    2    1    2    0    0 -0.23390739626E+02  0.12655367946E+02  0.17590810530E+02  0.59301926971E+02  0.49999968893E+02 0.  0.
        -12    1    1    2    0    0  0.23390739626E+02 -0.12655367946E+02 -0.17590810530E+02  0.31886073029E+02  0.00000000000E+00 0.  1.
         11    1    3    3    0    0 -0.35742184229E+02  0.14217990876E+02  0.13089448119E+02  0.40632359645E+02  0.51100000000E-03 0. -1.
        -11    1    3    3    0    0  0.11227400804E+01  0.20470018959E+01  0.63182672144E+01  0.67358193936E+01  0.51100000000E-03 0.  1.
        -12    1    3    3    0    0  0.11228704523E+02 -0.36096248262E+01 -0.18169048030E+01  0.11933747933E+02  0.00000000000E+00 0.  1.
</event>
<event>
 7    1  0.3755162E-013  0.5930196E+02  0.7816164E-02  0.1266605E+00
        -11   -1    0    0    0    0  0.00000000000E+00  0.00000000000E+00  0.45593999997E+02  0.45594000000E+02  0.51100000000E-03 0.  1.
         11   -1    0    0    0    0 -0.00000000000E+00 -0.00000000000E+00 -0.45593999997E+02  0.45594000000E+02  0.51100000000E-03 0. -1.
    9900012    2    1    2    0    0  0.22779431158E+02  0.20421207223E+02 -0.89883979419E+01  0.59301960956E+02  0.50000030874E+02 0.  0.
        -12    1    1    2    0    0 -0.22779431158E+02 -0.20421207223E+02  0.89883979419E+01  0.31886039044E+02  0.00000000000E+00 0.  1.
         11    1    3    3    0    0  0.28109339318E+02  0.17232977538E+01 -0.84764532497E+01  0.29410116831E+02  0.51100000000E-03 0. -1.
        -11    1    3    3    0    0 -0.39954392163E+01 -0.37406840498E+01 -0.44714474152E+01  0.70675380395E+01  0.51100000000E-03 0.  1.
        -12    1    3    3    0    0 -0.13344689440E+01  0.22438593519E+02  0.39595027230E+01  0.22824306086E+02  0.00000000000E+00 0.  1.
</event>
<event>
 7    1  0.3755162E-013  0.5930203E+02  0.7816164E-02  0.1266604E+00
        -11   -1    0    0    0    0  0.00000000000E+00  0.00000000000E+00  0.45593999997E+02  0.45594000000E+02  0.51100000000E-03 0.  1.
         11   -1    0    0    0    0 -0.00000000000E+00 -0.00000000000E+00 -0.45593999997E+02  0.45594000000E+02  0.51100000000E-03 0. -1.
    9900012    2    1    2    0    0  0.28288929610E+02 -0.12842148435E+02  0.71785105764E+01  0.59302026140E+02  0.50000149752E+02 0.  0.
        -12    1    1    2    0    0 -0.28288929610E+02  0.12842148435E+02 -0.71785105764E+01  0.31885973860E+02  0.00000000000E+00 0.  1.
         11    1    3    3    0    0  0.17267150483E+02 -0.27672198600E+01 -0.17387030822E+01  0.17573704226E+02  0.51100000000E-03 0. -1.
        -11    1    3    3    0    0  0.18354862531E+02 -0.19620953896E+02  0.20463926838E+00  0.26868656233E+02  0.51100000000E-03 0.  1.
        -12    1    3    3    0    0 -0.73330834033E+01  0.95460253205E+01  0.87125743902E+01  0.14859665680E+02  0.00000000000E+00 0.  1.
</event>
<event>
 7    1  0.3755162E-013  0.5930196E+02  0.7816164E-02  0.1266605E+00
        -11   -1    0    0    0    0  0.00000000000E+00  0.00000000000E+00  0.45593999997E+02  0.45594000000E+02  0.51100000000E-03 0. -1.
         11   -1    0    0    0    0 -0.00000000000E+00 -0.00000000000E+00 -0.45593999997E+02  0.45594000000E+02  0.51100000000E-03 0.  1.
    9900012    2    1    2    0    0 -0.13543911929E+02  0.28626746454E+02  0.37136982065E+01  0.59301957328E+02  0.50000024257E+02 0.  0.
        -12    1    1    2    0    0  0.13543911929E+02 -0.28626746454E+02 -0.37136982065E+01  0.31886042672E+02  0.00000000000E+00 0.  1.
         11    1    3    3    0    0 -0.12323523575E+02  0.33754202019E+02  0.14404647034E+02  0.38713166284E+02  0.51100000000E-03 0. -1.
        -11    1    3    3    0    0  0.45881367142E+01 -0.13038164589E+01  0.27136632560E+01  0.54877048385E+01  0.51100000000E-03 0.  1.
        -12    1    3    3    0    0 -0.58085250689E+01 -0.38236391065E+01 -0.13404612084E+02  0.15101086206E+02  0.00000000000E+00 0.  1.
</event>
<event>
 7    1  0.3755162E-013  0.5930199E+02  0.7816164E-02  0.1266605E+00
        -11   -1    0    0    0    0  0.00000000000E+00  0.00000000000E+00  0.45593999997E+02  0.45594000000E+02  0.51100000000E-03 0. -1.
         11   -1    0    0    0    0 -0.00000000000E+00 -0.00000000000E+00 -0.45593999997E+02  0.45594000000E+02  0.51100000000E-03 0.  1.
    9900012    2    1    2    0    0 -0.19910000167E+02  0.22014173551E+02  0.11648412185E+02  0.59301992877E+02  0.50000089090E+02 0.  0.
        -12    1    1    2    0    0  0.19910000167E+02 -0.22014173551E+02 -0.11648412185E+02  0.31886007123E+02  0.00000000000E+00 0.  1.
         11    1    3    3    0    0  0.24077103752E+01  0.17847189762E+02  0.38989886364E+01  0.18426105511E+02  0.51100000000E-03 0. -1.
        -11    1    3    3    0    0  0.30451433709E+01 -0.49493421009E+01 -0.78259560836E+01  0.97475368306E+01  0.51100000000E-03 0.  1.
         12    1    3    3    0    0 -0.25362853913E+02  0.91163258895E+01  0.15575379632E+02  0.31128350535E+02  0.00000000000E+00 0. -1.
</event>
<event>
 7    1  0.3755162E-013  0.5930194E+02  0.7816164E-02  0.1266605E+00
        -11   -1    0    0    0    0  0.00000000000E+00  0.00000000000E+00  0.45593999997E+02  0.45594000000E+02  0.51100000000E-03 0.  1.
         11   -1    0    0    0    0 -0.00000000000E+00 -0.00000000000E+00 -0.45593999997E+02  0.45594000000E+02  0.51100000000E-03 0. -1.
    9900012    2    1    2    0    0 -0.15726867825E+02 -0.27610002518E+02 -0.26596910448E+01  0.59301944002E+02  0.49999999953E+02 0.  0.
        -12    1    1    2    0    0  0.15726867825E+02  0.27610002518E+02  0.26596910448E+01  0.31886055998E+02  0.00000000000E+00 0.  1.
         11    1    3    3    0    0  0.21240876393E+01 -0.22632960802E+01 -0.63390421028E+01  0.70581663687E+01  0.51100000000E-03 0.  1.
        -11    1    3    3    0    0 -0.86748673969E+01 -0.89286700917E+01 -0.19040502234E+02  0.22748960406E+02  0.51100000000E-03 0. -1.
        -12    1    3    3    0    0 -0.91760880676E+01 -0.16418036346E+02  0.22719853292E+02  0.29494817228E+02  0.00000000000E+00 0.  1.
</event>
<event>
 7    1  0.3755162E-013  0.5930194E+02  0.7816164E-02  0.1266605E+00
        -11   -1    0    0    0    0  0.00000000000E+00  0.00000000000E+00  0.45593999997E+02  0.45594000000E+02  0.51100000000E-03 0.  1.
         11   -1    0    0    0    0 -0.00000000000E+00 -0.00000000000E+00 -0.45593999997E+02  0.45594000000E+02  0.51100000000E-03 0. -1.
    9900012    2    1    2    0    0  0.12514280655E+02 -0.12523344077E+02 -0.26519412516E+02  0.59301943371E+02  0.49999998802E+02 0.  0.
        -12    1    1    2    0    0 -0.12514280655E+02  0.12523344077E+02  0.26519412516E+02  0.31886056629E+02  0.00000000000E+00 0.  1.
         11    1    3    3    0    0  0.31588619364E+00  0.12963816822E+02 -0.26910906758E+01  0.13243953336E+02  0.51100000000E-03 0. -1.
        -11    1    3    3    0    0 -0.63353853652E+01 -0.14725959563E+02 -0.17453849545E+02  0.23698688930E+02  0.51100000000E-03 0.  1.
         12    1    3    3    0    0  0.18533779827E+02 -0.10761201336E+02 -0.63744722945E+01  0.22359301105E+02  0.00000000000E+00 0. -1.
</event>
<event>
 7    1  0.3755162E-013  0.5930194E+02  0.7816164E-02  0.1266605E+00
        -11   -1    0    0    0    0  0.00000000000E+00  0.00000000000E+00  0.45593999997E+02  0.45594000000E+02  0.51100000000E-03 0.  1.
         11   -1    0    0    0    0 -0.00000000000E+00 -0.00000000000E+00 -0.45593999997E+02  0.45594000000E+02  0.51100000000E-03 0. -1.
    9900012    2    1    2    0    0 -0.20597627868E+02  0.17744035536E+02 -0.16661559879E+02  0.59301942726E+02  0.49999997626E+02 0.  0.
        -12    1    1    2    0    0  0.20597627868E+02 -0.17744035536E+02  0.16661559879E+02  0.31886057274E+02  0.00000000000E+00 0.  1.
         11    1    3    3    0    0 -0.16826744498E+02  0.18701497911E+02 -0.13557254605E+01  0.25193716405E+02  0.51100000000E-03 0. -1.
        -11    1    3    3    0    0  0.11334213380E+02 -0.78836526177E+00  0.15580462368E+01  0.11467930112E+02  0.51100000000E-03 0.  1.
        -12    1    3    3    0    0 -0.15105096750E+02 -0.16909711330E+00 -0.16863880655E+02  0.22640296209E+02  0.00000000000E+00 0.  1.
</event>
<event>
 7    1  0.3755162E-013  0.5930200E+02  0.7816164E-02  0.1266605E+00
        -11   -1    0    0    0    0  0.00000000000E+00  0.00000000000E+00  0.45593999997E+02  0.45594000000E+02  0.51100000000E-03 0.  1.
         11   -1    0    0    0    0 -0.00000000000E+00 -0.00000000000E+00 -0.45593999997E+02  0.45594000000E+02  0.51100000000E-03 0. -1.
    9900012    2    1    2    0    0 -0.93046913131E+01  0.30498155427E+02 -0.49895224098E-01  0.59301995948E+02  0.50000094690E+02 0.  0.
        -12    1    1    2    0    0  0.93046913131E+01 -0.30498155427E+02  0.49895224098E-01  0.31886004052E+02  0.00000000000E+00 0.  1.
         11    1    3    3    0    0 -0.16250005561E+02 -0.53519545829E+00  0.45407931088E+01  0.16880992779E+02  0.51100000000E-03 0. -1.
        -11    1    3    3    0    0  0.10136542565E+02  0.17554422541E+02  0.97407227278E+01  0.22489751565E+02  0.51100000000E-03 0.  1.
        -12    1    3    3    0    0 -0.31912283177E+01  0.13478928344E+02 -0.14331411061E+02  0.19931251603E+02  0.00000000000E+00 0.  1.
</event>
<event>
 7    1  0.3755162E-013  0.5930196E+02  0.7816164E-02  0.1266605E+00
        -11   -1    0    0    0    0  0.00000000000E+00  0.00000000000E+00  0.45593999997E+02  0.45594000000E+02  0.51100000000E-03 0. -1.
         11   -1    0    0    0    0 -0.00000000000E+00 -0.00000000000E+00 -0.45593999997E+02  0.45594000000E+02  0.51100000000E-03 0.  1.
    9900012    2    1    2    0    0  0.16843064282E+02  0.23553784625E+02  0.13351023594E+02  0.59301962059E+02  0.50000032884E+02 0.  0.
        -12    1    1    2    0    0 -0.16843064282E+02 -0.23553784625E+02 -0.13351023594E+02  0.31886037941E+02  0.00000000000E+00 0.  1.
         11    1    3    3    0    0  0.45784893504E+00  0.15509819989E+00  0.69195379577E+00  0.84408614225E+00  0.51100000000E-03 0. -1.
        -11    1    3    3    0    0  0.74734740112E+01 -0.13878878061E+01 -0.17101760089E+02  0.18714947095E+02  0.51100000000E-03 0.  1.
         12    1    3    3    0    0  0.89117413361E+01  0.24786574231E+02  0.29760829887E+02  0.39742928822E+02  0.00000000000E+00 0. -1.
</event>
<event>
 7    1  0.3755162E-013  0.5930191E+02  0.7816164E-02  0.1266605E+00
        -11   -1    0    0    0    0  0.00000000000E+00  0.00000000000E+00  0.45593999997E+02  0.45594000000E+02  0.51100000000E-03 0.  1.
         11   -1    0    0    0    0 -0.00000000000E+00 -0.00000000000E+00 -0.45593999997E+02  0.45594000000E+02  0.51100000000E-03 0. -1.
    9900012    2    1    2    0    0 -0.27969818901E+02 -0.11630181091E+02 -0.99574501075E+01  0.59301910647E+02  0.49999939122E+02 0.  0.
        -12    1    1    2    0    0  0.27969818901E+02  0.11630181091E+02  0.99574501075E+01  0.31886089353E+02  0.00000000000E+00 0.  1.
         11    1    3    3    0    0 -0.25258753530E+02 -0.79300401105E-01 -0.99172495001E+01  0.27136004797E+02  0.51100000000E-03 0. -1.
        -11    1    3    3    0    0 -0.15855027277E+02 -0.60420820386E+01 -0.38815448753E+01  0.17405603586E+02  0.51100000000E-03 0.  1.
        -12    1    3    3    0    0  0.13143961906E+02 -0.55087986511E+01  0.38413442679E+01  0.14760302264E+02  0.00000000000E+00 0.  1.
</event>
<event>
 7    1  0.3755162E-013  0.5930194E+02  0.7816164E-02  0.1266605E+00
        -11   -1    0    0    0    0  0.00000000000E+00  0.00000000000E+00  0.45593999997E+02  0.45594000000E+02  0.51100000000E-03 0.  1.
         11   -1    0    0    0    0 -0.00000000000E+00 -0.00000000000E+00 -0.45593999997E+02  0.45594000000E+02  0.51100000000E-03 0. -1.
    9900012    2    1    2    0    0 -0.23578777121E+02  0.58352661242E+01 -0.20657003872E+02  0.59301939248E+02  0.49999991284E+02 0.  0.
        -12    1    1    2    0    0  0.23578777121E+02 -0.58352661242E+01  0.20657003872E+02  0.31886060752E+02  0.00000000000E+00 0.  1.
         11    1    3    3    0    0 -0.20705065599E+01 -0.13481533523E+02 -0.17377412289E+00  0.13640708972E+02  0.51100000000E-03 0. -1.
        -11    1    3    3    0    0  0.68340350291E+01  0.39944894888E+01 -0.75637125918E+01  0.10948503527E+02  0.51100000000E-03 0.  1.
        -12    1    3    3    0    0 -0.28342305590E+02  0.15322310159E+02 -0.12919517158E+02  0.34712726749E+02  0.00000000000E+00 0.  1.
</event>
<event>
 7    1  0.3755162E-013  0.5930203E+02  0.7816164E-02  0.1266604E+00
        -11   -1    0    0    0    0  0.00000000000E+00  0.00000000000E+00  0.45593999997E+02  0.45594000000E+02  0.51100000000E-03 0.  1.
         11   -1    0    0    0    0 -0.00000000000E+00 -0.00000000000E+00 -0.45593999997E+02  0.45594000000E+02  0.51100000000E-03 0. -1.
    9900012    2    1    2    0    0  0.33035211490E+01  0.26930836443E+02 -0.16749094726E+02  0.59302025377E+02  0.50000148362E+02 0.  0.
        -12    1    1    2    0    0 -0.33035211490E+01 -0.26930836443E+02  0.16749094726E+02  0.31885974623E+02  0.00000000000E+00 0.  1.
         11    1    3    3    0    0  0.94609090796E+00  0.35513922853E+01  0.77704159002E+01  0.85957453832E+01  0.51100000000E-03 0. -1.
        -11    1    3    3    0    0 -0.84282598448E+01  0.43547940514E+01  0.73874843868E+01  0.12023922865E+02  0.51100000000E-03 0.  1.
         12    1    3    3    0    0  0.10785690086E+02  0.19024650106E+02 -0.31906995013E+02  0.38682357129E+02  0.00000000000E+00 0. -1.
</event>
<event>
 7    1  0.3755162E-013  0.5930195E+02  0.7816164E-02  0.1266605E+00
        -11   -1    0    0    0    0  0.00000000000E+00  0.00000000000E+00  0.45593999997E+02  0.45594000000E+02  0.51100000000E-03 0. -1.
         11   -1    0    0    0    0 -0.00000000000E+00 -0.00000000000E+00 -0.45593999997E+02  0.45594000000E+02  0.51100000000E-03 0.  1.
    9900012    2    1    2    0    0  0.11054965817E+02  0.15620060702E+02  0.25505321242E+02  0.59301953252E+02  0.50000016824E+02 0.  0.
        -12    1    1    2    0    0 -0.11054965817E+02 -0.15620060702E+02 -0.25505321242E+02  0.31886046748E+02  0.00000000000E+00 0.  1.
         11    1    3    3    0    0 -0.33975779121E+00  0.27337276993E+02  0.16167384384E+02  0.31762028695E+02  0.51100000000E-03 0. -1.
        -11    1    3    3    0    0 -0.33222660079E+01 -0.87426131731E+01 -0.85619975176E+00  0.93916886020E+01  0.51100000000E-03 0.  1.
        -12    1    3    3    0    0  0.14716989616E+02 -0.29746031184E+01  0.10194136610E+02  0.18148235955E+02  0.00000000000E+00 0.  1.
</event>
<event>
 7    1  0.3755162E-013  0.5930210E+02  0.7816164E-02  0.1266604E+00
        -11   -1    0    0    0    0  0.00000000000E+00  0.00000000000E+00  0.45593999997E+02  0.45594000000E+02  0.51100000000E-03 0. -1.
         11   -1    0    0    0    0 -0.00000000000E+00 -0.00000000000E+00 -0.45593999997E+02  0.45594000000E+02  0.51100000000E-03 0.  1.
    9900012    2    1    2    0    0 -0.12715603761E+02  0.54818117913E+01  0.28722354595E+02  0.59302101973E+02  0.50000288054E+02 0.  0.
        -12    1    1    2    0    0  0.12715603761E+02 -0.54818117913E+01 -0.28722354595E+02  0.31885898027E+02  0.00000000000E+00 0.  1.
         11    1    3    3    0    0 -0.42607115364E+01  0.90075461667E+01  0.10034902543E+02  0.14141740347E+02  0.51100000000E-03 0. -1.
        -11    1    3    3    0    0 -0.21251109879E+02  0.87751992928E+01  0.75220542084E+01  0.24190805971E+02  0.51100000000E-03 0.  1.
        -12    1    3    3    0    0  0.12796217655E+02 -0.12300933668E+02  0.11165397843E+02  0.20969555655E+02  0.00000000000E+00 0.  1.
</event>
<event>
 7    1  0.3755162E-013  0.5930181E+02  0.7816164E-02  0.1266605E+00
        -11   -1    0    0    0    0  0.00000000000E+00  0.00000000000E+00  0.45593999997E+02  0.45594000000E+02  0.51100000000E-03 0.  1.
         11   -1    0    0    0    0 -0.00000000000E+00 -0.00000000000E+00 -0.45593999997E+02  0.45594000000E+02  0.51100000000E-03 0. -1.
    9900012    2    1    2    0    0 -0.48825998234E+01  0.29696730483E+02 -0.10535359708E+02  0.59301805705E+02  0.49999747732E+02 0.  0.
        -12    1    1    2    0    0  0.48825998234E+01 -0.29696730483E+02  0.10535359708E+02  0.31886194295E+02  0.00000000000E+00 0.  1.
         11    1    3    3    0    0  0.10291253434E+02 -0.13823489428E+01 -0.64267583481E+01  0.12211634164E+02  0.51100000000E-03 0. -1.
        -11    1    3    3    0    0  0.71525799166E+01 -0.41972883631E+00  0.31126444696E+01  0.78117941355E+01  0.51100000000E-03 0.  1.
        -12    1    3    3    0    0 -0.22326433174E+02  0.31498808263E+02 -0.72212458299E+01  0.39278377405E+02  0.00000000000E+00 0.  1.
</event>
<event>
 7    1  0.3755162E-013  0.5930193E+02  0.7816164E-02  0.1266605E+00
        -11   -1    0    0    0    0  0.00000000000E+00  0.00000000000E+00  0.45593999997E+02  0.45594000000E+02  0.51100000000E-03 0. -1.
         11   -1    0    0    0    0 -0.00000000000E+00 -0.00000000000E+00 -0.45593999997E+02  0.45594000000E+02  0.51100000000E-03 0.  1.
    9900012    2    1    2    0    0  0.13832408435E+02 -0.28674814184E+02  0.17723593894E+01  0.59301925463E+02  0.49999966142E+02 0.  0.
        -12    1    1    2    0    0 -0.13832408435E+02  0.28674814184E+02 -0.17723593894E+01  0.31886074537E+02  0.00000000000E+00 0.  1.
         11    1    3    3    0    0 -0.50293739634E+01  0.23926192622E+01 -0.10974033306E+02  0.12306446955E+02  0.51100000000E-03 0. -1.
        -11    1    3    3    0    0 -0.53440866302E+01 -0.30153862386E+01 -0.28859686147E+01  0.67809019448E+01  0.51100000000E-03 0.  1.
         12    1    3    3    0    0  0.24205869028E+02 -0.28052047208E+02  0.15632361310E+02  0.40214576562E+02  0.00000000000E+00 0. -1.
</event>
<event>
 7    1  0.3755162E-013  0.5930196E+02  0.7816164E-02  0.1266605E+00
        -11   -1    0    0    0    0  0.00000000000E+00  0.00000000000E+00  0.45593999997E+02  0.45594000000E+02  0.51100000000E-03 0. -1.
         11   -1    0    0    0    0 -0.00000000000E+00 -0.00000000000E+00 -0.45593999997E+02  0.45594000000E+02  0.51100000000E-03 0.  1.
    9900012    2    1    2    0    0  0.93524478185E+01  0.12352170627E+02  0.27868889857E+02  0.59301961970E+02  0.50000032722E+02 0.  0.
        -12    1    1    2    0    0 -0.93524478185E+01 -0.12352170627E+02 -0.27868889857E+02  0.31886038030E+02  0.00000000000E+00 0.  1.
         11    1    3    3    0    0 -0.87211704186E+01  0.28750750099E+01  0.18060005252E+02  0.20260519731E+02  0.51100000000E-03 0. -1.
        -11    1    3    3    0    0 -0.55765047818E+01  0.21913066870E+01  0.12781934851E+02  0.14116553736E+02  0.51100000000E-03 0.  1.
         12    1    3    3    0    0  0.23650123019E+02  0.72857889301E+01 -0.29730502464E+01  0.24924888504E+02  0.00000000000E+00 0. -1.
</event>
<event>
 7    1  0.3755162E-013  0.5930197E+02  0.7816164E-02  0.1266605E+00
        -11   -1    0    0    0    0  0.00000000000E+00  0.00000000000E+00  0.45593999997E+02  0.45594000000E+02  0.51100000000E-03 0. -1.
         11   -1    0    0    0    0 -0.00000000000E+00 -0.00000000000E+00 -0.45593999997E+02  0.45594000000E+02  0.51100000000E-03 0.  1.
    9900012    2    1    2    0    0 -0.15284896994E+02 -0.27057035822E+02  0.71419607902E+01  0.59301970653E+02  0.50000048558E+02 0.  0.
        -12    1    1    2    0    0  0.15284896994E+02  0.27057035822E+02 -0.71419607902E+01  0.31886029347E+02  0.00000000000E+00 0.  1.
         11    1    3    3    0    0 -0.61938213444E+01  0.27391506607E+01 -0.22413925638E+01  0.71337374549E+01  0.51100000000E-03 0. -1.
        -11    1    3    3    0    0  0.52119019595E+01 -0.11448348213E+01 -0.12358866201E+02  0.13461654536E+02  0.51100000000E-03 0.  1.
         12    1    3    3    0    0 -0.14302977609E+02 -0.28651351662E+02  0.21742219555E+02  0.38706578662E+02  0.00000000000E+00 0. -1.
</event>
<event>
 7    1  0.3755162E-013  0.5930194E+02  0.7816164E-02  0.1266605E+00
        -11   -1    0    0    0    0  0.00000000000E+00  0.00000000000E+00  0.45593999997E+02  0.45594000000E+02  0.51100000000E-03 0.  1.
         11   -1    0    0    0    0 -0.00000000000E+00 -0.00000000000E+00 -0.45593999997E+02  0.45594000000E+02  0.51100000000E-03 0. -1.
    9900012    2    1    2    0    0  0.14791914906E+02 -0.26857485500E+01 -0.28119510841E+02  0.59301939068E+02  0.49999990954E+02 0.  0.
        -12    1    1    2    0    0 -0.14791914906E+02  0.26857485500E+01  0.28119510841E+02  0.31886060932E+02  0.00000000000E+00 0.  1.
         11    1    3    3    0    0  0.19099537425E+02 -0.84890215535E+01 -0.18982625198E+02  0.28234657364E+02  0.51100000000E-03 0. -1.
        -11    1    3    3    0    0  0.12321717729E+02  0.32013945097E+01 -0.53830061129E+01  0.13822098599E+02  0.51100000000E-03 0.  1.
        -12    1    3    3    0    0 -0.16629340248E+02  0.26018784938E+01 -0.37538795301E+01  0.17245183105E+02  0.00000000000E+00 0.  1.
</event>
<event>
 7    1  0.3755162E-013  0.5930191E+02  0.7816164E-02  0.1266605E+00
        -11   -1    0    0    0    0  0.00000000000E+00  0.00000000000E+00  0.45593999997E+02  0.45594000000E+02  0.51100000000E-03 0.  1.
         11   -1    0    0    0    0 -0.00000000000E+00 -0.00000000000E+00 -0.45593999997E+02  0.45594000000E+02  0.51100000000E-03 0. -1.
    9900012    2    1    2    0    0  0.13879086594E+02  0.15740211080E+02 -0.24007071274E+02  0.59301909605E+02  0.49999937221E+02 0.  0.
        -12    1    1    2    0    0 -0.13879086594E+02 -0.15740211080E+02  0.24007071274E+02  0.31886090395E+02  0.00000000000E+00 0.  1.
         11    1    3    3    0    0  0.18010952150E+02 -0.11827738467E+02 -0.15172207010E+02  0.26353095841E+02  0.51100000000E-03 0. -1.
        -11    1    3    3    0    0  0.52805869944E+01  0.15742773754E+02 -0.39908234671E+01  0.17077651966E+02  0.51100000000E-03 0.  1.
        -12    1    3    3    0    0 -0.94124525501E+01  0.11825175793E+02 -0.48440407976E+01  0.15871161797E+02  0.00000000000E+00 0.  1.
</event>
<event>
 7    1  0.3755162E-013  0.5930195E+02  0.7816164E-02  0.1266605E+00
        -11   -1    0    0    0    0  0.00000000000E+00  0.00000000000E+00  0.45593999997E+02  0.45594000000E+02  0.51100000000E-03 0.  1.
         11   -1    0    0    0    0 -0.00000000000E+00 -0.00000000000E+00 -0.45593999997E+02  0.45594000000E+02  0.51100000000E-03 0. -1.
    9900012    2    1    2    0    0  0.31803341182E+00  0.14798407428E+02 -0.28242275004E+02  0.59301951248E+02  0.50000013168E+02 0.  0.
        -12    1    1    2    0    0 -0.31803341182E+00 -0.14798407428E+02  0.28242275004E+02  0.31886048752E+02  0.00000000000E+00 0.  1.
         11    1    3    3    0    0 -0.33663647474E+01  0.17747806039E+02 -0.31679900783E+01  0.18339934357E+02  0.51100000000E-03 0. -1.
        -11    1    3    3    0    0  0.12392686182E+02  0.10561544807E+02 -0.11679689821E+02  0.20038464364E+02  0.51100000000E-03 0.  1.
        -12    1    3    3    0    0 -0.87082880230E+01 -0.13510943418E+02 -0.13394595105E+02  0.20923552527E+02  0.00000000000E+00 0.  1.
</event>
<event>
 7    1  0.3755162E-013  0.5930203E+02  0.7816164E-02  0.1266604E+00
        -11   -1    0    0    0    0  0.00000000000E+00  0.00000000000E+00  0.45593999997E+02  0.45594000000E+02  0.51100000000E-03 0.  1.
         11   -1    0    0    0    0 -0.00000000000E+00 -0.00000000000E+00 -0.45593999997E+02  0.45594000000E+02  0.51100000000E-03 0. -1.
    9900012    2    1    2    0    0 -0.12104320393E+02  0.22272824824E+02 -0.19342232840E+02  0.59302027080E+02  0.50000151467E+02 0.  0.
        -12    1    1    2    0    0  0.12104320393E+02 -0.22272824824E+02  0.19342232840E+02  0.31885972920E+02  0.00000000000E+00 0.  1.
         11    1    3    3    0    0 -0.61538800108E+01  0.25226151201E+02 -0.23695925423E+02  0.35152892136E+02  0.51100000000E-03 0. -1.
        -11    1    3    3    0    0 -0.85972375679E+01  0.80002603427E+01 -0.77241817252E+00  0.11769166897E+02  0.51100000000E-03 0.  1.
        -12    1    3    3    0    0  0.26467971853E+01 -0.10953586720E+02  0.51261107563E+01  0.12379968047E+02  0.00000000000E+00 0.  1.
</event>
<event>
 7    1  0.3755162E-013  0.5930209E+02  0.7816164E-02  0.1266604E+00
        -11   -1    0    0    0    0  0.00000000000E+00  0.00000000000E+00  0.45593999997E+02  0.45594000000E+02  0.51100000000E-03 0. -1.
         11   -1    0    0    0    0 -0.00000000000E+00 -0.00000000000E+00 -0.45593999997E+02  0.45594000000E+02  0.51100000000E-03 0.  1.
    9900012    2    1    2    0    0 -0.12583593434E+02 -0.15965125385E+02  0.24565820104E+02  0.59302085090E+02  0.50000257262E+02 0.  0.
        -12    1    1    2    0    0  0.12583593434E+02  0.15965125385E+02 -0.24565820104E+02  0.31885914910E+02  0.00000000000E+00 0.  1.
         11    1    3    3    0    0  0.31437220097E+01  0.57748590814E+01  0.25852124235E+01  0.70650767172E+01  0.51100000000E-03 0. -1.
        -11    1    3    3    0    0 -0.18955004795E+02 -0.49051954353E+00  0.24071190459E+02  0.30642373057E+02  0.51100000000E-03 0.  1.
         12    1    3    3    0    0  0.32276893508E+01 -0.21249464923E+02 -0.20905827784E+01  0.21594635316E+02  0.00000000000E+00 0. -1.
</event>
<event>
 7    1  0.3755162E-013  0.5930196E+02  0.7816164E-02  0.1266605E+00
        -11   -1    0    0    0    0  0.00000000000E+00  0.00000000000E+00  0.45593999997E+02  0.45594000000E+02  0.51100000000E-03 0.  1.
         11   -1    0    0    0    0 -0.00000000000E+00 -0.00000000000E+00 -0.45593999997E+02  0.45594000000E+02  0.51100000000E-03 0. -1.
    9900012    2    1    2    0    0  0.33603709542E+01 -0.19271457051E+02 -0.25180120517E+02  0.59301958868E+02  0.50000027065E+02 0.  0.
        -12    1    1    2    0    0 -0.33603709542E+01  0.19271457051E+02  0.25180120517E+02  0.31886041132E+02  0.00000000000E+00 0.  1.
         11    1    3    3    0    0  0.70252428683E+01 -0.13171304035E+00 -0.14722744942E+02  0.16313509879E+02  0.51100000000E-03 0. -1.
        -11    1    3    3    0    0  0.30186181079E+01  0.57663359314E+01 -0.15411600633E+02  0.16729618038E+02  0.51100000000E-03 0.  1.
         12    1    3    3    0    0 -0.66834900221E+01 -0.24906079942E+02  0.49542250588E+01  0.26258830951E+02  0.00000000000E+00 0. -1.
</event>
<event>
 7    1  0.3755162E-013  0.5930194E+02  0.7816164E-02  0.1266605E+00
        -11   -1    0    0    0    0  0.00000000000E+00  0.00000000000E+00  0.45593999997E+02  0.45594000000E+02  0.51100000000E-03 0.  1.
         11   -1    0    0    0    0 -0.00000000000E+00 -0.00000000000E+00 -0.45593999997E+02  0.45594000000E+02  0.51100000000E-03 0. -1.
    9900012    2    1    2    0    0 -0.88809457335E+01 -0.22278430689E+01 -0.30543185619E+02  0.59301942395E+02  0.49999997021E+02 0.  0.
        -12    1    1    2    0    0  0.88809457335E+01  0.22278430689E+01  0.30543185619E+02  0.31886057605E+02  0.00000000000E+00 0.  1.
         11    1    3    3    0    0  0.84655508095E+01  0.84703856584E+01 -0.16449196217E+02  0.20346720624E+02  0.51100000000E-03 0. -1.
        -11    1    3    3    0    0 -0.96468250771E+01  0.61070366062E+01  0.49238728269E+01  0.12433891348E+02  0.51100000000E-03 0.  1.
         12    1    3    3    0    0 -0.76996714658E+01 -0.16805265334E+02 -0.19017862229E+02  0.26521330422E+02  0.00000000000E+00 0. -1.
</event>
<event>
 7    1  0.3755162E-013  0.5930194E+02  0.7816164E-02  0.1266605E+00
        -11   -1    0    0    0    0  0.00000000000E+00  0.00000000000E+00  0.45593999997E+02  0.45594000000E+02  0.51100000000E-03 0. -1.
         11   -1    0    0    0    0 -0.00000000000E+00 -0.00000000000E+00 -0.45593999997E+02  0.45594000000E+02  0.51100000000E-03 0.  1.
    9900012    2    1    2    0    0  0.26418984700E+02  0.63477091994E+01  0.16687261743E+02  0.59301939266E+02  0.49999991316E+02 0.  0.
        -12    1    1    2    0    0 -0.26418984700E+02 -0.63477091994E+01 -0.16687261743E+02  0.31886060734E+02  0.00000000000E+00 0.  1.
         11    1    3    3    0    0  0.15529161756E+02  0.19374196934E+01 -0.44900846790E+01  0.16280949622E+02  0.51100000000E-03 0. -1.
        -11    1    3    3    0    0  0.92728414589E+01  0.19743678939E+02  0.14661645429E+02  0.26282357081E+02  0.51100000000E-03 0.  1.
        -12    1    3    3    0    0  0.16169814846E+01 -0.15333389433E+02  0.65157009930E+01  0.16738632563E+02  0.00000000000E+00 0.  1.
</event>
<event>
 7    1  0.3755162E-013  0.5930193E+02  0.7816164E-02  0.1266605E+00
        -11   -1    0    0    0    0  0.00000000000E+00  0.00000000000E+00  0.45593999997E+02  0.45594000000E+02  0.51100000000E-03 0. -1.
         11   -1    0    0    0    0 -0.00000000000E+00 -0.00000000000E+00 -0.45593999997E+02  0.45594000000E+02  0.51100000000E-03 0.  1.
    9900012    2    1    2    0    0  0.27298452993E+02 -0.70972157363E+01  0.14870950281E+02  0.59301934559E+02  0.49999982732E+02 0.  0.
        -12    1    1    2    0    0 -0.27298452993E+02  0.70972157363E+01 -0.14870950281E+02  0.31886065441E+02  0.00000000000E+00 0.  1.
         11    1    3    3    0    0  0.10655973650E+02 -0.37689403164E+01 -0.37414799316E+01  0.11906021917E+02  0.51100000000E-03 0. -1.
        -11    1    3    3    0    0  0.87682195872E+01 -0.57209557018E+01 -0.11866869423E+02  0.15825093966E+02  0.51100000000E-03 0.  1.
        -12    1    3    3    0    0  0.78742597560E+01  0.23926802819E+01  0.30479299636E+02  0.31570818677E+02  0.00000000000E+00 0.  1.
</event>
<event>
 7    1  0.3755162E-013  0.5930195E+02  0.7816164E-02  0.1266605E+00
        -11   -1    0    0    0    0  0.00000000000E+00  0.00000000000E+00  0.45593999997E+02  0.45594000000E+02  0.51100000000E-03 0.  1.
         11   -1    0    0    0    0 -0.00000000000E+00 -0.00000000000E+00 -0.45593999997E+02  0.45594000000E+02  0.51100000000E-03 0. -1.
    9900012    2    1    2    0    0 -0.30054494323E+02  0.49586440918E+01 -0.94265396509E+01  0.59301946151E+02  0.50000003873E+02 0.  0.
        -12    1    1    2    0    0  0.30054494323E+02 -0.49586440918E+01  0.94265396509E+01  0.31886053849E+02  0.00000000000E+00 0.  1.
         11    1    3    3    0    0 -0.29065793783E+01  0.17884161174E+02 -0.17774890099E+02  0.25381846719E+02  0.51100000000E-03 0. -1.
        -11    1    3    3    0    0 -0.16238587188E+01 -0.61448747995E+01  0.27428060019E+01  0.69223831493E+01  0.51100000000E-03 0.  1.
        -12    1    3    3    0    0 -0.25524056226E+02 -0.67806422825E+01  0.56055444458E+01  0.26997716283E+02  0.00000000000E+00 0.  1.
</event>
<event>
 7    1  0.3755162E-013  0.5930196E+02  0.7816164E-02  0.1266605E+00
        -11   -1    0    0    0    0  0.00000000000E+00  0.00000000000E+00  0.45593999997E+02  0.45594000000E+02  0.51100000000E-03 0. -1.
         11   -1    0    0    0    0 -0.00000000000E+00 -0.00000000000E+00 -0.45593999997E+02  0.45594000000E+02  0.51100000000E-03 0.  1.
    9900012    2    1    2    0    0  0.12505417426E+02  0.23155758692E+02  0.18004026705E+02  0.59301959117E+02  0.50000027519E+02 0.  0.
        -12    1    1    2    0    0 -0.12505417426E+02 -0.23155758692E+02 -0.18004026705E+02  0.31886040883E+02  0.00000000000E+00 0.  1.
         11    1    3    3    0    0 -0.34541408848E+01 -0.47289619209E+01  0.10931895909E+02  0.12401633704E+02  0.51100000000E-03 0. -1.
        -11    1    3    3    0    0 -0.88090391705E+01  0.30869548616E+00  0.40811678617E+01  0.97134131688E+01  0.51100000000E-03 0.  1.
         12    1    3    3    0    0  0.24768597481E+02  0.27576025127E+02  0.29909629337E+01  0.37186912244E+02  0.00000000000E+00 0. -1.
</event>
<event>
 7    1  0.3755162E-013  0.5930201E+02  0.7816164E-02  0.1266605E+00
        -11   -1    0    0    0    0  0.00000000000E+00  0.00000000000E+00  0.45593999997E+02  0.45594000000E+02  0.51100000000E-03 0.  1.
         11   -1    0    0    0    0 -0.00000000000E+00 -0.00000000000E+00 -0.45593999997E+02  0.45594000000E+02  0.51100000000E-03 0. -1.
    9900012    2    1    2    0    0  0.24414767366E+02  0.46916231116E+01  0.19965577264E+02  0.59302008272E+02  0.50000117166E+02 0.  0.
        -12    1    1    2    0    0 -0.24414767366E+02 -0.46916231116E+01 -0.19965577264E+02  0.31885991728E+02  0.00000000000E+00 0.  1.
         11    1    3    3    0    0  0.32716276864E+00  0.83334394878E+01  0.16437571359E+02  0.18432227256E+02  0.51100000000E-03 0. -1.
        -11    1    3    3    0    0 -0.13235838809E+01 -0.13422338276E+02  0.10116494300E+01  0.13525327128E+02  0.51100000000E-03 0.  1.
        -12    1    3    3    0    0  0.25411188479E+02  0.97805218996E+01  0.25163564749E+01  0.27344453888E+02  0.00000000000E+00 0.  1.
</event>
<event>
 7    1  0.3755162E-013  0.5930195E+02  0.7816164E-02  0.1266605E+00
        -11   -1    0    0    0    0  0.00000000000E+00  0.00000000000E+00  0.45593999997E+02  0.45594000000E+02  0.51100000000E-03 0.  1.
         11   -1    0    0    0    0 -0.00000000000E+00 -0.00000000000E+00 -0.45593999997E+02  0.45594000000E+02  0.51100000000E-03 0. -1.
    9900012    2    1    2    0    0  0.27025616596E+02  0.12955225595E+01 -0.16871815901E+02  0.59301945008E+02  0.50000001789E+02 0.  0.
        -12    1    1    2    0    0 -0.27025616596E+02 -0.12955225595E+01  0.16871815901E+02  0.31886054992E+02  0.00000000000E+00 0.  1.
         11    1    3    3    0    0  0.11177527131E+02 -0.11479743812E+02 -0.12580512673E+02  0.20371326174E+02  0.51100000000E-03 0. -1.
        -11    1    3    3    0    0 -0.53360063320E+01 -0.69539807012E+01 -0.47682007778E+01  0.99783039684E+01  0.51100000000E-03 0.  1.
        -12    1    3    3    0    0  0.21184095798E+02  0.19729247072E+02  0.47689754929E+00  0.28952314866E+02  0.00000000000E+00 0.  1.
</event>
<event>
 7    1  0.3755162E-013  0.5930195E+02  0.7816164E-02  0.1266605E+00
        -11   -1    0    0    0    0  0.00000000000E+00  0.00000000000E+00  0.45593999997E+02  0.45594000000E+02  0.51100000000E-03 0. -1.
         11   -1    0    0    0    0 -0.00000000000E+00 -0.00000000000E+00 -0.45593999997E+02  0.45594000000E+02  0.51100000000E-03 0.  1.
    9900012    2    1    2    0    0 -0.16556284789E+02  0.26396821709E+02 -0.67688770256E+01  0.59301945704E+02  0.50000003058E+02 0.  0.
        -12    1    1    2    0    0  0.16556284789E+02 -0.26396821709E+02  0.67688770256E+01  0.31886054296E+02  0.00000000000E+00 0.  1.
         11    1    3    3    0    0  0.29062900550E+01 -0.10930940957E+01  0.12456806355E+02  0.12837967184E+02  0.51100000000E-03 0. -1.
        -11    1    3    3    0    0  0.41940267206E+01  0.14397460009E+02 -0.43996022735E+01  0.15627962608E+02  0.51100000000E-03 0.  1.
        -12    1    3    3    0    0 -0.23656601564E+02  0.13092455796E+02 -0.14826081108E+02  0.30836015912E+02  0.00000000000E+00 0.  1.
</event>
<event>
 7    1  0.3755162E-013  0.5930195E+02  0.7816164E-02  0.1266605E+00
        -11   -1    0    0    0    0  0.00000000000E+00  0.00000000000E+00  0.45593999997E+02  0.45594000000E+02  0.51100000000E-03 0.  1.
         11   -1    0    0    0    0 -0.00000000000E+00 -0.00000000000E+00 -0.45593999997E+02  0.45594000000E+02  0.51100000000E-03 0. -1.
    9900012    2    1    2    0    0 -0.21449475705E+02  0.54637423776E+01 -0.22951852336E+02  0.59301952668E+02  0.50000015758E+02 0.  0.
        -12    1    1    2    0    0  0.21449475705E+02 -0.54637423776E+01  0.22951852336E+02  0.31886047332E+02  0.00000000000E+00 0.  1.
         11    1    3    3    0    0 -0.80100198777E+01  0.18586430182E+02  0.74786457156E+01  0.21576513791E+02  0.51100000000E-03 0. -1.
        -11    1    3    3    0    0 -0.20434892254E+01  0.90412325706E-01  0.59476185441E+00  0.21302029310E+01  0.51100000000E-03 0.  1.
         12    1    3    3    0    0 -0.11395966602E+02 -0.13213100131E+02 -0.31025259906E+02  0.35595235946E+02  0.00000000000E+00 0. -1.
</event>
<event>
 7    1  0.3755162E-013  0.5930192E+02  0.7816164E-02  0.1266605E+00
        -11   -1    0    0    0    0  0.00000000000E+00  0.00000000000E+00  0.45593999997E+02  0.45594000000E+02  0.51100000000E-03 0.  1.
         11   -1    0    0    0    0 -0.00000000000E+00 -0.00000000000E+00 -0.45593999997E+02  0.45594000000E+02  0.51100000000E-03 0. -1.
    9900012    2    1    2    0    0  0.20393609631E+02  0.13650309705E+02  0.20359064959E+02  0.59301924750E+02  0.49999964842E+02 0.  0.
        -12    1    1    2    0    0 -0.20393609631E+02 -0.13650309705E+02 -0.20359064959E+02  0.31886075250E+02  0.00000000000E+00 0.  1.
         11    1    3    3    0    0  0.24202834695E+01  0.54570452928E+01 -0.32866363173E+01  0.68146235364E+01  0.51100000000E-03 0. -1.
        -11    1    3    3    0    0  0.70636941686E+01  0.23296296605E+02  0.27606547366E+01  0.24499682154E+02  0.51100000000E-03 0.  1.
        -12    1    3    3    0    0  0.10909631993E+02 -0.15103032193E+02  0.20885046540E+02  0.27987619060E+02  0.00000000000E+00 0.  1.
</event>
<event>
 7    1  0.3755162E-013  0.5930194E+02  0.7816164E-02  0.1266605E+00
        -11   -1    0    0    0    0  0.00000000000E+00  0.00000000000E+00  0.45593999997E+02  0.45594000000E+02  0.51100000000E-03 0.  1.
         11   -1    0    0    0    0 -0.00000000000E+00 -0.00000000000E+00 -0.45593999997E+02  0.45594000000E+02  0.51100000000E-03 0. -1.
    9900012    2    1    2    0    0 -0.26620304826E+01 -0.95122003321E+01 -0.30317523712E+02  0.59301943400E+02  0.49999998856E+02 0.  0.
        -12    1    1    2    0    0  0.26620304826E+01  0.95122003321E+01  0.30317523712E+02  0.31886056600E+02  0.00000000000E+00 0.  1.
         11    1    3    3    0    0 -0.18524161540E+01 -0.13353843756E+02 -0.15762441721E+02  0.20741532199E+02  0.51100000000E-03 0. -1.
        -11    1    3    3    0    0  0.15844249299E+02  0.40300429444E+01 -0.14579707130E+02  0.21905463753E+02  0.51100000000E-03 0.  1.
        -12    1    3    3    0    0 -0.16653863628E+02 -0.18839952020E+00  0.24625139018E-01  0.16654947448E+02  0.00000000000E+00 0.  1.
</event>
<event>
 7    1  0.3755162E-013  0.5930223E+02  0.7816164E-02  0.1266604E+00
        -11   -1    0    0    0    0  0.00000000000E+00  0.00000000000E+00  0.45593999997E+02  0.45594000000E+02  0.51100000000E-03 0. -1.
         11   -1    0    0    0    0 -0.00000000000E+00 -0.00000000000E+00 -0.45593999997E+02  0.45594000000E+02  0.51100000000E-03 0.  1.
    9900012    2    1    2    0    0  0.27669020656E+02  0.16155241758E+01  0.15764451752E+02  0.59302226347E+02  0.50000514880E+02 0.  0.
        -12    1    1    2    0    0 -0.27669020656E+02 -0.16155241758E+01 -0.15764451752E+02  0.31885773653E+02  0.00000000000E+00 0.  1.
         11    1    3    3    0    0  0.74798915938E+01 -0.77985180110E+01  0.81186104082E+00  0.10836271501E+02  0.51100000000E-03 0. -1.
        -11    1    3    3    0    0  0.17857203550E+02  0.15558253604E+02 -0.76802464492E+01  0.24898296319E+02  0.51100000000E-03 0.  1.
        -12    1    3    3    0    0  0.23319255122E+01 -0.61442114173E+01  0.22632837160E+02  0.23567658527E+02  0.00000000000E+00 0.  1.
</event>
<event>
 7    1  0.3755162E-013  0.5930197E+02  0.7816164E-02  0.1266605E+00
        -11   -1    0    0    0    0  0.00000000000E+00  0.00000000000E+00  0.45593999997E+02  0.45594000000E+02  0.51100000000E-03 0. -1.
         11   -1    0    0    0    0 -0.00000000000E+00 -0.00000000000E+00 -0.45593999997E+02  0.45594000000E+02  0.51100000000E-03 0.  1.
    9900012    2    1    2    0    0 -0.41062410226E+01 -0.20623352606E+02  0.23969461462E+02  0.59301969033E+02  0.50000045604E+02 0.  0.
        -12    1    1    2    0    0  0.41062410226E+01  0.20623352606E+02 -0.23969461462E+02  0.31886030967E+02  0.00000000000E+00 0.  1.
         11    1    3    3    0    0 -0.90892828762E+01  0.75266647566E-01  0.18539603870E+02  0.20647945181E+02  0.51100000000E-03 0. -1.
        -11    1    3    3    0    0 -0.12642179433E+02 -0.28878215158E+01 -0.21107886373E+00  0.12969532315E+02  0.51100000000E-03 0.  1.
         12    1    3    3    0    0  0.17625221286E+02 -0.17810797738E+02  0.56409364556E+01  0.25684491538E+02  0.00000000000E+00 0. -1.
</event>
<event>
 7    1  0.3755162E-013  0.5930195E+02  0.7816164E-02  0.1266605E+00
        -11   -1    0    0    0    0  0.00000000000E+00  0.00000000000E+00  0.45593999997E+02  0.45594000000E+02  0.51100000000E-03 0. -1.
         11   -1    0    0    0    0 -0.00000000000E+00 -0.00000000000E+00 -0.45593999997E+02  0.45594000000E+02  0.51100000000E-03 0.  1.
    9900012    2    1    2    0    0 -0.17920528781E+02 -0.26147254633E+02  0.34490532025E+01  0.59301949059E+02  0.50000009175E+02 0.  0.
        -12    1    1    2    0    0  0.17920528781E+02  0.26147254633E+02 -0.34490532025E+01  0.31886050941E+02  0.00000000000E+00 0.  1.
         11    1    3    3    0    0  0.29407654108E+01 -0.14903235086E+02  0.10110135268E+02  0.18247447838E+02  0.51100000000E-03 0. -1.
        -11    1    3    3    0    0  0.75529155034E+00 -0.91825400266E+01 -0.15156446634E+02  0.17737175127E+02  0.51100000000E-03 0.  1.
         12    1    3    3    0    0 -0.21616585743E+02 -0.20614795203E+01  0.84953645685E+01  0.23317326093E+02  0.00000000000E+00 0. -1.
</event>
<event>
 7    1  0.3755162E-013  0.5930194E+02  0.7816164E-02  0.1266605E+00
        -11   -1    0    0    0    0  0.00000000000E+00  0.00000000000E+00  0.45593999997E+02  0.45594000000E+02  0.51100000000E-03 0.  1.
         11   -1    0    0    0    0 -0.00000000000E+00 -0.00000000000E+00 -0.45593999997E+02  0.45594000000E+02  0.51100000000E-03 0. -1.
    9900012    2    1    2    0    0 -0.14309760283E+02  0.23800516122E+02 -0.15668034482E+02  0.59301935465E+02  0.49999984383E+02 0.  0.
        -12    1    1    2    0    0  0.14309760283E+02 -0.23800516122E+02  0.15668034482E+02  0.31886064535E+02  0.00000000000E+00 0.  1.
         11    1    3    3    0    0  0.42626806470E+01  0.23664926428E+02 -0.17449665959E+02  0.29710099823E+02  0.51100000000E-03 0. -1.
        -11    1    3    3    0    0 -0.13163606088E+02  0.10477863321E+02  0.48768533096E+01  0.17517130001E+02  0.51100000000E-03 0.  1.
         12    1    3    3    0    0 -0.54088348424E+01 -0.10342273627E+02 -0.30952218323E+01  0.12074705641E+02  0.00000000000E+00 0. -1.
</event>
<event>
 7    1  0.3755162E-013  0.5930193E+02  0.7816164E-02  0.1266605E+00
        -11   -1    0    0    0    0  0.00000000000E+00  0.00000000000E+00  0.45593999997E+02  0.45594000000E+02  0.51100000000E-03 0.  1.
         11   -1    0    0    0    0 -0.00000000000E+00 -0.00000000000E+00 -0.45593999997E+02  0.45594000000E+02  0.51100000000E-03 0. -1.
    9900012    2    1    2    0    0 -0.92776508150E+01 -0.12005848290E+02 -0.28044721653E+02  0.59301927643E+02  0.49999970117E+02 0.  0.
        -12    1    1    2    0    0  0.92776508150E+01  0.12005848290E+02  0.28044721653E+02  0.31886072357E+02  0.00000000000E+00 0.  1.
         11    1    3    3    0    0 -0.75616762180E+01 -0.15937931232E+02 -0.37189974713E+01  0.18028520229E+02  0.51100000000E-03 0.  1.
        -11    1    3    3    0    0 -0.15696058799E+02 -0.46884063732E+01 -0.15837659275E+02  0.22785496873E+02  0.51100000000E-03 0. -1.
        -12    1    3    3    0    0  0.13980084202E+02  0.86204893152E+01 -0.84880649060E+01  0.18487910541E+02  0.00000000000E+00 0.  1.
</event>
<event>
 7    1  0.3755162E-013  0.5930194E+02  0.7816164E-02  0.1266605E+00
        -11   -1    0    0    0    0  0.00000000000E+00  0.00000000000E+00  0.45593999997E+02  0.45594000000E+02  0.51100000000E-03 0.  1.
         11   -1    0    0    0    0 -0.00000000000E+00 -0.00000000000E+00 -0.45593999997E+02  0.45594000000E+02  0.51100000000E-03 0. -1.
    9900012    2    1    2    0    0 -0.28390800371E+02  0.11503139005E+02 -0.88521770868E+01  0.59301940478E+02  0.49999993526E+02 0.  0.
        -12    1    1    2    0    0  0.28390800371E+02 -0.11503139005E+02  0.88521770868E+01  0.31886059522E+02  0.00000000000E+00 0.  1.
         11    1    3    3    0    0 -0.17002027144E+02  0.10386864139E+02 -0.17337336526E+02  0.26410965748E+02  0.51100000000E-03 0. -1.
        -11    1    3    3    0    0 -0.86419090063E+01 -0.42663340945E+01 -0.97326677440E+01  0.13697044190E+02  0.51100000000E-03 0.  1.
        -12    1    3    3    0    0 -0.27468642203E+01  0.53826089605E+01  0.18217827183E+02  0.19193930539E+02  0.00000000000E+00 0.  1.
</event>
<event>
 7    1  0.3755162E-013  0.5930193E+02  0.7816164E-02  0.1266605E+00
        -11   -1    0    0    0    0  0.00000000000E+00  0.00000000000E+00  0.45593999997E+02  0.45594000000E+02  0.51100000000E-03 0.  1.
         11   -1    0    0    0    0 -0.00000000000E+00 -0.00000000000E+00 -0.45593999997E+02  0.45594000000E+02  0.51100000000E-03 0. -1.
    9900012    2    1    2    0    0 -0.17116663013E+02 -0.18188417123E+02 -0.19822281887E+02  0.59301928913E+02  0.49999972435E+02 0.  0.
        -12    1    1    2    0    0  0.17116663013E+02  0.18188417123E+02  0.19822281887E+02  0.31886071087E+02  0.00000000000E+00 0.  1.
         11    1    3    3    0    0 -0.18883410992E+02  0.27391216746E+01  0.69441001251E+00  0.19093669206E+02  0.51100000000E-03 0. -1.
        -11    1    3    3    0    0 -0.94081532065E+01  0.63499407428E+00 -0.19281236587E+01  0.96246675442E+01  0.51100000000E-03 0.  1.
        -12    1    3    3    0    0  0.11174901185E+02 -0.21562532872E+02 -0.18588568241E+02  0.30583592163E+02  0.00000000000E+00 0.  1.
</event>
<event>
 7    1  0.3755162E-013  0.5930194E+02  0.7816164E-02  0.1266605E+00
        -11   -1    0    0    0    0  0.00000000000E+00  0.00000000000E+00  0.45593999997E+02  0.45594000000E+02  0.51100000000E-03 0.  1.
         11   -1    0    0    0    0 -0.00000000000E+00 -0.00000000000E+00 -0.45593999997E+02  0.45594000000E+02  0.51100000000E-03 0. -1.
    9900012    2    1    2    0    0 -0.34997968572E+00 -0.21675350118E+02 -0.23383269164E+02  0.59301944030E+02  0.50000000004E+02 0.  0.
        -12    1    1    2    0    0  0.34997968572E+00  0.21675350118E+02  0.23383269164E+02  0.31886055970E+02  0.00000000000E+00 0.  1.
         11    1    3    3    0    0 -0.60695516931E+01 -0.85608456493E+01 -0.82713424685E+01  0.13361984975E+02  0.51100000000E-03 0. -1.
        -11    1    3    3    0    0 -0.85813031233E+01 -0.12911876112E+02 -0.24383896292E+02  0.28895150228E+02  0.51100000000E-03 0.  1.
        -12    1    3    3    0    0  0.14300875131E+02 -0.20262835654E+00  0.92719695963E+01  0.17044808827E+02  0.00000000000E+00 0.  1.
</event>
<event>
 7    1  0.3755162E-013  0.5930194E+02  0.7816164E-02  0.1266605E+00
        -11   -1    0    0    0    0  0.00000000000E+00  0.00000000000E+00  0.45593999997E+02  0.45594000000E+02  0.51100000000E-03 0. -1.
         11   -1    0    0    0    0 -0.00000000000E+00 -0.00000000000E+00 -0.45593999997E+02  0.45594000000E+02  0.51100000000E-03 0.  1.
    9900012    2    1    2    0    0  0.22703628402E+02  0.78902031407E+01  0.20952578228E+02  0.59301943759E+02  0.49999999510E+02 0.  0.
        -12    1    1    2    0    0 -0.22703628402E+02 -0.78902031407E+01 -0.20952578228E+02  0.31886056241E+02  0.00000000000E+00 0.  1.
         11    1    3    3    0    0  0.25449732545E+02  0.92891495173E+00  0.19454115669E+02  0.32047065174E+02  0.51100000000E-03 0. -1.
        -11    1    3    3    0    0  0.67113608072E+01 -0.74163042127E+01  0.38398593006E+00  0.10009564302E+02  0.51100000000E-03 0.  1.
         12    1    3    3    0    0 -0.94574649502E+01  0.14377592402E+02  0.11144766290E+01  0.17245314283E+02  0.00000000000E+00 0. -1.
</event>
<event>
 7    1  0.3755162E-013  0.5930195E+02  0.7816164E-02  0.1266605E+00
        -11   -1    0    0    0    0  0.00000000000E+00  0.00000000000E+00  0.45593999997E+02  0.45594000000E+02  0.51100000000E-03 0. -1.
         11   -1    0    0    0    0 -0.00000000000E+00 -0.00000000000E+00 -0.45593999997E+02  0.45594000000E+02  0.51100000000E-03 0.  1.
    9900012    2    1    2    0    0  0.21589223140E+01 -0.29164742875E+02 -0.12707361586E+02  0.59301949586E+02  0.50000010137E+02 0.  0.
        -12    1    1    2    0    0 -0.21589223140E+01  0.29164742875E+02  0.12707361586E+02  0.31886050414E+02  0.00000000000E+00 0.  1.
         11    1    3    3    0    0  0.42391559967E+01 -0.24761781156E+01 -0.43698928688E-02  0.49093707317E+01  0.51100000000E-03 0. -1.
        -11    1    3    3    0    0  0.14976318117E+02  0.36652947300E+01 -0.12050142006E+02  0.19568607830E+02  0.51100000000E-03 0.  1.
        -12    1    3    3    0    0 -0.17056551799E+02 -0.30353859490E+02 -0.65284968709E+00  0.34823971024E+02  0.00000000000E+00 0.  1.
</event>
<event>
 7    1  0.3755162E-013  0.5930196E+02  0.7816164E-02  0.1266605E+00
        -11   -1    0    0    0    0  0.00000000000E+00  0.00000000000E+00  0.45593999997E+02  0.45594000000E+02  0.51100000000E-03 0.  1.
         11   -1    0    0    0    0 -0.00000000000E+00 -0.00000000000E+00 -0.45593999997E+02  0.45594000000E+02  0.51100000000E-03 0. -1.
    9900012    2    1    2    0    0 -0.11850687828E+02 -0.23221934693E+02 -0.18358167873E+02  0.59301962608E+02  0.50000033886E+02 0.  0.
        -12    1    1    2    0    0  0.11850687828E+02  0.23221934693E+02  0.18358167873E+02  0.31886037392E+02  0.00000000000E+00 0.  1.
         11    1    3    3    0    0 -0.51462179309E+01  0.86049732956E+01 -0.86186040080E+01  0.13221552848E+02  0.51100000000E-03 0. -1.
        -11    1    3    3    0    0 -0.17250447317E+02 -0.14052062807E+02 -0.12017190655E+02  0.25287373792E+02  0.51100000000E-03 0.  1.
        -12    1    3    3    0    0  0.10545977420E+02 -0.17774845181E+02  0.22776267898E+01  0.20793035968E+02  0.00000000000E+00 0.  1.
</event>
<event>
 7    1  0.3755162E-013  0.5930193E+02  0.7816164E-02  0.1266605E+00
        -11   -1    0    0    0    0  0.00000000000E+00  0.00000000000E+00  0.45593999997E+02  0.45594000000E+02  0.51100000000E-03 0. -1.
         11   -1    0    0    0    0 -0.00000000000E+00 -0.00000000000E+00 -0.45593999997E+02  0.45594000000E+02  0.51100000000E-03 0.  1.
    9900012    2    1    2    0    0 -0.20393792073E+02 -0.23419734331E+02  0.72340182121E+01  0.59301925755E+02  0.49999966675E+02 0.  0.
        -12    1    1    2    0    0  0.20393792073E+02  0.23419734331E+02 -0.72340182121E+01  0.31886074245E+02  0.00000000000E+00 0.  1.
         11    1    3    3    0    0 -0.85251544106E+01  0.34291905967E+01  0.54273582280E+01  0.10672104922E+02  0.51100000000E-03 0. -1.
        -11    1    3    3    0    0  0.11225087788E+02 -0.13829310433E+02 -0.90537725507E+01  0.19980571077E+02  0.51100000000E-03 0.  1.
         12    1    3    3    0    0 -0.23093725450E+02 -0.13019614495E+02  0.10860432535E+02  0.28649249757E+02  0.00000000000E+00 0. -1.
</event>
<event>
 7    1  0.3755162E-013  0.5930195E+02  0.7816164E-02  0.1266605E+00
        -11   -1    0    0    0    0  0.00000000000E+00  0.00000000000E+00  0.45593999997E+02  0.45594000000E+02  0.51100000000E-03 0.  1.
         11   -1    0    0    0    0 -0.00000000000E+00 -0.00000000000E+00 -0.45593999997E+02  0.45594000000E+02  0.51100000000E-03 0. -1.
    9900012    2    1    2    0    0  0.21876651435E+02  0.23196834688E+02 -0.19835255168E+00  0.59301947230E+02  0.50000005840E+02 0.  0.
        -12    1    1    2    0    0 -0.21876651435E+02 -0.23196834688E+02  0.19835255168E+00  0.31886052770E+02  0.00000000000E+00 0.  1.
         11    1    3    3    0    0  0.79184998051E+01  0.12677553418E+02 -0.16998031033E+02  0.22635283499E+02  0.51100000000E-03 0. -1.
        -11    1    3    3    0    0 -0.16431566369E+01 -0.78175453516E+01  0.71779450801E+01  0.10739500682E+02  0.51100000000E-03 0.  1.
        -12    1    3    3    0    0  0.15601308266E+02  0.18336826621E+02  0.96217334007E+01  0.25927163049E+02  0.00000000000E+00 0.  1.
</event>
<event>
 7    1  0.3755162E-013  0.5930191E+02  0.7816164E-02  0.1266605E+00
        -11   -1    0    0    0    0  0.00000000000E+00  0.00000000000E+00  0.45593999997E+02  0.45594000000E+02  0.51100000000E-03 0.  1.
         11   -1    0    0    0    0 -0.00000000000E+00 -0.00000000000E+00 -0.45593999997E+02  0.45594000000E+02  0.51100000000E-03 0. -1.
    9900012    2    1    2    0    0 -0.11199347003E+02  0.18920651052E+01 -0.29794584053E+02  0.59301913339E+02  0.49999944031E+02 0.  0.
        -12    1    1    2    0    0  0.11199347003E+02 -0.18920651052E+01  0.29794584053E+02  0.31886086661E+02  0.00000000000E+00 0.  1.
         11    1    3    3    0    0  0.82547897783E+01 -0.12861963494E+02 -0.10434593311E+02  0.18505469381E+02  0.51100000000E-03 0. -1.
        -11    1    3    3    0    0 -0.14197720785E+02 -0.52958869912E+01 -0.73633022660E+01  0.16847549230E+02  0.51100000000E-03 0.  1.
        -12    1    3    3    0    0 -0.52564159960E+01  0.20049915590E+02 -0.11996688477E+02  0.23948894728E+02  0.00000000000E+00 0.  1.
</event>
<event>
 7    1  0.3755162E-013  0.5930194E+02  0.7816164E-02  0.1266605E+00
        -11   -1    0    0    0    0  0.00000000000E+00  0.00000000000E+00  0.45593999997E+02  0.45594000000E+02  0.51100000000E-03 0.  1.
         11   -1    0    0    0    0 -0.00000000000E+00 -0.00000000000E+00 -0.45593999997E+02  0.45594000000E+02  0.51100000000E-03 0. -1.
    9900012    2    1    2    0    0  0.13023864900E+02 -0.54404997961E+01 -0.28591969645E+02  0.59301939987E+02  0.49999992631E+02 0.  0.
        -12    1    1    2    0    0 -0.13023864900E+02  0.54404997961E+01  0.28591969645E+02  0.31886060013E+02  0.00000000000E+00 0.  1.
         11    1    3    3    0    0  0.16895231577E+02 -0.40053081950E+01 -0.53619905801E+01  0.18172569632E+02  0.51100000000E-03 0. -1.
        -11    1    3    3    0    0  0.76965966676E+01 -0.97578642199E+01 -0.23819131049E+02  0.26866419906E+02  0.51100000000E-03 0.  1.
        -12    1    3    3    0    0 -0.11567963344E+02  0.83226726188E+01  0.58915198445E+00  0.14262950449E+02  0.00000000000E+00 0.  1.
</event>
<event>
 7    1  0.3755162E-013  0.5930195E+02  0.7816164E-02  0.1266605E+00
        -11   -1    0    0    0    0  0.00000000000E+00  0.00000000000E+00  0.45593999997E+02  0.45594000000E+02  0.51100000000E-03 0.  1.
         11   -1    0    0    0    0 -0.00000000000E+00 -0.00000000000E+00 -0.45593999997E+02  0.45594000000E+02  0.51100000000E-03 0. -1.
    9900012    2    1    2    0    0  0.30382998152E+02  0.79814600706E+01 -0.54671638113E+01  0.59301950359E+02  0.50000011546E+02 0.  0.
        -12    1    1    2    0    0 -0.30382998152E+02 -0.79814600706E+01  0.54671638113E+01  0.31886049641E+02  0.00000000000E+00 0.  1.
         11    1    3    3    0    0  0.26747660060E+02 -0.71286900866E+01 -0.15770425001E+01  0.27726207897E+02  0.51100000000E-03 0. -1.
        -11    1    3    3    0    0  0.34712542255E+01 -0.76898401746E+01  0.50336271748E-01  0.84371666933E+01  0.51100000000E-03 0.  1.
        -12    1    3    3    0    0  0.16408386735E+00  0.22799990332E+02 -0.39404575830E+01  0.23138575769E+02  0.00000000000E+00 0.  1.
</event>
<event>
 7    1  0.3755162E-013  0.5930198E+02  0.7816164E-02  0.1266605E+00
        -11   -1    0    0    0    0  0.00000000000E+00  0.00000000000E+00  0.45593999997E+02  0.45594000000E+02  0.51100000000E-03 0.  1.
         11   -1    0    0    0    0 -0.00000000000E+00 -0.00000000000E+00 -0.45593999997E+02  0.45594000000E+02  0.51100000000E-03 0. -1.
    9900012    2    1    2    0    0 -0.25675612806E+01 -0.31782474490E+02 -0.37745342839E-02  0.59301983161E+02  0.50000071370E+02 0.  0.
        -12    1    1    2    0    0  0.25675612806E+01  0.31782474490E+02  0.37745342839E-02  0.31886016839E+02  0.00000000000E+00 0.  1.
         11    1    3    3    0    0  0.22020764606E+01  0.47207787175E+00 -0.56546998396E+01  0.60866763338E+01  0.51100000000E-03 0. -1.
        -11    1    3    3    0    0 -0.38546156935E+01  0.47865194162E+01  0.13951018355E+02  0.15244662792E+02  0.51100000000E-03 0.  1.
         12    1    3    3    0    0 -0.91502204772E+00 -0.37041071778E+02 -0.83000930493E+01  0.37970644035E+02  0.00000000000E+00 0. -1.
</event>
<event>
 7    1  0.3755162E-013  0.5930194E+02  0.7816164E-02  0.1266605E+00
        -11   -1    0    0    0    0  0.00000000000E+00  0.00000000000E+00  0.45593999997E+02  0.45594000000E+02  0.51100000000E-03 0.  1.
         11   -1    0    0    0    0 -0.00000000000E+00 -0.00000000000E+00 -0.45593999997E+02  0.45594000000E+02  0.51100000000E-03 0. -1.
    9900012    2    1    2    0    0 -0.11387239910E+02  0.24013184025E+01 -0.29686444348E+02  0.59301944414E+02  0.50000000704E+02 0.  0.
        -12    1    1    2    0    0  0.11387239910E+02 -0.24013184025E+01  0.29686444348E+02  0.31886055586E+02  0.00000000000E+00 0.  1.
         11    1    3    3    0    0 -0.72299733325E+01  0.79617564689E+01 -0.18307459357E+02  0.21232643472E+02  0.51100000000E-03 0. -1.
        -11    1    3    3    0    0 -0.13810131401E+02  0.10203135904E+02 -0.18397869181E+01  0.17268715289E+02  0.51100000000E-03 0.  1.
        -12    1    3    3    0    0  0.96528648231E+01 -0.15763573970E+02 -0.95391980727E+01  0.20800585652E+02  0.00000000000E+00 0.  1.
</event>
<event>
 7    1  0.3755162E-013  0.5930194E+02  0.7816164E-02  0.1266605E+00
        -11   -1    0    0    0    0  0.00000000000E+00  0.00000000000E+00  0.45593999997E+02  0.45594000000E+02  0.51100000000E-03 0.  1.
         11   -1    0    0    0    0 -0.00000000000E+00 -0.00000000000E+00 -0.45593999997E+02  0.45594000000E+02  0.51100000000E-03 0. -1.
    9900012    2    1    2    0    0 -0.30706736181E+02  0.76717424408E+01  0.38680347117E+01  0.59301937661E+02  0.49999988389E+02 0.  0.
        -12    1    1    2    0    0  0.30706736181E+02 -0.76717424408E+01 -0.38680347117E+01  0.31886062339E+02  0.00000000000E+00 0.  1.
         11    1    3    3    0    0 -0.17873926898E+02 -0.52680860456E+01  0.37742458122E+01  0.19012493920E+02  0.51100000000E-03 0. -1.
        -11    1    3    3    0    0 -0.23829347575E+02  0.75630798283E+01 -0.72298922898E+01  0.26025167149E+02  0.51100000000E-03 0.  1.
        -12    1    3    3    0    0  0.10996538292E+02  0.53767486582E+01  0.73236811892E+01  0.14264276592E+02  0.00000000000E+00 0.  1.
</event>
<event>
 7    1  0.3755162E-013  0.5930189E+02  0.7816164E-02  0.1266605E+00
        -11   -1    0    0    0    0  0.00000000000E+00  0.00000000000E+00  0.45593999997E+02  0.45594000000E+02  0.51100000000E-03 0.  1.
         11   -1    0    0    0    0 -0.00000000000E+00 -0.00000000000E+00 -0.45593999997E+02  0.45594000000E+02  0.51100000000E-03 0. -1.
    9900012    2    1    2    0    0 -0.10117468664E+02 -0.22922882121E+02 -0.19720610519E+02  0.59301887410E+02  0.49999896743E+02 0.  0.
        -12    1    1    2    0    0  0.10117468664E+02  0.22922882121E+02  0.19720610519E+02  0.31886112590E+02  0.00000000000E+00 0.  1.
         11    1    3    3    0    0 -0.17731179958E+02 -0.25529083686E+02 -0.16449155462E+02  0.35166796446E+02  0.51100000000E-03 0.  1.
        -11    1    3    3    0    0 -0.39299774295E+01 -0.74536417772E+01  0.22388746678E+00  0.84292125491E+01  0.51100000000E-03 0. -1.
        -12    1    3    3    0    0  0.11543688724E+02  0.10059843343E+02 -0.34953425235E+01  0.15705878415E+02  0.00000000000E+00 0.  1.
</event>
<event>
 7    1  0.3755162E-013  0.5930196E+02  0.7816164E-02  0.1266605E+00
        -11   -1    0    0    0    0  0.00000000000E+00  0.00000000000E+00  0.45593999997E+02  0.45594000000E+02  0.51100000000E-03 0. -1.
         11   -1    0    0    0    0 -0.00000000000E+00 -0.00000000000E+00 -0.45593999997E+02  0.45594000000E+02  0.51100000000E-03 0.  1.
    9900012    2    1    2    0    0 -0.19986368916E+01 -0.23313352290E+02  0.21661310164E+02  0.59301963833E+02  0.50000036119E+02 0.  0.
        -12    1    1    2    0    0  0.19986368916E+01  0.23313352290E+02 -0.21661310164E+02  0.31886036167E+02  0.00000000000E+00 0.  1.
         11    1    3    3    0    0  0.64294727796E+01  0.20342487245E+01 -0.23484790332E+01  0.71408432364E+01  0.51100000000E-03 0. -1.
        -11    1    3    3    0    0 -0.13837479421E+01 -0.15757533144E+02 -0.82045613851E+01  0.17819355683E+02  0.51100000000E-03 0.  1.
         12    1    3    3    0    0 -0.70443617291E+01 -0.95900678703E+01  0.32214350583E+02  0.34341764914E+02  0.00000000000E+00 0. -1.
</event>
<event>
 7    1  0.3755162E-013  0.5930191E+02  0.7816164E-02  0.1266605E+00
        -11   -1    0    0    0    0  0.00000000000E+00  0.00000000000E+00  0.45593999997E+02  0.45594000000E+02  0.51100000000E-03 0.  1.
         11   -1    0    0    0    0 -0.00000000000E+00 -0.00000000000E+00 -0.45593999997E+02  0.45594000000E+02  0.51100000000E-03 0. -1.
    9900012    2    1    2    0    0 -0.41191896025E+01  0.40411886831E+01 -0.31359590539E+02  0.59301908240E+02  0.49999934731E+02 0.  0.
        -12    1    1    2    0    0  0.41191896025E+01 -0.40411886831E+01  0.31359590539E+02  0.31886091760E+02  0.00000000000E+00 0.  1.
         11    1    3    3    0    0  0.16902604442E+02  0.70736099776E+01 -0.15877532691E+02  0.24245206529E+02  0.51100000000E-03 0. -1.
        -11    1    3    3    0    0  0.29750206300E+01 -0.10325804655E+01 -0.98302232443E+01  0.10322318512E+02  0.51100000000E-03 0.  1.
        -12    1    3    3    0    0 -0.23996814674E+02 -0.19998408290E+01 -0.56518346044E+01  0.24734383199E+02  0.00000000000E+00 0.  1.
</event>
<event>
 7    1  0.3755162E-013  0.5930190E+02  0.7816164E-02  0.1266605E+00
        -11   -1    0    0    0    0  0.00000000000E+00  0.00000000000E+00  0.45593999997E+02  0.45594000000E+02  0.51100000000E-03 0. -1.
         11   -1    0    0    0    0 -0.00000000000E+00 -0.00000000000E+00 -0.45593999997E+02  0.45594000000E+02  0.51100000000E-03 0.  1.
    9900012    2    1    2    0    0  0.73484001198E+00 -0.28504404815E+02  0.14271728402E+02  0.59301900909E+02  0.49999921361E+02 0.  0.
        -12    1    1    2    0    0 -0.73484001198E+00  0.28504404815E+02 -0.14271728402E+02  0.31886099091E+02  0.00000000000E+00 0.  1.
         11    1    3    3    0    0  0.69342322708E+01 -0.55627145541E+01 -0.86392496778E+01  0.12396128656E+02  0.51100000000E-03 0. -1.
        -11    1    3    3    0    0 -0.34563995913E+01 -0.30502326228E+02  0.11154313483E+02  0.32661250940E+02  0.51100000000E-03 0.  1.
        -12    1    3    3    0    0 -0.27429926675E+01  0.75606359668E+01  0.11756664596E+02  0.14244521313E+02  0.00000000000E+00 0.  1.
</event>
<event>
 7    1  0.3755162E-013  0.5930192E+02  0.7816164E-02  0.1266605E+00
        -11   -1    0    0    0    0  0.00000000000E+00  0.00000000000E+00  0.45593999997E+02  0.45594000000E+02  0.51100000000E-03 0.  1.
         11   -1    0    0    0    0 -0.00000000000E+00 -0.00000000000E+00 -0.45593999997E+02  0.45594000000E+02  0.51100000000E-03 0. -1.
    9900012    2    1    2    0    0 -0.14319078852E+02  0.19097642008E+02 -0.21141567088E+02  0.59301924537E+02  0.49999964454E+02 0.  0.
        -12    1    1    2    0    0  0.14319078852E+02 -0.19097642008E+02  0.21141567088E+02  0.31886075463E+02  0.00000000000E+00 0.  1.
         11    1    3    3    0    0 -0.68279586414E+01  0.21620175437E+01 -0.98037436619E+01  0.12141199657E+02  0.51100000000E-03 0. -1.
        -11    1    3    3    0    0 -0.23600185974E+02  0.29405325045E+01 -0.99380941098E+01  0.25775593576E+02  0.51100000000E-03 0.  1.
         12    1    3    3    0    0  0.16109065763E+02  0.13995091960E+02 -0.13997293167E+01  0.21385131304E+02  0.00000000000E+00 0. -1.
</event>
<event>
 7    1  0.3755162E-013  0.5930194E+02  0.7816164E-02  0.1266605E+00
        -11   -1    0    0    0    0  0.00000000000E+00  0.00000000000E+00  0.45593999997E+02  0.45594000000E+02  0.51100000000E-03 0. -1.
         11   -1    0    0    0    0 -0.00000000000E+00 -0.00000000000E+00 -0.45593999997E+02  0.45594000000E+02  0.51100000000E-03 0.  1.
    9900012    2    1    2    0    0  0.17809617440E+02  0.24402296564E+02  0.10201280185E+02  0.59301942414E+02  0.49999997058E+02 0.  0.
        -12    1    1    2    0    0 -0.17809617440E+02 -0.24402296564E+02 -0.10201280185E+02  0.31886057586E+02  0.00000000000E+00 0.  1.
         11    1    3    3    0    0  0.32164740103E+02  0.11074981901E+02  0.70267480125E+01  0.34736161531E+02  0.51100000000E-03 0. -1.
        -11    1    3    3    0    0 -0.22373320599E+01  0.70396476756E+00 -0.47951564156E+01  0.53380470635E+01  0.51100000000E-03 0.  1.
        -12    1    3    3    0    0 -0.12117790603E+02  0.12623349895E+02  0.79696885880E+01  0.19227733820E+02  0.00000000000E+00 0.  1.
</event>
<event>
 7    1  0.3755162E-013  0.5930196E+02  0.7816164E-02  0.1266605E+00
        -11   -1    0    0    0    0  0.00000000000E+00  0.00000000000E+00  0.45593999997E+02  0.45594000000E+02  0.51100000000E-03 0.  1.
         11   -1    0    0    0    0 -0.00000000000E+00 -0.00000000000E+00 -0.45593999997E+02  0.45594000000E+02  0.51100000000E-03 0. -1.
    9900012    2    1    2    0    0 -0.58911902384E+01  0.29840564250E+02 -0.95684097913E+01  0.59301955041E+02  0.50000020086E+02 0.  0.
        -12    1    1    2    0    0  0.58911902384E+01 -0.29840564250E+02  0.95684097913E+01  0.31886044959E+02  0.00000000000E+00 0.  1.
         11    1    3    3    0    0 -0.14318616071E+02  0.16362406545E+02 -0.22061866638E+02  0.30975426937E+02  0.51100000000E-03 0. -1.
        -11    1    3    3    0    0  0.35547004867E+01  0.12634703509E+02 -0.17571033168E+01  0.13242320062E+02  0.51100000000E-03 0.  1.
        -12    1    3    3    0    0  0.48727253455E+01  0.84345419629E+00  0.14250560163E+02  0.15084208042E+02  0.00000000000E+00 0.  1.
</event>
<event>
 7    1  0.3755162E-013  0.5930195E+02  0.7816164E-02  0.1266605E+00
        -11   -1    0    0    0    0  0.00000000000E+00  0.00000000000E+00  0.45593999997E+02  0.45594000000E+02  0.51100000000E-03 0.  1.
         11   -1    0    0    0    0 -0.00000000000E+00 -0.00000000000E+00 -0.45593999997E+02  0.45594000000E+02  0.51100000000E-03 0. -1.
    9900012    2    1    2    0    0  0.21256925684E+02 -0.12404224696E+02 -0.20273094862E+02  0.59301952030E+02  0.50000014594E+02 0.  0.
        -12    1    1    2    0    0 -0.21256925684E+02  0.12404224696E+02  0.20273094862E+02  0.31886047970E+02  0.00000000000E+00 0.  1.
         11    1    3    3    0    0  0.16235950269E+02 -0.19912345707E+02 -0.18960844964E+02  0.31931508494E+02  0.51100000000E-03 0. -1.
        -11    1    3    3    0    0 -0.28768824005E+01 -0.11396359121E+01 -0.11462271873E+02  0.11872611302E+02  0.51100000000E-03 0.  1.
        -12    1    3    3    0    0  0.78978578153E+01  0.86477569235E+01  0.10150021975E+02  0.15497832234E+02  0.00000000000E+00 0.  1.
</event>
<event>
 7    1  0.3755162E-013  0.5930209E+02  0.7816164E-02  0.1266604E+00
        -11   -1    0    0    0    0  0.00000000000E+00  0.00000000000E+00  0.45593999997E+02  0.45594000000E+02  0.51100000000E-03 0.  1.
         11   -1    0    0    0    0 -0.00000000000E+00 -0.00000000000E+00 -0.45593999997E+02  0.45594000000E+02  0.51100000000E-03 0. -1.
    9900012    2    1    2    0    0  0.25612316371E+01  0.23860963324E+02 -0.20995371285E+02  0.59302092554E+02  0.50000270875E+02 0.  0.
        -12    1    1    2    0    0 -0.25612316371E+01 -0.23860963324E+02  0.20995371285E+02  0.31885907446E+02  0.00000000000E+00 0.  1.
         11    1    3    3    0    0  0.13256411129E+02  0.16602046382E+01 -0.16722104966E+02  0.21403679829E+02  0.51100000000E-03 0. -1.
        -11    1    3    3    0    0  0.16951414698E+01  0.16179127647E+01  0.97859157384E+01  0.10062568927E+02  0.51100000000E-03 0.  1.
        -12    1    3    3    0    0 -0.12390320962E+02  0.20582845922E+02 -0.14059182058E+02  0.27835843798E+02  0.00000000000E+00 0.  1.
</event>
<event>
 7    1  0.3755162E-013  0.5930195E+02  0.7816164E-02  0.1266605E+00
        -11   -1    0    0    0    0  0.00000000000E+00  0.00000000000E+00  0.45593999997E+02  0.45594000000E+02  0.51100000000E-03 0. -1.
         11   -1    0    0    0    0 -0.00000000000E+00 -0.00000000000E+00 -0.45593999997E+02  0.45594000000E+02  0.51100000000E-03 0.  1.
    9900012    2    1    2    0    0 -0.19383906564E+02 -0.75124610631E+01  0.24177418588E+02  0.59301945454E+02  0.50000002602E+02 0.  0.
        -12    1    1    2    0    0  0.19383906564E+02  0.75124610631E+01 -0.24177418588E+02  0.31886054546E+02  0.00000000000E+00 0.  1.
         11    1    3    3    0    0 -0.24118124097E+02  0.51151006864E+01  0.14838455146E+02  0.28775474216E+02  0.51100000000E-03 0. -1.
        -11    1    3    3    0    0  0.61573638497E+01  0.70115687809E+01  0.37629048272E+01  0.10061544581E+02  0.51100000000E-03 0.  1.
         12    1    3    3    0    0 -0.14231463162E+01 -0.19639130530E+02  0.55760586156E+01  0.20464926658E+02  0.00000000000E+00 0. -1.
</event>
<event>
 7    1  0.3755162E-013  0.5930193E+02  0.7816164E-02  0.1266605E+00
        -11   -1    0    0    0    0  0.00000000000E+00  0.00000000000E+00  0.45593999997E+02  0.45594000000E+02  0.51100000000E-03 0.  1.
         11   -1    0    0    0    0 -0.00000000000E+00 -0.00000000000E+00 -0.45593999997E+02  0.45594000000E+02  0.51100000000E-03 0. -1.
    9900012    2    1    2    0    0  0.18337336896E+02  0.23600049157E+02 -0.11113097199E+02  0.59301934485E+02  0.49999982597E+02 0.  0.
        -12    1    1    2    0    0 -0.18337336896E+02 -0.23600049157E+02  0.11113097199E+02  0.31886065515E+02  0.00000000000E+00 0.  1.
         11    1    3    3    0    0 -0.97921255245E+01  0.23365896613E+01  0.90631381223E+01  0.13545694756E+02  0.51100000000E-03 0. -1.
        -11    1    3    3    0    0  0.22137172566E+02  0.49109818994E+01 -0.64309489887E+01  0.23569668169E+02  0.51100000000E-03 0.  1.
         12    1    3    3    0    0  0.59922898539E+01  0.16352477597E+02 -0.13745286332E+02  0.22186571560E+02  0.00000000000E+00 0. -1.
</event>
<event>
 7    1  0.3755162E-013  0.5930198E+02  0.7816164E-02  0.1266605E+00
        -11   -1    0    0    0    0  0.00000000000E+00  0.00000000000E+00  0.45593999997E+02  0.45594000000E+02  0.51100000000E-03 0.  1.
         11   -1    0    0    0    0 -0.00000000000E+00 -0.00000000000E+00 -0.45593999997E+02  0.45594000000E+02  0.51100000000E-03 0. -1.
    9900012    2    1    2    0    0  0.17803938069E+02 -0.10629223139E+01 -0.26431199198E+02  0.59301979464E+02  0.50000064627E+02 0.  0.
        -12    1    1    2    0    0 -0.17803938069E+02  0.10629223139E+01  0.26431199198E+02  0.31886020536E+02  0.00000000000E+00 0.  1.
         11    1    3    3    0    0  0.13175577185E+02  0.82851490434E+01 -0.26460035125E+02  0.30698094206E+02  0.51100000000E-03 0. -1.
        -11    1    3    3    0    0 -0.39863382742E+00  0.15027878005E+01 -0.11729899772E+02  0.11832490398E+02  0.51100000000E-03 0.  1.
        -12    1    3    3    0    0  0.50269947110E+01 -0.10850859158E+02  0.11758735699E+02  0.16771394859E+02  0.00000000000E+00 0.  1.
</event>
<event>
 7    1  0.3755162E-013  0.5930194E+02  0.7816164E-02  0.1266605E+00
        -11   -1    0    0    0    0  0.00000000000E+00  0.00000000000E+00  0.45593999997E+02  0.45594000000E+02  0.51100000000E-03 0. -1.
         11   -1    0    0    0    0 -0.00000000000E+00 -0.00000000000E+00 -0.45593999997E+02  0.45594000000E+02  0.51100000000E-03 0.  1.
    9900012    2    1    2    0    0  0.11264280200E+02 -0.21171842584E+02  0.21014044765E+02  0.59301937148E+02  0.49999987453E+02 0.  0.
        -12    1    1    2    0    0 -0.11264280200E+02  0.21171842584E+02 -0.21014044765E+02  0.31886062852E+02  0.00000000000E+00 0.  1.
         11    1    3    3    0    0 -0.13049137879E+01  0.73018841845E+01  0.84205491781E+01  0.11221673733E+02  0.51100000000E-03 0. -1.
        -11    1    3    3    0    0  0.27045481043E+01  0.78048661251E+01 -0.48538783862E+00  0.82744254964E+01  0.51100000000E-03 0.  1.
         12    1    3    3    0    0  0.98646458832E+01 -0.36278592894E+02  0.13078883425E+02  0.39805837919E+02  0.00000000000E+00 0. -1.
</event>
<event>
 7    1  0.3755162E-013  0.5930197E+02  0.7816164E-02  0.1266605E+00
        -11   -1    0    0    0    0  0.00000000000E+00  0.00000000000E+00  0.45593999997E+02  0.45594000000E+02  0.51100000000E-03 0.  1.
         11   -1    0    0    0    0 -0.00000000000E+00 -0.00000000000E+00 -0.45593999997E+02  0.45594000000E+02  0.51100000000E-03 0. -1.
    9900012    2    1    2    0    0 -0.17787559653E+02  0.21371715446E+02 -0.15606779533E+02  0.59301967526E+02  0.50000042856E+02 0.  0.
        -12    1    1    2    0    0  0.17787559653E+02 -0.21371715446E+02  0.15606779533E+02  0.31886032474E+02  0.00000000000E+00 0.  1.
         11    1    3    3    0    0  0.11958862907E+02  0.50769851834E+01 -0.17258994368E+02  0.21602385689E+02  0.51100000000E-03 0. -1.
        -11    1    3    3    0    0 -0.49939885975E+01 -0.19757910600E+01 -0.36326401342E+01  0.64838065233E+01  0.51100000000E-03 0.  1.
         12    1    3    3    0    0 -0.24752433962E+02  0.18270521323E+02  0.52848549695E+01  0.31215775315E+02  0.00000000000E+00 0. -1.
</event>
<event>
 7    1  0.3755162E-013  0.5930213E+02  0.7816164E-02  0.1266604E+00
        -11   -1    0    0    0    0  0.00000000000E+00  0.00000000000E+00  0.45593999997E+02  0.45594000000E+02  0.51100000000E-03 0. -1.
         11   -1    0    0    0    0 -0.00000000000E+00 -0.00000000000E+00 -0.45593999997E+02  0.45594000000E+02  0.51100000000E-03 0.  1.
    9900012    2    1    2    0    0 -0.22433158673E+02  0.15368890965E+02  0.16651095681E+02  0.59302134716E+02  0.50000347768E+02 0.  0.
        -12    1    1    2    0    0  0.22433158673E+02 -0.15368890965E+02 -0.16651095681E+02  0.31885865284E+02  0.00000000000E+00 0.  1.
         11    1    3    3    0    0  0.11870440948E+02  0.42706951269E+01  0.61321858289E+01  0.14026756876E+02  0.51100000000E-03 0.  1.
        -11    1    3    3    0    0 -0.13065449526E+01  0.10202039496E+02 -0.95322697560E+00  0.10329439071E+02  0.51100000000E-03 0. -1.
        -12    1    3    3    0    0 -0.32997054669E+02  0.89615634163E+00  0.11472136828E+02  0.34945938768E+02  0.00000000000E+00 0.  1.
</event>
<event>
 7    1  0.3755162E-013  0.5930193E+02  0.7816164E-02  0.1266605E+00
        -11   -1    0    0    0    0  0.00000000000E+00  0.00000000000E+00  0.45593999997E+02  0.45594000000E+02  0.51100000000E-03 0. -1.
         11   -1    0    0    0    0 -0.00000000000E+00 -0.00000000000E+00 -0.45593999997E+02  0.45594000000E+02  0.51100000000E-03 0.  1.
    9900012    2    1    2    0    0  0.94037897193E+01  0.25697205524E+02  0.16368983921E+02  0.59301933021E+02  0.49999979926E+02 0.  0.
        -12    1    1    2    0    0 -0.94037897193E+01 -0.25697205524E+02 -0.16368983921E+02  0.31886066979E+02  0.00000000000E+00 0.  1.
         11    1    3    3    0    0 -0.24680033123E-01  0.20381740427E+02  0.16361459371E+02  0.26136436348E+02  0.51100000000E-03 0. -1.
        -11    1    3    3    0    0  0.51818084392E+01 -0.31895670462E+01  0.14561643936E+02  0.15781823438E+02  0.51100000000E-03 0.  1.
        -12    1    3    3    0    0  0.42466613132E+01  0.85050321429E+01 -0.14554119386E+02  0.17383673235E+02  0.00000000000E+00 0.  1.
</event>
<event>
 7    1  0.3755162E-013  0.5930194E+02  0.7816164E-02  0.1266605E+00
        -11   -1    0    0    0    0  0.00000000000E+00  0.00000000000E+00  0.45593999997E+02  0.45594000000E+02  0.51100000000E-03 0.  1.
         11   -1    0    0    0    0 -0.00000000000E+00 -0.00000000000E+00 -0.45593999997E+02  0.45594000000E+02  0.51100000000E-03 0. -1.
    9900012    2    1    2    0    0  0.15314609345E+02  0.24482874655E+01 -0.27860172260E+02  0.59301943968E+02  0.49999999891E+02 0.  0.
        -12    1    1    2    0    0 -0.15314609345E+02 -0.24482874655E+01  0.27860172260E+02  0.31886056032E+02  0.00000000000E+00 0.  1.
         11    1    3    3    0    0  0.25717682911E+02 -0.72281914253E-01 -0.14450222150E+02  0.29499378967E+02  0.51100000000E-03 0. -1.
        -11    1    3    3    0    0  0.20564769951E+01 -0.48911194403E+01 -0.14325300097E+02  0.15276333661E+02  0.51100000000E-03 0.  1.
        -12    1    3    3    0    0 -0.12459550561E+02  0.74116888200E+01  0.91534998587E+00  0.14526231340E+02  0.00000000000E+00 0.  1.
</event>
<event>
 7    1  0.3755162E-013  0.5930195E+02  0.7816164E-02  0.1266605E+00
        -11   -1    0    0    0    0  0.00000000000E+00  0.00000000000E+00  0.45593999997E+02  0.45594000000E+02  0.51100000000E-03 0.  1.
         11   -1    0    0    0    0 -0.00000000000E+00 -0.00000000000E+00 -0.45593999997E+02  0.45594000000E+02  0.51100000000E-03 0. -1.
    9900012    2    1    2    0    0  0.20418124933E+02 -0.16624906718E+02 -0.17984240458E+02  0.59301948912E+02  0.50000008907E+02 0.  0.
        -12    1    1    2    0    0 -0.20418124933E+02  0.16624906718E+02  0.17984240458E+02  0.31886051088E+02  0.00000000000E+00 0.  1.
         11    1    3    3    0    0  0.14745274390E+01 -0.75531517964E+01  0.76796170873E+01  0.10872021528E+02  0.51100000000E-03 0. -1.
        -11    1    3    3    0    0  0.56175577188E+01 -0.68639619184E+01  0.81328278408E+01  0.12033861263E+02  0.51100000000E-03 0.  1.
         12    1    3    3    0    0  0.13326039775E+02 -0.22077930036E+01 -0.33796685386E+02  0.36396066121E+02  0.00000000000E+00 0. -1.
</event>
<event>
 7    1  0.3755162E-013  0.5930195E+02  0.7816164E-02  0.1266605E+00
        -11   -1    0    0    0    0  0.00000000000E+00  0.00000000000E+00  0.45593999997E+02  0.45594000000E+02  0.51100000000E-03 0.  1.
         11   -1    0    0    0    0 -0.00000000000E+00 -0.00000000000E+00 -0.45593999997E+02  0.45594000000E+02  0.51100000000E-03 0. -1.
    9900012    2    1    2    0    0 -0.24219452545E+02 -0.71842256129E+00 -0.20727333751E+02  0.59301946983E+02  0.50000005390E+02 0.  0.
        -12    1    1    2    0    0  0.24219452545E+02  0.71842256129E+00  0.20727333751E+02  0.31886053017E+02  0.00000000000E+00 0.  1.
         11    1    3    3    0    0 -0.14811441794E+02 -0.11660777107E+02 -0.19284995517E+02  0.26967824961E+02  0.51100000000E-03 0. -1.
        -11    1    3    3    0    0 -0.87039554184E+01 -0.80503595992E+01 -0.52236854368E+01  0.12955848849E+02  0.51100000000E-03 0.  1.
         12    1    3    3    0    0 -0.70405533278E+00  0.18992714145E+02  0.37813472022E+01  0.19378273173E+02  0.00000000000E+00 0. -1.
</event>
<event>
 7    1  0.3755162E-013  0.5930195E+02  0.7816164E-02  0.1266605E+00
        -11   -1    0    0    0    0  0.00000000000E+00  0.00000000000E+00  0.45593999997E+02  0.45594000000E+02  0.51100000000E-03 0. -1.
         11   -1    0    0    0    0 -0.00000000000E+00 -0.00000000000E+00 -0.45593999997E+02  0.45594000000E+02  0.51100000000E-03 0.  1.
    9900012    2    1    2    0    0 -0.23793602409E+02  0.18588742781E+02  0.10249079270E+02  0.59301945060E+02  0.50000001883E+02 0.  0.
        -12    1    1    2    0    0  0.23793602409E+02 -0.18588742781E+02 -0.10249079270E+02  0.31886054940E+02  0.00000000000E+00 0.  1.
         11    1    3    3    0    0  0.57526985853E+01  0.12908474468E+00 -0.47096564281E+01  0.74357963808E+01  0.51100000000E-03 0.  1.
        -11    1    3    3    0    0 -0.17319991090E+02  0.28808116524E+02  0.10976996659E+02  0.35360770989E+02  0.51100000000E-03 0. -1.
         12    1    3    3    0    0 -0.12226309903E+02 -0.10348458488E+02  0.39817390382E+01  0.16505377690E+02  0.00000000000E+00 0. -1.
</event>
<event>
 7    1  0.3755162E-013  0.5930193E+02  0.7816164E-02  0.1266605E+00
        -11   -1    0    0    0    0  0.00000000000E+00  0.00000000000E+00  0.45593999997E+02  0.45594000000E+02  0.51100000000E-03 0. -1.
         11   -1    0    0    0    0 -0.00000000000E+00 -0.00000000000E+00 -0.45593999997E+02  0.45594000000E+02  0.51100000000E-03 0.  1.
    9900012    2    1    2    0    0  0.23194923017E+02  0.15913894590E+01  0.21821647250E+02  0.59301933091E+02  0.49999980055E+02 0.  0.
        -12    1    1    2    0    0 -0.23194923017E+02 -0.15913894590E+01 -0.21821647250E+02  0.31886066909E+02  0.00000000000E+00 0.  1.
         11    1    3    3    0    0  0.34933707666E+00  0.74963140947E+01 -0.74889114734E+01  0.10601912880E+02  0.51100000000E-03 0. -1.
        -11    1    3    3    0    0 -0.13979730337E+01  0.11800187990E+01 -0.54404605810E+01  0.57398070145E+01  0.51100000000E-03 0.  1.
         12    1    3    3    0    0  0.24243558974E+02 -0.70849434347E+01  0.34751019305E+02  0.42960213197E+02  0.00000000000E+00 0. -1.
</event>
<event>
 7    1  0.3755162E-013  0.5930194E+02  0.7816164E-02  0.1266605E+00
        -11   -1    0    0    0    0  0.00000000000E+00  0.00000000000E+00  0.45593999997E+02  0.45594000000E+02  0.51100000000E-03 0.  1.
         11   -1    0    0    0    0 -0.00000000000E+00 -0.00000000000E+00 -0.45593999997E+02  0.45594000000E+02  0.51100000000E-03 0. -1.
    9900012    2    1    2    0    0 -0.49705562777E+01 -0.21158554724E+02 -0.23330879561E+02  0.59301940212E+02  0.49999993041E+02 0.  0.
        -12    1    1    2    0    0  0.49705562777E+01  0.21158554724E+02  0.23330879561E+02  0.31886059788E+02  0.00000000000E+00 0.  1.
         11    1    3    3    0    0  0.85577245285E+01 -0.93545025079E+01 -0.52081971917E+01  0.13706446823E+02  0.51100000000E-03 0. -1.
        -11    1    3    3    0    0  0.18971221091E+01  0.12637976148E+02 -0.74038768843E+01  0.14769390867E+02  0.51100000000E-03 0.  1.
         12    1    3    3    0    0 -0.15425402915E+02 -0.24442028363E+02 -0.10718805485E+02  0.30826102521E+02  0.00000000000E+00 0. -1.
</event>
<event>
 7    1  0.3755162E-013  0.5930194E+02  0.7816164E-02  0.1266605E+00
        -11   -1    0    0    0    0  0.00000000000E+00  0.00000000000E+00  0.45593999997E+02  0.45594000000E+02  0.51100000000E-03 0. -1.
         11   -1    0    0    0    0 -0.00000000000E+00 -0.00000000000E+00 -0.45593999997E+02  0.45594000000E+02  0.51100000000E-03 0.  1.
    9900012    2    1    2    0    0  0.16384894466E+02  0.77140501217E+01  0.26244038467E+02  0.59301938923E+02  0.49999990690E+02 0.  0.
        -12    1    1    2    0    0 -0.16384894466E+02 -0.77140501217E+01 -0.26244038467E+02  0.31886061077E+02  0.00000000000E+00 0.  1.
         11    1    3    3    0    0 -0.22700147725E+01 -0.11066459216E+02  0.25805299028E+02  0.28169716804E+02  0.51100000000E-03 0. -1.
        -11    1    3    3    0    0 -0.62976955031E+00  0.14670861987E+01  0.46134180619E+01  0.48818621525E+01  0.51100000000E-03 0.  1.
        -12    1    3    3    0    0  0.19284678789E+02  0.17313423139E+02 -0.41746786229E+01  0.26250359966E+02  0.00000000000E+00 0.  1.
</event>
<event>
 7    1  0.3755162E-013  0.5930194E+02  0.7816164E-02  0.1266605E+00
        -11   -1    0    0    0    0  0.00000000000E+00  0.00000000000E+00  0.45593999997E+02  0.45594000000E+02  0.51100000000E-03 0.  1.
         11   -1    0    0    0    0 -0.00000000000E+00 -0.00000000000E+00 -0.45593999997E+02  0.45594000000E+02  0.51100000000E-03 0. -1.
    9900012    2    1    2    0    0  0.31366320776E+02 -0.54886892254E+01 -0.16580541692E+01  0.59301938279E+02  0.49999989516E+02 0.  0.
        -12    1    1    2    0    0 -0.31366320776E+02  0.54886892254E+01  0.16580541692E+01  0.31886061721E+02  0.00000000000E+00 0.  1.
         11    1    3    3    0    0  0.11478413547E+02  0.84901287370E+00 -0.61011875117E+01  0.13026867994E+02  0.51100000000E-03 0. -1.
        -11    1    3    3    0    0  0.21465738315E+01 -0.20613888438E+02  0.97326139096E+01  0.22896810903E+02  0.51100000000E-03 0.  1.
         12    1    3    3    0    0  0.17741333397E+02  0.14276186339E+02 -0.52894805671E+01  0.23378259382E+02  0.00000000000E+00 0. -1.
</event>
<event>
 7    1  0.3755162E-013  0.5930193E+02  0.7816164E-02  0.1266605E+00
        -11   -1    0    0    0    0  0.00000000000E+00  0.00000000000E+00  0.45593999997E+02  0.45594000000E+02  0.51100000000E-03 0. -1.
         11   -1    0    0    0    0 -0.00000000000E+00 -0.00000000000E+00 -0.45593999997E+02  0.45594000000E+02  0.51100000000E-03 0.  1.
    9900012    2    1    2    0    0 -0.29986558394E+02 -0.10724988121E+02 -0.15818258559E+01  0.59301933645E+02  0.49999981065E+02 0.  0.
        -12    1    1    2    0    0  0.29986558394E+02  0.10724988121E+02  0.15818258559E+01  0.31886066355E+02  0.00000000000E+00 0.  1.
         11    1    3    3    0    0 -0.19071137790E+01 -0.89298035561E+01 -0.34519501436E+01  0.97618868346E+01  0.51100000000E-03 0.  1.
        -11    1    3    3    0    0 -0.36522298747E+01 -0.11662358685E+02 -0.14157734493E+02  0.18702696046E+02  0.51100000000E-03 0. -1.
         12    1    3    3    0    0 -0.24427214741E+02  0.98671741203E+01  0.16027858781E+02  0.30837350765E+02  0.00000000000E+00 0. -1.
</event>
<event>
 7    1  0.3755162E-013  0.5930194E+02  0.7816164E-02  0.1266605E+00
        -11   -1    0    0    0    0  0.00000000000E+00  0.00000000000E+00  0.45593999997E+02  0.45594000000E+02  0.51100000000E-03 0.  1.
         11   -1    0    0    0    0 -0.00000000000E+00 -0.00000000000E+00 -0.45593999997E+02  0.45594000000E+02  0.51100000000E-03 0. -1.
    9900012    2    1    2    0    0  0.10483782987E+02  0.19075128930E+02 -0.23301299998E+02  0.59301939864E+02  0.49999992406E+02 0.  0.
        -12    1    1    2    0    0 -0.10483782987E+02 -0.19075128930E+02  0.23301299998E+02  0.31886060136E+02  0.00000000000E+00 0.  1.
         11    1    3    3    0    0 -0.39803030294E+01 -0.19663968878E+01 -0.10258847368E+02  0.11178259190E+02  0.51100000000E-03 0. -1.
        -11    1    3    3    0    0  0.25411734125E+01  0.22086488851E+02  0.82371954594E+01  0.23709110936E+02  0.51100000000E-03 0.  1.
         12    1    3    3    0    0  0.11922912604E+02 -0.10449630330E+01 -0.21279648090E+02  0.24414569739E+02  0.00000000000E+00 0. -1.
</event>
<event>
 7    1  0.3755162E-013  0.5930194E+02  0.7816164E-02  0.1266605E+00
        -11   -1    0    0    0    0  0.00000000000E+00  0.00000000000E+00  0.45593999997E+02  0.45594000000E+02  0.51100000000E-03 0.  1.
         11   -1    0    0    0    0 -0.00000000000E+00 -0.00000000000E+00 -0.45593999997E+02  0.45594000000E+02  0.51100000000E-03 0. -1.
    9900012    2    1    2    0    0 -0.40221678995E+01 -0.64421353353E+01 -0.30968398309E+02  0.59301942920E+02  0.49999997980E+02 0.  0.
        -12    1    1    2    0    0  0.40221678995E+01  0.64421353353E+01  0.30968398309E+02  0.31886057080E+02  0.00000000000E+00 0.  1.
         11    1    3    3    0    0 -0.22225527762E+01 -0.33090675955E+01  0.29232496360E+01  0.49431829715E+01  0.51100000000E-03 0.  1.
        -11    1    3    3    0    0  0.97042385661E+01  0.16474650076E+02 -0.20231638983E+02  0.27837125525E+02  0.51100000000E-03 0. -1.
         12    1    3    3    0    0 -0.11503853689E+02 -0.19607717816E+02 -0.13660008961E+02  0.26521634423E+02  0.00000000000E+00 0. -1.
</event>
<event>
 7    1  0.3755162E-013  0.5930194E+02  0.7816164E-02  0.1266605E+00
        -11   -1    0    0    0    0  0.00000000000E+00  0.00000000000E+00  0.45593999997E+02  0.45594000000E+02  0.51100000000E-03 0.  1.
         11   -1    0    0    0    0 -0.00000000000E+00 -0.00000000000E+00 -0.45593999997E+02  0.45594000000E+02  0.51100000000E-03 0. -1.
    9900012    2    1    2    0    0 -0.32104248165E+01 -0.17862176839E+02 -0.26217488059E+02  0.59301939268E+02  0.49999991319E+02 0.  0.
        -12    1    1    2    0    0  0.32104248165E+01  0.17862176839E+02  0.26217488059E+02  0.31886060732E+02  0.00000000000E+00 0.  1.
         11    1    3    3    0    0  0.31853681021E+01 -0.18433425335E+02 -0.10352102544E+02  0.21379985194E+02  0.51100000000E-03 0. -1.
        -11    1    3    3    0    0  0.67186156454E+01  0.80368641080E+01  0.54478959985E+01  0.11807224566E+02  0.51100000000E-03 0.  1.
         12    1    3    3    0    0 -0.13114408564E+02 -0.74656156115E+01 -0.21313281513E+02  0.26114729508E+02  0.00000000000E+00 0. -1.
</event>
<event>
 7    1  0.3755162E-013  0.5930192E+02  0.7816164E-02  0.1266605E+00
        -11   -1    0    0    0    0  0.00000000000E+00  0.00000000000E+00  0.45593999997E+02  0.45594000000E+02  0.51100000000E-03 0. -1.
         11   -1    0    0    0    0 -0.00000000000E+00 -0.00000000000E+00 -0.45593999997E+02  0.45594000000E+02  0.51100000000E-03 0.  1.
    9900012    2    1    2    0    0 -0.60061148910E+01  0.31277696344E+02 -0.15344295214E+01  0.59301918732E+02  0.49999953867E+02 0.  0.
        -12    1    1    2    0    0  0.60061148910E+01 -0.31277696344E+02  0.15344295214E+01  0.31886081268E+02  0.00000000000E+00 0.  1.
         11    1    3    3    0    0 -0.33025481031E+01  0.44293301349E+01 -0.67295159267E+01  0.87070186796E+01  0.51100000000E-03 0. -1.
        -11    1    3    3    0    0 -0.15018835903E+02  0.60063698509E+01 -0.12638003466E+02  0.20527080712E+02  0.51100000000E-03 0.  1.
         12    1    3    3    0    0  0.12315269115E+02  0.20841996358E+02  0.17833089871E+02  0.30067819341E+02  0.00000000000E+00 0. -1.
</event>
<event>
 7    1  0.3755162E-013  0.5930194E+02  0.7816164E-02  0.1266605E+00
        -11   -1    0    0    0    0  0.00000000000E+00  0.00000000000E+00  0.45593999997E+02  0.45594000000E+02  0.51100000000E-03 0. -1.
         11   -1    0    0    0    0 -0.00000000000E+00 -0.00000000000E+00 -0.45593999997E+02  0.45594000000E+02  0.51100000000E-03 0.  1.
    9900012    2    1    2    0    0  0.28918326029E+02 -0.74599337044E+01 -0.11171423990E+02  0.59301938701E+02  0.49999990285E+02 0.  0.
        -12    1    1    2    0    0 -0.28918326029E+02  0.74599337044E+01  0.11171423990E+02  0.31886061299E+02  0.00000000000E+00 0.  1.
         11    1    3    3    0    0  0.23183623571E+02  0.44076948897E+01  0.36296287665E+01  0.23876397998E+02  0.51100000000E-03 0. -1.
        -11    1    3    3    0    0  0.15767247295E+02 -0.15946212062E+01 -0.13829683845E+02  0.21033522281E+02  0.51100000000E-03 0.  1.
        -12    1    3    3    0    0 -0.10032544836E+02 -0.10273007388E+02 -0.97136891159E+00  0.14392018422E+02  0.00000000000E+00 0.  1.
</event>
<event>
 7    1  0.3755162E-013  0.5930194E+02  0.7816164E-02  0.1266605E+00
        -11   -1    0    0    0    0  0.00000000000E+00  0.00000000000E+00  0.45593999997E+02  0.45594000000E+02  0.51100000000E-03 0.  1.
         11   -1    0    0    0    0 -0.00000000000E+00 -0.00000000000E+00 -0.45593999997E+02  0.45594000000E+02  0.51100000000E-03 0. -1.
    9900012    2    1    2    0    0  0.68886509767E+01  0.15514643258E+02 -0.26991905665E+02  0.59301942873E+02  0.49999997894E+02 0.  0.
        -12    1    1    2    0    0 -0.68886509767E+01 -0.15514643258E+02  0.26991905665E+02  0.31886057127E+02  0.00000000000E+00 0.  1.
         11    1    3    3    0    0 -0.15262757979E+01  0.13792774487E+02 -0.61578822414E+01  0.15181885911E+02  0.51100000000E-03 0. -1.
        -11    1    3    3    0    0 -0.11800104233E+02 -0.11024520574E+01  0.35013638716E+01  0.12357888560E+02  0.51100000000E-03 0.  1.
        -12    1    3    3    0    0  0.20215031008E+02  0.28243208280E+01 -0.24335387295E+02  0.31762168402E+02  0.00000000000E+00 0.  1.
</event>
<event>
 7    1  0.3755162E-013  0.5930192E+02  0.7816164E-02  0.1266605E+00
        -11   -1    0    0    0    0  0.00000000000E+00  0.00000000000E+00  0.45593999997E+02  0.45594000000E+02  0.51100000000E-03 0.  1.
         11   -1    0    0    0    0 -0.00000000000E+00 -0.00000000000E+00 -0.45593999997E+02  0.45594000000E+02  0.51100000000E-03 0. -1.
    9900012    2    1    2    0    0  0.93498799669E+01  0.88773777559E+01 -0.29163232350E+02  0.59301918204E+02  0.49999952904E+02 0.  0.
        -12    1    1    2    0    0 -0.93498799669E+01 -0.88773777559E+01  0.29163232350E+02  0.31886081796E+02  0.00000000000E+00 0.  1.
         11    1    3    3    0    0 -0.48162648499E+01 -0.72816067543E+01 -0.19811032115E+02  0.21649369454E+02  0.51100000000E-03 0. -1.
        -11    1    3    3    0    0 -0.76472979640E+01  0.11181262657E+02 -0.39505948967E+00  0.13552043130E+02  0.51100000000E-03 0.  1.
         12    1    3    3    0    0  0.21813442781E+02  0.49777218536E+01 -0.89571407450E+01  0.24100505620E+02  0.00000000000E+00 0. -1.
</event>
<event>
 7    1  0.3755162E-013  0.5930194E+02  0.7816164E-02  0.1266605E+00
        -11   -1    0    0    0    0  0.00000000000E+00  0.00000000000E+00  0.45593999997E+02  0.45594000000E+02  0.51100000000E-03 0. -1.
         11   -1    0    0    0    0 -0.00000000000E+00 -0.00000000000E+00 -0.45593999997E+02  0.45594000000E+02  0.51100000000E-03 0.  1.
    9900012    2    1    2    0    0 -0.28318352634E+02 -0.11854472239E+02  0.86176068097E+01  0.59301941054E+02  0.49999994577E+02 0.  0.
        -12    1    1    2    0    0  0.28318352634E+02  0.11854472239E+02 -0.86176068097E+01  0.31886058946E+02  0.00000000000E+00 0.  1.
         11    1    3    3    0    0  0.81089781616E-01 -0.89325188915E+01  0.94368347758E+01  0.12994241807E+02  0.51100000000E-03 0. -1.
        -11    1    3    3    0    0  0.16371834214E+01 -0.32892759809E+01  0.12806352728E+02  0.13323001782E+02  0.51100000000E-03 0.  1.
        -12    1    3    3    0    0 -0.30036625837E+02  0.36732263380E+00 -0.13625580694E+02  0.32984697465E+02  0.00000000000E+00 0.  1.
</event>
<event>
 7    1  0.3755162E-013  0.5930195E+02  0.7816164E-02  0.1266605E+00
        -11   -1    0    0    0    0  0.00000000000E+00  0.00000000000E+00  0.45593999997E+02  0.45594000000E+02  0.51100000000E-03 0.  1.
         11   -1    0    0    0    0 -0.00000000000E+00 -0.00000000000E+00 -0.45593999997E+02  0.45594000000E+02  0.51100000000E-03 0. -1.
    9900012    2    1    2    0    0 -0.13393628745E+02  0.28744791195E+02 -0.33268864995E+01  0.59301945280E+02  0.50000002284E+02 0.  0.
        -12    1    1    2    0    0  0.13393628745E+02 -0.28744791195E+02  0.33268864995E+01  0.31886054720E+02  0.00000000000E+00 0.  1.
         11    1    3    3    0    0 -0.14689850594E+01  0.79262352957E+01  0.38407865153E+01  0.89294324783E+01  0.51100000000E-03 0. -1.
        -11    1    3    3    0    0 -0.19697684853E+02  0.17255044401E+02  0.12432727778E+02  0.28988067651E+02  0.51100000000E-03 0.  1.
        -12    1    3    3    0    0  0.77730411672E+01  0.35635114984E+01 -0.19600400793E+02  0.21384445151E+02  0.00000000000E+00 0.  1.
</event>
<event>
 7    1  0.3755162E-013  0.5930191E+02  0.7816164E-02  0.1266605E+00
        -11   -1    0    0    0    0  0.00000000000E+00  0.00000000000E+00  0.45593999997E+02  0.45594000000E+02  0.51100000000E-03 0.  1.
         11   -1    0    0    0    0 -0.00000000000E+00 -0.00000000000E+00 -0.45593999997E+02  0.45594000000E+02  0.51100000000E-03 0. -1.
    9900012    2    1    2    0    0  0.26988992388E+02  0.16603608838E+02  0.35548514524E+01  0.59301913608E+02  0.49999944522E+02 0.  0.
        -12    1    1    2    0    0 -0.26988992388E+02 -0.16603608838E+02 -0.35548514524E+01  0.31886086392E+02  0.00000000000E+00 0.  1.
         11    1    3    3    0    0  0.17421387555E+02 -0.17145412424E+00 -0.34697325026E+01  0.17764379662E+02  0.51100000000E-03 0. -1.
        -11    1    3    3    0    0  0.12346756732E+02 -0.68011127057E+01  0.10457016406E+02  0.17551260018E+02  0.51100000000E-03 0.  1.
         12    1    3    3    0    0 -0.27791518995E+01  0.23576175668E+02 -0.34324324515E+01  0.23986273928E+02  0.00000000000E+00 0. -1.
</event>
<event>
 7    1  0.3755162E-013  0.5930214E+02  0.7816164E-02  0.1266604E+00
        -11   -1    0    0    0    0  0.00000000000E+00  0.00000000000E+00  0.45593999997E+02  0.45594000000E+02  0.51100000000E-03 0. -1.
         11   -1    0    0    0    0 -0.00000000000E+00 -0.00000000000E+00 -0.45593999997E+02  0.45594000000E+02  0.51100000000E-03 0.  1.
    9900012    2    1    2    0    0  0.73620276214E+01 -0.17663310073E+02  0.25505213795E+02  0.59302142568E+02  0.50000362089E+02 0.  0.
        -12    1    1    2    0    0 -0.73620276214E+01  0.17663310073E+02 -0.25505213795E+02  0.31885857432E+02  0.00000000000E+00 0.  1.
         11    1    3    3    0    0 -0.38807782870E+01 -0.14464060449E+02 -0.58048043243E+01  0.16061296283E+02  0.51100000000E-03 0. -1.
        -11    1    3    3    0    0  0.31600216037E+01 -0.32694488600E+01 -0.45788517030E+01  0.64529772635E+01  0.51100000000E-03 0.  1.
         12    1    3    3    0    0  0.80827843046E+01  0.70199236402E-01  0.35888869822E+02  0.36787869022E+02  0.00000000000E+00 0. -1.
</event>
<event>
 7    1  0.3755162E-013  0.5930188E+02  0.7816164E-02  0.1266605E+00
        -11   -1    0    0    0    0  0.00000000000E+00  0.00000000000E+00  0.45593999997E+02  0.45594000000E+02  0.51100000000E-03 0. -1.
         11   -1    0    0    0    0 -0.00000000000E+00 -0.00000000000E+00 -0.45593999997E+02  0.45594000000E+02  0.51100000000E-03 0.  1.
    9900012    2    1    2    0    0  0.21080511844E+02  0.22945139546E+02 -0.67718165710E+01  0.59301875932E+02  0.49999875810E+02 0.  0.
        -12    1    1    2    0    0 -0.21080511844E+02 -0.22945139546E+02  0.67718165710E+01  0.31886124068E+02  0.00000000000E+00 0.  1.
         11    1    3    3    0    0  0.21729711247E+02  0.24163984690E+02 -0.18647171833E+01  0.32550816847E+02  0.51100000000E-03 0. -1.
        -11    1    3    3    0    0  0.12851862600E+01 -0.59847978159E-01  0.10803302507E+02  0.10879642955E+02  0.51100000000E-03 0.  1.
        -12    1    3    3    0    0 -0.19343856631E+01 -0.11589971653E+01 -0.15710401895E+02  0.15871416131E+02  0.00000000000E+00 0.  1.
</event>
<event>
 7    1  0.3755162E-013  0.5930194E+02  0.7816164E-02  0.1266605E+00
        -11   -1    0    0    0    0  0.00000000000E+00  0.00000000000E+00  0.45593999997E+02  0.45594000000E+02  0.51100000000E-03 0. -1.
         11   -1    0    0    0    0 -0.00000000000E+00 -0.00000000000E+00 -0.45593999997E+02  0.45594000000E+02  0.51100000000E-03 0.  1.
    9900012    2    1    2    0    0 -0.53776690358E+01  0.22199501782E+01  0.31350807989E+02  0.59301942473E+02  0.49999997164E+02 0.  0.
        -12    1    1    2    0    0  0.53776690358E+01 -0.22199501782E+01 -0.31350807989E+02  0.31886057527E+02  0.00000000000E+00 0.  1.
         11    1    3    3    0    0  0.14462077125E+01  0.10820493320E+02  0.11414898052E+02  0.15794761480E+02  0.51100000000E-03 0. -1.
        -11    1    3    3    0    0  0.12429549545E+02 -0.11874633672E+02  0.25856171569E+01  0.17383499161E+02  0.51100000000E-03 0.  1.
         12    1    3    3    0    0 -0.19253426293E+02  0.32740905305E+01  0.17350292781E+02  0.26123681831E+02  0.00000000000E+00 0. -1.
</event>
<event>
 7    1  0.3755162E-013  0.5930186E+02  0.7816164E-02  0.1266605E+00
        -11   -1    0    0    0    0  0.00000000000E+00  0.00000000000E+00  0.45593999997E+02  0.45594000000E+02  0.51100000000E-03 0. -1.
         11   -1    0    0    0    0 -0.00000000000E+00 -0.00000000000E+00 -0.45593999997E+02  0.45594000000E+02  0.51100000000E-03 0.  1.
    9900012    2    1    2    0    0  0.11871910680E+02 -0.29562005330E+02  0.13679567693E+01  0.59301863074E+02  0.49999852360E+02 0.  0.
        -12    1    1    2    0    0 -0.11871910680E+02  0.29562005330E+02 -0.13679567693E+01  0.31886136926E+02  0.00000000000E+00 0.  1.
         11    1    3    3    0    0  0.12933641361E+02 -0.22361204042E+02  0.12148243625E+02  0.28546144197E+02  0.51100000000E-03 0. -1.
        -11    1    3    3    0    0  0.77628629110E+01 -0.61961321182E+00  0.65827645041E+01  0.10196997101E+02  0.51100000000E-03 0.  1.
        -12    1    3    3    0    0 -0.88245935915E+01 -0.65811880759E+01 -0.17363051360E+02  0.20558721776E+02  0.00000000000E+00 0.  1.
</event>
<event>
 7    1  0.3755162E-013  0.5930203E+02  0.7816164E-02  0.1266604E+00
        -11   -1    0    0    0    0  0.00000000000E+00  0.00000000000E+00  0.45593999997E+02  0.45594000000E+02  0.51100000000E-03 0.  1.
         11   -1    0    0    0    0 -0.00000000000E+00 -0.00000000000E+00 -0.45593999997E+02  0.45594000000E+02  0.51100000000E-03 0. -1.
    9900012    2    1    2    0    0 -0.19506390806E+02 -0.17670825874E+02 -0.17998834027E+02  0.59302025095E+02  0.50000147846E+02 0.  0.
        -12    1    1    2    0    0  0.19506390806E+02  0.17670825874E+02  0.17998834027E+02  0.31885974905E+02  0.00000000000E+00 0.  1.
         11    1    3    3    0    0 -0.11998689146E+02 -0.21840446166E+02 -0.14160585263E+01  0.24959544306E+02  0.51100000000E-03 0. -1.
        -11    1    3    3    0    0 -0.41834419897E+01 -0.11191172011E+02 -0.14017196989E+02  0.18418070733E+02  0.51100000000E-03 0.  1.
        -12    1    3    3    0    0 -0.33242596698E+01  0.15360792303E+02 -0.25655785122E+01  0.15924410056E+02  0.00000000000E+00 0.  1.
</event>
<event>
 7    1  0.3755162E-013  0.5930170E+02  0.7816164E-02  0.1266606E+00
        -11   -1    0    0    0    0  0.00000000000E+00  0.00000000000E+00  0.45593999997E+02  0.45594000000E+02  0.51100000000E-03 0.  1.
         11   -1    0    0    0    0 -0.00000000000E+00 -0.00000000000E+00 -0.45593999997E+02  0.45594000000E+02  0.51100000000E-03 0. -1.
    9900012    2    1    2    0    0  0.56721663598E+01 -0.16068421745E+02 -0.26951221967E+02  0.59301701781E+02  0.49999558199E+02 0.  0.
        -12    1    1    2    0    0 -0.56721663598E+01  0.16068421745E+02  0.26951221967E+02  0.31886298219E+02  0.00000000000E+00 0.  1.
         11    1    3    3    0    0  0.64831831359E+01 -0.85395976893E+00 -0.78676655090E+01  0.10230399390E+02  0.51100000000E-03 0. -1.
        -11    1    3    3    0    0  0.20760706289E+02 -0.96581810287E+01 -0.87022298134E+01  0.24495227911E+02  0.51100000000E-03 0.  1.
        -12    1    3    3    0    0 -0.21571723065E+02 -0.55562809473E+01 -0.10381326644E+02  0.24576074480E+02  0.00000000000E+00 0.  1.
</event>
<event>
 7    1  0.3755162E-013  0.5930194E+02  0.7816164E-02  0.1266605E+00
        -11   -1    0    0    0    0  0.00000000000E+00  0.00000000000E+00  0.45593999997E+02  0.45594000000E+02  0.51100000000E-03 0.  1.
         11   -1    0    0    0    0 -0.00000000000E+00 -0.00000000000E+00 -0.45593999997E+02  0.45594000000E+02  0.51100000000E-03 0. -1.
    9900012    2    1    2    0    0 -0.31062106645E+02  0.67969490181E+01 -0.23807694214E+01  0.59301936458E+02  0.49999986194E+02 0.  0.
        -12    1    1    2    0    0  0.31062106645E+02 -0.67969490181E+01  0.23807694214E+01  0.31886063542E+02  0.00000000000E+00 0.  1.
         11    1    3    3    0    0 -0.29856891635E+02  0.70893502845E+01  0.41738823802E+01  0.30969568288E+02  0.51100000000E-03 0. -1.
        -11    1    3    3    0    0 -0.69156530301E+01 -0.25990412872E+01  0.89758603476E+01  0.11625288886E+02  0.51100000000E-03 0.  1.
        -12    1    3    3    0    0  0.57104380198E+01  0.23066400209E+01 -0.15530512149E+02  0.16707079283E+02  0.00000000000E+00 0.  1.
</event>
<event>
 7    1  0.3755162E-013  0.5930194E+02  0.7816164E-02  0.1266605E+00
        -11   -1    0    0    0    0  0.00000000000E+00  0.00000000000E+00  0.45593999997E+02  0.45594000000E+02  0.51100000000E-03 0.  1.
         11   -1    0    0    0    0 -0.00000000000E+00 -0.00000000000E+00 -0.45593999997E+02  0.45594000000E+02  0.51100000000E-03 0. -1.
    9900012    2    1    2    0    0 -0.20573464797E+02 -0.15308299041E+02 -0.18950177145E+02  0.59301942120E+02  0.49999996522E+02 0.  0.
        -12    1    1    2    0    0  0.20573464797E+02  0.15308299041E+02  0.18950177145E+02  0.31886057880E+02  0.00000000000E+00 0.  1.
         11    1    3    3    0    0 -0.76044934181E+01  0.24597716041E+01 -0.48767892161E+01  0.93627917744E+01  0.51100000000E-03 0. -1.
        -11    1    3    3    0    0 -0.37097363444E+01  0.66764997306E+01  0.11215224497E+02  0.13569047615E+02  0.51100000000E-03 0.  1.
        -12    1    3    3    0    0 -0.92592350341E+01 -0.24444570375E+02 -0.25288612426E+02  0.36370102731E+02  0.00000000000E+00 0.  1.
</event>
<event>
 7    1  0.3755162E-013  0.5930195E+02  0.7816164E-02  0.1266605E+00
        -11   -1    0    0    0    0  0.00000000000E+00  0.00000000000E+00  0.45593999997E+02  0.45594000000E+02  0.51100000000E-03 0. -1.
         11   -1    0    0    0    0 -0.00000000000E+00 -0.00000000000E+00 -0.45593999997E+02  0.45594000000E+02  0.51100000000E-03 0.  1.
    9900012    2    1    2    0    0  0.24548348029E+02 -0.63977547914E+01  0.19317540659E+02  0.59301952355E+02  0.50000015187E+02 0.  0.
        -12    1    1    2    0    0 -0.24548348029E+02  0.63977547914E+01 -0.19317540659E+02  0.31886047645E+02  0.00000000000E+00 0.  1.
         11    1    3    3    0    0 -0.33611488018E+00  0.64184779193E+00  0.19428570441E+02  0.19442075286E+02  0.51100000000E-03 0. -1.
        -11    1    3    3    0    0  0.43545214878E+01  0.48535795039E+01  0.11671311467E+02  0.13369315727E+02  0.51100000000E-03 0.  1.
        -12    1    3    3    0    0  0.20529941421E+02 -0.11893182087E+02 -0.11782341248E+02  0.26490561342E+02  0.00000000000E+00 0.  1.
</event>
<event>
 7    1  0.3755162E-013  0.5930194E+02  0.7816164E-02  0.1266605E+00
        -11   -1    0    0    0    0  0.00000000000E+00  0.00000000000E+00  0.45593999997E+02  0.45594000000E+02  0.51100000000E-03 0.  1.
         11   -1    0    0    0    0 -0.00000000000E+00 -0.00000000000E+00 -0.45593999997E+02  0.45594000000E+02  0.51100000000E-03 0. -1.
    9900012    2    1    2    0    0 -0.18536505144E+02 -0.16725656644E+02 -0.19833583930E+02  0.59301942473E+02  0.49999997164E+02 0.  0.
        -12    1    1    2    0    0  0.18536505144E+02  0.16725656644E+02  0.19833583930E+02  0.31886057527E+02  0.00000000000E+00 0.  1.
         11    1    3    3    0    0  0.37071651487E+01  0.48471780909E+01  0.27736560055E+01  0.67030871083E+01  0.51100000000E-03 0.  1.
        -11    1    3    3    0    0 -0.93216124614E+01  0.86876466290E+01 -0.13266287807E+02  0.18394620281E+02  0.51100000000E-03 0. -1.
        -12    1    3    3    0    0 -0.12922057831E+02 -0.30260481364E+02 -0.93409521288E+01  0.34204235083E+02  0.00000000000E+00 0.  1.
</event>
<event>
 7    1  0.3755162E-013  0.5930196E+02  0.7816164E-02  0.1266605E+00
        -11   -1    0    0    0    0  0.00000000000E+00  0.00000000000E+00  0.45593999997E+02  0.45594000000E+02  0.51100000000E-03 0.  1.
         11   -1    0    0    0    0 -0.00000000000E+00 -0.00000000000E+00 -0.45593999997E+02  0.45594000000E+02  0.51100000000E-03 0. -1.
    9900012    2    1    2    0    0  0.16565357762E+01  0.12745358393E+02 -0.29181013606E+02  0.59301955616E+02  0.50000021135E+02 0.  0.
        -12    1    1    2    0    0 -0.16565357762E+01 -0.12745358393E+02  0.29181013606E+02  0.31886044384E+02  0.00000000000E+00 0.  1.
         11    1    3    3    0    0 -0.30076900975E+01  0.21265936462E+01  0.10569194495E+02  0.11192697298E+02  0.51100000000E-03 0. -1.
        -11    1    3    3    0    0  0.34849593574E+01 -0.76747670493E+01 -0.91691165746E+01  0.12454705537E+02  0.51100000000E-03 0.  1.
         12    1    3    3    0    0  0.11792665163E+01  0.18293531796E+02 -0.30581091527E+02  0.35654552782E+02  0.00000000000E+00 0. -1.
</event>
<event>
 7    1  0.3755162E-013  0.5930224E+02  0.7816164E-02  0.1266604E+00
        -11   -1    0    0    0    0  0.00000000000E+00  0.00000000000E+00  0.45593999997E+02  0.45594000000E+02  0.51100000000E-03 0.  1.
         11   -1    0    0    0    0 -0.00000000000E+00 -0.00000000000E+00 -0.45593999997E+02  0.45594000000E+02  0.51100000000E-03 0. -1.
    9900012    2    1    2    0    0  0.59436028890E+01  0.73632414390E+01 -0.30449269475E+02  0.59302239050E+02  0.50000538047E+02 0.  0.
        -12    1    1    2    0    0 -0.59436028890E+01 -0.73632414390E+01  0.30449269475E+02  0.31885760950E+02  0.00000000000E+00 0.  1.
         11    1    3    3    0    0 -0.13925618901E+02 -0.54303479918E+00 -0.73148298387E+01  0.15739265688E+02  0.51100000000E-03 0. -1.
        -11    1    3    3    0    0  0.13088197399E+02 -0.61609939635E+01  0.13432760778E+01  0.14528012550E+02  0.51100000000E-03 0.  1.
         12    1    3    3    0    0  0.67810243917E+01  0.14067270202E+02 -0.24477715714E+02  0.29034960811E+02  0.00000000000E+00 0. -1.
</event>
<event>
 7    1  0.3755162E-013  0.5930193E+02  0.7816164E-02  0.1266605E+00
        -11   -1    0    0    0    0  0.00000000000E+00  0.00000000000E+00  0.45593999997E+02  0.45594000000E+02  0.51100000000E-03 0. -1.
         11   -1    0    0    0    0 -0.00000000000E+00 -0.00000000000E+00 -0.45593999997E+02  0.45594000000E+02  0.51100000000E-03 0.  1.
    9900012    2    1    2    0    0  0.17281471572E+02 -0.26790190141E+02  0.59821699676E+00  0.59301930768E+02  0.49999975818E+02 0.  0.
        -12    1    1    2    0    0 -0.17281471572E+02  0.26790190141E+02 -0.59821699676E+00  0.31886069232E+02  0.00000000000E+00 0.  1.
         11    1    3    3    0    0 -0.11193314811E+01 -0.11843787059E+02  0.71050993396E+01  0.13856790095E+02  0.51100000000E-03 0. -1.
        -11    1    3    3    0    0 -0.40769983170E+01  0.46138044453E+01  0.97278152505E+01  0.11512579926E+02  0.51100000000E-03 0.  1.
         12    1    3    3    0    0  0.22477801370E+02 -0.19560207528E+02 -0.16234697593E+02  0.33932560748E+02  0.00000000000E+00 0. -1.
</event>
<event>
 7    1  0.3755162E-013  0.5930192E+02  0.7816164E-02  0.1266605E+00
        -11   -1    0    0    0    0  0.00000000000E+00  0.00000000000E+00  0.45593999997E+02  0.45594000000E+02  0.51100000000E-03 0. -1.
         11   -1    0    0    0    0 -0.00000000000E+00 -0.00000000000E+00 -0.45593999997E+02  0.45594000000E+02  0.51100000000E-03 0.  1.
    9900012    2    1    2    0    0  0.22590138163E+02 -0.41795903974E+01  0.22111961081E+02  0.59301919323E+02  0.49999954944E+02 0.  0.
        -12    1    1    2    0    0 -0.22590138163E+02  0.41795903974E+01 -0.22111961081E+02  0.31886080677E+02  0.00000000000E+00 0.  1.
         11    1    3    3    0    0  0.46302329305E+00 -0.37369074874E+01 -0.35119237537E+01  0.51490267869E+01  0.51100000000E-03 0. -1.
        -11    1    3    3    0    0 -0.10009454164E+02 -0.76933323602E+01  0.34773920860E+00  0.12629230312E+02  0.51100000000E-03 0.  1.
         12    1    3    3    0    0  0.32136569034E+02  0.72506494503E+01  0.25276145627E+02  0.41523662223E+02  0.00000000000E+00 0. -1.
</event>
<event>
 7    1  0.3755162E-013  0.5930196E+02  0.7816164E-02  0.1266605E+00
        -11   -1    0    0    0    0  0.00000000000E+00  0.00000000000E+00  0.45593999997E+02  0.45594000000E+02  0.51100000000E-03 0.  1.
         11   -1    0    0    0    0 -0.00000000000E+00 -0.00000000000E+00 -0.45593999997E+02  0.45594000000E+02  0.51100000000E-03 0. -1.
    9900012    2    1    2    0    0  0.79534531308E+01  0.14490790810E+02 -0.27266818191E+02  0.59301955886E+02  0.50000021626E+02 0.  0.
        -12    1    1    2    0    0 -0.79534531308E+01 -0.14490790810E+02  0.27266818191E+02  0.31886044114E+02  0.00000000000E+00 0.  1.
         11    1    3    3    0    0 -0.89764993780E+01 -0.69492200838E+01  0.44468707682E+00  0.11360763518E+02  0.51100000000E-03 0. -1.
        -11    1    3    3    0    0  0.90012449417E+00 -0.66359957347E+01 -0.35435042367E+01  0.75764824313E+01  0.51100000000E-03 0.  1.
        -12    1    3    3    0    0  0.16029828015E+02  0.28076006628E+02 -0.24168001031E+02  0.40364709936E+02  0.00000000000E+00 0.  1.
</event>
<event>
 7    1  0.3755162E-013  0.5930194E+02  0.7816164E-02  0.1266605E+00
        -11   -1    0    0    0    0  0.00000000000E+00  0.00000000000E+00  0.45593999997E+02  0.45594000000E+02  0.51100000000E-03 0. -1.
         11   -1    0    0    0    0 -0.00000000000E+00 -0.00000000000E+00 -0.45593999997E+02  0.45594000000E+02  0.51100000000E-03 0.  1.
    9900012    2    1    2    0    0  0.92083901856E+01  0.29898969137E+02 -0.61626055565E+01  0.59301944858E+02  0.50000001514E+02 0.  0.
        -12    1    1    2    0    0 -0.92083901856E+01 -0.29898969137E+02  0.61626055565E+01  0.31886055142E+02  0.00000000000E+00 0.  1.
         11    1    3    3    0    0  0.10582834477E+02  0.16126517951E+02 -0.75259895909E+01  0.20705107736E+02  0.51100000000E-03 0. -1.
        -11    1    3    3    0    0  0.63493239718E+01  0.19192307543E+02 -0.11023462790E+02  0.23025536169E+02  0.51100000000E-03 0.  1.
         12    1    3    3    0    0 -0.77237682630E+01 -0.54198563564E+01  0.12386846825E+02  0.15571300953E+02  0.00000000000E+00 0. -1.
</event>
<event>
 7    1  0.3755162E-013  0.5930197E+02  0.7816164E-02  0.1266605E+00
        -11   -1    0    0    0    0  0.00000000000E+00  0.00000000000E+00  0.45593999997E+02  0.45594000000E+02  0.51100000000E-03 0.  1.
         11   -1    0    0    0    0 -0.00000000000E+00 -0.00000000000E+00 -0.45593999997E+02  0.45594000000E+02  0.51100000000E-03 0. -1.
    9900012    2    1    2    0    0  0.18137561196E+02  0.18349043288E+01 -0.26160678168E+02  0.59301967286E+02  0.50000042417E+02 0.  0.
        -12    1    1    2    0    0 -0.18137561196E+02 -0.18349043288E+01  0.26160678168E+02  0.31886032714E+02  0.00000000000E+00 0.  1.
         11    1    3    3    0    0 -0.25284749927E+01 -0.15247613813E+02 -0.67645807077E+01  0.16871350426E+02  0.51100000000E-03 0. -1.
        -11    1    3    3    0    0 -0.12732943100E+01  0.32005005000E+00 -0.14292709516E+02  0.14352883195E+02  0.51100000000E-03 0.  1.
        -12    1    3    3    0    0  0.21939330499E+02  0.16762468092E+02 -0.51033879450E+01  0.28077733665E+02  0.00000000000E+00 0.  1.
</event>
<event>
 7    1  0.3755162E-013  0.5930194E+02  0.7816164E-02  0.1266605E+00
        -11   -1    0    0    0    0  0.00000000000E+00  0.00000000000E+00  0.45593999997E+02  0.45594000000E+02  0.51100000000E-03 0. -1.
         11   -1    0    0    0    0 -0.00000000000E+00 -0.00000000000E+00 -0.45593999997E+02  0.45594000000E+02  0.51100000000E-03 0.  1.
    9900012    2    1    2    0    0  0.29157749276E+02  0.99821125128E+01  0.81794900474E+01  0.59301937677E+02  0.49999988417E+02 0.  0.
        -12    1    1    2    0    0 -0.29157749276E+02 -0.99821125128E+01 -0.81794900474E+01  0.31886062323E+02  0.00000000000E+00 0.  1.
         11    1    3    3    0    0 -0.24724477199E+01  0.13829684764E+02  0.44902497704E+01  0.14749085452E+02  0.51100000000E-03 0. -1.
        -11    1    3    3    0    0  0.16316535664E+02  0.16224750511E+01 -0.13242786658E+02  0.21076839424E+02  0.51100000000E-03 0.  1.
        -12    1    3    3    0    0  0.15313661332E+02 -0.54700473025E+01  0.16932026935E+02  0.23476012801E+02  0.00000000000E+00 0.  1.
</event>
<event>
 7    1  0.3755162E-013  0.5930199E+02  0.7816164E-02  0.1266605E+00
        -11   -1    0    0    0    0  0.00000000000E+00  0.00000000000E+00  0.45593999997E+02  0.45594000000E+02  0.51100000000E-03 0. -1.
         11   -1    0    0    0    0 -0.00000000000E+00 -0.00000000000E+00 -0.45593999997E+02  0.45594000000E+02  0.51100000000E-03 0.  1.
    9900012    2    1    2    0    0 -0.21130650946E+02 -0.16950233942E+02  0.16819711805E+02  0.59301991386E+02  0.50000086371E+02 0.  0.
        -12    1    1    2    0    0  0.21130650946E+02  0.16950233942E+02 -0.16819711805E+02  0.31886008614E+02  0.00000000000E+00 0.  1.
         11    1    3    3    0    0 -0.59872716033E+01 -0.43952113358E+01  0.69760177547E+01  0.10189706959E+02  0.51100000000E-03 0. -1.
        -11    1    3    3    0    0 -0.14300482398E+02 -0.24872886579E+02  0.18405890303E+02  0.34087256881E+02  0.51100000000E-03 0.  1.
        -12    1    3    3    0    0 -0.84289694499E+00  0.12317863973E+02 -0.85621962521E+01  0.15025027546E+02  0.00000000000E+00 0.  1.
</event>
<event>
 7    1  0.3755162E-013  0.5930193E+02  0.7816164E-02  0.1266605E+00
        -11   -1    0    0    0    0  0.00000000000E+00  0.00000000000E+00  0.45593999997E+02  0.45594000000E+02  0.51100000000E-03 0. -1.
         11   -1    0    0    0    0 -0.00000000000E+00 -0.00000000000E+00 -0.45593999997E+02  0.45594000000E+02  0.51100000000E-03 0.  1.
    9900012    2    1    2    0    0  0.18574080631E+02 -0.23945000575E+02  0.99177492103E+01  0.59301932930E+02  0.49999979760E+02 0.  0.
        -12    1    1    2    0    0 -0.18574080631E+02  0.23945000575E+02 -0.99177492103E+01  0.31886067070E+02  0.00000000000E+00 0.  1.
         11    1    3    3    0    0  0.14112750411E+02  0.25991026143E+01  0.81345802426E+01  0.16495346451E+02  0.51100000000E-03 0. -1.
        -11    1    3    3    0    0  0.10795706937E+02 -0.16092915638E+02 -0.13218160459E+02  0.23457386644E+02  0.51100000000E-03 0.  1.
        -12    1    3    3    0    0 -0.63343767175E+01 -0.10451187552E+02  0.15001329427E+02  0.19349199834E+02  0.00000000000E+00 0.  1.
</event>
<event>
 7    1  0.3755162E-013  0.5930195E+02  0.7816164E-02  0.1266605E+00
        -11   -1    0    0    0    0  0.00000000000E+00  0.00000000000E+00  0.45593999997E+02  0.45594000000E+02  0.51100000000E-03 0.  1.
         11   -1    0    0    0    0 -0.00000000000E+00 -0.00000000000E+00 -0.45593999997E+02  0.45594000000E+02  0.51100000000E-03 0. -1.
    9900012    2    1    2    0    0  0.29421143819E+02  0.66093096410E+01 -0.10365012770E+02  0.59301950271E+02  0.50000011387E+02 0.  0.
        -12    1    1    2    0    0 -0.29421143819E+02 -0.66093096410E+01  0.10365012770E+02  0.31886049729E+02  0.00000000000E+00 0.  1.
         11    1    3    3    0    0 -0.63292524214E+01 -0.67989140090E+00  0.19270514858E+00  0.63685810089E+01  0.51100000000E-03 0. -1.
        -11    1    3    3    0    0 -0.61859916147E+01  0.77491338706E+01 -0.15123021686E+01  0.10030086047E+02  0.51100000000E-03 0.  1.
         12    1    3    3    0    0  0.41936387855E+02 -0.45993282875E+00 -0.90454157502E+01  0.42903283215E+02  0.00000000000E+00 0. -1.
</event>
<event>
 7    1  0.3755162E-013  0.5930195E+02  0.7816164E-02  0.1266605E+00
        -11   -1    0    0    0    0  0.00000000000E+00  0.00000000000E+00  0.45593999997E+02  0.45594000000E+02  0.51100000000E-03 0.  1.
         11   -1    0    0    0    0 -0.00000000000E+00 -0.00000000000E+00 -0.45593999997E+02  0.45594000000E+02  0.51100000000E-03 0. -1.
    9900012    2    1    2    0    0 -0.46857892878E+01 -0.30077346342E+02 -0.94930027185E+01  0.59301945292E+02  0.50000002306E+02 0.  0.
        -12    1    1    2    0    0  0.46857892878E+01  0.30077346342E+02  0.94930027185E+01  0.31886054708E+02  0.00000000000E+00 0.  1.
         11    1    3    3    0    0  0.13636809541E+02  0.21286398712E+01 -0.26664703879E+01  0.14057159981E+02  0.51100000000E-03 0. -1.
        -11    1    3    3    0    0 -0.39712504469E+01  0.40575283221E+01 -0.15810425447E+01  0.58935610615E+01  0.51100000000E-03 0.  1.
         12    1    3    3    0    0 -0.14351348382E+02 -0.36263514535E+02 -0.52454897859E+01  0.39351224249E+02  0.00000000000E+00 0. -1.
</event>
<event>
 7    1  0.3755162E-013  0.5930191E+02  0.7816164E-02  0.1266605E+00
        -11   -1    0    0    0    0  0.00000000000E+00  0.00000000000E+00  0.45593999997E+02  0.45594000000E+02  0.51100000000E-03 0.  1.
         11   -1    0    0    0    0 -0.00000000000E+00 -0.00000000000E+00 -0.45593999997E+02  0.45594000000E+02  0.51100000000E-03 0. -1.
    9900012    2    1    2    0    0  0.11915009110E+02 -0.12289654270E+02 -0.26902036677E+02  0.59301911786E+02  0.49999941200E+02 0.  0.
        -12    1    1    2    0    0 -0.11915009110E+02  0.12289654270E+02  0.26902036677E+02  0.31886088214E+02  0.00000000000E+00 0.  1.
         11    1    3    3    0    0  0.64415565162E+01 -0.21344250932E+02 -0.10365016065E+02  0.24586668267E+02  0.51100000000E-03 0. -1.
        -11    1    3    3    0    0  0.41359083303E+01  0.83916865559E+01  0.66512915192E+01  0.11478929397E+02  0.51100000000E-03 0.  1.
         12    1    3    3    0    0  0.13375442632E+01  0.66291010584E+00 -0.23188312131E+02  0.23236314122E+02  0.00000000000E+00 0. -1.
</event>
<event>
 7    1  0.3755162E-013  0.5930191E+02  0.7816164E-02  0.1266605E+00
        -11   -1    0    0    0    0  0.00000000000E+00  0.00000000000E+00  0.45593999997E+02  0.45594000000E+02  0.51100000000E-03 0. -1.
         11   -1    0    0    0    0 -0.00000000000E+00 -0.00000000000E+00 -0.45593999997E+02  0.45594000000E+02  0.51100000000E-03 0.  1.
    9900012    2    1    2    0    0  0.13984753936E+02  0.28410548156E+02  0.37403319687E+01  0.59301910989E+02  0.49999939744E+02 0.  0.
        -12    1    1    2    0    0 -0.13984753936E+02 -0.28410548156E+02 -0.37403319687E+01  0.31886089011E+02  0.00000000000E+00 0.  1.
         11    1    3    3    0    0  0.20448988197E+01  0.30270478209E+02  0.53070044151E+01  0.30800125946E+02  0.51100000000E-03 0. -1.
        -11    1    3    3    0    0 -0.16440857545E+01  0.63143605060E+01 -0.88987844145E+01  0.11034606059E+02  0.51100000000E-03 0.  1.
         12    1    3    3    0    0  0.13583940871E+02 -0.81742905582E+01  0.73321119681E+01  0.17467178983E+02  0.00000000000E+00 0. -1.
</event>
<event>
 7    1  0.3755162E-013  0.5930195E+02  0.7816164E-02  0.1266605E+00
        -11   -1    0    0    0    0  0.00000000000E+00  0.00000000000E+00  0.45593999997E+02  0.45594000000E+02  0.51100000000E-03 0.  1.
         11   -1    0    0    0    0 -0.00000000000E+00 -0.00000000000E+00 -0.45593999997E+02  0.45594000000E+02  0.51100000000E-03 0. -1.
    9900012    2    1    2    0    0 -0.18633176737E+02  0.52761324094E+01 -0.25331543036E+02  0.59301954132E+02  0.50000018428E+02 0.  0.
        -12    1    1    2    0    0  0.18633176737E+02 -0.52761324094E+01  0.25331543036E+02  0.31886045868E+02  0.00000000000E+00 0.  1.
         11    1    3    3    0    0 -0.22550391402E+02 -0.10220455113E+02 -0.22171055309E+01  0.24857461904E+02  0.51100000000E-03 0. -1.
        -11    1    3    3    0    0 -0.48193213190E+01 -0.45724596981E+00  0.23466324764E+00  0.48466482185E+01  0.51100000000E-03 0.  1.
         12    1    3    3    0    0  0.87365359840E+01  0.15953833492E+02 -0.23349100752E+02  0.29597844010E+02  0.00000000000E+00 0. -1.
</event>
<event>
 7    1  0.3755162E-013  0.5930195E+02  0.7816164E-02  0.1266605E+00
        -11   -1    0    0    0    0  0.00000000000E+00  0.00000000000E+00  0.45593999997E+02  0.45594000000E+02  0.51100000000E-03 0. -1.
         11   -1    0    0    0    0 -0.00000000000E+00 -0.00000000000E+00 -0.45593999997E+02  0.45594000000E+02  0.51100000000E-03 0.  1.
    9900012    2    1    2    0    0  0.35462826922E+01  0.17552115170E+02  0.26383082835E+02  0.59301954028E+02  0.50000018237E+02 0.  0.
        -12    1    1    2    0    0 -0.35462826922E+01 -0.17552115170E+02 -0.26383082835E+02  0.31886045972E+02  0.00000000000E+00 0.  1.
         11    1    3    3    0    0  0.14353534204E+02  0.17819324106E+02  0.10121011872E+02  0.25019734957E+02  0.51100000000E-03 0. -1.
        -11    1    3    3    0    0  0.34139443853E+01  0.10884226418E+02  0.99584741402E+01  0.15142410919E+02  0.51100000000E-03 0.  1.
        -12    1    3    3    0    0 -0.14221195897E+02 -0.11151435354E+02  0.63035968227E+01  0.19139808152E+02  0.00000000000E+00 0.  1.
</event>
<event>
 7    1  0.3755162E-013  0.5930191E+02  0.7816164E-02  0.1266605E+00
        -11   -1    0    0    0    0  0.00000000000E+00  0.00000000000E+00  0.45593999997E+02  0.45594000000E+02  0.51100000000E-03 0. -1.
         11   -1    0    0    0    0 -0.00000000000E+00 -0.00000000000E+00 -0.45593999997E+02  0.45594000000E+02  0.51100000000E-03 0.  1.
    9900012    2    1    2    0    0 -0.28963478087E+02  0.65324235493E+01  0.11626127707E+02  0.59301914229E+02  0.49999945655E+02 0.  0.
        -12    1    1    2    0    0  0.28963478087E+02 -0.65324235493E+01 -0.11626127707E+02  0.31886085771E+02  0.00000000000E+00 0.  1.
         11    1    3    3    0    0  0.31445764428E+00  0.11807019349E+02 -0.19427067095E+01  0.11969908068E+02  0.51100000000E-03 0. -1.
        -11    1    3    3    0    0  0.42811532505E+00 -0.11118057297E+02 -0.45817298074E+01  0.12032735727E+02  0.51100000000E-03 0.  1.
         12    1    3    3    0    0 -0.29706051056E+02  0.58434614965E+01  0.18150564224E+02  0.35299270435E+02  0.00000000000E+00 0. -1.
</event>
<event>
 7    1  0.3755162E-013  0.5930195E+02  0.7816164E-02  0.1266605E+00
        -11   -1    0    0    0    0  0.00000000000E+00  0.00000000000E+00  0.45593999997E+02  0.45594000000E+02  0.51100000000E-03 0.  1.
         11   -1    0    0    0    0 -0.00000000000E+00 -0.00000000000E+00 -0.45593999997E+02  0.45594000000E+02  0.51100000000E-03 0. -1.
    9900012    2    1    2    0    0  0.29473804565E+02  0.24895204996E+01 -0.11908712255E+02  0.59301948262E+02  0.50000007722E+02 0.  0.
        -12    1    1    2    0    0 -0.29473804565E+02 -0.24895204996E+01  0.11908712255E+02  0.31886051738E+02  0.00000000000E+00 0.  1.
         11    1    3    3    0    0  0.10330512558E+02  0.22902361105E+01  0.53258912818E+01  0.11846087513E+02  0.51100000000E-03 0.  1.
        -11    1    3    3    0    0 -0.49507184033E+01  0.42620848617E+01  0.93127663892E+01  0.11375526280E+02  0.51100000000E-03 0. -1.
         12    1    3    3    0    0  0.24094010411E+02 -0.40628004725E+01 -0.26547369926E+02  0.36080334469E+02  0.00000000000E+00 0. -1.
</event>
<event>
 7    1  0.3755162E-013  0.5930198E+02  0.7816164E-02  0.1266605E+00
        -11   -1    0    0    0    0  0.00000000000E+00  0.00000000000E+00  0.45593999997E+02  0.45594000000E+02  0.51100000000E-03 0.  1.
         11   -1    0    0    0    0 -0.00000000000E+00 -0.00000000000E+00 -0.45593999997E+02  0.45594000000E+02  0.51100000000E-03 0. -1.
    9900012    2    1    2    0    0  0.10454232087E+02 -0.29881780642E+02 -0.38087239306E+01  0.59301981734E+02  0.50000068767E+02 0.  0.
        -12    1    1    2    0    0 -0.10454232087E+02  0.29881780642E+02  0.38087239306E+01  0.31886018266E+02  0.00000000000E+00 0.  1.
         11    1    3    3    0    0  0.40829100545E+01 -0.22537818027E+02  0.84651152305E+01  0.24418877371E+02  0.51100000000E-03 0. -1.
        -11    1    3    3    0    0 -0.80180552883E+01  0.50205608778E+01  0.36242147523E+01  0.10130655209E+02  0.51100000000E-03 0.  1.
        -12    1    3    3    0    0  0.14389377320E+02 -0.12364523493E+02 -0.15898053913E+02  0.24752449154E+02  0.00000000000E+00 0.  1.
</event>
<event>
 7    1  0.3755162E-013  0.5930194E+02  0.7816164E-02  0.1266605E+00
        -11   -1    0    0    0    0  0.00000000000E+00  0.00000000000E+00  0.45593999997E+02  0.45594000000E+02  0.51100000000E-03 0.  1.
         11   -1    0    0    0    0 -0.00000000000E+00 -0.00000000000E+00 -0.45593999997E+02  0.45594000000E+02  0.51100000000E-03 0. -1.
    9900012    2    1    2    0    0 -0.66732498605E+01  0.16270242845E+02 -0.26598261766E+02  0.59301943566E+02  0.49999999158E+02 0.  0.
        -12    1    1    2    0    0  0.66732498605E+01 -0.16270242845E+02  0.26598261766E+02  0.31886056434E+02  0.00000000000E+00 0.  1.
         11    1    3    3    0    0 -0.97405826833E+01  0.95513707077E+01  0.77336056035E+01  0.15681718315E+02  0.51100000000E-03 0. -1.
        -11    1    3    3    0    0 -0.82081634820E+01  0.10706882563E+02 -0.11021878417E+02  0.17421052955E+02  0.51100000000E-03 0.  1.
         12    1    3    3    0    0  0.11275496305E+02 -0.39880104258E+01 -0.23309988952E+02  0.26199172296E+02  0.00000000000E+00 0. -1.
</event>
<event>
 7    1  0.3755162E-013  0.5930195E+02  0.7816164E-02  0.1266605E+00
        -11   -1    0    0    0    0  0.00000000000E+00  0.00000000000E+00  0.45593999997E+02  0.45594000000E+02  0.51100000000E-03 0.  1.
         11   -1    0    0    0    0 -0.00000000000E+00 -0.00000000000E+00 -0.45593999997E+02  0.45594000000E+02  0.51100000000E-03 0. -1.
    9900012    2    1    2    0    0  0.21473508315E+01 -0.20747822472E+02 -0.24117149592E+02  0.59301950427E+02  0.50000011670E+02 0.  0.
        -12    1    1    2    0    0 -0.21473508315E+01  0.20747822472E+02  0.24117149592E+02  0.31886049573E+02  0.00000000000E+00 0.  1.
         11    1    3    3    0    0  0.12970975602E+02 -0.11401888899E+02 -0.18916779897E+02  0.25614328812E+02  0.51100000000E-03 0. -1.
        -11    1    3    3    0    0  0.50342983357E+01  0.63872735537E+00 -0.12566458762E+02  0.13552417439E+02  0.51100000000E-03 0.  1.
        -12    1    3    3    0    0 -0.15857923106E+02 -0.99846609284E+01  0.73660890662E+01  0.20135204176E+02  0.00000000000E+00 0.  1.
</event>
<event>
 7    1  0.3755162E-013  0.5930193E+02  0.7816164E-02  0.1266605E+00
        -11   -1    0    0    0    0  0.00000000000E+00  0.00000000000E+00  0.45593999997E+02  0.45594000000E+02  0.51100000000E-03 0.  1.
         11   -1    0    0    0    0 -0.00000000000E+00 -0.00000000000E+00 -0.45593999997E+02  0.45594000000E+02  0.51100000000E-03 0. -1.
    9900012    2    1    2    0    0  0.53125787600E+01 -0.31375754807E+02  0.20149832411E+01  0.59301927174E+02  0.49999969262E+02 0.  0.
        -12    1    1    2    0    0 -0.53125787600E+01  0.31375754807E+02 -0.20149832411E+01  0.31886072826E+02  0.00000000000E+00 0.  1.
         11    1    3    3    0    0  0.32413095640E+01 -0.54985899313E+00  0.42875290775E+01  0.54029009295E+01  0.51100000000E-03 0. -1.
        -11    1    3    3    0    0  0.13195572720E+02 -0.24549301620E+02  0.15593592957E+02  0.31936679399E+02  0.51100000000E-03 0.  1.
         12    1    3    3    0    0 -0.11124303524E+02 -0.62765941946E+01 -0.17866138794E+02  0.21962346846E+02  0.00000000000E+00 0. -1.
</event>
<event>
 7    1  0.3755162E-013  0.5930176E+02  0.7816164E-02  0.1266605E+00
        -11   -1    0    0    0    0  0.00000000000E+00  0.00000000000E+00  0.45593999997E+02  0.45594000000E+02  0.51100000000E-03 0.  1.
         11   -1    0    0    0    0 -0.00000000000E+00 -0.00000000000E+00 -0.45593999997E+02  0.45594000000E+02  0.51100000000E-03 0. -1.
    9900012    2    1    2    0    0  0.24956173551E+02 -0.17417462241E+02 -0.95159729620E+01  0.59301759541E+02  0.49999663539E+02 0.  0.
        -12    1    1    2    0    0 -0.24956173551E+02  0.17417462241E+02  0.95159729620E+01  0.31886240459E+02  0.00000000000E+00 0.  1.
         11    1    3    3    0    0  0.21784716896E+02 -0.18729159942E+02 -0.19145809637E+02  0.34524156026E+02  0.51100000000E-03 0. -1.
        -11    1    3    3    0    0 -0.85986342455E+01 -0.13694368950E+00 -0.12425458743E+01  0.86890266989E+01  0.51100000000E-03 0.  1.
         12    1    3    3    0    0  0.11770090900E+02  0.14486413900E+01  0.10872382549E+02  0.16088576816E+02  0.00000000000E+00 0. -1.
</event>
<event>
 7    1  0.3755162E-013  0.5930194E+02  0.7816164E-02  0.1266605E+00
        -11   -1    0    0    0    0  0.00000000000E+00  0.00000000000E+00  0.45593999997E+02  0.45594000000E+02  0.51100000000E-03 0.  1.
         11   -1    0    0    0    0 -0.00000000000E+00 -0.00000000000E+00 -0.45593999997E+02  0.45594000000E+02  0.51100000000E-03 0. -1.
    9900012    2    1    2    0    0  0.12783992170E+02  0.19311247016E+02 -0.21917258881E+02  0.59301937936E+02  0.49999988890E+02 0.  0.
        -12    1    1    2    0    0 -0.12783992170E+02 -0.19311247016E+02  0.21917258881E+02  0.31886062064E+02  0.00000000000E+00 0.  1.
         11    1    3    3    0    0  0.27010102903E+01 -0.60097953822E+01 -0.44013230167E+01  0.79236823310E+01  0.51100000000E-03 0. -1.
        -11    1    3    3    0    0  0.57713476432E+01  0.19763029710E+02  0.10063152975E+02  0.22916213583E+02  0.51100000000E-03 0.  1.
         12    1    3    3    0    0  0.43116342363E+01  0.55580126879E+01 -0.27579088839E+02  0.28462042021E+02  0.00000000000E+00 0. -1.
</event>
<event>
 7    1  0.3755162E-013  0.5930209E+02  0.7816164E-02  0.1266604E+00
        -11   -1    0    0    0    0  0.00000000000E+00  0.00000000000E+00  0.45593999997E+02  0.45594000000E+02  0.51100000000E-03 0. -1.
         11   -1    0    0    0    0 -0.00000000000E+00 -0.00000000000E+00 -0.45593999997E+02  0.45594000000E+02  0.51100000000E-03 0.  1.
    9900012    2    1    2    0    0 -0.77930142237E+01  0.16219279937E+02  0.26323275369E+02  0.59302094986E+02  0.50000275312E+02 0.  0.
        -12    1    1    2    0    0  0.77930142237E+01 -0.16219279937E+02 -0.26323275369E+02  0.31885905014E+02  0.00000000000E+00 0.  1.
         11    1    3    3    0    0 -0.96893328173E+01  0.26772810934E+02  0.17324368918E+02  0.33328671357E+02  0.51100000000E-03 0. -1.
        -11    1    3    3    0    0  0.15862393738E+01  0.12426290172E+01  0.13271425564E+02  0.13423524834E+02  0.51100000000E-03 0.  1.
        -12    1    3    3    0    0  0.31007921982E+00 -0.11796160014E+02 -0.42725191120E+01  0.12549898795E+02  0.00000000000E+00 0.  1.
</event>
<event>
 7    1  0.3755162E-013  0.5930194E+02  0.7816164E-02  0.1266605E+00
        -11   -1    0    0    0    0  0.00000000000E+00  0.00000000000E+00  0.45593999997E+02  0.45594000000E+02  0.51100000000E-03 0.  1.
         11   -1    0    0    0    0 -0.00000000000E+00 -0.00000000000E+00 -0.45593999997E+02  0.45594000000E+02  0.51100000000E-03 0. -1.
    9900012    2    1    2    0    0  0.31830612557E+02 -0.43832653673E+00 -0.18277125247E+01  0.59301944130E+02  0.50000000186E+02 0.  0.
        -12    1    1    2    0    0 -0.31830612557E+02  0.43832653673E+00  0.18277125247E+01  0.31886055870E+02  0.00000000000E+00 0.  1.
         11    1    3    3    0    0  0.84990512004E+01 -0.12231637034E+02 -0.37804337481E+01  0.15366798477E+02  0.51100000000E-03 0. -1.
        -11    1    3    3    0    0  0.26133406119E+02  0.40785933376E+01  0.13556842300E+02  0.29721672436E+02  0.51100000000E-03 0.  1.
         12    1    3    3    0    0 -0.28018447625E+01  0.77147171597E+01 -0.11604121077E+02  0.14213473217E+02  0.00000000000E+00 0. -1.
</event>
<event>
 7    1  0.3755162E-013  0.5930214E+02  0.7816164E-02  0.1266604E+00
        -11   -1    0    0    0    0  0.00000000000E+00  0.00000000000E+00  0.45593999997E+02  0.45594000000E+02  0.51100000000E-03 0.  1.
         11   -1    0    0    0    0 -0.00000000000E+00 -0.00000000000E+00 -0.45593999997E+02  0.45594000000E+02  0.51100000000E-03 0. -1.
    9900012    2    1    2    0    0 -0.29602285784E+02 -0.78897792928E+01 -0.88410516844E+01  0.59302138936E+02  0.50000355464E+02 0.  0.
        -12    1    1    2    0    0  0.29602285784E+02  0.78897792928E+01  0.88410516844E+01  0.31885861064E+02  0.00000000000E+00 0.  1.
         11    1    3    3    0    0 -0.26900069991E+02 -0.24014413848E+02  0.60666662875E+01  0.36566518539E+02  0.51100000000E-03 0.  1.
        -11    1    3    3    0    0 -0.22275572352E+01  0.96390702473E+01 -0.12159890106E+02  0.15675988458E+02  0.51100000000E-03 0. -1.
        -12    1    3    3    0    0 -0.47465855772E+00  0.64855643077E+01 -0.27478278657E+01  0.70596319391E+01  0.00000000000E+00 0.  1.
</event>
<event>
 7    1  0.3755162E-013  0.5930197E+02  0.7816164E-02  0.1266605E+00
        -11   -1    0    0    0    0  0.00000000000E+00  0.00000000000E+00  0.45593999997E+02  0.45594000000E+02  0.51100000000E-03 0. -1.
         11   -1    0    0    0    0 -0.00000000000E+00 -0.00000000000E+00 -0.45593999997E+02  0.45594000000E+02  0.51100000000E-03 0.  1.
    9900012    2    1    2    0    0 -0.13398255085E+00 -0.26782838270E+02 -0.17302621343E+02  0.59301967282E+02  0.50000042410E+02 0.  0.
        -12    1    1    2    0    0  0.13398255085E+00  0.26782838270E+02  0.17302621343E+02  0.31886032718E+02  0.00000000000E+00 0.  1.
         11    1    3    3    0    0  0.18444962802E+02  0.95873972147E+00  0.65210951533E+00  0.18481371208E+02  0.51100000000E-03 0. -1.
        -11    1    3    3    0    0 -0.15444615265E+01  0.18815328352E+01 -0.66257540258E+00  0.25228027355E+01  0.51100000000E-03 0.  1.
        -12    1    3    3    0    0 -0.17034483827E+02 -0.29623110827E+02 -0.17292155456E+02  0.38297793339E+02  0.00000000000E+00 0.  1.
</event>
<event>
 7    1  0.3755162E-013  0.5930195E+02  0.7816164E-02  0.1266605E+00
        -11   -1    0    0    0    0  0.00000000000E+00  0.00000000000E+00  0.45593999997E+02  0.45594000000E+02  0.51100000000E-03 0. -1.
         11   -1    0    0    0    0 -0.00000000000E+00 -0.00000000000E+00 -0.45593999997E+02  0.45594000000E+02  0.51100000000E-03 0.  1.
    9900012    2    1    2    0    0 -0.14655200210E+02  0.27298267573E+02  0.75332337191E+01  0.59301954213E+02  0.50000018575E+02 0.  0.
        -12    1    1    2    0    0  0.14655200210E+02 -0.27298267573E+02 -0.75332337191E+01  0.31886045787E+02  0.00000000000E+00 0.  1.
         11    1    3    3    0    0  0.71305503160E+00  0.19341767815E+01 -0.54744257017E+01  0.58496858313E+01  0.51100000000E-03 0. -1.
        -11    1    3    3    0    0 -0.31030572353E+01  0.34997520224E+02  0.14007553191E+02  0.37824158056E+02  0.51100000000E-03 0.  1.
         12    1    3    3    0    0 -0.12265198007E+02 -0.96334294326E+01 -0.99989377036E+00  0.15628110325E+02  0.00000000000E+00 0. -1.
</event>
<event>
 7    1  0.3755162E-013  0.5930193E+02  0.7816164E-02  0.1266605E+00
        -11   -1    0    0    0    0  0.00000000000E+00  0.00000000000E+00  0.45593999997E+02  0.45594000000E+02  0.51100000000E-03 0. -1.
         11   -1    0    0    0    0 -0.00000000000E+00 -0.00000000000E+00 -0.45593999997E+02  0.45594000000E+02  0.51100000000E-03 0.  1.
    9900012    2    1    2    0    0  0.18331400929E+01  0.54969057305E+01  0.31355145816E+02  0.59301928678E+02  0.49999972006E+02 0.  0.
        -12    1    1    2    0    0 -0.18331400929E+01 -0.54969057305E+01 -0.31355145816E+02  0.31886071322E+02  0.00000000000E+00 0.  1.
         11    1    3    3    0    0  0.21475422048E+01  0.27666489186E+01 -0.74766341441E+00  0.35812406513E+01  0.51100000000E-03 0. -1.
        -11    1    3    3    0    0  0.12052545010E+02 -0.54070118016E+01 -0.62471807965E+01  0.14612559187E+02  0.51100000000E-03 0.  1.
         12    1    3    3    0    0 -0.12366947122E+02  0.81372686135E+01  0.38349990027E+02  0.41108128839E+02  0.00000000000E+00 0. -1.
</event>
<event>
 7    1  0.3755162E-013  0.5930197E+02  0.7816164E-02  0.1266605E+00
        -11   -1    0    0    0    0  0.00000000000E+00  0.00000000000E+00  0.45593999997E+02  0.45594000000E+02  0.51100000000E-03 0. -1.
         11   -1    0    0    0    0 -0.00000000000E+00 -0.00000000000E+00 -0.45593999997E+02  0.45594000000E+02  0.51100000000E-03 0.  1.
    9900012    2    1    2    0    0  0.29262211273E+02 -0.90799587628E+01  0.88315649093E+01  0.59301965463E+02  0.50000039093E+02 0.  0.
        -12    1    1    2    0    0 -0.29262211273E+02  0.90799587628E+01 -0.88315649093E+01  0.31886034537E+02  0.00000000000E+00 0.  1.
         11    1    3    3    0    0  0.23990004754E+01  0.89521727795E+01  0.12494141431E+02  0.15556354686E+02  0.51100000000E-03 0. -1.
        -11    1    3    3    0    0  0.51982976190E+01  0.68410398539E+01 -0.63009431974E+01  0.10654764655E+02  0.51100000000E-03 0.  1.
         12    1    3    3    0    0  0.21664913179E+02 -0.24873171396E+02  0.26383666755E+01  0.33090846122E+02  0.00000000000E+00 0. -1.
</event>
<event>
 7    1  0.3755162E-013  0.5930196E+02  0.7816164E-02  0.1266605E+00
        -11   -1    0    0    0    0  0.00000000000E+00  0.00000000000E+00  0.45593999997E+02  0.45594000000E+02  0.51100000000E-03 0.  1.
         11   -1    0    0    0    0 -0.00000000000E+00 -0.00000000000E+00 -0.45593999997E+02  0.45594000000E+02  0.51100000000E-03 0. -1.
    9900012    2    1    2    0    0  0.27143109538E+02 -0.43797649858E+01  0.16148953677E+02  0.59301961651E+02  0.50000032141E+02 0.  0.
        -12    1    1    2    0    0 -0.27143109538E+02  0.43797649858E+01 -0.16148953677E+02  0.31886038349E+02  0.00000000000E+00 0.  1.
         11    1    3    3    0    0  0.20347030622E+02 -0.19688738610E+02  0.39607286727E+01  0.28589079297E+02  0.51100000000E-03 0. -1.
        -11    1    3    3    0    0  0.16319416512E+01 -0.60075467455E+01  0.20899713170E+01  0.65667215427E+01  0.51100000000E-03 0.  1.
        -12    1    3    3    0    0  0.51641372648E+01  0.21316520370E+02  0.10098253687E+02  0.24146160811E+02  0.00000000000E+00 0.  1.
</event>
<event>
 7    1  0.3755162E-013  0.5930194E+02  0.7816164E-02  0.1266605E+00
        -11   -1    0    0    0    0  0.00000000000E+00  0.00000000000E+00  0.45593999997E+02  0.45594000000E+02  0.51100000000E-03 0.  1.
         11   -1    0    0    0    0 -0.00000000000E+00 -0.00000000000E+00 -0.45593999997E+02  0.45594000000E+02  0.51100000000E-03 0. -1.
    9900012    2    1    2    0    0 -0.17601658285E+02  0.97666346231E+01 -0.24728837175E+02  0.59301938558E+02  0.49999990025E+02 0.  0.
        -12    1    1    2    0    0  0.17601658285E+02 -0.97666346231E+01  0.24728837175E+02  0.31886061442E+02  0.00000000000E+00 0.  1.
         11    1    3    3    0    0  0.10381537117E+01 -0.11398372052E+02 -0.21030503368E+01  0.11637158998E+02  0.51100000000E-03 0. -1.
        -11    1    3    3    0    0  0.12183236376E+00 -0.10186511018E+01  0.64676897522E+01  0.65485497772E+01  0.51100000000E-03 0.  1.
         12    1    3    3    0    0 -0.18761644360E+02  0.22183657777E+02 -0.29093476590E+02  0.41116229783E+02  0.00000000000E+00 0. -1.
</event>
<event>
 7    1  0.3755162E-013  0.5930216E+02  0.7816164E-02  0.1266604E+00
        -11   -1    0    0    0    0  0.00000000000E+00  0.00000000000E+00  0.45593999997E+02  0.45594000000E+02  0.51100000000E-03 0.  1.
         11   -1    0    0    0    0 -0.00000000000E+00 -0.00000000000E+00 -0.45593999997E+02  0.45594000000E+02  0.51100000000E-03 0. -1.
    9900012    2    1    2    0    0  0.26332395969E+02  0.17389662368E+02 -0.45729199932E+01  0.59302156244E+02  0.50000387030E+02 0.  0.
        -12    1    1    2    0    0 -0.26332395969E+02 -0.17389662368E+02  0.45729199932E+01  0.31885843756E+02  0.00000000000E+00 0.  1.
         11    1    3    3    0    0  0.13126657189E+02  0.14704064643E+01  0.11183467646E+02  0.17307257812E+02  0.51100000000E-03 0. -1.
        -11    1    3    3    0    0  0.41744649783E+01  0.25151591901E+02 -0.13615768996E+02  0.28903596639E+02  0.51100000000E-03 0.  1.
         12    1    3    3    0    0  0.90312738019E+01 -0.92323359981E+01 -0.21406186425E+01  0.13091301793E+02  0.00000000000E+00 0. -1.
</event>
<event>
 7    1  0.3755162E-013  0.5930194E+02  0.7816164E-02  0.1266605E+00
        -11   -1    0    0    0    0  0.00000000000E+00  0.00000000000E+00  0.45593999997E+02  0.45594000000E+02  0.51100000000E-03 0. -1.
         11   -1    0    0    0    0 -0.00000000000E+00 -0.00000000000E+00 -0.45593999997E+02  0.45594000000E+02  0.51100000000E-03 0.  1.
    9900012    2    1    2    0    0  0.36586371778E+00  0.27031497669E+02  0.16908133853E+02  0.59301941716E+02  0.49999995784E+02 0.  0.
        -12    1    1    2    0    0 -0.36586371778E+00 -0.27031497669E+02 -0.16908133853E+02  0.31886058284E+02  0.00000000000E+00 0.  1.
         11    1    3    3    0    0 -0.56975042912E+00 -0.29065990430E+01  0.92158460702E+01  0.96801215178E+01  0.51100000000E-03 0. -1.
        -11    1    3    3    0    0 -0.32908178542E+00 -0.94390174856E+01  0.31854135906E+01  0.99674573448E+01  0.51100000000E-03 0.  1.
         12    1    3    3    0    0  0.12646959323E+01  0.39377114198E+02  0.45068741925E+01  0.39654362854E+02  0.00000000000E+00 0. -1.
</event>
<event>
 7    1  0.3755162E-013  0.5930181E+02  0.7816164E-02  0.1266605E+00
        -11   -1    0    0    0    0  0.00000000000E+00  0.00000000000E+00  0.45593999997E+02  0.45594000000E+02  0.51100000000E-03 0.  1.
         11   -1    0    0    0    0 -0.00000000000E+00 -0.00000000000E+00 -0.45593999997E+02  0.45594000000E+02  0.51100000000E-03 0. -1.
    9900012    2    1    2    0    0  0.57372213114E+01  0.17318642386E+02 -0.26151064936E+02  0.59301807381E+02  0.49999750788E+02 0.  0.
        -12    1    1    2    0    0 -0.57372213114E+01 -0.17318642386E+02  0.26151064936E+02  0.31886192619E+02  0.00000000000E+00 0.  1.
         11    1    3    3    0    0  0.90301733376E+01  0.10534984347E+01 -0.10415684111E+02  0.13825352264E+02  0.51100000000E-03 0. -1.
        -11    1    3    3    0    0  0.27200389429E+01  0.44001617485E+01  0.12902109011E+02  0.13900519863E+02  0.51100000000E-03 0.  1.
         12    1    3    3    0    0 -0.60129909691E+01  0.11864982203E+02 -0.28637489836E+02  0.31575935254E+02  0.00000000000E+00 0. -1.
</event>
<event>
 7    1  0.3755162E-013  0.5930196E+02  0.7816164E-02  0.1266605E+00
        -11   -1    0    0    0    0  0.00000000000E+00  0.00000000000E+00  0.45593999997E+02  0.45594000000E+02  0.51100000000E-03 0.  1.
         11   -1    0    0    0    0 -0.00000000000E+00 -0.00000000000E+00 -0.45593999997E+02  0.45594000000E+02  0.51100000000E-03 0. -1.
    9900012    2    1    2    0    0 -0.43308884755E+01 -0.19178904547E+00 -0.31589969922E+02  0.59301959517E+02  0.50000028249E+02 0.  0.
        -12    1    1    2    0    0  0.43308884755E+01  0.19178904547E+00  0.31589969922E+02  0.31886040483E+02  0.00000000000E+00 0.  1.
         11    1    3    3    0    0  0.98278889414E+00  0.94428811325E+00 -0.12435522267E+01  0.18449868436E+01  0.51100000000E-03 0.  1.
        -11    1    3    3    0    0  0.22863097007E+01  0.17334874816E+01 -0.42631998647E+02  0.42728439005E+02  0.51100000000E-03 0. -1.
         12    1    3    3    0    0 -0.75999870704E+01 -0.28695646404E+01  0.12285580952E+02  0.14728533669E+02  0.00000000000E+00 0. -1.
</event>
<event>
 7    1  0.3755162E-013  0.5930195E+02  0.7816164E-02  0.1266605E+00
        -11   -1    0    0    0    0  0.00000000000E+00  0.00000000000E+00  0.45593999997E+02  0.45594000000E+02  0.51100000000E-03 0. -1.
         11   -1    0    0    0    0 -0.00000000000E+00 -0.00000000000E+00 -0.45593999997E+02  0.45594000000E+02  0.51100000000E-03 0.  1.
    9900012    2    1    2    0    0 -0.90786068716E+01  0.30342523806E+02 -0.36919314410E+01  0.59301949580E+02  0.50000010126E+02 0.  0.
        -12    1    1    2    0    0  0.90786068716E+01 -0.30342523806E+02  0.36919314410E+01  0.31886050420E+02  0.00000000000E+00 0.  1.
         11    1    3    3    0    0 -0.90160141851E+00  0.10576963477E+02  0.85910584776E+00  0.10650028386E+02  0.51100000000E-03 0. -1.
        -11    1    3    3    0    0 -0.24852237268E+02  0.19757377360E+02 -0.35498199453E+01  0.31946656778E+02  0.51100000000E-03 0.  1.
         12    1    3    3    0    0  0.16675231815E+02  0.81829684029E-02 -0.10012173435E+01  0.16705264416E+02  0.00000000000E+00 0. -1.
</event>
<event>
 7    1  0.3755162E-013  0.5930193E+02  0.7816164E-02  0.1266605E+00
        -11   -1    0    0    0    0  0.00000000000E+00  0.00000000000E+00  0.45593999997E+02  0.45594000000E+02  0.51100000000E-03 0.  1.
         11   -1    0    0    0    0 -0.00000000000E+00 -0.00000000000E+00 -0.45593999997E+02  0.45594000000E+02  0.51100000000E-03 0. -1.
    9900012    2    1    2    0    0 -0.26936767003E+02  0.90776350169E+01  0.14447439731E+02  0.59301931116E+02  0.49999976453E+02 0.  0.
        -12    1    1    2    0    0  0.26936767003E+02 -0.90776350169E+01 -0.14447439731E+02  0.31886068884E+02  0.00000000000E+00 0.  1.
         11    1    3    3    0    0 -0.15820881813E+02  0.23189119858E+02  0.11163964319E+02  0.30210423379E+02  0.51100000000E-03 0. -1.
        -11    1    3    3    0    0  0.90435662163E+00  0.56259853121E+01  0.16104907452E+01  0.59214231678E+01  0.51100000000E-03 0.  1.
        -12    1    3    3    0    0 -0.12020241812E+02 -0.19737470153E+02  0.16729846659E+01  0.23170084570E+02  0.00000000000E+00 0.  1.
</event>
<event>
 7    1  0.3755162E-013  0.5930197E+02  0.7816164E-02  0.1266605E+00
        -11   -1    0    0    0    0  0.00000000000E+00  0.00000000000E+00  0.45593999997E+02  0.45594000000E+02  0.51100000000E-03 0. -1.
         11   -1    0    0    0    0 -0.00000000000E+00 -0.00000000000E+00 -0.45593999997E+02  0.45594000000E+02  0.51100000000E-03 0.  1.
    9900012    2    1    2    0    0 -0.10702060369E+02 -0.27864537222E+02  0.11213942110E+02  0.59301968130E+02  0.50000043957E+02 0.  0.
        -12    1    1    2    0    0  0.10702060369E+02  0.27864537222E+02 -0.11213942110E+02  0.31886031870E+02  0.00000000000E+00 0.  1.
         11    1    3    3    0    0 -0.21867633328E+00 -0.18693006537E+02  0.13942588904E+01  0.18746206839E+02  0.51100000000E-03 0. -1.
        -11    1    3    3    0    0  0.99581809644E+01 -0.12772900090E+02  0.11297172011E+02  0.19746859004E+02  0.51100000000E-03 0.  1.
        -12    1    3    3    0    0 -0.20441565001E+02  0.36013694052E+01 -0.14774887912E+01  0.20808902287E+02  0.00000000000E+00 0.  1.
</event>
<event>
 7    1  0.3755162E-013  0.5930198E+02  0.7816164E-02  0.1266605E+00
        -11   -1    0    0    0    0  0.00000000000E+00  0.00000000000E+00  0.45593999997E+02  0.45594000000E+02  0.51100000000E-03 0.  1.
         11   -1    0    0    0    0 -0.00000000000E+00 -0.00000000000E+00 -0.45593999997E+02  0.45594000000E+02  0.51100000000E-03 0. -1.
    9900012    2    1    2    0    0  0.29366969500E+02  0.14634476978E+01 -0.12335224575E+02  0.59301978892E+02  0.50000063584E+02 0.  0.
        -12    1    1    2    0    0 -0.29366969500E+02 -0.14634476978E+01  0.12335224575E+02  0.31886021108E+02  0.00000000000E+00 0.  1.
         11    1    3    3    0    0 -0.28332656787E+01 -0.10331669555E+01  0.16532096601E+01  0.34391758905E+01  0.51100000000E-03 0. -1.
        -11    1    3    3    0    0  0.37728043267E+02  0.97817984293E+01  0.20776487013E+00  0.38976043870E+02  0.51100000000E-03 0.  1.
         12    1    3    3    0    0 -0.55278080887E+01 -0.72851837760E+01 -0.14196199105E+02  0.16886759131E+02  0.00000000000E+00 0. -1.
</event>
<event>
 7    1  0.3755162E-013  0.5930192E+02  0.7816164E-02  0.1266605E+00
        -11   -1    0    0    0    0  0.00000000000E+00  0.00000000000E+00  0.45593999997E+02  0.45594000000E+02  0.51100000000E-03 0.  1.
         11   -1    0    0    0    0 -0.00000000000E+00 -0.00000000000E+00 -0.45593999997E+02  0.45594000000E+02  0.51100000000E-03 0. -1.
    9900012    2    1    2    0    0 -0.24919519715E+02  0.13847870084E+02 -0.14282018339E+02  0.59301921274E+02  0.49999958502E+02 0.  0.
        -12    1    1    2    0    0  0.24919519715E+02 -0.13847870084E+02  0.14282018339E+02  0.31886078726E+02  0.00000000000E+00 0.  1.
         11    1    3    3    0    0 -0.12152036708E+02 -0.49281741552E+01  0.74058980242E+01  0.15060087067E+02  0.51100000000E-03 0. -1.
        -11    1    3    3    0    0 -0.95989554055E+01  0.30962455124E+01  0.63807006146E+01  0.11934823909E+02  0.51100000000E-03 0.  1.
         12    1    3    3    0    0 -0.31685276014E+01  0.15679798727E+02 -0.28068616978E+02  0.32307010297E+02  0.00000000000E+00 0. -1.
</event>
<event>
 7    1  0.3755162E-013  0.5930194E+02  0.7816164E-02  0.1266605E+00
        -11   -1    0    0    0    0  0.00000000000E+00  0.00000000000E+00  0.45593999997E+02  0.45594000000E+02  0.51100000000E-03 0. -1.
         11   -1    0    0    0    0 -0.00000000000E+00 -0.00000000000E+00 -0.45593999997E+02  0.45594000000E+02  0.51100000000E-03 0.  1.
    9900012    2    1    2    0    0 -0.25037103149E+02  0.19335938605E+02 -0.39981853285E+01  0.59301944399E+02  0.50000000678E+02 0.  0.
        -12    1    1    2    0    0  0.25037103149E+02 -0.19335938605E+02  0.39981853285E+01  0.31886055601E+02  0.00000000000E+00 0.  1.
         11    1    3    3    0    0 -0.21632959378E+02  0.21025692039E+02 -0.40895038112E+01  0.30443204478E+02  0.51100000000E-03 0. -1.
        -11    1    3    3    0    0 -0.11433978643E+02  0.88883283660E+01 -0.38873291004E+01  0.14994985047E+02  0.51100000000E-03 0.  1.
         12    1    3    3    0    0  0.80298348724E+01 -0.10578081800E+02  0.39786475831E+01  0.13863754875E+02  0.00000000000E+00 0. -1.
</event>
<event>
 7    1  0.3755162E-013  0.5930195E+02  0.7816164E-02  0.1266605E+00
        -11   -1    0    0    0    0  0.00000000000E+00  0.00000000000E+00  0.45593999997E+02  0.45594000000E+02  0.51100000000E-03 0.  1.
         11   -1    0    0    0    0 -0.00000000000E+00 -0.00000000000E+00 -0.45593999997E+02  0.45594000000E+02  0.51100000000E-03 0. -1.
    9900012    2    1    2    0    0 -0.20353196046E+02  0.18084137059E+02 -0.16596132921E+02  0.59301949283E+02  0.50000009584E+02 0.  0.
        -12    1    1    2    0    0  0.20353196046E+02 -0.18084137059E+02  0.16596132921E+02  0.31886050717E+02  0.00000000000E+00 0.  1.
         11    1    3    3    0    0 -0.16445169973E+02  0.92598582228E+00 -0.65914452871E+01  0.17741144732E+02  0.51100000000E-03 0. -1.
        -11    1    3    3    0    0 -0.13231200996E+02 -0.21144657148E+01  0.61474676927E+01  0.14742014935E+02  0.51100000000E-03 0.  1.
         12    1    3    3    0    0  0.93231749227E+01  0.19272616951E+02 -0.16152155326E+02  0.26818789616E+02  0.00000000000E+00 0. -1.
</event>
<event>
 7    1  0.3755162E-013  0.5930192E+02  0.7816164E-02  0.1266605E+00
        -11   -1    0    0    0    0  0.00000000000E+00  0.00000000000E+00  0.45593999997E+02  0.45594000000E+02  0.51100000000E-03 0.  1.
         11   -1    0    0    0    0 -0.00000000000E+00 -0.00000000000E+00 -0.45593999997E+02  0.45594000000E+02  0.51100000000E-03 0. -1.
    9900012    2    1    2    0    0  0.28629700710E+02  0.48694585338E+01 -0.13166267940E+02  0.59301921523E+02  0.49999958957E+02 0.  0.
        -12    1    1    2    0    0 -0.28629700710E+02 -0.48694585338E+01  0.13166267940E+02  0.31886078477E+02  0.00000000000E+00 0.  1.
         11    1    3    3    0    0  0.85919973641E+01 -0.23363426398E+01 -0.11342149104E+02  0.14419613802E+02  0.51100000000E-03 0. -1.
        -11    1    3    3    0    0  0.30763473713E+02  0.11878916321E+02 -0.30534181983E+01  0.33118323189E+02  0.51100000000E-03 0.  1.
        -12    1    3    3    0    0 -0.10725770367E+02 -0.46731151476E+01  0.12292993618E+01  0.11763984532E+02  0.00000000000E+00 0.  1.
</event>
<event>
 7    1  0.3755162E-013  0.5930197E+02  0.7816164E-02  0.1266605E+00
        -11   -1    0    0    0    0  0.00000000000E+00  0.00000000000E+00  0.45593999997E+02  0.45594000000E+02  0.51100000000E-03 0.  1.
         11   -1    0    0    0    0 -0.00000000000E+00 -0.00000000000E+00 -0.45593999997E+02  0.45594000000E+02  0.51100000000E-03 0. -1.
    9900012    2    1    2    0    0 -0.23673756278E+02  0.18769465954E+02  0.10197021767E+02  0.59301971062E+02  0.50000049304E+02 0.  0.
        -12    1    1    2    0    0  0.23673756278E+02 -0.18769465954E+02 -0.10197021767E+02  0.31886028938E+02  0.00000000000E+00 0.  1.
         11    1    3    3    0    0 -0.30056447118E+02  0.34977148447E+01  0.88383822999E+01  0.31523658170E+02  0.51100000000E-03 0. -1.
        -11    1    3    3    0    0  0.43022833183E+01  0.51448076665E+01  0.11489461110E+02  0.13303623737E+02  0.51100000000E-03 0.  1.
        -12    1    3    3    0    0  0.20804075210E+01  0.10126943443E+02 -0.10130821644E+02  0.14474689155E+02  0.00000000000E+00 0.  1.
</event>
<event>
 7    1  0.3755162E-013  0.5930194E+02  0.7816164E-02  0.1266605E+00
        -11   -1    0    0    0    0  0.00000000000E+00  0.00000000000E+00  0.45593999997E+02  0.45594000000E+02  0.51100000000E-03 0.  1.
         11   -1    0    0    0    0 -0.00000000000E+00 -0.00000000000E+00 -0.45593999997E+02  0.45594000000E+02  0.51100000000E-03 0. -1.
    9900012    2    1    2    0    0 -0.13086204422E+02 -0.14622278944E+02 -0.25132864625E+02  0.59301942358E+02  0.49999996955E+02 0.  0.
        -12    1    1    2    0    0  0.13086204422E+02  0.14622278944E+02  0.25132864625E+02  0.31886057642E+02  0.00000000000E+00 0.  1.
         11    1    3    3    0    0  0.22015652175E+01  0.38515205115E+01  0.39145028547E+01  0.59164543874E+01  0.51100000000E-03 0. -1.
        -11    1    3    3    0    0  0.11364720364E+02 -0.11649565765E+02 -0.55208226149E+01  0.17185713080E+02  0.51100000000E-03 0.  1.
         12    1    3    3    0    0 -0.26652490003E+02 -0.68242336904E+01 -0.23526544865E+02  0.36199774890E+02  0.00000000000E+00 0. -1.
</event>
<event>
 7    1  0.3755162E-013  0.5930193E+02  0.7816164E-02  0.1266605E+00
        -11   -1    0    0    0    0  0.00000000000E+00  0.00000000000E+00  0.45593999997E+02  0.45594000000E+02  0.51100000000E-03 0.  1.
         11   -1    0    0    0    0 -0.00000000000E+00 -0.00000000000E+00 -0.45593999997E+02  0.45594000000E+02  0.51100000000E-03 0. -1.
    9900012    2    1    2    0    0 -0.21700650494E+02 -0.13554551463E+02 -0.19028322569E+02  0.59301934752E+02  0.49999983083E+02 0.  0.
        -12    1    1    2    0    0  0.21700650494E+02  0.13554551463E+02  0.19028322569E+02  0.31886065248E+02  0.00000000000E+00 0.  1.
         11    1    3    3    0    0  0.29848934814E+01  0.10598625667E+02 -0.97823304297E+01  0.14728694580E+02  0.51100000000E-03 0. -1.
        -11    1    3    3    0    0  0.23152287120E+01  0.34559635572E+01 -0.36853770393E+01  0.55575149375E+01  0.51100000000E-03 0.  1.
         12    1    3    3    0    0 -0.27000772688E+02 -0.27609140688E+02 -0.55606150999E+01  0.39015725234E+02  0.00000000000E+00 0. -1.
</event>
<event>
 7    1  0.3755162E-013  0.5930199E+02  0.7816164E-02  0.1266605E+00
        -11   -1    0    0    0    0  0.00000000000E+00  0.00000000000E+00  0.45593999997E+02  0.45594000000E+02  0.51100000000E-03 0.  1.
         11   -1    0    0    0    0 -0.00000000000E+00 -0.00000000000E+00 -0.45593999997E+02  0.45594000000E+02  0.51100000000E-03 0. -1.
    9900012    2    1    2    0    0 -0.52344613820E+01 -0.17970901982E+01 -0.31402045145E+02  0.59301991181E+02  0.50000085996E+02 0.  0.
        -12    1    1    2    0    0  0.52344613820E+01  0.17970901982E+01  0.31402045145E+02  0.31886008819E+02  0.00000000000E+00 0.  1.
         11    1    3    3    0    0  0.22615912061E+01 -0.48720144203E+01  0.70424646881E+01  0.88570665821E+01  0.51100000000E-03 0. -1.
        -11    1    3    3    0    0 -0.17688174526E+02  0.56341608279E+01 -0.12303678026E+02  0.22270962699E+02  0.51100000000E-03 0.  1.
         12    1    3    3    0    0  0.10192121938E+02 -0.25592366058E+01 -0.26140831806E+02  0.28173961900E+02  0.00000000000E+00 0. -1.
</event>
<event>
 7    1  0.3755162E-013  0.5930186E+02  0.7816164E-02  0.1266605E+00
        -11   -1    0    0    0    0  0.00000000000E+00  0.00000000000E+00  0.45593999997E+02  0.45594000000E+02  0.51100000000E-03 0.  1.
         11   -1    0    0    0    0 -0.00000000000E+00 -0.00000000000E+00 -0.45593999997E+02  0.45594000000E+02  0.51100000000E-03 0. -1.
    9900012    2    1    2    0    0  0.19172835633E+02  0.37893659714E+01 -0.25194622484E+02  0.59301860021E+02  0.49999846792E+02 0.  0.
        -12    1    1    2    0    0 -0.19172835633E+02 -0.37893659714E+01  0.25194622484E+02  0.31886139979E+02  0.00000000000E+00 0.  1.
         11    1    3    3    0    0  0.86849609433E+01 -0.61165661132E+01 -0.14649961701E+02  0.18095919587E+02  0.51100000000E-03 0. -1.
        -11    1    3    3    0    0  0.22307643325E+02 -0.56690026086E+00 -0.17839916251E+00  0.22315558545E+02  0.51100000000E-03 0.  1.
         12    1    3    3    0    0 -0.11819768636E+02  0.10472832345E+02 -0.10366261620E+02  0.18890381889E+02  0.00000000000E+00 0. -1.
</event>
<event>
 7    1  0.3755162E-013  0.5930194E+02  0.7816164E-02  0.1266605E+00
        -11   -1    0    0    0    0  0.00000000000E+00  0.00000000000E+00  0.45593999997E+02  0.45594000000E+02  0.51100000000E-03 0.  1.
         11   -1    0    0    0    0 -0.00000000000E+00 -0.00000000000E+00 -0.45593999997E+02  0.45594000000E+02  0.51100000000E-03 0. -1.
    9900012    2    1    2    0    0 -0.11312550154E+02 -0.19187350296E+02 -0.22816494595E+02  0.59301943048E+02  0.49999998213E+02 0.  0.
        -12    1    1    2    0    0  0.11312550154E+02  0.19187350296E+02  0.22816494595E+02  0.31886056952E+02  0.00000000000E+00 0.  1.
         11    1    3    3    0    0 -0.15240305672E+02 -0.87061857043E+01 -0.10185233796E+02  0.20292943952E+02  0.51100000000E-03 0. -1.
        -11    1    3    3    0    0 -0.73530312307E+01 -0.89035727221E+01  0.89476769936E+01  0.14608271607E+02  0.51100000000E-03 0.  1.
        -12    1    3    3    0    0  0.11280786748E+02 -0.15775918699E+01 -0.21578937792E+02  0.24400727489E+02  0.00000000000E+00 0.  1.
</event>
<event>
 7    1  0.3755162E-013  0.5930194E+02  0.7816164E-02  0.1266605E+00
        -11   -1    0    0    0    0  0.00000000000E+00  0.00000000000E+00  0.45593999997E+02  0.45594000000E+02  0.51100000000E-03 0.  1.
         11   -1    0    0    0    0 -0.00000000000E+00 -0.00000000000E+00 -0.45593999997E+02  0.45594000000E+02  0.51100000000E-03 0. -1.
    9900012    2    1    2    0    0 -0.26684928193E+01  0.14075617214E+02 -0.28486435434E+02  0.59301939447E+02  0.49999991646E+02 0.  0.
        -12    1    1    2    0    0  0.26684928193E+01 -0.14075617214E+02  0.28486435434E+02  0.31886060553E+02  0.00000000000E+00 0.  1.
         11    1    3    3    0    0 -0.14751895843E+01  0.10938453008E+00  0.36258401278E+01  0.39159757633E+01  0.51100000000E-03 0. -1.
        -11    1    3    3    0    0  0.19427688500E+02  0.59445844663E+01 -0.60509349135E+01  0.21198749456E+02  0.51100000000E-03 0.  1.
         12    1    3    3    0    0 -0.20620991735E+02  0.80216482172E+01 -0.26061340648E+02  0.34187214227E+02  0.00000000000E+00 0. -1.
</event>
<event>
 7    1  0.3755162E-013  0.5930193E+02  0.7816164E-02  0.1266605E+00
        -11   -1    0    0    0    0  0.00000000000E+00  0.00000000000E+00  0.45593999997E+02  0.45594000000E+02  0.51100000000E-03 0.  1.
         11   -1    0    0    0    0 -0.00000000000E+00 -0.00000000000E+00 -0.45593999997E+02  0.45594000000E+02  0.51100000000E-03 0. -1.
    9900012    2    1    2    0    0 -0.21304547599E+02 -0.10925966966E+02 -0.21058518358E+02  0.59301926269E+02  0.49999967612E+02 0.  0.
        -12    1    1    2    0    0  0.21304547599E+02  0.10925966966E+02  0.21058518358E+02  0.31886073731E+02  0.00000000000E+00 0.  1.
         11    1    3    3    0    0 -0.48628359661E+01 -0.44019555637E+01 -0.14628271230E+02  0.16031553444E+02  0.51100000000E-03 0. -1.
        -11    1    3    3    0    0 -0.18026104199E+02 -0.12771173769E+02 -0.19004087557E+02  0.29141013301E+02  0.51100000000E-03 0.  1.
        -12    1    3    3    0    0  0.15843925664E+01  0.62471623672E+01  0.12573840428E+02  0.14129359524E+02  0.00000000000E+00 0.  1.
</event>
<event>
 7    1  0.3755162E-013  0.5930194E+02  0.7816164E-02  0.1266605E+00
        -11   -1    0    0    0    0  0.00000000000E+00  0.00000000000E+00  0.45593999997E+02  0.45594000000E+02  0.51100000000E-03 0. -1.
         11   -1    0    0    0    0 -0.00000000000E+00 -0.00000000000E+00 -0.45593999997E+02  0.45594000000E+02  0.51100000000E-03 0.  1.
    9900012    2    1    2    0    0 -0.30291260941E+02  0.63208098858E+01  0.76946433839E+01  0.59301942485E+02  0.49999997187E+02 0.  0.
        -12    1    1    2    0    0  0.30291260941E+02 -0.63208098858E+01 -0.76946433839E+01  0.31886057515E+02  0.00000000000E+00 0.  1.
         11    1    3    3    0    0 -0.12450322661E+02 -0.14791788648E+02 -0.31126453527E+01  0.19583056634E+02  0.51100000000E-03 0. -1.
        -11    1    3    3    0    0 -0.15698121292E+02  0.37647641152E+01 -0.42000493046E+01  0.16680673709E+02  0.51100000000E-03 0.  1.
        -12    1    3    3    0    0 -0.21428169882E+01  0.17347834419E+02  0.15007338041E+02  0.23038212143E+02  0.00000000000E+00 0.  1.
</event>
<event>
 7    1  0.3755162E-013  0.5930195E+02  0.7816164E-02  0.1266605E+00
        -11   -1    0    0    0    0  0.00000000000E+00  0.00000000000E+00  0.45593999997E+02  0.45594000000E+02  0.51100000000E-03 0.  1.
         11   -1    0    0    0    0 -0.00000000000E+00 -0.00000000000E+00 -0.45593999997E+02  0.45594000000E+02  0.51100000000E-03 0. -1.
    9900012    2    1    2    0    0  0.18062761509E+02  0.33958382444E+01 -0.26056186147E+02  0.59301954349E+02  0.50000018823E+02 0.  0.
        -12    1    1    2    0    0 -0.18062761509E+02 -0.33958382444E+01  0.26056186147E+02  0.31886045651E+02  0.00000000000E+00 0.  1.
         11    1    3    3    0    0  0.10267002520E+02  0.23745478845E+01 -0.18824051867E+02  0.21573009696E+02  0.51100000000E-03 0. -1.
        -11    1    3    3    0    0  0.75213446118E+01  0.63750508144E+01 -0.20866463123E+02  0.23078587071E+02  0.51100000000E-03 0.  1.
        -12    1    3    3    0    0  0.27441437797E+00 -0.53537604545E+01  0.13634328843E+02  0.14650357582E+02  0.00000000000E+00 0.  1.
</event>
<event>
 7    1  0.3755162E-013  0.5930190E+02  0.7816164E-02  0.1266605E+00
        -11   -1    0    0    0    0  0.00000000000E+00  0.00000000000E+00  0.45593999997E+02  0.45594000000E+02  0.51100000000E-03 0. -1.
         11   -1    0    0    0    0 -0.00000000000E+00 -0.00000000000E+00 -0.45593999997E+02  0.45594000000E+02  0.51100000000E-03 0.  1.
    9900012    2    1    2    0    0  0.15723273031E+02 -0.27476825826E+02 -0.38113391645E+01  0.59301896781E+02  0.49999913834E+02 0.  0.
        -12    1    1    2    0    0 -0.15723273031E+02  0.27476825826E+02  0.38113391645E+01  0.31886103219E+02  0.00000000000E+00 0.  1.
         11    1    3    3    0    0  0.10985587970E+02 -0.14812933047E+02 -0.13995312268E+02  0.23151131597E+02  0.51100000000E-03 0. -1.
        -11    1    3    3    0    0  0.33184173794E+01 -0.15069807601E+02 -0.82558471798E+01  0.17500571647E+02  0.51100000000E-03 0.  1.
         12    1    3    3    0    0  0.14192676814E+01  0.24059148227E+01  0.18439820283E+02  0.18650193537E+02  0.00000000000E+00 0. -1.
</event>
<event>
 7    1  0.3755162E-013  0.5930194E+02  0.7816164E-02  0.1266605E+00
        -11   -1    0    0    0    0  0.00000000000E+00  0.00000000000E+00  0.45593999997E+02  0.45594000000E+02  0.51100000000E-03 0.  1.
         11   -1    0    0    0    0 -0.00000000000E+00 -0.00000000000E+00 -0.45593999997E+02  0.45594000000E+02  0.51100000000E-03 0. -1.
    9900012    2    1    2    0    0 -0.29896578903E+02 -0.79880088080E+01 -0.76880981093E+01  0.59301943998E+02  0.49999999947E+02 0.  0.
        -12    1    1    2    0    0  0.29896578903E+02  0.79880088080E+01  0.76880981093E+01  0.31886056002E+02  0.00000000000E+00 0.  1.
         11    1    3    3    0    0 -0.16977027763E+02  0.10434163716E+02  0.85341135389E+01  0.21677692180E+02  0.51100000000E-03 0. -1.
        -11    1    3    3    0    0 -0.12141781531E+02  0.19983917638E+01 -0.11064379460E+02  0.16548018657E+02  0.51100000000E-03 0.  1.
        -12    1    3    3    0    0 -0.77776960939E+00 -0.20420564287E+02 -0.51578321880E+01  0.21076233161E+02  0.00000000000E+00 0.  1.
</event>
<event>
 7    1  0.3755162E-013  0.5930192E+02  0.7816164E-02  0.1266605E+00
        -11   -1    0    0    0    0  0.00000000000E+00  0.00000000000E+00  0.45593999997E+02  0.45594000000E+02  0.51100000000E-03 0. -1.
         11   -1    0    0    0    0 -0.00000000000E+00 -0.00000000000E+00 -0.45593999997E+02  0.45594000000E+02  0.51100000000E-03 0.  1.
    9900012    2    1    2    0    0  0.29452484501E+02 -0.76555231586E+01  0.95218741838E+01  0.59301922065E+02  0.49999959945E+02 0.  0.
        -12    1    1    2    0    0 -0.29452484501E+02  0.76555231586E+01 -0.95218741838E+01  0.31886077935E+02  0.00000000000E+00 0.  1.
         11    1    3    3    0    0 -0.34638541754E+01 -0.79280085306E+01 -0.11656960170E+02  0.14516760165E+02  0.51100000000E-03 0. -1.
        -11    1    3    3    0    0  0.13018071978E+01  0.20565733233E+01  0.11382139386E+02  0.11639471340E+02  0.51100000000E-03 0.  1.
         12    1    3    3    0    0  0.31614531479E+02 -0.17840879514E+01  0.97966949682E+01  0.33145690560E+02  0.00000000000E+00 0. -1.
</event>
<event>
 7    1  0.3755162E-013  0.5930190E+02  0.7816164E-02  0.1266605E+00
        -11   -1    0    0    0    0  0.00000000000E+00  0.00000000000E+00  0.45593999997E+02  0.45594000000E+02  0.51100000000E-03 0.  1.
         11   -1    0    0    0    0 -0.00000000000E+00 -0.00000000000E+00 -0.45593999997E+02  0.45594000000E+02  0.51100000000E-03 0. -1.
    9900012    2    1    2    0    0 -0.35287127957E+01 -0.30684238610E+02 -0.79214182486E+01  0.59301903028E+02  0.49999925226E+02 0.  0.
        -12    1    1    2    0    0  0.35287127957E+01  0.30684238610E+02  0.79214182486E+01  0.31886096972E+02  0.00000000000E+00 0.  1.
         11    1    3    3    0    0 -0.50384619945E+01 -0.29844288228E+02  0.84475425760E+01  0.31423376886E+02  0.51100000000E-03 0. -1.
        -11    1    3    3    0    0  0.79066288638E+01 -0.91180146275E+01 -0.95585040920E+01  0.15395387994E+02  0.51100000000E-03 0.  1.
        -12    1    3    3    0    0 -0.63968796650E+01  0.82780642458E+01 -0.68104567326E+01  0.12483138148E+02  0.00000000000E+00 0.  1.
</event>
<event>
 7    1  0.3755162E-013  0.5930195E+02  0.7816164E-02  0.1266605E+00
        -11   -1    0    0    0    0  0.00000000000E+00  0.00000000000E+00  0.45593999997E+02  0.45594000000E+02  0.51100000000E-03 0.  1.
         11   -1    0    0    0    0 -0.00000000000E+00 -0.00000000000E+00 -0.45593999997E+02  0.45594000000E+02  0.51100000000E-03 0. -1.
    9900012    2    1    2    0    0 -0.69629463309E+01  0.19222134585E+02 -0.24469309311E+02  0.59301950108E+02  0.50000011088E+02 0.  0.
        -12    1    1    2    0    0  0.69629463309E+01 -0.19222134585E+02  0.24469309311E+02  0.31886049892E+02  0.00000000000E+00 0.  1.
         11    1    3    3    0    0 -0.31170898013E+01  0.16236902115E+02  0.93392047178E+00  0.16559753828E+02  0.51100000000E-03 0. -1.
        -11    1    3    3    0    0 -0.90041618982E+01 -0.14108886792E+01  0.58055270048E+01  0.10806002148E+02  0.51100000000E-03 0.  1.
        -12    1    3    3    0    0  0.51583053686E+01  0.43961211485E+01 -0.31208756787E+02  0.31936194132E+02  0.00000000000E+00 0.  1.
</event>
<event>
 7    1  0.3755162E-013  0.5930193E+02  0.7816164E-02  0.1266605E+00
        -11   -1    0    0    0    0  0.00000000000E+00  0.00000000000E+00  0.45593999997E+02  0.45594000000E+02  0.51100000000E-03 0.  1.
         11   -1    0    0    0    0 -0.00000000000E+00 -0.00000000000E+00 -0.45593999997E+02  0.45594000000E+02  0.51100000000E-03 0. -1.
    9900012    2    1    2    0    0 -0.71561150511E+00  0.20476069229E+02 -0.24432355103E+02  0.59301929580E+02  0.49999973651E+02 0.  0.
        -12    1    1    2    0    0  0.71561150511E+00 -0.20476069229E+02  0.24432355103E+02  0.31886070420E+02  0.00000000000E+00 0.  1.
         11    1    3    3    0    0  0.73508468979E+01 -0.22907158243E+01 -0.13951467361E+01  0.78248810714E+01  0.51100000000E-03 0.  1.
        -11    1    3    3    0    0 -0.12757358438E+02 -0.62555959729E+01 -0.13323828476E+00  0.14209167041E+02  0.51100000000E-03 0. -1.
         12    1    3    3    0    0  0.46909000348E+01  0.29022381027E+02 -0.22903970083E+02  0.37267881468E+02  0.00000000000E+00 0. -1.
</event>
<event>
 7    1  0.3755162E-013  0.5930194E+02  0.7816164E-02  0.1266605E+00
        -11   -1    0    0    0    0  0.00000000000E+00  0.00000000000E+00  0.45593999997E+02  0.45594000000E+02  0.51100000000E-03 0.  1.
         11   -1    0    0    0    0 -0.00000000000E+00 -0.00000000000E+00 -0.45593999997E+02  0.45594000000E+02  0.51100000000E-03 0. -1.
    9900012    2    1    2    0    0 -0.55781704782E+01 -0.25789271696E+02 -0.17903017307E+02  0.59301944283E+02  0.50000000466E+02 0.  0.
        -12    1    1    2    0    0  0.55781704782E+01  0.25789271696E+02  0.17903017307E+02  0.31886055717E+02  0.00000000000E+00 0.  1.
         11    1    3    3    0    0 -0.13604212969E+02  0.83224424743E+01 -0.47728202397E+01  0.16646845723E+02  0.51100000000E-03 0. -1.
        -11    1    3    3    0    0  0.12837129559E+02 -0.15496373046E+02 -0.11923759436E+02  0.23390286708E+02  0.51100000000E-03 0.  1.
        -12    1    3    3    0    0 -0.48110870689E+01 -0.18615341124E+02 -0.12064376309E+01  0.19264811852E+02  0.00000000000E+00 0.  1.
</event>
<event>
 7    1  0.3755162E-013  0.5930197E+02  0.7816164E-02  0.1266605E+00
        -11   -1    0    0    0    0  0.00000000000E+00  0.00000000000E+00  0.45593999997E+02  0.45594000000E+02  0.51100000000E-03 0.  1.
         11   -1    0    0    0    0 -0.00000000000E+00 -0.00000000000E+00 -0.45593999997E+02  0.45594000000E+02  0.51100000000E-03 0. -1.
    9900012    2    1    2    0    0 -0.12907647583E+02 -0.13190126745E+02 -0.26002534988E+02  0.59301974291E+02  0.50000055193E+02 0.  0.
        -12    1    1    2    0    0  0.12907647583E+02  0.13190126745E+02  0.26002534988E+02  0.31886025709E+02  0.00000000000E+00 0.  1.
         11    1    3    3    0    0  0.70017802993E+01 -0.90824889528E+01 -0.18860446759E+02  0.22073354642E+02  0.51100000000E-03 0. -1.
        -11    1    3    3    0    0  0.34491464020E+00  0.10444389658E+02  0.20488806544E+01  0.10649044728E+02  0.51100000000E-03 0.  1.
        -12    1    3    3    0    0 -0.20254342523E+02 -0.14552027450E+02 -0.91909688837E+01  0.26579574921E+02  0.00000000000E+00 0.  1.
</event>
<event>
 7    1  0.3755162E-013  0.5930194E+02  0.7816164E-02  0.1266605E+00
        -11   -1    0    0    0    0  0.00000000000E+00  0.00000000000E+00  0.45593999997E+02  0.45594000000E+02  0.51100000000E-03 0.  1.
         11   -1    0    0    0    0 -0.00000000000E+00 -0.00000000000E+00 -0.45593999997E+02  0.45594000000E+02  0.51100000000E-03 0. -1.
    9900012    2    1    2    0    0  0.26511035666E+02  0.16680361254E+02 -0.59708813345E+01  0.59301938977E+02  0.49999990789E+02 0.  0.
        -12    1    1    2    0    0 -0.26511035666E+02 -0.16680361254E+02  0.59708813345E+01  0.31886061023E+02  0.00000000000E+00 0.  1.
         11    1    3    3    0    0 -0.19665619785E+01  0.85781988057E+01 -0.12417364910E+02  0.15219849288E+02  0.51100000000E-03 0. -1.
        -11    1    3    3    0    0 -0.40197036064E+01 -0.19241838780E+01 -0.63394632960E+01  0.77491480707E+01  0.51100000000E-03 0.  1.
        -12    1    3    3    0    0  0.32497301251E+02  0.10026346327E+02  0.12785946872E+02  0.36332941619E+02  0.00000000000E+00 0.  1.
</event>
<event>
 7    1  0.3755162E-013  0.5930193E+02  0.7816164E-02  0.1266605E+00
        -11   -1    0    0    0    0  0.00000000000E+00  0.00000000000E+00  0.45593999997E+02  0.45594000000E+02  0.51100000000E-03 0.  1.
         11   -1    0    0    0    0 -0.00000000000E+00 -0.00000000000E+00 -0.45593999997E+02  0.45594000000E+02  0.51100000000E-03 0. -1.
    9900012    2    1    2    0    0  0.11065442758E+02 -0.49414770235E+00 -0.29900384002E+02  0.59301934566E+02  0.49999982745E+02 0.  0.
        -12    1    1    2    0    0 -0.11065442758E+02  0.49414770235E+00  0.29900384002E+02  0.31886065434E+02  0.00000000000E+00 0.  1.
         11    1    3    3    0    0 -0.17009984157E+01  0.82870709419E+01 -0.35991287412E+02  0.36972174811E+02  0.51100000000E-03 0. -1.
        -11    1    3    3    0    0 -0.72226113887E+00  0.31173529427E+01  0.23188799633E+01  0.39518040269E+01  0.51100000000E-03 0.  1.
        -12    1    3    3    0    0  0.13488702312E+02 -0.11898571587E+02  0.37720234467E+01  0.18377955729E+02  0.00000000000E+00 0.  1.
</event>
<event>
 7    1  0.3755162E-013  0.5930195E+02  0.7816164E-02  0.1266605E+00
        -11   -1    0    0    0    0  0.00000000000E+00  0.00000000000E+00  0.45593999997E+02  0.45594000000E+02  0.51100000000E-03 0.  1.
         11   -1    0    0    0    0 -0.00000000000E+00 -0.00000000000E+00 -0.45593999997E+02  0.45594000000E+02  0.51100000000E-03 0. -1.
    9900012    2    1    2    0    0 -0.10177007871E+02  0.30011751429E+02 -0.35275435729E+01  0.59301948555E+02  0.50000008257E+02 0.  0.
        -12    1    1    2    0    0  0.10177007871E+02 -0.30011751429E+02  0.35275435729E+01  0.31886051445E+02  0.00000000000E+00 0.  1.
         11    1    3    3    0    0 -0.77536574711E+01  0.23961545941E+02  0.70627275170E+01  0.26156395170E+02  0.51100000000E-03 0. -1.
        -11    1    3    3    0    0  0.59175149609E+01  0.32209422529E+01  0.92468901886E+01  0.11440997803E+02  0.51100000000E-03 0.  1.
         12    1    3    3    0    0 -0.83408653612E+01  0.28292632355E+01 -0.19837161278E+02  0.21704555582E+02  0.00000000000E+00 0. -1.
</event>
<event>
 7    1  0.3755162E-013  0.5930201E+02  0.7816164E-02  0.1266605E+00
        -11   -1    0    0    0    0  0.00000000000E+00  0.00000000000E+00  0.45593999997E+02  0.45594000000E+02  0.51100000000E-03 0. -1.
         11   -1    0    0    0    0 -0.00000000000E+00 -0.00000000000E+00 -0.45593999997E+02  0.45594000000E+02  0.51100000000E-03 0.  1.
    9900012    2    1    2    0    0 -0.20794642991E+02  0.58076672861E+01  0.23464231935E+02  0.59302010025E+02  0.50000120362E+02 0.  0.
        -12    1    1    2    0    0  0.20794642991E+02 -0.58076672861E+01 -0.23464231935E+02  0.31885989975E+02  0.00000000000E+00 0.  1.
         11    1    3    3    0    0  0.19024542837E+01 -0.11100948283E+02  0.28580310977E+01  0.11619755897E+02  0.51100000000E-03 0. -1.
        -11    1    3    3    0    0 -0.62637114402E+01 -0.91882139326E+01  0.10615348240E+01  0.11170685419E+02  0.51100000000E-03 0.  1.
         12    1    3    3    0    0 -0.16433385835E+02  0.26096829502E+02  0.19544666013E+02  0.36511568709E+02  0.00000000000E+00 0. -1.
</event>
<event>
 7    1  0.3755162E-013  0.5930198E+02  0.7816164E-02  0.1266605E+00
        -11   -1    0    0    0    0  0.00000000000E+00  0.00000000000E+00  0.45593999997E+02  0.45594000000E+02  0.51100000000E-03 0. -1.
         11   -1    0    0    0    0 -0.00000000000E+00 -0.00000000000E+00 -0.45593999997E+02  0.45594000000E+02  0.51100000000E-03 0.  1.
    9900012    2    1    2    0    0  0.58038374261E+00 -0.30598022537E+02  0.89522249295E+01  0.59301981753E+02  0.50000068802E+02 0.  0.
        -12    1    1    2    0    0 -0.58038374261E+00  0.30598022537E+02 -0.89522249295E+01  0.31886018247E+02  0.00000000000E+00 0.  1.
         11    1    3    3    0    0  0.14754229035E+02 -0.28029718690E+02  0.16104888985E+02  0.35534769645E+02  0.51100000000E-03 0. -1.
        -11    1    3    3    0    0  0.46649309221E-01 -0.57283815141E+00 -0.92387946672E+01  0.92566541941E+01  0.51100000000E-03 0.  1.
        -12    1    3    3    0    0 -0.14220494601E+02 -0.19954656953E+01  0.20861306116E+01  0.14510557914E+02  0.00000000000E+00 0.  1.
</event>
<event>
 7    1  0.3755162E-013  0.5930192E+02  0.7816164E-02  0.1266605E+00
        -11   -1    0    0    0    0  0.00000000000E+00  0.00000000000E+00  0.45593999997E+02  0.45594000000E+02  0.51100000000E-03 0.  1.
         11   -1    0    0    0    0 -0.00000000000E+00 -0.00000000000E+00 -0.45593999997E+02  0.45594000000E+02  0.51100000000E-03 0. -1.
    9900012    2    1    2    0    0 -0.28549508929E+02 -0.12928294731E+02  0.58742705874E+01  0.59301916520E+02  0.49999949832E+02 0.  0.
        -12    1    1    2    0    0  0.28549508929E+02  0.12928294731E+02 -0.58742705874E+01  0.31886083480E+02  0.00000000000E+00 0.  1.
         11    1    3    3    0    0 -0.59712257989E+01 -0.36380825410E+01 -0.11436231010E+02  0.13404423229E+02  0.51100000000E-03 0. -1.
        -11    1    3    3    0    0 -0.15483327060E+01  0.10909363978E+02 -0.16124151569E+01  0.11136042362E+02  0.51100000000E-03 0.  1.
        -12    1    3    3    0    0 -0.21029950425E+02 -0.20199576168E+02  0.18922916754E+02  0.34761450930E+02  0.00000000000E+00 0.  1.
</event>
<event>
 7    1  0.3755162E-013  0.5930196E+02  0.7816164E-02  0.1266605E+00
        -11   -1    0    0    0    0  0.00000000000E+00  0.00000000000E+00  0.45593999997E+02  0.45594000000E+02  0.51100000000E-03 0.  1.
         11   -1    0    0    0    0 -0.00000000000E+00 -0.00000000000E+00 -0.45593999997E+02  0.45594000000E+02  0.51100000000E-03 0. -1.
    9900012    2    1    2    0    0 -0.39199789037E+01  0.20771267435E+01 -0.31575921417E+02  0.59301960681E+02  0.50000030372E+02 0.  0.
        -12    1    1    2    0    0  0.39199789037E+01 -0.20771267435E+01  0.31575921417E+02  0.31886039319E+02  0.00000000000E+00 0.  1.
         11    1    3    3    0    0  0.14257984010E+02  0.68147853665E+01 -0.16268030887E+01  0.15886406018E+02  0.51100000000E-03 0. -1.
        -11    1    3    3    0    0  0.67827994797E+00 -0.22608623269E+01  0.39178910312E+01  0.45739952495E+01  0.51100000000E-03 0.  1.
         12    1    3    3    0    0 -0.18856242861E+02 -0.24767962961E+01 -0.33867009360E+02  0.38841559414E+02  0.00000000000E+00 0. -1.
</event>
<event>
 7    1  0.3755162E-013  0.5930196E+02  0.7816164E-02  0.1266605E+00
        -11   -1    0    0    0    0  0.00000000000E+00  0.00000000000E+00  0.45593999997E+02  0.45594000000E+02  0.51100000000E-03 0. -1.
         11   -1    0    0    0    0 -0.00000000000E+00 -0.00000000000E+00 -0.45593999997E+02  0.45594000000E+02  0.51100000000E-03 0.  1.
    9900012    2    1    2    0    0  0.25551604234E+02 -0.93587373427E+01  0.16620746463E+02  0.59301958280E+02  0.50000025993E+02 0.  0.
        -12    1    1    2    0    0 -0.25551604234E+02  0.93587373427E+01 -0.16620746463E+02  0.31886041720E+02  0.00000000000E+00 0.  1.
         11    1    3    3    0    0  0.21109745827E+02  0.11080359538E+02  0.86312192286E+01  0.25355348194E+02  0.51100000000E-03 0. -1.
        -11    1    3    3    0    0  0.12586754341E+02 -0.46313235876E+01 -0.19844061517E+01  0.13557780462E+02  0.51100000000E-03 0.  1.
        -12    1    3    3    0    0 -0.81448959344E+01 -0.15807773293E+02  0.99739333859E+01  0.20388829625E+02  0.00000000000E+00 0.  1.
</event>
<event>
 7    1  0.3755162E-013  0.5930206E+02  0.7816164E-02  0.1266604E+00
        -11   -1    0    0    0    0  0.00000000000E+00  0.00000000000E+00  0.45593999997E+02  0.45594000000E+02  0.51100000000E-03 0.  1.
         11   -1    0    0    0    0 -0.00000000000E+00 -0.00000000000E+00 -0.45593999997E+02  0.45594000000E+02  0.51100000000E-03 0. -1.
    9900012    2    1    2    0    0  0.13871601118E+02 -0.24820047364E+02 -0.14431121969E+02  0.59302057172E+02  0.50000206348E+02 0.  0.
        -12    1    1    2    0    0 -0.13871601118E+02  0.24820047364E+02  0.14431121969E+02  0.31885942828E+02  0.00000000000E+00 0.  1.
         11    1    3    3    0    0 -0.45996304024E+01  0.88970213172E+01  0.56831090793E+01  0.11515698729E+02  0.51100000000E-03 0. -1.
        -11    1    3    3    0    0  0.27055306685E+01 -0.97641231318E+00  0.34380495088E+01  0.44825731326E+01  0.51100000000E-03 0.  1.
         12    1    3    3    0    0  0.15765700852E+02 -0.32740656368E+02 -0.23552280557E+02  0.43303785310E+02  0.00000000000E+00 0. -1.
</event>
<event>
 7    1  0.3755162E-013  0.5930194E+02  0.7816164E-02  0.1266605E+00
        -11   -1    0    0    0    0  0.00000000000E+00  0.00000000000E+00  0.45593999997E+02  0.45594000000E+02  0.51100000000E-03 0. -1.
         11   -1    0    0    0    0 -0.00000000000E+00 -0.00000000000E+00 -0.45593999997E+02  0.45594000000E+02  0.51100000000E-03 0.  1.
    9900012    2    1    2    0    0 -0.22144968402E+02  0.89921079149E+01  0.21106000841E+02  0.59301938754E+02  0.49999990382E+02 0.  0.
        -12    1    1    2    0    0  0.22144968402E+02 -0.89921079149E+01 -0.21106000841E+02  0.31886061246E+02  0.00000000000E+00 0.  1.
         11    1    3    3    0    0 -0.75273720830E+01 -0.73811225299E+01 -0.76326266357E+01  0.13015348243E+02  0.51100000000E-03 0. -1.
        -11    1    3    3    0    0  0.45577619034E+00  0.67679398917E+01 -0.47813229703E+01  0.82990235522E+01  0.51100000000E-03 0.  1.
        -12    1    3    3    0    0 -0.15073372510E+02  0.96052905531E+01  0.33519950447E+02  0.37987566958E+02  0.00000000000E+00 0.  1.
</event>
<event>
 7    1  0.3755162E-013  0.5930198E+02  0.7816164E-02  0.1266605E+00
        -11   -1    0    0    0    0  0.00000000000E+00  0.00000000000E+00  0.45593999997E+02  0.45594000000E+02  0.51100000000E-03 0.  1.
         11   -1    0    0    0    0 -0.00000000000E+00 -0.00000000000E+00 -0.45593999997E+02  0.45594000000E+02  0.51100000000E-03 0. -1.
    9900012    2    1    2    0    0  0.18503526467E+02 -0.81161373290E+01 -0.24667109190E+02  0.59301977158E+02  0.50000060422E+02 0.  0.
        -12    1    1    2    0    0 -0.18503526467E+02  0.81161373290E+01  0.24667109190E+02  0.31886022842E+02  0.00000000000E+00 0.  1.
         11    1    3    3    0    0 -0.29790747238E+01 -0.15783708137E+02 -0.39028220718E+01  0.16529741352E+02  0.51100000000E-03 0. -1.
        -11    1    3    3    0    0 -0.66620227686E+01  0.16377779401E+01  0.65816567826E+00  0.68918826362E+01  0.51100000000E-03 0.  1.
        -12    1    3    3    0    0  0.28144623959E+02  0.60297928680E+01 -0.21422452797E+02  0.35880353171E+02  0.00000000000E+00 0.  1.
</event>
<event>
 7    1  0.3755162E-013  0.5930196E+02  0.7816164E-02  0.1266605E+00
        -11   -1    0    0    0    0  0.00000000000E+00  0.00000000000E+00  0.45593999997E+02  0.45594000000E+02  0.51100000000E-03 0.  1.
         11   -1    0    0    0    0 -0.00000000000E+00 -0.00000000000E+00 -0.45593999997E+02  0.45594000000E+02  0.51100000000E-03 0. -1.
    9900012    2    1    2    0    0 -0.93795072757E+01 -0.21907707150E+02 -0.21184829126E+02  0.59301956432E+02  0.50000022623E+02 0.  0.
        -12    1    1    2    0    0  0.93795072757E+01  0.21907707150E+02  0.21184829126E+02  0.31886043568E+02  0.00000000000E+00 0.  1.
         11    1    3    3    0    0 -0.57275450707E+01  0.23696319162E+01 -0.80641917263E+01  0.10171092194E+02  0.51100000000E-03 0. -1.
        -11    1    3    3    0    0 -0.17887202770E+02 -0.11698477065E+01 -0.12733459818E+02  0.21987759454E+02  0.51100000000E-03 0.  1.
        -12    1    3    3    0    0  0.14235240565E+02 -0.23107491359E+02 -0.38717758168E+00  0.27143104785E+02  0.00000000000E+00 0.  1.
</event>
<event>
 7    1  0.3755162E-013  0.5930196E+02  0.7816164E-02  0.1266605E+00
        -11   -1    0    0    0    0  0.00000000000E+00  0.00000000000E+00  0.45593999997E+02  0.45594000000E+02  0.51100000000E-03 0.  1.
         11   -1    0    0    0    0 -0.00000000000E+00 -0.00000000000E+00 -0.45593999997E+02  0.45594000000E+02  0.51100000000E-03 0. -1.
    9900012    2    1    2    0    0 -0.54325861770E+00  0.19876506494E+02 -0.24926877004E+02  0.59301955443E+02  0.50000020819E+02 0.  0.
        -12    1    1    2    0    0  0.54325861770E+00 -0.19876506494E+02  0.24926877004E+02  0.31886044557E+02  0.00000000000E+00 0.  1.
         11    1    3    3    0    0 -0.62500835111E+01 -0.20810517451E+01 -0.14896363747E+02  0.16287908810E+02  0.51100000000E-03 0. -1.
        -11    1    3    3    0    0 -0.11981166419E+02  0.35854026947E-02 -0.86685205593E+01  0.14788225403E+02  0.51100000000E-03 0.  1.
        -12    1    3    3    0    0  0.17687991312E+02  0.21953972837E+02 -0.13619926968E+01  0.28225821230E+02  0.00000000000E+00 0.  1.
</event>
<event>
 7    1  0.3755162E-013  0.5930193E+02  0.7816164E-02  0.1266605E+00
        -11   -1    0    0    0    0  0.00000000000E+00  0.00000000000E+00  0.45593999997E+02  0.45594000000E+02  0.51100000000E-03 0.  1.
         11   -1    0    0    0    0 -0.00000000000E+00 -0.00000000000E+00 -0.45593999997E+02  0.45594000000E+02  0.51100000000E-03 0. -1.
    9900012    2    1    2    0    0  0.13404737585E+02 -0.16847175546E+02 -0.23520361568E+02  0.59301925894E+02  0.49999966929E+02 0.  0.
        -12    1    1    2    0    0 -0.13404737585E+02  0.16847175546E+02  0.23520361568E+02  0.31886074106E+02  0.00000000000E+00 0.  1.
         11    1    3    3    0    0 -0.10291650802E+01  0.10116891950E+02  0.35290947899E+01  0.10764069574E+02  0.51100000000E-03 0. -1.
        -11    1    3    3    0    0  0.12018107760E+02 -0.12379418304E+02  0.51289267859E+00  0.17261169452E+02  0.51100000000E-03 0.  1.
         12    1    3    3    0    0  0.24157949053E+01 -0.14584649192E+02 -0.27562349036E+02  0.31276686869E+02  0.00000000000E+00 0. -1.
</event>
<event>
 7    1  0.3755162E-013  0.5930198E+02  0.7816164E-02  0.1266605E+00
        -11   -1    0    0    0    0  0.00000000000E+00  0.00000000000E+00  0.45593999997E+02  0.45594000000E+02  0.51100000000E-03 0. -1.
         11   -1    0    0    0    0 -0.00000000000E+00 -0.00000000000E+00 -0.45593999997E+02  0.45594000000E+02  0.51100000000E-03 0.  1.
    9900012    2    1    2    0    0 -0.25464033707E+01  0.80607786054E+01  0.30745046819E+02  0.59301980717E+02  0.50000066912E+02 0.  0.
        -12    1    1    2    0    0  0.25464033707E+01 -0.80607786054E+01 -0.30745046819E+02  0.31886019283E+02  0.00000000000E+00 0.  1.
         11    1    3    3    0    0  0.86925170869E+01  0.11518032270E+02  0.72379508398E+01  0.16143508086E+02  0.51100000000E-03 0. -1.
        -11    1    3    3    0    0  0.12365401771E+02 -0.11077696883E+01  0.92581738827E+01  0.15486900870E+02  0.51100000000E-03 0.  1.
         12    1    3    3    0    0 -0.23604322229E+02 -0.23494839767E+01  0.14248922096E+02  0.27671571761E+02  0.00000000000E+00 0. -1.
</event>
<event>
 7    1  0.3755162E-013  0.5930197E+02  0.7816164E-02  0.1266605E+00
        -11   -1    0    0    0    0  0.00000000000E+00  0.00000000000E+00  0.45593999997E+02  0.45594000000E+02  0.51100000000E-03 0. -1.
         11   -1    0    0    0    0 -0.00000000000E+00 -0.00000000000E+00 -0.45593999997E+02  0.45594000000E+02  0.51100000000E-03 0.  1.
    9900012    2    1    2    0    0 -0.15198748053E+02 -0.20240938678E+02  0.19391275609E+02  0.59301966839E+02  0.50000041603E+02 0.  0.
        -12    1    1    2    0    0  0.15198748053E+02  0.20240938678E+02 -0.19391275609E+02  0.31886033161E+02  0.00000000000E+00 0.  1.
         11    1    3    3    0    0  0.88243344206E+00 -0.16948848171E+02  0.11331893912E+02  0.20407203704E+02  0.51100000000E-03 0. -1.
        -11    1    3    3    0    0  0.70920379127E+01  0.36620138422E+01 -0.68138583353E+01  0.10494570635E+02  0.51100000000E-03 0.  1.
         12    1    3    3    0    0 -0.23173219408E+02 -0.69541043493E+01  0.14873240032E+02  0.28400192501E+02  0.00000000000E+00 0. -1.
</event>
<event>
 7    1  0.3755162E-013  0.5930174E+02  0.7816164E-02  0.1266605E+00
        -11   -1    0    0    0    0  0.00000000000E+00  0.00000000000E+00  0.45593999997E+02  0.45594000000E+02  0.51100000000E-03 0.  1.
         11   -1    0    0    0    0 -0.00000000000E+00 -0.00000000000E+00 -0.45593999997E+02  0.45594000000E+02  0.51100000000E-03 0. -1.
    9900012    2    1    2    0    0 -0.19699621220E+02  0.10577716844E+01 -0.25050746003E+02  0.59301735991E+02  0.49999620590E+02 0.  0.
        -12    1    1    2    0    0  0.19699621220E+02 -0.10577716844E+01  0.25050746003E+02  0.31886264009E+02  0.00000000000E+00 0.  1.
         11    1    3    3    0    0  0.76009291109E+01 -0.73705366574E+01 -0.10994874924E+02  0.15263885770E+02  0.51100000000E-03 0. -1.
        -11    1    3    3    0    0 -0.28291341858E+02 -0.31481664017E+01 -0.41448249057E+01  0.28766135464E+02  0.51100000000E-03 0.  1.
         12    1    3    3    0    0  0.99079152729E+00  0.11576474744E+02 -0.99110461738E+01  0.15271714756E+02  0.00000000000E+00 0. -1.
</event>
<event>
 7    1  0.3755162E-013  0.5930210E+02  0.7816164E-02  0.1266604E+00
        -11   -1    0    0    0    0  0.00000000000E+00  0.00000000000E+00  0.45593999997E+02  0.45594000000E+02  0.51100000000E-03 0.  1.
         11   -1    0    0    0    0 -0.00000000000E+00 -0.00000000000E+00 -0.45593999997E+02  0.45594000000E+02  0.51100000000E-03 0. -1.
    9900012    2    1    2    0    0  0.33537352330E+01 -0.78875469750E+01 -0.30712367847E+02  0.59302102238E+02  0.50000288537E+02 0.  0.
        -12    1    1    2    0    0 -0.33537352330E+01  0.78875469750E+01  0.30712367847E+02  0.31885897762E+02  0.00000000000E+00 0.  1.
         11    1    3    3    0    0  0.20225136494E+02 -0.99329406605E+01 -0.15823194316E+02  0.27533487520E+02  0.51100000000E-03 0. -1.
        -11    1    3    3    0    0 -0.10400379107E+01  0.10158892126E+02 -0.44219262336E+01  0.11128261318E+02  0.51100000000E-03 0.  1.
        -12    1    3    3    0    0 -0.15831363351E+02 -0.81134984409E+01 -0.10467247297E+02  0.20640353400E+02  0.00000000000E+00 0.  1.
</event>
<event>
 7    1  0.3755162E-013  0.5930193E+02  0.7816164E-02  0.1266605E+00
        -11   -1    0    0    0    0  0.00000000000E+00  0.00000000000E+00  0.45593999997E+02  0.45594000000E+02  0.51100000000E-03 0. -1.
         11   -1    0    0    0    0 -0.00000000000E+00 -0.00000000000E+00 -0.45593999997E+02  0.45594000000E+02  0.51100000000E-03 0.  1.
    9900012    2    1    2    0    0  0.30940070936E+02 -0.53492205799E+01  0.55514896038E+01  0.59301934279E+02  0.49999982221E+02 0.  0.
        -12    1    1    2    0    0 -0.30940070936E+02  0.53492205799E+01 -0.55514896038E+01  0.31886065721E+02  0.00000000000E+00 0.  1.
         11    1    3    3    0    0  0.31978137270E+01 -0.10427913190E+02  0.13526136228E+02  0.17375953143E+02  0.51100000000E-03 0. -1.
        -11    1    3    3    0    0  0.82451226297E+01 -0.10850933580E+02  0.37761711278E+01  0.14141579663E+02  0.51100000000E-03 0.  1.
        -12    1    3    3    0    0  0.19497134579E+02  0.15929626189E+02 -0.11750817752E+02  0.27784401472E+02  0.00000000000E+00 0.  1.
</event>
<event>
 7    1  0.3755162E-013  0.5930193E+02  0.7816164E-02  0.1266605E+00
        -11   -1    0    0    0    0  0.00000000000E+00  0.00000000000E+00  0.45593999997E+02  0.45594000000E+02  0.51100000000E-03 0. -1.
         11   -1    0    0    0    0 -0.00000000000E+00 -0.00000000000E+00 -0.45593999997E+02  0.45594000000E+02  0.51100000000E-03 0.  1.
    9900012    2    1    2    0    0 -0.24251156757E+02 -0.14743668125E+02  0.14533659788E+02  0.59301927481E+02  0.49999969823E+02 0.  0.
        -12    1    1    2    0    0  0.24251156757E+02  0.14743668125E+02 -0.14533659788E+02  0.31886072519E+02  0.00000000000E+00 0.  1.
         11    1    3    3    0    0 -0.14909883168E+02 -0.13376612099E+02  0.14293124689E+00  0.20031445203E+02  0.51100000000E-03 0. -1.
        -11    1    3    3    0    0 -0.15449540750E+02  0.82500916889E+01 -0.36907549073E+01  0.17898994226E+02  0.51100000000E-03 0.  1.
         12    1    3    3    0    0  0.61082671604E+01 -0.96171477153E+01  0.18081483448E+02  0.21371488052E+02  0.00000000000E+00 0. -1.
</event>
<event>
 7    1  0.3755162E-013  0.5930207E+02  0.7816164E-02  0.1266604E+00
        -11   -1    0    0    0    0  0.00000000000E+00  0.00000000000E+00  0.45593999997E+02  0.45594000000E+02  0.51100000000E-03 0. -1.
         11   -1    0    0    0    0 -0.00000000000E+00 -0.00000000000E+00 -0.45593999997E+02  0.45594000000E+02  0.51100000000E-03 0.  1.
    9900012    2    1    2    0    0  0.12457384456E+02  0.19500191822E+02  0.21937839620E+02  0.59302067118E+02  0.50000224486E+02 0.  0.
        -12    1    1    2    0    0 -0.12457384456E+02 -0.19500191822E+02 -0.21937839620E+02  0.31885932882E+02  0.00000000000E+00 0.  1.
         11    1    3    3    0    0  0.11225121590E+02  0.42322817552E+01  0.81777162963E+01  0.14518629676E+02  0.51100000000E-03 0. -1.
        -11    1    3    3    0    0  0.90774400492E+01  0.37872517000E+01  0.25024595799E+02  0.26888168187E+02  0.51100000000E-03 0.  1.
        -12    1    3    3    0    0 -0.78451771834E+01  0.11480658367E+02 -0.11264472475E+02  0.17895269255E+02  0.00000000000E+00 0.  1.
</event>
<event>
 7    1  0.3755162E-013  0.5930196E+02  0.7816164E-02  0.1266605E+00
        -11   -1    0    0    0    0  0.00000000000E+00  0.00000000000E+00  0.45593999997E+02  0.45594000000E+02  0.51100000000E-03 0.  1.
         11   -1    0    0    0    0 -0.00000000000E+00 -0.00000000000E+00 -0.45593999997E+02  0.45594000000E+02  0.51100000000E-03 0. -1.
    9900012    2    1    2    0    0  0.23782769860E+02  0.65841765888E+01 -0.20192768582E+02  0.59301961886E+02  0.50000032570E+02 0.  0.
        -12    1    1    2    0    0 -0.23782769860E+02 -0.65841765888E+01  0.20192768582E+02  0.31886038114E+02  0.00000000000E+00 0.  1.
         11    1    3    3    0    0 -0.38756144146E+01  0.78674974732E+01 -0.18222233394E+02  0.20222949679E+02  0.51100000000E-03 0.  1.
        -11    1    3    3    0    0 -0.49199529709E+00  0.66225753546E+01 -0.67298778551E+01  0.94547247398E+01  0.51100000000E-03 0. -1.
         12    1    3    3    0    0  0.28150379572E+02 -0.79058962390E+01  0.47593426667E+01  0.29624287468E+02  0.00000000000E+00 0. -1.
</event>
<event>
 7    1  0.3755162E-013  0.5930195E+02  0.7816164E-02  0.1266605E+00
        -11   -1    0    0    0    0  0.00000000000E+00  0.00000000000E+00  0.45593999997E+02  0.45594000000E+02  0.51100000000E-03 0.  1.
         11   -1    0    0    0    0 -0.00000000000E+00 -0.00000000000E+00 -0.45593999997E+02  0.45594000000E+02  0.51100000000E-03 0. -1.
    9900012    2    1    2    0    0  0.16125006312E+02  0.10482880822E+02 -0.25432533300E+02  0.59301947109E+02  0.50000005619E+02 0.  0.
        -12    1    1    2    0    0 -0.16125006312E+02 -0.10482880822E+02  0.25432533300E+02  0.31886052891E+02  0.00000000000E+00 0.  1.
         11    1    3    3    0    0 -0.94374523289E+01 -0.22076067086E+01  0.57521322187E+00  0.97092689916E+01  0.51100000000E-03 0. -1.
        -11    1    3    3    0    0 -0.32521976413E+01  0.39112332356E+01 -0.17597914416E+02  0.18318327625E+02  0.51100000000E-03 0.  1.
         12    1    3    3    0    0  0.28814656282E+02  0.87792542955E+01 -0.84098321058E+01  0.31274350492E+02  0.00000000000E+00 0. -1.
</event>
<event>
 7    1  0.3755162E-013  0.5930192E+02  0.7816164E-02  0.1266605E+00
        -11   -1    0    0    0    0  0.00000000000E+00  0.00000000000E+00  0.45593999997E+02  0.45594000000E+02  0.51100000000E-03 0. -1.
         11   -1    0    0    0    0 -0.00000000000E+00 -0.00000000000E+00 -0.45593999997E+02  0.45594000000E+02  0.51100000000E-03 0.  1.
    9900012    2    1    2    0    0  0.21869879818E+02 -0.23203599628E+02 -0.15370646887E+00  0.59301916756E+02  0.49999950264E+02 0.  0.
        -12    1    1    2    0    0 -0.21869879818E+02  0.23203599628E+02  0.15370646887E+00  0.31886083244E+02  0.00000000000E+00 0.  1.
         11    1    3    3    0    0 -0.70853583396E+01 -0.11955551385E+02  0.43770237920E+01  0.14570375742E+02  0.51100000000E-03 0. -1.
        -11    1    3    3    0    0  0.89481162716E+01 -0.18505424186E+02 -0.98510186476E+01  0.22793904400E+02  0.51100000000E-03 0.  1.
        -12    1    3    3    0    0  0.20007121886E+02  0.72573759434E+01  0.53202883868E+01  0.21937636615E+02  0.00000000000E+00 0.  1.
</event>
<event>
 7    1  0.3755162E-013  0.5930196E+02  0.7816164E-02  0.1266605E+00
        -11   -1    0    0    0    0  0.00000000000E+00  0.00000000000E+00  0.45593999997E+02  0.45594000000E+02  0.51100000000E-03 0.  1.
         11   -1    0    0    0    0 -0.00000000000E+00 -0.00000000000E+00 -0.45593999997E+02  0.45594000000E+02  0.51100000000E-03 0. -1.
    9900012    2    1    2    0    0  0.54764766992E+01 -0.25680900519E+02  0.18089199152E+02  0.59301959567E+02  0.50000028340E+02 0.  0.
        -12    1    1    2    0    0 -0.54764766992E+01  0.25680900519E+02 -0.18089199152E+02  0.31886040433E+02  0.00000000000E+00 0.  1.
         11    1    3    3    0    0  0.12263149548E+01  0.38624060825E+01 -0.41875326114E+01  0.58273028707E+01  0.51100000000E-03 0. -1.
        -11    1    3    3    0    0 -0.96771407940E+01  0.54521329273E+00 -0.46614624288E+01  0.10755163584E+02  0.51100000000E-03 0.  1.
         12    1    3    3    0    0  0.13927302538E+02 -0.30088519895E+02  0.26938194192E+02  0.42719493112E+02  0.00000000000E+00 0. -1.
</event>
<event>
 7    1  0.3755162E-013  0.5930195E+02  0.7816164E-02  0.1266605E+00
        -11   -1    0    0    0    0  0.00000000000E+00  0.00000000000E+00  0.45593999997E+02  0.45594000000E+02  0.51100000000E-03 0.  1.
         11   -1    0    0    0    0 -0.00000000000E+00 -0.00000000000E+00 -0.45593999997E+02  0.45594000000E+02  0.51100000000E-03 0. -1.
    9900012    2    1    2    0    0  0.41530138207E+01 -0.80444597826E+01 -0.30573831221E+02  0.59301952698E+02  0.50000015813E+02 0.  0.
        -12    1    1    2    0    0 -0.41530138207E+01  0.80444597826E+01  0.30573831221E+02  0.31886047302E+02  0.00000000000E+00 0.  1.
         11    1    3    3    0    0 -0.40106552283E+01 -0.16857686036E+02 -0.11000381279E+02  0.20524992628E+02  0.51100000000E-03 0. -1.
        -11    1    3    3    0    0 -0.81600110561E+01  0.66065803148E+01 -0.19678838964E+02  0.22304470115E+02  0.51100000000E-03 0.  1.
        -12    1    3    3    0    0  0.16323680105E+02  0.22066459385E+01  0.10538902123E+00  0.16472489955E+02  0.00000000000E+00 0.  1.
</event>
<event>
 7    1  0.3755162E-013  0.5930196E+02  0.7816164E-02  0.1266605E+00
        -11   -1    0    0    0    0  0.00000000000E+00  0.00000000000E+00  0.45593999997E+02  0.45594000000E+02  0.51100000000E-03 0.  1.
         11   -1    0    0    0    0 -0.00000000000E+00 -0.00000000000E+00 -0.45593999997E+02  0.45594000000E+02  0.51100000000E-03 0. -1.
    9900012    2    1    2    0    0  0.20708965948E+02  0.16840496799E+02  0.17442931106E+02  0.59301961541E+02  0.50000031939E+02 0.  0.
        -12    1    1    2    0    0 -0.20708965948E+02 -0.16840496799E+02 -0.17442931106E+02  0.31886038459E+02  0.00000000000E+00 0.  1.
         11    1    3    3    0    0  0.16807967361E+02 -0.45454886854E+01 -0.11607629033E+01  0.17450404150E+02  0.51100000000E-03 0.  1.
        -11    1    3    3    0    0  0.17014753755E+02  0.15681359944E+02  0.12538907572E+02  0.26317885523E+02  0.51100000000E-03 0. -1.
         12    1    3    3    0    0 -0.13113755168E+02  0.57046255402E+01  0.60647864368E+01  0.15533671868E+02  0.00000000000E+00 0. -1.
</event>
<event>
 7    1  0.3755162E-013  0.5930196E+02  0.7816164E-02  0.1266605E+00
        -11   -1    0    0    0    0  0.00000000000E+00  0.00000000000E+00  0.45593999997E+02  0.45594000000E+02  0.51100000000E-03 0.  1.
         11   -1    0    0    0    0 -0.00000000000E+00 -0.00000000000E+00 -0.45593999997E+02  0.45594000000E+02  0.51100000000E-03 0. -1.
    9900012    2    1    2    0    0  0.24247408138E+02  0.10855731990E+02 -0.17633369380E+02  0.59301961768E+02  0.50000032354E+02 0.  0.
        -12    1    1    2    0    0 -0.24247408138E+02 -0.10855731990E+02  0.17633369380E+02  0.31886038232E+02  0.00000000000E+00 0.  1.
         11    1    3    3    0    0  0.20520319571E+02 -0.51158689919E+01 -0.72048008924E+01  0.22341996038E+02  0.51100000000E-03 0. -1.
        -11    1    3    3    0    0  0.16590715323E+01  0.71582927359E+01  0.11267072127E+02  0.13451415830E+02  0.51100000000E-03 0.  1.
         12    1    3    3    0    0  0.20680170352E+01  0.88133082463E+01 -0.21695640615E+02  0.23508549900E+02  0.00000000000E+00 0. -1.
</event>
<event>
 7    1  0.3755162E-013  0.5930170E+02  0.7816164E-02  0.1266606E+00
        -11   -1    0    0    0    0  0.00000000000E+00  0.00000000000E+00  0.45593999997E+02  0.45594000000E+02  0.51100000000E-03 0.  1.
         11   -1    0    0    0    0 -0.00000000000E+00 -0.00000000000E+00 -0.45593999997E+02  0.45594000000E+02  0.51100000000E-03 0. -1.
    9900012    2    1    2    0    0  0.35424020866E+01 -0.52137851479E+01 -0.31257063061E+02  0.59301699505E+02  0.49999554046E+02 0.  0.
        -12    1    1    2    0    0 -0.35424020866E+01  0.52137851479E+01  0.31257063061E+02  0.31886300495E+02  0.00000000000E+00 0.  1.
         11    1    3    3    0    0  0.70620922292E+01 -0.14823471773E+02 -0.86726756967E+01  0.18569430957E+02  0.51100000000E-03 0. -1.
        -11    1    3    3    0    0  0.29467045019E+00  0.63746424332E+00  0.83081817261E+01  0.83378099757E+01  0.51100000000E-03 0.  1.
         12    1    3    3    0    0 -0.38143605928E+01  0.89722223817E+01 -0.30892569090E+02  0.32394458572E+02  0.00000000000E+00 0. -1.
</event>
<event>
 7    1  0.3755162E-013  0.5930193E+02  0.7816164E-02  0.1266605E+00
        -11   -1    0    0    0    0  0.00000000000E+00  0.00000000000E+00  0.45593999997E+02  0.45594000000E+02  0.51100000000E-03 0. -1.
         11   -1    0    0    0    0 -0.00000000000E+00 -0.00000000000E+00 -0.45593999997E+02  0.45594000000E+02  0.51100000000E-03 0.  1.
    9900012    2    1    2    0    0  0.24949997988E+01 -0.20163630082E+02  0.24574870067E+02  0.59301933436E+02  0.49999980684E+02 0.  0.
        -12    1    1    2    0    0 -0.24949997988E+01  0.20163630082E+02 -0.24574870067E+02  0.31886066564E+02  0.00000000000E+00 0.  1.
         11    1    3    3    0    0 -0.12504460680E+02 -0.46388882660E+01 -0.48909489504E+00  0.13346161820E+02  0.51100000000E-03 0. -1.
        -11    1    3    3    0    0 -0.56982177073E+01  0.46152800462E+01 -0.55089262002E+00  0.73535010631E+01  0.51100000000E-03 0.  1.
         12    1    3    3    0    0  0.20697678186E+02 -0.20140021863E+02  0.25614857582E+02  0.38602270553E+02  0.00000000000E+00 0. -1.
</event>
<event>
 7    1  0.3755162E-013  0.5930193E+02  0.7816164E-02  0.1266605E+00
        -11   -1    0    0    0    0  0.00000000000E+00  0.00000000000E+00  0.45593999997E+02  0.45594000000E+02  0.51100000000E-03 0.  1.
         11   -1    0    0    0    0 -0.00000000000E+00 -0.00000000000E+00 -0.45593999997E+02  0.45594000000E+02  0.51100000000E-03 0. -1.
    9900012    2    1    2    0    0 -0.11908856892E+02  0.28567554071E+02 -0.76678114707E+01  0.59301931713E+02  0.49999977540E+02 0.  0.
        -12    1    1    2    0    0  0.11908856892E+02 -0.28567554071E+02  0.76678114707E+01  0.31886068287E+02  0.00000000000E+00 0.  1.
         11    1    3    3    0    0 -0.64900568713E+01  0.16522839312E+01  0.36329856447E+01  0.76190199723E+01  0.51100000000E-03 0. -1.
        -11    1    3    3    0    0  0.41348880176E+01 -0.10712673680E+02 -0.10521427574E+01  0.11531074579E+02  0.51100000000E-03 0.  1.
         12    1    3    3    0    0 -0.95536880381E+01  0.37627943820E+02 -0.10248654358E+02  0.40151837161E+02  0.00000000000E+00 0. -1.
</event>
<event>
 7    1  0.3755162E-013  0.5930195E+02  0.7816164E-02  0.1266605E+00
        -11   -1    0    0    0    0  0.00000000000E+00  0.00000000000E+00  0.45593999997E+02  0.45594000000E+02  0.51100000000E-03 0.  1.
         11   -1    0    0    0    0 -0.00000000000E+00 -0.00000000000E+00 -0.45593999997E+02  0.45594000000E+02  0.51100000000E-03 0. -1.
    9900012    2    1    2    0    0 -0.22372544070E+02 -0.21746184135E+02 -0.65797374201E+01  0.59301949803E+02  0.50000010533E+02 0.  0.
        -12    1    1    2    0    0  0.22372544070E+02  0.21746184135E+02  0.65797374201E+01  0.31886050197E+02  0.00000000000E+00 0.  1.
         11    1    3    3    0    0  0.30056484304E+01  0.12382324703E+01 -0.39213724285E+01  0.50935551554E+01  0.51100000000E-03 0. -1.
        -11    1    3    3    0    0  0.87671448038E+01 -0.12069262684E+02 -0.95389203340E+01  0.17706522277E+02  0.51100000000E-03 0.  1.
         12    1    3    3    0    0 -0.34145337305E+02 -0.10915153922E+02  0.68805553424E+01  0.36501872371E+02  0.00000000000E+00 0. -1.
</event>
<event>
 7    1  0.3755162E-013  0.5930197E+02  0.7816164E-02  0.1266605E+00
        -11   -1    0    0    0    0  0.00000000000E+00  0.00000000000E+00  0.45593999997E+02  0.45594000000E+02  0.51100000000E-03 0.  1.
         11   -1    0    0    0    0 -0.00000000000E+00 -0.00000000000E+00 -0.45593999997E+02  0.45594000000E+02  0.51100000000E-03 0. -1.
    9900012    2    1    2    0    0  0.27705173639E+02 -0.46424448330E+01 -0.15086091248E+02  0.59301967171E+02  0.50000042208E+02 0.  0.
        -12    1    1    2    0    0 -0.27705173639E+02  0.46424448330E+01  0.15086091248E+02  0.31886032829E+02  0.00000000000E+00 0.  1.
         11    1    3    3    0    0  0.56229229489E+01  0.22986803469E+01 -0.15273979079E+02  0.16437628509E+02  0.51100000000E-03 0. -1.
        -11    1    3    3    0    0 -0.99351717631E+01 -0.15868679356E+01  0.23448182863E+01  0.10330728961E+02  0.51100000000E-03 0.  1.
         12    1    3    3    0    0  0.32017422454E+02 -0.53542572443E+01 -0.21569304553E+01  0.32533609701E+02  0.00000000000E+00 0. -1.
</event>
<event>
 7    1  0.3755162E-013  0.5930186E+02  0.7816164E-02  0.1266605E+00
        -11   -1    0    0    0    0  0.00000000000E+00  0.00000000000E+00  0.45593999997E+02  0.45594000000E+02  0.51100000000E-03 0.  1.
         11   -1    0    0    0    0 -0.00000000000E+00 -0.00000000000E+00 -0.45593999997E+02  0.45594000000E+02  0.51100000000E-03 0. -1.
    9900012    2    1    2    0    0  0.14309583935E+02 -0.13396502354E+02 -0.25149462902E+02  0.59301859563E+02  0.49999845956E+02 0.  0.
        -12    1    1    2    0    0 -0.14309583935E+02  0.13396502354E+02  0.25149462902E+02  0.31886140437E+02  0.00000000000E+00 0.  1.
         11    1    3    3    0    0  0.10880658601E+02 -0.15492075807E+02 -0.34707618181E+02  0.39534945358E+02  0.51100000000E-03 0. -1.
        -11    1    3    3    0    0  0.59402130753E+01 -0.19536748133E+00  0.13386881451E+02  0.14646941492E+02  0.51100000000E-03 0.  1.
        -12    1    3    3    0    0 -0.25112877408E+01  0.22909409337E+01 -0.38287261717E+01  0.51199727125E+01  0.00000000000E+00 0.  1.
</event>
<event>
 7    1  0.3755162E-013  0.5930195E+02  0.7816164E-02  0.1266605E+00
        -11   -1    0    0    0    0  0.00000000000E+00  0.00000000000E+00  0.45593999997E+02  0.45594000000E+02  0.51100000000E-03 0.  1.
         11   -1    0    0    0    0 -0.00000000000E+00 -0.00000000000E+00 -0.45593999997E+02  0.45594000000E+02  0.51100000000E-03 0. -1.
    9900012    2    1    2    0    0  0.26658880944E+02  0.14943995697E+02 -0.90940388091E+01  0.59301945329E+02  0.50000002374E+02 0.  0.
        -12    1    1    2    0    0 -0.26658880944E+02 -0.14943995697E+02  0.90940388091E+01  0.31886054671E+02  0.00000000000E+00 0.  1.
         11    1    3    3    0    0  0.15863194456E+02  0.76732719574E+01 -0.20009901035E+02  0.26663011469E+02  0.51100000000E-03 0. -1.
        -11    1    3    3    0    0  0.20320987930E+02  0.48548966735E+01  0.66456737415E+01  0.21924359783E+02  0.51100000000E-03 0.  1.
         12    1    3    3    0    0 -0.95253014416E+01  0.24158270667E+01  0.42701884848E+01  0.10714574078E+02  0.00000000000E+00 0. -1.
</event>
<event>
 7    1  0.3755162E-013  0.5930194E+02  0.7816164E-02  0.1266605E+00
        -11   -1    0    0    0    0  0.00000000000E+00  0.00000000000E+00  0.45593999997E+02  0.45594000000E+02  0.51100000000E-03 0.  1.
         11   -1    0    0    0    0 -0.00000000000E+00 -0.00000000000E+00 -0.45593999997E+02  0.45594000000E+02  0.51100000000E-03 0. -1.
    9900012    2    1    2    0    0 -0.20508041640E+02  0.33296176339E+01 -0.24187909506E+02  0.59301935775E+02  0.49999984948E+02 0.  0.
        -12    1    1    2    0    0  0.20508041640E+02 -0.33296176339E+01  0.24187909506E+02  0.31886064225E+02  0.00000000000E+00 0.  1.
         11    1    3    3    0    0  0.62293910592E+01 -0.26709963134E+01 -0.68002627734E-01  0.67782120720E+01  0.51100000000E-03 0. -1.
        -11    1    3    3    0    0  0.90270038538E+01  0.41230697302E+01 -0.11821549266E+01  0.99941979722E+01  0.51100000000E-03 0.  1.
         12    1    3    3    0    0 -0.35764436553E+02  0.18775442171E+01 -0.22937751952E+02  0.42529525730E+02  0.00000000000E+00 0. -1.
</event>
<event>
 7    1  0.3755162E-013  0.5930196E+02  0.7816164E-02  0.1266605E+00
        -11   -1    0    0    0    0  0.00000000000E+00  0.00000000000E+00  0.45593999997E+02  0.45594000000E+02  0.51100000000E-03 0. -1.
         11   -1    0    0    0    0 -0.00000000000E+00 -0.00000000000E+00 -0.45593999997E+02  0.45594000000E+02  0.51100000000E-03 0.  1.
    9900012    2    1    2    0    0 -0.30580082065E+02  0.52512405031E+01  0.73486560815E+01  0.59301957722E+02  0.50000024976E+02 0.  0.
        -12    1    1    2    0    0  0.30580082065E+02 -0.52512405031E+01 -0.73486560815E+01  0.31886042278E+02  0.00000000000E+00 0.  1.
         11    1    3    3    0    0 -0.16377941371E+02  0.12339048039E+02  0.85494121089E+01  0.22216694573E+02  0.51100000000E-03 0. -1.
        -11    1    3    3    0    0 -0.44995000201E+01 -0.83192961789E+00  0.15848095331E+02  0.16495445832E+02  0.51100000000E-03 0.  1.
        -12    1    3    3    0    0 -0.97026406739E+01 -0.62558779180E+01 -0.17048851358E+02  0.20589817318E+02  0.00000000000E+00 0.  1.
</event>
<event>
 7    1  0.3755162E-013  0.5930195E+02  0.7816164E-02  0.1266605E+00
        -11   -1    0    0    0    0  0.00000000000E+00  0.00000000000E+00  0.45593999997E+02  0.45594000000E+02  0.51100000000E-03 0.  1.
         11   -1    0    0    0    0 -0.00000000000E+00 -0.00000000000E+00 -0.45593999997E+02  0.45594000000E+02  0.51100000000E-03 0. -1.
    9900012    2    1    2    0    0 -0.27819031554E+02  0.56260818976E+01 -0.14531648655E+02  0.59301950907E+02  0.50000012546E+02 0.  0.
        -12    1    1    2    0    0  0.27819031554E+02 -0.56260818976E+01  0.14531648655E+02  0.31886049093E+02  0.00000000000E+00 0.  1.
         11    1    3    3    0    0  0.53977009153E+01  0.61009374001E+00 -0.15586002403E+01  0.56512498187E+01  0.51100000000E-03 0. -1.
        -11    1    3    3    0    0  0.72704477261E+01 -0.66621025591E+01 -0.14620602228E+01  0.99689839504E+01  0.51100000000E-03 0.  1.
         12    1    3    3    0    0 -0.40487180195E+02  0.11678090717E+02 -0.11510988192E+02  0.43681717138E+02  0.00000000000E+00 0. -1.
</event>
<event>
 7    1  0.3755162E-013  0.5930194E+02  0.7816164E-02  0.1266605E+00
        -11   -1    0    0    0    0  0.00000000000E+00  0.00000000000E+00  0.45593999997E+02  0.45594000000E+02  0.51100000000E-03 0. -1.
         11   -1    0    0    0    0 -0.00000000000E+00 -0.00000000000E+00 -0.45593999997E+02  0.45594000000E+02  0.51100000000E-03 0.  1.
    9900012    2    1    2    0    0 -0.23077495099E+02 -0.54949773076E+01  0.21306231011E+02  0.59301936657E+02  0.49999986557E+02 0.  0.
        -12    1    1    2    0    0  0.23077495099E+02  0.54949773076E+01 -0.21306231011E+02  0.31886063343E+02  0.00000000000E+00 0.  1.
         11    1    3    3    0    0 -0.51865218086E+01  0.80291474200E+01 -0.49673779406E+01  0.10772282053E+02  0.51100000000E-03 0.  1.
        -11    1    3    3    0    0 -0.17477111806E+02 -0.14652453902E+02  0.58624996908E+00  0.22814195838E+02  0.51100000000E-03 0. -1.
         12    1    3    3    0    0 -0.41386148411E+00  0.11283291747E+01  0.25687358982E+02  0.25715458766E+02  0.00000000000E+00 0. -1.
</event>
<event>
 7    1  0.3755162E-013  0.5930194E+02  0.7816164E-02  0.1266605E+00
        -11   -1    0    0    0    0  0.00000000000E+00  0.00000000000E+00  0.45593999997E+02  0.45594000000E+02  0.51100000000E-03 0.  1.
         11   -1    0    0    0    0 -0.00000000000E+00 -0.00000000000E+00 -0.45593999997E+02  0.45594000000E+02  0.51100000000E-03 0. -1.
    9900012    2    1    2    0    0 -0.25594477433E+02  0.14037246022E+02 -0.12829634833E+02  0.59301935945E+02  0.49999985259E+02 0.  0.
        -12    1    1    2    0    0  0.25594477433E+02 -0.14037246022E+02  0.12829634833E+02  0.31886064055E+02  0.00000000000E+00 0.  1.
         11    1    3    3    0    0  0.80009863713E+01  0.31742998206E+01 -0.82149416402E+01  0.11898622974E+02  0.51100000000E-03 0. -1.
        -11    1    3    3    0    0 -0.58935840778E+01 -0.90122069094E+01  0.51527843922E+01  0.11937562310E+02  0.51100000000E-03 0.  1.
         12    1    3    3    0    0 -0.27701879727E+02  0.19875153111E+02 -0.97674775852E+01  0.35465750661E+02  0.00000000000E+00 0. -1.
</event>
<event>
 7    1  0.3755162E-013  0.5930197E+02  0.7816164E-02  0.1266605E+00
        -11   -1    0    0    0    0  0.00000000000E+00  0.00000000000E+00  0.45593999997E+02  0.45594000000E+02  0.51100000000E-03 0. -1.
         11   -1    0    0    0    0 -0.00000000000E+00 -0.00000000000E+00 -0.45593999997E+02  0.45594000000E+02  0.51100000000E-03 0.  1.
    9900012    2    1    2    0    0 -0.95420534996E+01  0.19107749174E+02  0.23676193540E+02  0.59301968513E+02  0.50000044655E+02 0.  0.
        -12    1    1    2    0    0  0.95420534996E+01 -0.19107749174E+02 -0.23676193540E+02  0.31886031487E+02  0.00000000000E+00 0.  1.
         11    1    3    3    0    0  0.10706481787E+02  0.10550175239E+02  0.30693037399E+02  0.34175978331E+02  0.51100000000E-03 0.  1.
        -11    1    3    3    0    0 -0.75428775135E+01  0.28128316730E-01  0.13836714664E+01  0.76687899550E+01  0.51100000000E-03 0. -1.
        -12    1    3    3    0    0 -0.12705657773E+02  0.85294456182E+01 -0.84005153262E+01  0.17457200227E+02  0.00000000000E+00 0.  1.
</event>
<event>
 7    1  0.3755162E-013  0.5930195E+02  0.7816164E-02  0.1266605E+00
        -11   -1    0    0    0    0  0.00000000000E+00  0.00000000000E+00  0.45593999997E+02  0.45594000000E+02  0.51100000000E-03 0.  1.
         11   -1    0    0    0    0 -0.00000000000E+00 -0.00000000000E+00 -0.45593999997E+02  0.45594000000E+02  0.51100000000E-03 0. -1.
    9900012    2    1    2    0    0 -0.28387890044E+02  0.56271392603E+01 -0.13385928087E+02  0.59301951826E+02  0.50000014222E+02 0.  0.
        -12    1    1    2    0    0  0.28387890044E+02 -0.56271392603E+01  0.13385928087E+02  0.31886048174E+02  0.00000000000E+00 0.  1.
         11    1    3    3    0    0 -0.78267041395E+00 -0.16844887509E+00 -0.16002496377E+02  0.16022510370E+02  0.51100000000E-03 0. -1.
        -11    1    3    3    0    0 -0.37736660139E+01  0.42661164810E+01  0.15238702155E+02  0.16268323474E+02  0.51100000000E-03 0.  1.
        -12    1    3    3    0    0 -0.23831553616E+02  0.15294716544E+01 -0.12622133866E+02  0.27011117982E+02  0.00000000000E+00 0.  1.
</event>
<event>
 7    1  0.3755162E-013  0.5930193E+02  0.7816164E-02  0.1266605E+00
        -11   -1    0    0    0    0  0.00000000000E+00  0.00000000000E+00  0.45593999997E+02  0.45594000000E+02  0.51100000000E-03 0.  1.
         11   -1    0    0    0    0 -0.00000000000E+00 -0.00000000000E+00 -0.45593999997E+02  0.45594000000E+02  0.51100000000E-03 0. -1.
    9900012    2    1    2    0    0 -0.26055362400E+02 -0.59885714270E+01  0.17377480375E+02  0.59301925897E+02  0.49999966934E+02 0.  0.
        -12    1    1    2    0    0  0.26055362400E+02  0.59885714270E+01 -0.17377480375E+02  0.31886074103E+02  0.00000000000E+00 0.  1.
         11    1    3    3    0    0  0.83202820602E+00 -0.37174760393E+01  0.37382962006E+01  0.53372987346E+01  0.51100000000E-03 0. -1.
        -11    1    3    3    0    0  0.10412379496E+02 -0.96416847470E+01  0.35808405853E+01  0.14635646589E+02  0.51100000000E-03 0.  1.
         12    1    3    3    0    0 -0.37299770102E+02  0.73705893593E+01  0.10058343590E+02  0.39328980573E+02  0.00000000000E+00 0. -1.
</event>
<event>
 7    1  0.3755162E-013  0.5930196E+02  0.7816164E-02  0.1266605E+00
        -11   -1    0    0    0    0  0.00000000000E+00  0.00000000000E+00  0.45593999997E+02  0.45594000000E+02  0.51100000000E-03 0.  1.
         11   -1    0    0    0    0 -0.00000000000E+00 -0.00000000000E+00 -0.45593999997E+02  0.45594000000E+02  0.51100000000E-03 0. -1.
    9900012    2    1    2    0    0 -0.27997928877E+02  0.14492213518E+02 -0.47760894578E+01  0.59301963800E+02  0.50000036060E+02 0.  0.
        -12    1    1    2    0    0  0.27997928877E+02 -0.14492213518E+02  0.47760894578E+01  0.31886036200E+02  0.00000000000E+00 0.  1.
         11    1    3    3    0    0 -0.27774456642E+01  0.13798543882E+01  0.11428799761E+01  0.33052046005E+01  0.51100000000E-03 0. -1.
        -11    1    3    3    0    0  0.27868314494E+01  0.15618500310E+02  0.14303433805E+02  0.21360997176E+02  0.51100000000E-03 0.  1.
         12    1    3    3    0    0 -0.28007314662E+02 -0.25061411803E+01 -0.20222403239E+02  0.34635762024E+02  0.00000000000E+00 0. -1.
</event>
<event>
 7    1  0.3755162E-013  0.5930182E+02  0.7816164E-02  0.1266605E+00
        -11   -1    0    0    0    0  0.00000000000E+00  0.00000000000E+00  0.45593999997E+02  0.45594000000E+02  0.51100000000E-03 0.  1.
         11   -1    0    0    0    0 -0.00000000000E+00 -0.00000000000E+00 -0.45593999997E+02  0.45594000000E+02  0.51100000000E-03 0. -1.
    9900012    2    1    2    0    0  0.26365264551E+02  0.17449297057E+02 -0.41380044391E+01  0.59301823946E+02  0.49999780999E+02 0.  0.
        -12    1    1    2    0    0 -0.26365264551E+02 -0.17449297057E+02  0.41380044390E+01  0.31886176054E+02  0.00000000000E+00 0.  1.
         11    1    3    3    0    0  0.17751530957E+02 -0.11157306725E+01 -0.15140309325E+02  0.23357882459E+02  0.51100000000E-03 0. -1.
        -11    1    3    3    0    0  0.59169600835E+01  0.15213206783E+02 -0.67602446349E+01  0.17667851738E+02  0.51100000000E-03 0.  1.
        -12    1    3    3    0    0  0.26967735103E+01  0.33518209462E+01  0.17762549521E+02  0.18276089749E+02  0.00000000000E+00 0.  1.
</event>
<event>
 7    1  0.3755162E-013  0.5930200E+02  0.7816164E-02  0.1266605E+00
        -11   -1    0    0    0    0  0.00000000000E+00  0.00000000000E+00  0.45593999997E+02  0.45594000000E+02  0.51100000000E-03 0.  1.
         11   -1    0    0    0    0 -0.00000000000E+00 -0.00000000000E+00 -0.45593999997E+02  0.45594000000E+02  0.51100000000E-03 0. -1.
    9900012    2    1    2    0    0 -0.29832119533E+01 -0.21638009544E+01 -0.31672312142E+02  0.59302000807E+02  0.50000103551E+02 0.  0.
        -12    1    1    2    0    0  0.29832119533E+01  0.21638009544E+01  0.31672312142E+02  0.31885999193E+02  0.00000000000E+00 0.  1.
         11    1    3    3    0    0 -0.87577766993E+01  0.34200771849E+00 -0.27226650187E+02  0.28602554128E+02  0.51100000000E-03 0. -1.
        -11    1    3    3    0    0  0.37668348702E+00 -0.20719164664E+01 -0.16946095985E+02  0.17076442771E+02  0.51100000000E-03 0.  1.
        -12    1    3    3    0    0  0.53978812589E+01 -0.43389220655E+00  0.12500434030E+02  0.13623003908E+02  0.00000000000E+00 0.  1.
</event>
<event>
 7    1  0.3755162E-013  0.5930197E+02  0.7816164E-02  0.1266605E+00
        -11   -1    0    0    0    0  0.00000000000E+00  0.00000000000E+00  0.45593999997E+02  0.45594000000E+02  0.51100000000E-03 0.  1.
         11   -1    0    0    0    0 -0.00000000000E+00 -0.00000000000E+00 -0.45593999997E+02  0.45594000000E+02  0.51100000000E-03 0. -1.
    9900012    2    1    2    0    0 -0.95484981677E+01 -0.16052641635E+02 -0.25842940639E+02  0.59301973254E+02  0.50000053303E+02 0.  0.
        -12    1    1    2    0    0  0.95484981677E+01  0.16052641635E+02  0.25842940639E+02  0.31886026746E+02  0.00000000000E+00 0.  1.
         11    1    3    3    0    0 -0.95475812404E+01 -0.96110400438E+01 -0.16067898770E+02  0.21016797316E+02  0.51100000000E-03 0. -1.
        -11    1    3    3    0    0 -0.13168043870E+02 -0.72916058588E+01 -0.17430875605E+02  0.23030421619E+02  0.51100000000E-03 0.  1.
         12    1    3    3    0    0  0.13167126942E+02  0.85000426755E+00  0.76558337351E+01  0.15254754320E+02  0.00000000000E+00 0. -1.
</event>
<event>
 7    1  0.3755162E-013  0.5930192E+02  0.7816164E-02  0.1266605E+00
        -11   -1    0    0    0    0  0.00000000000E+00  0.00000000000E+00  0.45593999997E+02  0.45594000000E+02  0.51100000000E-03 0.  1.
         11   -1    0    0    0    0 -0.00000000000E+00 -0.00000000000E+00 -0.45593999997E+02  0.45594000000E+02  0.51100000000E-03 0. -1.
    9900012    2    1    2    0    0  0.20806105643E+02  0.27439539551E+01 -0.24006220251E+02  0.59301922693E+02  0.49999961090E+02 0.  0.
        -12    1    1    2    0    0 -0.20806105643E+02 -0.27439539551E+01  0.24006220251E+02  0.31886077307E+02  0.00000000000E+00 0.  1.
         11    1    3    3    0    0  0.18129391773E+02  0.27846227645E+01  0.20510830453E+01  0.18456324442E+02  0.51100000000E-03 0. -1.
        -11    1    3    3    0    0  0.80484977204E-01 -0.76900507432E+01  0.47216490657E+01  0.90242633176E+01  0.51100000000E-03 0.  1.
         12    1    3    3    0    0  0.25962288929E+01  0.76493819337E+01 -0.30778952362E+02  0.31821334933E+02  0.00000000000E+00 0. -1.
</event>
<event>
 7    1  0.3755162E-013  0.5930195E+02  0.7816164E-02  0.1266605E+00
        -11   -1    0    0    0    0  0.00000000000E+00  0.00000000000E+00  0.45593999997E+02  0.45594000000E+02  0.51100000000E-03 0.  1.
         11   -1    0    0    0    0 -0.00000000000E+00 -0.00000000000E+00 -0.45593999997E+02  0.45594000000E+02  0.51100000000E-03 0. -1.
    9900012    2    1    2    0    0  0.13499230645E+02 -0.28387872318E+02 -0.53497566866E+01  0.59301946319E+02  0.50000004178E+02 0.  0.
        -12    1    1    2    0    0 -0.13499230645E+02  0.28387872318E+02  0.53497566866E+01  0.31886053681E+02  0.00000000000E+00 0.  1.
         11    1    3    3    0    0  0.46418605601E+01 -0.15566887107E+01 -0.90191145348E+01  0.10262289046E+02  0.51100000000E-03 0. -1.
        -11    1    3    3    0    0  0.19342666865E+01  0.83905762918E+01 -0.75286645500E+01  0.11437829702E+02  0.51100000000E-03 0.  1.
         12    1    3    3    0    0  0.69231033984E+01 -0.35221759899E+02  0.11198022398E+02  0.37601827571E+02  0.00000000000E+00 0. -1.
</event>
<event>
 7    1  0.3755162E-013  0.5930194E+02  0.7816164E-02  0.1266605E+00
        -11   -1    0    0    0    0  0.00000000000E+00  0.00000000000E+00  0.45593999997E+02  0.45594000000E+02  0.51100000000E-03 0.  1.
         11   -1    0    0    0    0 -0.00000000000E+00 -0.00000000000E+00 -0.45593999997E+02  0.45594000000E+02  0.51100000000E-03 0. -1.
    9900012    2    1    2    0    0 -0.14075977126E+02  0.20356675611E+02  0.20104568536E+02  0.59301936430E+02  0.49999986143E+02 0.  0.
        -12    1    1    2    0    0  0.14075977126E+02 -0.20356675611E+02 -0.20104568536E+02  0.31886063570E+02  0.00000000000E+00 0.  1.
         11    1    3    3    0    0 -0.26284301598E+00 -0.70237520325E+01  0.22252212220E+02  0.23335876414E+02  0.51100000000E-03 0.  1.
        -11    1    3    3    0    0 -0.11218039320E+02  0.94032322923E+01  0.62977908033E+01  0.15935098148E+02  0.51100000000E-03 0. -1.
        -12    1    3    3    0    0 -0.25950947903E+01  0.17977195351E+02 -0.84454344873E+01  0.20030961868E+02  0.00000000000E+00 0.  1.
</event>
<event>
 7    1  0.3755162E-013  0.5930197E+02  0.7816164E-02  0.1266605E+00
        -11   -1    0    0    0    0  0.00000000000E+00  0.00000000000E+00  0.45593999997E+02  0.45594000000E+02  0.51100000000E-03 0.  1.
         11   -1    0    0    0    0 -0.00000000000E+00 -0.00000000000E+00 -0.45593999997E+02  0.45594000000E+02  0.51100000000E-03 0. -1.
    9900012    2    1    2    0    0 -0.22024109637E+02  0.22082750454E+02 -0.66339932127E+01  0.59301966398E+02  0.50000040798E+02 0.  0.
        -12    1    1    2    0    0  0.22024109637E+02 -0.22082750454E+02  0.66339932127E+01  0.31886033602E+02  0.00000000000E+00 0.  1.
         11    1    3    3    0    0 -0.10064707714E+01 -0.69894834185E+01  0.17395991717E+01  0.72726932707E+01  0.51100000000E-03 0. -1.
        -11    1    3    3    0    0 -0.21338334659E+02  0.18165899729E+02  0.10747689626E+02  0.30013951282E+02  0.51100000000E-03 0.  1.
         12    1    3    3    0    0  0.32069579280E+00  0.10906334143E+02 -0.19121282011E+02  0.22015321846E+02  0.00000000000E+00 0. -1.
</event>
<event>
 7    1  0.3755162E-013  0.5930190E+02  0.7816164E-02  0.1266605E+00
        -11   -1    0    0    0    0  0.00000000000E+00  0.00000000000E+00  0.45593999997E+02  0.45594000000E+02  0.51100000000E-03 0.  1.
         11   -1    0    0    0    0 -0.00000000000E+00 -0.00000000000E+00 -0.45593999997E+02  0.45594000000E+02  0.51100000000E-03 0. -1.
    9900012    2    1    2    0    0  0.14145574910E+02  0.30473185607E+01 -0.28413730230E+02  0.59301897925E+02  0.49999915920E+02 0.  0.
        -12    1    1    2    0    0 -0.14145574910E+02 -0.30473185607E+01  0.28413730230E+02  0.31886102075E+02  0.00000000000E+00 0.  1.
         11    1    3    3    0    0  0.20392489500E+02  0.17794758297E+02 -0.10142258807E+02  0.28902810673E+02  0.51100000000E-03 0.  1.
        -11    1    3    3    0    0  0.33494750238E+01  0.16468305212E+01 -0.79434150031E+01  0.87766095887E+01  0.51100000000E-03 0. -1.
        -12    1    3    3    0    0 -0.95963896132E+01 -0.16394270257E+02 -0.10328056420E+02  0.21622477663E+02  0.00000000000E+00 0.  1.
</event>
<event>
 7    1  0.3755162E-013  0.5930194E+02  0.7816164E-02  0.1266605E+00
        -11   -1    0    0    0    0  0.00000000000E+00  0.00000000000E+00  0.45593999997E+02  0.45594000000E+02  0.51100000000E-03 0.  1.
         11   -1    0    0    0    0 -0.00000000000E+00 -0.00000000000E+00 -0.45593999997E+02  0.45594000000E+02  0.51100000000E-03 0. -1.
    9900012    2    1    2    0    0  0.15550399713E+01  0.19983136265E+02 -0.24798723303E+02  0.59301944086E+02  0.50000000106E+02 0.  0.
        -12    1    1    2    0    0 -0.15550399713E+01 -0.19983136265E+02  0.24798723303E+02  0.31886055914E+02  0.00000000000E+00 0.  1.
         11    1    3    3    0    0 -0.68053567954E+01 -0.23396842289E+01 -0.77108009251E+01  0.10547201267E+02  0.51100000000E-03 0. -1.
        -11    1    3    3    0    0 -0.14083235023E+01  0.21295466223E+02  0.72256493644E+01  0.22531983174E+02  0.51100000000E-03 0.  1.
         12    1    3    3    0    0  0.97687202690E+01  0.10273542708E+01 -0.24313571742E+02  0.26222759644E+02  0.00000000000E+00 0. -1.
</event>
<event>
 7    1  0.3755162E-013  0.5930193E+02  0.7816164E-02  0.1266605E+00
        -11   -1    0    0    0    0  0.00000000000E+00  0.00000000000E+00  0.45593999997E+02  0.45594000000E+02  0.51100000000E-03 0. -1.
         11   -1    0    0    0    0 -0.00000000000E+00 -0.00000000000E+00 -0.45593999997E+02  0.45594000000E+02  0.51100000000E-03 0.  1.
    9900012    2    1    2    0    0 -0.26419912224E+02  0.90199760472E+01  0.15406162756E+02  0.59301928108E+02  0.49999970967E+02 0.  0.
        -12    1    1    2    0    0  0.26419912224E+02 -0.90199760472E+01 -0.15406162756E+02  0.31886071892E+02  0.00000000000E+00 0.  1.
         11    1    3    3    0    0  0.47699871246E+01  0.10422629738E+00 -0.17199804401E+01  0.50716834745E+01  0.51100000000E-03 0. -1.
        -11    1    3    3    0    0 -0.13707113356E+02  0.19417363229E+02 -0.48404169440E+01  0.24255898000E+02  0.51100000000E-03 0.  1.
         12    1    3    3    0    0 -0.17482785993E+02 -0.10501613479E+02  0.21966560140E+02  0.29974346634E+02  0.00000000000E+00 0. -1.
</event>
<event>
 7    1  0.3755162E-013  0.5930195E+02  0.7816164E-02  0.1266605E+00
        -11   -1    0    0    0    0  0.00000000000E+00  0.00000000000E+00  0.45593999997E+02  0.45594000000E+02  0.51100000000E-03 0. -1.
         11   -1    0    0    0    0 -0.00000000000E+00 -0.00000000000E+00 -0.45593999997E+02  0.45594000000E+02  0.51100000000E-03 0.  1.
    9900012    2    1    2    0    0 -0.59153438769E+01  0.23431340940E+02  0.20801470101E+02  0.59301949919E+02  0.50000010743E+02 0.  0.
        -12    1    1    2    0    0  0.59153438769E+01 -0.23431340940E+02 -0.20801470101E+02  0.31886050081E+02  0.00000000000E+00 0.  1.
         11    1    3    3    0    0 -0.11548342697E+02  0.95169081267E+01  0.57593170911E+01  0.16034509439E+02  0.51100000000E-03 0. -1.
        -11    1    3    3    0    0 -0.90247218572E+01  0.21967178916E+02  0.10282858135E+02  0.25879330088E+02  0.51100000000E-03 0.  1.
        -12    1    3    3    0    0  0.14657720678E+02 -0.80527461028E+01  0.47592948751E+01  0.17388110391E+02  0.00000000000E+00 0.  1.
</event>
<event>
 7    1  0.3755162E-013  0.5930193E+02  0.7816164E-02  0.1266605E+00
        -11   -1    0    0    0    0  0.00000000000E+00  0.00000000000E+00  0.45593999997E+02  0.45594000000E+02  0.51100000000E-03 0. -1.
         11   -1    0    0    0    0 -0.00000000000E+00 -0.00000000000E+00 -0.45593999997E+02  0.45594000000E+02  0.51100000000E-03 0.  1.
    9900012    2    1    2    0    0  0.28338994695E+02  0.14273937346E+02  0.31428615443E+01  0.59301929587E+02  0.49999973664E+02 0.  0.
        -12    1    1    2    0    0 -0.28338994695E+02 -0.14273937346E+02 -0.31428615443E+01  0.31886070413E+02  0.00000000000E+00 0.  1.
         11    1    3    3    0    0  0.24448275079E+01 -0.42390711267E+01  0.69144617338E+01  0.84709318785E+01  0.51100000000E-03 0. -1.
        -11    1    3    3    0    0  0.23750872981E+02  0.16094005941E+02 -0.19554686326E+02  0.34720408294E+02  0.51100000000E-03 0.  1.
         12    1    3    3    0    0  0.21432942063E+01  0.24190025316E+01  0.15783086136E+02  0.16110589414E+02  0.00000000000E+00 0. -1.
</event>
<event>
 7    1  0.3755162E-013  0.5930203E+02  0.7816164E-02  0.1266604E+00
        -11   -1    0    0    0    0  0.00000000000E+00  0.00000000000E+00  0.45593999997E+02  0.45594000000E+02  0.51100000000E-03 0. -1.
         11   -1    0    0    0    0 -0.00000000000E+00 -0.00000000000E+00 -0.45593999997E+02  0.45594000000E+02  0.51100000000E-03 0.  1.
    9900012    2    1    2    0    0 -0.31539100144E+02 -0.46783041970E+01  0.33692412004E+00  0.59302033088E+02  0.50000162425E+02 0.  0.
        -12    1    1    2    0    0  0.31539100144E+02  0.46783041970E+01 -0.33692412004E+00  0.31885966912E+02  0.00000000000E+00 0.  1.
         11    1    3    3    0    0  0.13587486946E+01  0.42683312046E+01 -0.10245494097E+02  0.11181904973E+02  0.51100000000E-03 0. -1.
        -11    1    3    3    0    0  0.18596098243E+01  0.77513966137E+01 -0.53438911259E+00  0.79892346408E+01  0.51100000000E-03 0.  1.
         12    1    3    3    0    0 -0.34757458662E+02 -0.16698032015E+02  0.11116807329E+02  0.40130893474E+02  0.00000000000E+00 0. -1.
</event>
<event>
 7    1  0.3755162E-013  0.5930182E+02  0.7816164E-02  0.1266605E+00
        -11   -1    0    0    0    0  0.00000000000E+00  0.00000000000E+00  0.45593999997E+02  0.45594000000E+02  0.51100000000E-03 0.  1.
         11   -1    0    0    0    0 -0.00000000000E+00 -0.00000000000E+00 -0.45593999997E+02  0.45594000000E+02  0.51100000000E-03 0. -1.
    9900012    2    1    2    0    0 -0.13090691032E+02  0.13257842453E+02 -0.25876470646E+02  0.59301822567E+02  0.49999778484E+02 0.  0.
        -12    1    1    2    0    0  0.13090691032E+02 -0.13257842453E+02  0.25876470646E+02  0.31886177433E+02  0.00000000000E+00 0.  1.
         11    1    3    3    0    0  0.12265485866E+01 -0.91833608510E+01  0.74161818444E+01  0.11867530972E+02  0.51100000000E-03 0. -1.
        -11    1    3    3    0    0  0.30829774367E+01  0.10496256338E+02 -0.47264840507E+01  0.11917038169E+02  0.51100000000E-03 0.  1.
        -12    1    3    3    0    0 -0.17400217056E+02  0.11944946967E+02 -0.28566168439E+02  0.35517253426E+02  0.00000000000E+00 0.  1.
</event>
<event>
 7    1  0.3755162E-013  0.5930195E+02  0.7816164E-02  0.1266605E+00
        -11   -1    0    0    0    0  0.00000000000E+00  0.00000000000E+00  0.45593999997E+02  0.45594000000E+02  0.51100000000E-03 0. -1.
         11   -1    0    0    0    0 -0.00000000000E+00 -0.00000000000E+00 -0.45593999997E+02  0.45594000000E+02  0.51100000000E-03 0.  1.
    9900012    2    1    2    0    0  0.21578387725E+02  0.13100706451E+02  0.19479858073E+02  0.59301949808E+02  0.50000010541E+02 0.  0.
        -12    1    1    2    0    0 -0.21578387725E+02 -0.13100706451E+02 -0.19479858073E+02  0.31886050192E+02  0.00000000000E+00 0.  1.
         11    1    3    3    0    0 -0.51464854753E+01  0.40112746582E+01  0.54756881876E+00  0.65480125996E+01  0.51100000000E-03 0. -1.
        -11    1    3    3    0    0  0.30734332211E+02  0.20546115246E+02  0.15895005567E+02  0.40241685233E+02  0.51100000000E-03 0.  1.
         12    1    3    3    0    0 -0.40094590107E+01 -0.11456683453E+02  0.30372836877E+01  0.12512251976E+02  0.00000000000E+00 0. -1.
</event>
<event>
 7    1  0.3755162E-013  0.5930195E+02  0.7816164E-02  0.1266605E+00
        -11   -1    0    0    0    0  0.00000000000E+00  0.00000000000E+00  0.45593999997E+02  0.45594000000E+02  0.51100000000E-03 0.  1.
         11   -1    0    0    0    0 -0.00000000000E+00 -0.00000000000E+00 -0.45593999997E+02  0.45594000000E+02  0.51100000000E-03 0. -1.
    9900012    2    1    2    0    0 -0.20845782969E+01  0.21917743327E+02 -0.23064852379E+02  0.59301947336E+02  0.50000006034E+02 0.  0.
        -12    1    1    2    0    0  0.20845782969E+01 -0.21917743327E+02  0.23064852379E+02  0.31886052664E+02  0.00000000000E+00 0.  1.
         11    1    3    3    0    0 -0.22801914437E+00  0.17920728358E+02 -0.17650623323E+02  0.25154502610E+02  0.51100000000E-03 0. -1.
        -11    1    3    3    0    0  0.11812887259E+01  0.11769353032E+02 -0.16481412981E+02  0.20286697316E+02  0.51100000000E-03 0.  1.
        -12    1    3    3    0    0 -0.30378478784E+01 -0.77723380634E+01  0.11067183926E+02  0.13860747410E+02  0.00000000000E+00 0.  1.
</event>
<event>
 7    1  0.3755162E-013  0.5930194E+02  0.7816164E-02  0.1266605E+00
        -11   -1    0    0    0    0  0.00000000000E+00  0.00000000000E+00  0.45593999997E+02  0.45594000000E+02  0.51100000000E-03 0.  1.
         11   -1    0    0    0    0 -0.00000000000E+00 -0.00000000000E+00 -0.45593999997E+02  0.45594000000E+02  0.51100000000E-03 0. -1.
    9900012    2    1    2    0    0 -0.12731274699E+02  0.26477715735E+01 -0.29114000815E+02  0.59301935752E+02  0.49999984908E+02 0.  0.
        -12    1    1    2    0    0  0.12731274699E+02 -0.26477715735E+01  0.29114000815E+02  0.31886064248E+02  0.00000000000E+00 0.  1.
         11    1    3    3    0    0 -0.15267235289E+02 -0.37761725089E+01 -0.25635502743E+02  0.30075354583E+02  0.51100000000E-03 0. -1.
        -11    1    3    3    0    0 -0.31602080520E+01  0.77148337992E-01 -0.14754206299E+02  0.15089051348E+02  0.51100000000E-03 0.  1.
        -12    1    3    3    0    0  0.56961686418E+01  0.63467957444E+01  0.11275708227E+02  0.14137529821E+02  0.00000000000E+00 0.  1.
</event>
<event>
 7    1  0.3755162E-013  0.5930192E+02  0.7816164E-02  0.1266605E+00
        -11   -1    0    0    0    0  0.00000000000E+00  0.00000000000E+00  0.45593999997E+02  0.45594000000E+02  0.51100000000E-03 0.  1.
         11   -1    0    0    0    0 -0.00000000000E+00 -0.00000000000E+00 -0.45593999997E+02  0.45594000000E+02  0.51100000000E-03 0. -1.
    9900012    2    1    2    0    0 -0.16651143121E+02  0.25896752626E+02  0.82957474955E+01  0.59301924821E+02  0.49999964971E+02 0.  0.
        -12    1    1    2    0    0  0.16651143121E+02 -0.25896752626E+02 -0.82957474955E+01  0.31886075179E+02  0.00000000000E+00 0.  1.
         11    1    3    3    0    0  0.43988338734E+00 -0.40253184451E+01  0.72008711360E+01  0.82613093004E+01  0.51100000000E-03 0. -1.
        -11    1    3    3    0    0  0.96136850149E+00  0.86221929054E+00  0.14308655376E+02  0.14366811422E+02  0.51100000000E-03 0.  1.
         12    1    3    3    0    0 -0.18052395010E+02  0.29059851781E+02 -0.13213779017E+02  0.36673804098E+02  0.00000000000E+00 0. -1.
</event>
<event>
 7    1  0.3755162E-013  0.5930194E+02  0.7816164E-02  0.1266605E+00
        -11   -1    0    0    0    0  0.00000000000E+00  0.00000000000E+00  0.45593999997E+02  0.45594000000E+02  0.51100000000E-03 0. -1.
         11   -1    0    0    0    0 -0.00000000000E+00 -0.00000000000E+00 -0.45593999997E+02  0.45594000000E+02  0.51100000000E-03 0.  1.
    9900012    2    1    2    0    0  0.12659539577E+02  0.26802200147E+02 -0.11751543835E+02  0.59301942584E+02  0.49999997367E+02 0.  0.
        -12    1    1    2    0    0 -0.12659539577E+02 -0.26802200147E+02  0.11751543835E+02  0.31886057416E+02  0.00000000000E+00 0.  1.
         11    1    3    3    0    0  0.12603711483E+02  0.22962379202E+02 -0.13911444217E+02  0.29658939330E+02  0.51100000000E-03 0. -1.
        -11    1    3    3    0    0 -0.11848682671E+02  0.94144093114E+01 -0.31640222316E+01  0.15460705697E+02  0.51100000000E-03 0.  1.
        -12    1    3    3    0    0  0.11904510764E+02 -0.55745883658E+01  0.53239226137E+01  0.14182297557E+02  0.00000000000E+00 0.  1.
</event>
<event>
 7    1  0.3755162E-013  0.5930209E+02  0.7816164E-02  0.1266604E+00
        -11   -1    0    0    0    0  0.00000000000E+00  0.00000000000E+00  0.45593999997E+02  0.45594000000E+02  0.51100000000E-03 0.  1.
         11   -1    0    0    0    0 -0.00000000000E+00 -0.00000000000E+00 -0.45593999997E+02  0.45594000000E+02  0.51100000000E-03 0. -1.
    9900012    2    1    2    0    0  0.64601965829E+01 -0.23310631844E+02 -0.20774782087E+02  0.59302089826E+02  0.50000265900E+02 0.  0.
        -12    1    1    2    0    0 -0.64601965829E+01  0.23310631844E+02  0.20774782087E+02  0.31885910174E+02  0.00000000000E+00 0.  1.
         11    1    3    3    0    0  0.10011884128E+02 -0.34630516905E+02 -0.17852653283E+02  0.40227201672E+02  0.51100000000E-03 0.  1.
        -11    1    3    3    0    0  0.15936364114E+01  0.18146559233E+01 -0.70904537145E+01  0.74904731006E+01  0.51100000000E-03 0. -1.
        -12    1    3    3    0    0 -0.51453239562E+01  0.95052291371E+01  0.41683249104E+01  0.11584415053E+02  0.00000000000E+00 0.  1.
</event>
<event>
 7    1  0.3755162E-013  0.5930182E+02  0.7816164E-02  0.1266605E+00
        -11   -1    0    0    0    0  0.00000000000E+00  0.00000000000E+00  0.45593999997E+02  0.45594000000E+02  0.51100000000E-03 0.  1.
         11   -1    0    0    0    0 -0.00000000000E+00 -0.00000000000E+00 -0.45593999997E+02  0.45594000000E+02  0.51100000000E-03 0. -1.
    9900012    2    1    2    0    0  0.25758073646E+01  0.28159641028E+02 -0.14735276409E+02  0.59301819023E+02  0.49999772021E+02 0.  0.
        -12    1    1    2    0    0 -0.25758073646E+01 -0.28159641028E+02  0.14735276409E+02  0.31886180977E+02  0.00000000000E+00 0.  1.
         11    1    3    3    0    0  0.11013407889E+02 -0.45806593182E+01 -0.40994619006E+01  0.12612818133E+02  0.51100000000E-03 0. -1.
        -11    1    3    3    0    0 -0.96540972472E+01  0.63425642790E+01  0.82616327986E+01  0.14201559494E+02  0.51100000000E-03 0.  1.
        -12    1    3    3    0    0  0.12164967232E+01  0.26397736068E+02 -0.18897447307E+02  0.32487441397E+02  0.00000000000E+00 0.  1.
</event>
<event>
 7    1  0.3755162E-013  0.5930194E+02  0.7816164E-02  0.1266605E+00
        -11   -1    0    0    0    0  0.00000000000E+00  0.00000000000E+00  0.45593999997E+02  0.45594000000E+02  0.51100000000E-03 0. -1.
         11   -1    0    0    0    0 -0.00000000000E+00 -0.00000000000E+00 -0.45593999997E+02  0.45594000000E+02  0.51100000000E-03 0.  1.
    9900012    2    1    2    0    0 -0.83434818391E+01  0.17850308087E+02  0.25069379371E+02  0.59301937684E+02  0.49999988430E+02 0.  0.
        -12    1    1    2    0    0  0.83434818391E+01 -0.17850308087E+02 -0.25069379371E+02  0.31886062316E+02  0.00000000000E+00 0.  1.
         11    1    3    3    0    0 -0.14194018766E+02  0.18676436955E+02  0.42073084523E+01  0.23832350088E+02  0.51100000000E-03 0. -1.
        -11    1    3    3    0    0 -0.92935378292E+01  0.70031970310E+01  0.83460850797E+01  0.14320326479E+02  0.51100000000E-03 0.  1.
        -12    1    3    3    0    0  0.15144074756E+02 -0.78293258985E+01  0.12515985839E+02  0.21149261117E+02  0.00000000000E+00 0.  1.
</event>
<event>
 7    1  0.3755162E-013  0.5930195E+02  0.7816164E-02  0.1266605E+00
        -11   -1    0    0    0    0  0.00000000000E+00  0.00000000000E+00  0.45593999997E+02  0.45594000000E+02  0.51100000000E-03 0.  1.
         11   -1    0    0    0    0 -0.00000000000E+00 -0.00000000000E+00 -0.45593999997E+02  0.45594000000E+02  0.51100000000E-03 0. -1.
    9900012    2    1    2    0    0  0.45047233132E+01 -0.19888429191E+02 -0.24512816406E+02  0.59301947940E+02  0.50000007135E+02 0.  0.
        -12    1    1    2    0    0 -0.45047233132E+01  0.19888429191E+02  0.24512816406E+02  0.31886052060E+02  0.00000000000E+00 0.  1.
         11    1    3    3    0    0 -0.54888899275E+01 -0.15947301636E+02 -0.15019021526E+02  0.22583519433E+02  0.51100000000E-03 0. -1.
        -11    1    3    3    0    0 -0.70135719171E+01 -0.17706987079E+01 -0.16639490535E+02  0.18143820173E+02  0.51100000000E-03 0.  1.
        -12    1    3    3    0    0  0.17007185158E+02 -0.21704288469E+01  0.71456956546E+01  0.18574608334E+02  0.00000000000E+00 0.  1.
</event>
<event>
 7    1  0.3755162E-013  0.5930194E+02  0.7816164E-02  0.1266605E+00
        -11   -1    0    0    0    0  0.00000000000E+00  0.00000000000E+00  0.45593999997E+02  0.45594000000E+02  0.51100000000E-03 0.  1.
         11   -1    0    0    0    0 -0.00000000000E+00 -0.00000000000E+00 -0.45593999997E+02  0.45594000000E+02  0.51100000000E-03 0. -1.
    9900012    2    1    2    0    0  0.51265987264E+01 -0.30092547119E+02 -0.92128896198E+01  0.59301941264E+02  0.49999994959E+02 0.  0.
        -12    1    1    2    0    0 -0.51265987264E+01  0.30092547119E+02  0.92128896198E+01  0.31886058736E+02  0.00000000000E+00 0.  1.
         11    1    3    3    0    0 -0.82327169140E+01 -0.45513329812E+01 -0.14614509014E+02  0.17380337559E+02  0.51100000000E-03 0. -1.
        -11    1    3    3    0    0  0.18430724192E+02 -0.12837638947E+02 -0.69292650763E+01  0.23505558550E+02  0.51100000000E-03 0.  1.
        -12    1    3    3    0    0 -0.50714085518E+01 -0.12703575191E+02  0.12330884470E+02  0.18416045155E+02  0.00000000000E+00 0.  1.
</event>
<event>
 7    1  0.3755162E-013  0.5930190E+02  0.7816164E-02  0.1266605E+00
        -11   -1    0    0    0    0  0.00000000000E+00  0.00000000000E+00  0.45593999997E+02  0.45594000000E+02  0.51100000000E-03 0.  1.
         11   -1    0    0    0    0 -0.00000000000E+00 -0.00000000000E+00 -0.45593999997E+02  0.45594000000E+02  0.51100000000E-03 0. -1.
    9900012    2    1    2    0    0  0.15490410789E+02  0.90814210745E+01 -0.26349537781E+02  0.59301903086E+02  0.49999925332E+02 0.  0.
        -12    1    1    2    0    0 -0.15490410789E+02 -0.90814210745E+01  0.26349537781E+02  0.31886096914E+02  0.00000000000E+00 0.  1.
         11    1    3    3    0    0  0.32284339440E+00 -0.93175662342E+00 -0.12203040060E+02  0.12242817700E+02  0.51100000000E-03 0. -1.
        -11    1    3    3    0    0 -0.13145229788E+01 -0.82535103088E+01 -0.20080360348E+02  0.21750155747E+02  0.51100000000E-03 0.  1.
        -12    1    3    3    0    0  0.16482090373E+02  0.18266688007E+02  0.59338626268E+01  0.25308929639E+02  0.00000000000E+00 0.  1.
</event>
<event>
 7    1  0.3755162E-013  0.5930199E+02  0.7816164E-02  0.1266605E+00
        -11   -1    0    0    0    0  0.00000000000E+00  0.00000000000E+00  0.45593999997E+02  0.45594000000E+02  0.51100000000E-03 0.  1.
         11   -1    0    0    0    0 -0.00000000000E+00 -0.00000000000E+00 -0.45593999997E+02  0.45594000000E+02  0.51100000000E-03 0. -1.
    9900012    2    1    2    0    0  0.20822449888E+02  0.85587704896E+01 -0.22580762049E+02  0.59301987607E+02  0.50000079478E+02 0.  0.
        -12    1    1    2    0    0 -0.20822449888E+02 -0.85587704896E+01  0.22580762049E+02  0.31886012393E+02  0.00000000000E+00 0.  1.
         11    1    3    3    0    0  0.24691230190E+01  0.26899888959E+02 -0.79269250494E+01  0.28152028977E+02  0.51100000000E-03 0. -1.
        -11    1    3    3    0    0  0.34115541777E+01 -0.95294214720E+01 -0.59709636563E+01  0.11751637450E+02  0.51100000000E-03 0.  1.
        -12    1    3    3    0    0  0.14941772691E+02 -0.88116969975E+01 -0.86828733430E+01  0.19398321181E+02  0.00000000000E+00 0.  1.
</event>
<event>
 7    1  0.3755162E-013  0.5930192E+02  0.7816164E-02  0.1266605E+00
        -11   -1    0    0    0    0  0.00000000000E+00  0.00000000000E+00  0.45593999997E+02  0.45594000000E+02  0.51100000000E-03 0.  1.
         11   -1    0    0    0    0 -0.00000000000E+00 -0.00000000000E+00 -0.45593999997E+02  0.45594000000E+02  0.51100000000E-03 0. -1.
    9900012    2    1    2    0    0 -0.29331511254E+02 -0.93362733881E+01 -0.83197797270E+01  0.59301917018E+02  0.49999950740E+02 0.  0.
        -12    1    1    2    0    0  0.29331511254E+02  0.93362733881E+01  0.83197797270E+01  0.31886082982E+02  0.00000000000E+00 0.  1.
         11    1    3    3    0    0  0.65618295631E+01 -0.28489561303E+01 -0.10322843614E+02  0.12559269835E+02  0.51100000000E-03 0. -1.
        -11    1    3    3    0    0 -0.21378787875E+02 -0.13923321220E+02 -0.90174893378E+01  0.27059685124E+02  0.51100000000E-03 0.  1.
         12    1    3    3    0    0 -0.14514552942E+02  0.74360039619E+01  0.11020553225E+02  0.19682962059E+02  0.00000000000E+00 0. -1.
</event>
<event>
 7    1  0.3755162E-013  0.5930194E+02  0.7816164E-02  0.1266605E+00
        -11   -1    0    0    0    0  0.00000000000E+00  0.00000000000E+00  0.45593999997E+02  0.45594000000E+02  0.51100000000E-03 0.  1.
         11   -1    0    0    0    0 -0.00000000000E+00 -0.00000000000E+00 -0.45593999997E+02  0.45594000000E+02  0.51100000000E-03 0. -1.
    9900012    2    1    2    0    0 -0.11560555077E+02 -0.29664565973E+02 -0.17572458613E+01  0.59301940020E+02  0.49999992691E+02 0.  0.
        -12    1    1    2    0    0  0.11560555077E+02  0.29664565973E+02  0.17572458613E+01  0.31886059980E+02  0.00000000000E+00 0.  1.
         11    1    3    3    0    0 -0.88646641695E+01 -0.22718676050E+02  0.26216477787E+01  0.24527404054E+02  0.51100000000E-03 0. -1.
        -11    1    3    3    0    0 -0.11726089035E+02 -0.14262664420E+02  0.57699977993E+01  0.19344705614E+02  0.51100000000E-03 0.  1.
         12    1    3    3    0    0  0.90301981274E+01  0.73167744967E+01 -0.10148891439E+02  0.15429830352E+02  0.00000000000E+00 0. -1.
</event>
<event>
 7    1  0.3755162E-013  0.5930201E+02  0.7816164E-02  0.1266605E+00
        -11   -1    0    0    0    0  0.00000000000E+00  0.00000000000E+00  0.45593999997E+02  0.45594000000E+02  0.51100000000E-03 0. -1.
         11   -1    0    0    0    0 -0.00000000000E+00 -0.00000000000E+00 -0.45593999997E+02  0.45594000000E+02  0.51100000000E-03 0.  1.
    9900012    2    1    2    0    0  0.30816394777E+00 -0.31585518081E+02 -0.43561970493E+01  0.59302009814E+02  0.50000119978E+02 0.  0.
        -12    1    1    2    0    0 -0.30816394777E+00  0.31585518081E+02  0.43561970493E+01  0.31885990186E+02  0.00000000000E+00 0.  1.
         11    1    3    3    0    0  0.50689897869E+00 -0.14948868665E+02  0.11891872238E+02  0.19108695573E+02  0.51100000000E-03 0. -1.
        -11    1    3    3    0    0  0.68201154128E+01  0.67107333646E+01  0.19574728305E+01  0.97662488540E+01  0.51100000000E-03 0.  1.
        -12    1    3    3    0    0 -0.70188504438E+01 -0.23347382781E+02 -0.18205542117E+02  0.30427065387E+02  0.00000000000E+00 0.  1.
</event>
<event>
 7    1  0.3755162E-013  0.5930195E+02  0.7816164E-02  0.1266605E+00
        -11   -1    0    0    0    0  0.00000000000E+00  0.00000000000E+00  0.45593999997E+02  0.45594000000E+02  0.51100000000E-03 0. -1.
         11   -1    0    0    0    0 -0.00000000000E+00 -0.00000000000E+00 -0.45593999997E+02  0.45594000000E+02  0.51100000000E-03 0.  1.
    9900012    2    1    2    0    0 -0.21146883097E+02 -0.52122050284E+01  0.23288672384E+02  0.59301952779E+02  0.50000015960E+02 0.  0.
        -12    1    1    2    0    0  0.21146883097E+02  0.52122050284E+01 -0.23288672384E+02  0.31886047221E+02  0.00000000000E+00 0.  1.
         11    1    3    3    0    0  0.14862036254E+02  0.25033417869E+01  0.69986187781E+01  0.16617084786E+02  0.51100000000E-03 0.  1.
        -11    1    3    3    0    0 -0.83772331816E+01 -0.17834917397E+01  0.10985923573E+02  0.13930161362E+02  0.51100000000E-03 0. -1.
        -12    1    3    3    0    0 -0.27631686170E+02 -0.59320550757E+01  0.53041300334E+01  0.28754706631E+02  0.00000000000E+00 0.  1.
</event>
<event>
 7    1  0.3755162E-013  0.5930188E+02  0.7816164E-02  0.1266605E+00
        -11   -1    0    0    0    0  0.00000000000E+00  0.00000000000E+00  0.45593999997E+02  0.45594000000E+02  0.51100000000E-03 0.  1.
         11   -1    0    0    0    0 -0.00000000000E+00 -0.00000000000E+00 -0.45593999997E+02  0.45594000000E+02  0.51100000000E-03 0. -1.
    9900012    2    1    2    0    0  0.18185552690E+02 -0.24951596669E+02  0.79641870889E+01  0.59301877957E+02  0.49999879502E+02 0.  0.
        -12    1    1    2    0    0 -0.18185552690E+02  0.24951596669E+02 -0.79641870889E+01  0.31886122043E+02  0.00000000000E+00 0.  1.
         11    1    3    3    0    0  0.23331453508E+02 -0.12285661437E+02  0.20530919827E+02  0.33418750260E+02  0.51100000000E-03 0. -1.
        -11    1    3    3    0    0 -0.31353338777E+01  0.13027437874E+01  0.32399782558E+01  0.46930714100E+01  0.51100000000E-03 0.  1.
         12    1    3    3    0    0 -0.20105669401E+01 -0.13968679019E+02 -0.15806710994E+02  0.21190056286E+02  0.00000000000E+00 0. -1.
</event>
<event>
 7    1  0.3755162E-013  0.5930167E+02  0.7816164E-02  0.1266606E+00
        -11   -1    0    0    0    0  0.00000000000E+00  0.00000000000E+00  0.45593999997E+02  0.45594000000E+02  0.51100000000E-03 0.  1.
         11   -1    0    0    0    0 -0.00000000000E+00 -0.00000000000E+00 -0.45593999997E+02  0.45594000000E+02  0.51100000000E-03 0. -1.
    9900012    2    1    2    0    0 -0.16203854819E+02 -0.27455817421E+02 -0.59285931504E+00  0.59301665883E+02  0.49999492728E+02 0.  0.
        -12    1    1    2    0    0  0.16203854819E+02  0.27455817421E+02  0.59285931504E+00  0.31886334117E+02  0.00000000000E+00 0.  1.
         11    1    3    3    0    0 -0.46288850267E+01 -0.11140540892E+02 -0.20509379128E+01  0.12237016570E+02  0.51100000000E-03 0. -1.
        -11    1    3    3    0    0 -0.10048996218E+02 -0.30214795799E+02  0.59185367541E+01  0.32387424840E+02  0.51100000000E-03 0.  1.
         12    1    3    3    0    0 -0.15259735736E+01  0.13899519270E+02 -0.44604581563E+01  0.14677224473E+02  0.00000000000E+00 0. -1.
</event>
<event>
 7    1  0.3755162E-013  0.5930194E+02  0.7816164E-02  0.1266605E+00
        -11   -1    0    0    0    0  0.00000000000E+00  0.00000000000E+00  0.45593999997E+02  0.45594000000E+02  0.51100000000E-03 0. -1.
         11   -1    0    0    0    0 -0.00000000000E+00 -0.00000000000E+00 -0.45593999997E+02  0.45594000000E+02  0.51100000000E-03 0.  1.
    9900012    2    1    2    0    0 -0.25290241820E+02 -0.14471663701E+02  0.12949729260E+02  0.59301939260E+02  0.49999991305E+02 0.  0.
        -12    1    1    2    0    0  0.25290241820E+02  0.14471663701E+02 -0.12949729260E+02  0.31886060740E+02  0.00000000000E+00 0.  1.
         11    1    3    3    0    0 -0.22340016403E+02 -0.83670973770E+01 -0.64921411988E+01  0.24723117704E+02  0.51100000000E-03 0. -1.
        -11    1    3    3    0    0 -0.34747220622E+01  0.29058277732E+01 -0.60376779322E+01  0.75479191524E+01  0.51100000000E-03 0.  1.
         12    1    3    3    0    0  0.52449664588E+00 -0.90103940976E+01  0.25479548391E+02  0.27030902403E+02  0.00000000000E+00 0. -1.
</event>
<event>
 7    1  0.3755162E-013  0.5930194E+02  0.7816164E-02  0.1266605E+00
        -11   -1    0    0    0    0  0.00000000000E+00  0.00000000000E+00  0.45593999997E+02  0.45594000000E+02  0.51100000000E-03 0.  1.
         11   -1    0    0    0    0 -0.00000000000E+00 -0.00000000000E+00 -0.45593999997E+02  0.45594000000E+02  0.51100000000E-03 0. -1.
    9900012    2    1    2    0    0  0.22396417791E+02  0.12238718153E+02 -0.19113740165E+02  0.59301940115E+02  0.49999992864E+02 0.  0.
        -12    1    1    2    0    0 -0.22396417791E+02 -0.12238718153E+02  0.19113740165E+02  0.31886059885E+02  0.00000000000E+00 0.  1.
         11    1    3    3    0    0  0.44902041392E+01  0.97993334927E+01 -0.10076399294E+02  0.14755429275E+02  0.51100000000E-03 0. -1.
        -11    1    3    3    0    0  0.27420322351E+02  0.12062882228E+02 -0.46158465529E+01  0.30309952906E+02  0.51100000000E-03 0.  1.
        -12    1    3    3    0    0 -0.95141086994E+01 -0.96234975684E+01 -0.44214943180E+01  0.14236557934E+02  0.00000000000E+00 0.  1.
</event>
<event>
 7    1  0.3755162E-013  0.5930203E+02  0.7816164E-02  0.1266604E+00
        -11   -1    0    0    0    0  0.00000000000E+00  0.00000000000E+00  0.45593999997E+02  0.45594000000E+02  0.51100000000E-03 0.  1.
         11   -1    0    0    0    0 -0.00000000000E+00 -0.00000000000E+00 -0.45593999997E+02  0.45594000000E+02  0.51100000000E-03 0. -1.
    9900012    2    1    2    0    0  0.12084796306E+02 -0.12830735719E+02 -0.26571511191E+02  0.59302026786E+02  0.50000150931E+02 0.  0.
        -12    1    1    2    0    0 -0.12084796306E+02  0.12830735719E+02  0.26571511191E+02  0.31885973214E+02  0.00000000000E+00 0.  1.
         11    1    3    3    0    0  0.11943113494E+02 -0.14662610121E+02 -0.50908134522E+01  0.19584342658E+02  0.51100000000E-03 0. -1.
        -11    1    3    3    0    0  0.37079837169E+01 -0.14854738145E+02 -0.15089313423E+02  0.21496505958E+02  0.51100000000E-03 0.  1.
         12    1    3    3    0    0 -0.35663009049E+01  0.16686612546E+02 -0.63913843156E+01  0.18221178170E+02  0.00000000000E+00 0. -1.
</event>
<event>
 7    1  0.3755162E-013  0.5930193E+02  0.7816164E-02  0.1266605E+00
        -11   -1    0    0    0    0  0.00000000000E+00  0.00000000000E+00  0.45593999997E+02  0.45594000000E+02  0.51100000000E-03 0.  1.
         11   -1    0    0    0    0 -0.00000000000E+00 -0.00000000000E+00 -0.45593999997E+02  0.45594000000E+02  0.51100000000E-03 0. -1.
    9900012    2    1    2    0    0  0.59970822783E+01 -0.30827801857E+02 -0.55139138276E+01  0.59301927666E+02  0.49999970160E+02 0.  0.
        -12    1    1    2    0    0 -0.59970822783E+01  0.30827801857E+02  0.55139138276E+01  0.31886072334E+02  0.00000000000E+00 0.  1.
         11    1    3    3    0    0 -0.20570255723E+02 -0.15082072427E+02 -0.53225404608E+01  0.26056357505E+02  0.51100000000E-03 0. -1.
        -11    1    3    3    0    0  0.10853602474E+02 -0.39897364336E+00 -0.25452472973E+01  0.11155184925E+02  0.51100000000E-03 0.  1.
        -12    1    3    3    0    0  0.15713735527E+02 -0.15346755787E+02  0.23538739305E+01  0.22090385236E+02  0.00000000000E+00 0.  1.
</event>
<event>
 7    1  0.3755162E-013  0.5930194E+02  0.7816164E-02  0.1266605E+00
        -11   -1    0    0    0    0  0.00000000000E+00  0.00000000000E+00  0.45593999997E+02  0.45594000000E+02  0.51100000000E-03 0. -1.
         11   -1    0    0    0    0 -0.00000000000E+00 -0.00000000000E+00 -0.45593999997E+02  0.45594000000E+02  0.51100000000E-03 0.  1.
    9900012    2    1    2    0    0  0.24857032885E+02 -0.17440154613E+02 -0.97308727257E+01  0.59301937829E+02  0.49999988695E+02 0.  0.
        -12    1    1    2    0    0 -0.24857032885E+02  0.17440154613E+02  0.97308727257E+01  0.31886062171E+02  0.00000000000E+00 0.  1.
         11    1    3    3    0    0 -0.97620632748E+01 -0.18718754966E+02 -0.13511122987E+01  0.21154554393E+02  0.51100000000E-03 0. -1.
        -11    1    3    3    0    0  0.16948108874E+02 -0.47884692720E+01  0.14212022721E+00  0.17612155768E+02  0.51100000000E-03 0.  1.
        -12    1    3    3    0    0  0.17670987287E+02  0.60670696250E+01 -0.85218806542E+01  0.20535227669E+02  0.00000000000E+00 0.  1.
</event>
<event>
 7    1  0.3755162E-013  0.5930194E+02  0.7816164E-02  0.1266605E+00
        -11   -1    0    0    0    0  0.00000000000E+00  0.00000000000E+00  0.45593999997E+02  0.45594000000E+02  0.51100000000E-03 0. -1.
         11   -1    0    0    0    0 -0.00000000000E+00 -0.00000000000E+00 -0.45593999997E+02  0.45594000000E+02  0.51100000000E-03 0.  1.
    9900012    2    1    2    0    0  0.31823805916E+02  0.71735520391E+00  0.18579021777E+01  0.59301936869E+02  0.49999986945E+02 0.  0.
        -12    1    1    2    0    0 -0.31823805916E+02 -0.71735520391E+00 -0.18579021777E+01  0.31886063131E+02  0.00000000000E+00 0.  1.
         11    1    3    3    0    0 -0.55771459387E+01  0.81982934725E+01 -0.77870353346E+01  0.12607715584E+02  0.51100000000E-03 0. -1.
        -11    1    3    3    0    0 -0.13171859761E+01 -0.14464571815E+01 -0.46008295230E+01  0.49994849569E+01  0.51100000000E-03 0.  1.
         12    1    3    3    0    0  0.38718137831E+02 -0.60344810872E+01  0.14245767035E+02  0.41694736328E+02  0.00000000000E+00 0. -1.
</event>
<event>
 7    1  0.3755162E-013  0.5930197E+02  0.7816164E-02  0.1266605E+00
        -11   -1    0    0    0    0  0.00000000000E+00  0.00000000000E+00  0.45593999997E+02  0.45594000000E+02  0.51100000000E-03 0.  1.
         11   -1    0    0    0    0 -0.00000000000E+00 -0.00000000000E+00 -0.45593999997E+02  0.45594000000E+02  0.51100000000E-03 0. -1.
    9900012    2    1    2    0    0 -0.10516867306E+02  0.13300963427E+02 -0.27003679581E+02  0.59301971133E+02  0.50000049433E+02 0.  0.
        -12    1    1    2    0    0  0.10516867306E+02 -0.13300963427E+02  0.27003679581E+02  0.31886028867E+02  0.00000000000E+00 0.  1.
         11    1    3    3    0    0 -0.16356466699E+00  0.19503942445E+02 -0.33452348284E+02  0.38723250512E+02  0.51100000000E-03 0. -1.
        -11    1    3    3    0    0 -0.44801145785E+01  0.37086007972E+01  0.69306873890E+01  0.90476281121E+01  0.51100000000E-03 0.  1.
        -12    1    3    3    0    0 -0.58731880604E+01 -0.99115798148E+01 -0.48201868646E+00  0.11531092508E+02  0.00000000000E+00 0.  1.
</event>
<event>
 7    1  0.3755162E-013  0.5930200E+02  0.7816164E-02  0.1266605E+00
        -11   -1    0    0    0    0  0.00000000000E+00  0.00000000000E+00  0.45593999997E+02  0.45594000000E+02  0.51100000000E-03 0. -1.
         11   -1    0    0    0    0 -0.00000000000E+00 -0.00000000000E+00 -0.45593999997E+02  0.45594000000E+02  0.51100000000E-03 0.  1.
    9900012    2    1    2    0    0 -0.53850918554E+01 -0.30706273197E+02  0.66964831564E+01  0.59301995004E+02  0.50000092968E+02 0.  0.
        -12    1    1    2    0    0  0.53850918554E+01  0.30706273197E+02 -0.66964831564E+01  0.31886004996E+02  0.00000000000E+00 0.  1.
         11    1    3    3    0    0 -0.79579603430E+01 -0.90385832918E+01  0.14840168076E+02  0.19111664227E+02  0.51100000000E-03 0. -1.
        -11    1    3    3    0    0 -0.10609292682E+02  0.29620547024E+01  0.26019884376E+00  0.11018101604E+02  0.51100000000E-03 0.  1.
         12    1    3    3    0    0  0.13182161169E+02 -0.24629744608E+02 -0.84038837636E+01  0.29172229172E+02  0.00000000000E+00 0. -1.
</event>
<event>
 7    1  0.3755162E-013  0.5930162E+02  0.7816164E-02  0.1266606E+00
        -11   -1    0    0    0    0  0.00000000000E+00  0.00000000000E+00  0.45593999997E+02  0.45594000000E+02  0.51100000000E-03 0.  1.
         11   -1    0    0    0    0 -0.00000000000E+00 -0.00000000000E+00 -0.45593999997E+02  0.45594000000E+02  0.51100000000E-03 0. -1.
    9900012    2    1    2    0    0  0.18165040768E+02 -0.47153042818E+01  0.25778646399E+02  0.59301617158E+02  0.49999403865E+02 0.  0.
        -12    1    1    2    0    0 -0.18165040768E+02  0.47153042818E+01 -0.25778646399E+02  0.31886382842E+02  0.00000000000E+00 0.  1.
         11    1    3    3    0    0 -0.10293102861E+02 -0.13369033323E+02  0.12452620453E+02  0.20970140079E+02  0.51100000000E-03 0. -1.
        -11    1    3    3    0    0 -0.28415924628E+01  0.16326622384E+01  0.34722018849E+01  0.47745596550E+01  0.51100000000E-03 0.  1.
         12    1    3    3    0    0  0.31299736091E+02  0.70210668032E+01  0.98538240606E+01  0.33556917425E+02  0.00000000000E+00 0. -1.
</event>
<event>
 7    1  0.3755162E-013  0.5930195E+02  0.7816164E-02  0.1266605E+00
        -11   -1    0    0    0    0  0.00000000000E+00  0.00000000000E+00  0.45593999997E+02  0.45594000000E+02  0.51100000000E-03 0. -1.
         11   -1    0    0    0    0 -0.00000000000E+00 -0.00000000000E+00 -0.45593999997E+02  0.45594000000E+02  0.51100000000E-03 0.  1.
    9900012    2    1    2    0    0  0.29440339948E+02  0.12104472547E+02  0.18624249696E+01  0.59301945075E+02  0.50000001910E+02 0.  0.
        -12    1    1    2    0    0 -0.29440339948E+02 -0.12104472547E+02 -0.18624249696E+01  0.31886054925E+02  0.00000000000E+00 0.  1.
         11    1    3    3    0    0  0.35931101215E+01 -0.47672482550E+01  0.27605034261E+01  0.65770415612E+01  0.51100000000E-03 0. -1.
        -11    1    3    3    0    0 -0.70695434352E+01 -0.65465475868E+01  0.65449088333E+01  0.11647813597E+02  0.51100000000E-03 0.  1.
         12    1    3    3    0    0  0.32916773262E+02  0.23418268389E+02 -0.74429872898E+01  0.41077089917E+02  0.00000000000E+00 0. -1.
</event>
<event>
 7    1  0.3755162E-013  0.5930177E+02  0.7816164E-02  0.1266605E+00
        -11   -1    0    0    0    0  0.00000000000E+00  0.00000000000E+00  0.45593999997E+02  0.45594000000E+02  0.51100000000E-03 0. -1.
         11   -1    0    0    0    0 -0.00000000000E+00 -0.00000000000E+00 -0.45593999997E+02  0.45594000000E+02  0.51100000000E-03 0.  1.
    9900012    2    1    2    0    0  0.61614380051E+01 -0.22460717204E+02  0.21778072600E+02  0.59301771283E+02  0.49999684954E+02 0.  0.
        -12    1    1    2    0    0 -0.61614380051E+01  0.22460717204E+02 -0.21778072600E+02  0.31886228717E+02  0.00000000000E+00 0.  1.
         11    1    3    3    0    0  0.44237866352E+01  0.84238312866E+00 -0.39454635490E+01  0.59871679788E+01  0.51100000000E-03 0. -1.
        -11    1    3    3    0    0 -0.61699843920E+01  0.89697176969E+01  0.14728182594E+02  0.18315127784E+02  0.51100000000E-03 0.  1.
         12    1    3    3    0    0  0.79076357618E+01 -0.32272818029E+02  0.10995353555E+02  0.34999475520E+02  0.00000000000E+00 0. -1.
</event>
<event>
 7    1  0.3755162E-013  0.5930192E+02  0.7816164E-02  0.1266605E+00
        -11   -1    0    0    0    0  0.00000000000E+00  0.00000000000E+00  0.45593999997E+02  0.45594000000E+02  0.51100000000E-03 0.  1.
         11   -1    0    0    0    0 -0.00000000000E+00 -0.00000000000E+00 -0.45593999997E+02  0.45594000000E+02  0.51100000000E-03 0. -1.
    9900012    2    1    2    0    0 -0.25538580899E+02 -0.19231212359E+01 -0.18994855954E+02  0.59301920555E+02  0.49999957192E+02 0.  0.
        -12    1    1    2    0    0  0.25538580899E+02  0.19231212359E+01  0.18994855954E+02  0.31886079445E+02  0.00000000000E+00 0.  1.
         11    1    3    3    0    0 -0.11144233985E+02 -0.70697348851E+01 -0.37108598654E+01  0.13709324697E+02  0.51100000000E-03 0. -1.
        -11    1    3    3    0    0  0.10061087473E+02 -0.87580262549E+01  0.47490817808E+00  0.13347435824E+02  0.51100000000E-03 0.  1.
         12    1    3    3    0    0 -0.24455434387E+02  0.13904639904E+02 -0.15758904267E+02  0.32245160034E+02  0.00000000000E+00 0. -1.
</event>
<event>
 7    1  0.3755162E-013  0.5930197E+02  0.7816164E-02  0.1266605E+00
        -11   -1    0    0    0    0  0.00000000000E+00  0.00000000000E+00  0.45593999997E+02  0.45594000000E+02  0.51100000000E-03 0. -1.
         11   -1    0    0    0    0 -0.00000000000E+00 -0.00000000000E+00 -0.45593999997E+02  0.45594000000E+02  0.51100000000E-03 0.  1.
    9900012    2    1    2    0    0 -0.21616110650E+02  0.74657162437E+01 -0.22219938712E+02  0.59301971162E+02  0.50000049486E+02 0.  0.
        -12    1    1    2    0    0  0.21616110650E+02 -0.74657162437E+01  0.22219938712E+02  0.31886028838E+02  0.00000000000E+00 0.  1.
         11    1    3    3    0    0 -0.86317717555E+00  0.89781780822E+01 -0.29605601811E+01  0.94930328852E+01  0.51100000000E-03 0. -1.
        -11    1    3    3    0    0  0.87455435605E+01  0.96099551313E+01 -0.11477721134E+02  0.17337065856E+02  0.51100000000E-03 0.  1.
        -12    1    3    3    0    0 -0.29498477035E+02 -0.11122416970E+02 -0.77816573969E+01  0.32471872421E+02  0.00000000000E+00 0.  1.
</event>
<event>
 7    1  0.3755162E-013  0.5930194E+02  0.7816164E-02  0.1266605E+00
        -11   -1    0    0    0    0  0.00000000000E+00  0.00000000000E+00  0.45593999997E+02  0.45594000000E+02  0.51100000000E-03 0.  1.
         11   -1    0    0    0    0 -0.00000000000E+00 -0.00000000000E+00 -0.45593999997E+02  0.45594000000E+02  0.51100000000E-03 0. -1.
    9900012    2    1    2    0    0 -0.23297596455E+02  0.21133935053E+02 -0.52248805821E+01  0.59301943667E+02  0.49999999341E+02 0.  0.
        -12    1    1    2    0    0  0.23297596455E+02 -0.21133935053E+02  0.52248805821E+01  0.31886056333E+02  0.00000000000E+00 0.  1.
         11    1    3    3    0    0 -0.28431060730E+01  0.77928307778E+01  0.72001816856E+01  0.10984265121E+02  0.51100000000E-03 0. -1.
        -11    1    3    3    0    0  0.47889185244E+01  0.11646214592E+02  0.87429930448E+01  0.15329970078E+02  0.51100000000E-03 0.  1.
         12    1    3    3    0    0 -0.25243408906E+02  0.16948896832E+01 -0.21168055312E+02  0.32987708468E+02  0.00000000000E+00 0. -1.
</event>
<event>
 7    1  0.3755162E-013  0.5930192E+02  0.7816164E-02  0.1266605E+00
        -11   -1    0    0    0    0  0.00000000000E+00  0.00000000000E+00  0.45593999997E+02  0.45594000000E+02  0.51100000000E-03 0. -1.
         11   -1    0    0    0    0 -0.00000000000E+00 -0.00000000000E+00 -0.45593999997E+02  0.45594000000E+02  0.51100000000E-03 0.  1.
    9900012    2    1    2    0    0  0.15878854676E+02  0.15310338142E+02  0.23025586864E+02  0.59301919490E+02  0.49999955250E+02 0.  0.
        -12    1    1    2    0    0 -0.15878854676E+02 -0.15310338142E+02 -0.23025586864E+02  0.31886080510E+02  0.00000000000E+00 0.  1.
         11    1    3    3    0    0 -0.67667670972E+01  0.31385783819E+01  0.18483507119E+02  0.19931880164E+02  0.51100000000E-03 0. -1.
        -11    1    3    3    0    0 -0.18648460772E+01 -0.23805926204E-01  0.11069682696E+02  0.11225688970E+02  0.51100000000E-03 0.  1.
        -12    1    3    3    0    0  0.24510467851E+02  0.12195565687E+02 -0.65276029509E+01  0.28144350356E+02  0.00000000000E+00 0.  1.
</event>
<event>
 7    1  0.3755162E-013  0.5930194E+02  0.7816164E-02  0.1266605E+00
        -11   -1    0    0    0    0  0.00000000000E+00  0.00000000000E+00  0.45593999997E+02  0.45594000000E+02  0.51100000000E-03 0. -1.
         11   -1    0    0    0    0 -0.00000000000E+00 -0.00000000000E+00 -0.45593999997E+02  0.45594000000E+02  0.51100000000E-03 0.  1.
    9900012    2    1    2    0    0 -0.25392297451E+02  0.14252024114E+02 -0.12993524851E+02  0.59301942714E+02  0.49999997605E+02 0.  0.
        -12    1    1    2    0    0  0.25392297451E+02 -0.14252024114E+02  0.12993524851E+02  0.31886057286E+02  0.00000000000E+00 0.  1.
         11    1    3    3    0    0  0.41868877597E+01 -0.54075397376E+01  0.49017133627E+01  0.84141731191E+01  0.51100000000E-03 0.  1.
        -11    1    3    3    0    0 -0.12538696063E+02 -0.15572971028E+01  0.66170214645E+01  0.14262855484E+02  0.51100000000E-03 0. -1.
         12    1    3    3    0    0 -0.17040489147E+02  0.21216860955E+02 -0.24512259678E+02  0.36624914111E+02  0.00000000000E+00 0. -1.
</event>
<event>
 7    1  0.3755162E-013  0.5930195E+02  0.7816164E-02  0.1266605E+00
        -11   -1    0    0    0    0  0.00000000000E+00  0.00000000000E+00  0.45593999997E+02  0.45594000000E+02  0.51100000000E-03 0.  1.
         11   -1    0    0    0    0 -0.00000000000E+00 -0.00000000000E+00 -0.45593999997E+02  0.45594000000E+02  0.51100000000E-03 0. -1.
    9900012    2    1    2    0    0  0.23283163037E+02  0.42653613363E+01  0.21364017784E+02  0.59301949065E+02  0.50000009187E+02 0.  0.
        -12    1    1    2    0    0 -0.23283163037E+02 -0.42653613363E+01 -0.21364017784E+02  0.31886050935E+02  0.00000000000E+00 0.  1.
         11    1    3    3    0    0 -0.71857746624E+01 -0.49792603963E+01  0.74846457037E+01  0.11508619082E+02  0.51100000000E-03 0. -1.
        -11    1    3    3    0    0 -0.46912704776E+01  0.93969737001E+01  0.43184287090E+01  0.11356053900E+02  0.51100000000E-03 0.  1.
        -12    1    3    3    0    0  0.35160208177E+02 -0.15235196743E+00  0.95609433712E+01  0.36437276083E+02  0.00000000000E+00 0.  1.
</event>
<event>
 7    1  0.3755162E-013  0.5930196E+02  0.7816164E-02  0.1266605E+00
        -11   -1    0    0    0    0  0.00000000000E+00  0.00000000000E+00  0.45593999997E+02  0.45594000000E+02  0.51100000000E-03 0. -1.
         11   -1    0    0    0    0 -0.00000000000E+00 -0.00000000000E+00 -0.45593999997E+02  0.45594000000E+02  0.51100000000E-03 0.  1.
    9900012    2    1    2    0    0 -0.15822704265E+02 -0.27633156822E+02  0.16644224470E+01  0.59301958723E+02  0.50000026801E+02 0.  0.
        -12    1    1    2    0    0  0.15822704265E+02  0.27633156822E+02 -0.16644224470E+01  0.31886041277E+02  0.00000000000E+00 0.  1.
         11    1    3    3    0    0 -0.67188289102E+01  0.49068979825E+01 -0.77803402107E+01  0.11390961495E+02  0.51100000000E-03 0.  1.
        -11    1    3    3    0    0  0.11629169184E+02 -0.71635817951E+01  0.61412910016E+01  0.14975644743E+02  0.51100000000E-03 0. -1.
         12    1    3    3    0    0 -0.20733044539E+02 -0.25376473010E+02  0.33034716562E+01  0.32935352484E+02  0.00000000000E+00 0. -1.
</event>
<event>
 7    1  0.3755162E-013  0.5930193E+02  0.7816164E-02  0.1266605E+00
        -11   -1    0    0    0    0  0.00000000000E+00  0.00000000000E+00  0.45593999997E+02  0.45594000000E+02  0.51100000000E-03 0.  1.
         11   -1    0    0    0    0 -0.00000000000E+00 -0.00000000000E+00 -0.45593999997E+02  0.45594000000E+02  0.51100000000E-03 0. -1.
    9900012    2    1    2    0    0  0.11613275288E+02 -0.28030765802E+02 -0.98045547090E+01  0.59301932707E+02  0.49999979355E+02 0.  0.
        -12    1    1    2    0    0 -0.11613275288E+02  0.28030765802E+02  0.98045547090E+01  0.31886067293E+02  0.00000000000E+00 0.  1.
         11    1    3    3    0    0  0.10402521195E+01 -0.25164681884E+02 -0.15757206428E+02  0.29709138215E+02  0.51100000000E-03 0. -1.
        -11    1    3    3    0    0 -0.46376396269E-01 -0.83327892532E+01 -0.77747612791E+01  0.11396685515E+02  0.51100000000E-03 0.  1.
        -12    1    3    3    0    0  0.10619399564E+02  0.54667053356E+01  0.13727412998E+02  0.18196108978E+02  0.00000000000E+00 0.  1.
</event>
<event>
 7    1  0.3755162E-013  0.5930193E+02  0.7816164E-02  0.1266605E+00
        -11   -1    0    0    0    0  0.00000000000E+00  0.00000000000E+00  0.45593999997E+02  0.45594000000E+02  0.51100000000E-03 0.  1.
         11   -1    0    0    0    0 -0.00000000000E+00 -0.00000000000E+00 -0.45593999997E+02  0.45594000000E+02  0.51100000000E-03 0. -1.
    9900012    2    1    2    0    0 -0.28236025227E+02  0.13649557426E+02 -0.57565613401E+01  0.59301928793E+02  0.49999972216E+02 0.  0.
        -12    1    1    2    0    0  0.28236025227E+02 -0.13649557426E+02  0.57565613401E+01  0.31886071207E+02  0.00000000000E+00 0.  1.
         11    1    3    3    0    0 -0.24637209495E+01 -0.12333519900E+02 -0.12092175886E+02  0.17447244824E+02  0.51100000000E-03 0. -1.
        -11    1    3    3    0    0  0.18251596485E+01  0.84570409654E+01  0.69726940137E+00  0.86798003728E+01  0.51100000000E-03 0.  1.
        -12    1    3    3    0    0 -0.27597463926E+02  0.17526036360E+02  0.56383451443E+01  0.33174883596E+02  0.00000000000E+00 0.  1.
</event>
<event>
 7    1  0.3755162E-013  0.5930191E+02  0.7816164E-02  0.1266605E+00
        -11   -1    0    0    0    0  0.00000000000E+00  0.00000000000E+00  0.45593999997E+02  0.45594000000E+02  0.51100000000E-03 0. -1.
         11   -1    0    0    0    0 -0.00000000000E+00 -0.00000000000E+00 -0.45593999997E+02  0.45594000000E+02  0.51100000000E-03 0.  1.
    9900012    2    1    2    0    0  0.11788631858E+01  0.21608267959E+02  0.23418271998E+02  0.59301914853E+02  0.49999946792E+02 0.  0.
        -12    1    1    2    0    0 -0.11788631858E+01 -0.21608267959E+02 -0.23418271998E+02  0.31886085147E+02  0.00000000000E+00 0.  1.
         11    1    3    3    0    0 -0.51287630030E+01  0.12266455587E+02 -0.33307609086E+01  0.13706352947E+02  0.51100000000E-03 0. -1.
        -11    1    3    3    0    0  0.17219929824E+02  0.14661527177E+02  0.95642821743E+01  0.24555281633E+02  0.51100000000E-03 0.  1.
         12    1    3    3    0    0 -0.10912303635E+02 -0.53197148048E+01  0.17184750733E+02  0.21040280273E+02  0.00000000000E+00 0. -1.
</event>
<event>
 7    1  0.3755162E-013  0.5930194E+02  0.7816164E-02  0.1266605E+00
        -11   -1    0    0    0    0  0.00000000000E+00  0.00000000000E+00  0.45593999997E+02  0.45594000000E+02  0.51100000000E-03 0.  1.
         11   -1    0    0    0    0 -0.00000000000E+00 -0.00000000000E+00 -0.45593999997E+02  0.45594000000E+02  0.51100000000E-03 0. -1.
    9900012    2    1    2    0    0 -0.89277736087E+01 -0.13317009418E+02 -0.27562169940E+02  0.59301935752E+02  0.49999984907E+02 0.  0.
        -12    1    1    2    0    0  0.89277736087E+01  0.13317009418E+02  0.27562169940E+02  0.31886064248E+02  0.00000000000E+00 0.  1.
         11    1    3    3    0    0 -0.21491628337E+02 -0.14928918636E+02 -0.33158400241E+02  0.42240291275E+02  0.51100000000E-03 0. -1.
        -11    1    3    3    0    0  0.36055384583E+01 -0.35830978917E+01  0.42364487078E+01  0.66170987593E+01  0.51100000000E-03 0.  1.
        -12    1    3    3    0    0  0.89583162697E+01  0.51950071104E+01  0.13597815937E+01  0.10444545718E+02  0.00000000000E+00 0.  1.
</event>
<event>
 7    1  0.3755162E-013  0.5930195E+02  0.7816164E-02  0.1266605E+00
        -11   -1    0    0    0    0  0.00000000000E+00  0.00000000000E+00  0.45593999997E+02  0.45594000000E+02  0.51100000000E-03 0.  1.
         11   -1    0    0    0    0 -0.00000000000E+00 -0.00000000000E+00 -0.45593999997E+02  0.45594000000E+02  0.51100000000E-03 0. -1.
    9900012    2    1    2    0    0  0.32645853792E+01  0.31677808688E+02 -0.16058706357E+01  0.59301954440E+02  0.50000018989E+02 0.  0.
        -12    1    1    2    0    0 -0.32645853792E+01 -0.31677808688E+02  0.16058706357E+01  0.31886045560E+02  0.00000000000E+00 0.  1.
         11    1    3    3    0    0  0.78394066010E+01  0.31816593285E+02 -0.60697672453E+01  0.33325575446E+02  0.51100000000E-03 0. -1.
        -11    1    3    3    0    0 -0.10005729015E+02  0.96829931002E+01  0.48556417636E+01  0.14746261414E+02  0.51100000000E-03 0.  1.
        -12    1    3    3    0    0  0.54309077930E+01 -0.98217776970E+01 -0.39174515395E+00  0.11230117580E+02  0.00000000000E+00 0.  1.
</event>
<event>
 7    1  0.3755162E-013  0.5930195E+02  0.7816164E-02  0.1266605E+00
        -11   -1    0    0    0    0  0.00000000000E+00  0.00000000000E+00  0.45593999997E+02  0.45594000000E+02  0.51100000000E-03 0.  1.
         11   -1    0    0    0    0 -0.00000000000E+00 -0.00000000000E+00 -0.45593999997E+02  0.45594000000E+02  0.51100000000E-03 0. -1.
    9900012    2    1    2    0    0 -0.20253154323E+02 -0.24620094242E+02  0.61737662205E+00  0.59301945769E+02  0.50000003176E+02 0.  0.
        -12    1    1    2    0    0  0.20253154323E+02  0.24620094242E+02 -0.61737662205E+00  0.31886054231E+02  0.00000000000E+00 0.  1.
         11    1    3    3    0    0  0.12505406588E+01 -0.17671861907E+02 -0.14228453743E+02  0.22722399772E+02  0.51100000000E-03 0. -1.
        -11    1    3    3    0    0 -0.51741540446E+01 -0.57510544540E+01 -0.62005254377E+01  0.99142833011E+01  0.51100000000E-03 0.  1.
        -12    1    3    3    0    0 -0.16329540937E+02 -0.11971778810E+01  0.21046355803E+02  0.26665262697E+02  0.00000000000E+00 0.  1.
</event>
<event>
 7    1  0.3755162E-013  0.5930196E+02  0.7816164E-02  0.1266605E+00
        -11   -1    0    0    0    0  0.00000000000E+00  0.00000000000E+00  0.45593999997E+02  0.45594000000E+02  0.51100000000E-03 0.  1.
         11   -1    0    0    0    0 -0.00000000000E+00 -0.00000000000E+00 -0.45593999997E+02  0.45594000000E+02  0.51100000000E-03 0. -1.
    9900012    2    1    2    0    0 -0.15147367138E+02  0.15600197266E+01 -0.28015057587E+02  0.59301955336E+02  0.50000020623E+02 0.  0.
        -12    1    1    2    0    0  0.15147367138E+02 -0.15600197266E+01  0.28015057587E+02  0.31886044664E+02  0.00000000000E+00 0.  1.
         11    1    3    3    0    0  0.18198986288E+01  0.17411694736E+01  0.73170070260E+01  0.77383650879E+01  0.51100000000E-03 0. -1.
        -11    1    3    3    0    0  0.96931068610E+01 -0.12155511207E+01 -0.43987514680E+01  0.10713678168E+02  0.51100000000E-03 0.  1.
         12    1    3    3    0    0 -0.26660372627E+02  0.10344013737E+01 -0.30933313145E+02  0.40849912080E+02  0.00000000000E+00 0. -1.
</event>
<event>
 7    1  0.3755162E-013  0.5930196E+02  0.7816164E-02  0.1266605E+00
        -11   -1    0    0    0    0  0.00000000000E+00  0.00000000000E+00  0.45593999997E+02  0.45594000000E+02  0.51100000000E-03 0.  1.
         11   -1    0    0    0    0 -0.00000000000E+00 -0.00000000000E+00 -0.45593999997E+02  0.45594000000E+02  0.51100000000E-03 0. -1.
    9900012    2    1    2    0    0  0.82456206818E+01  0.30800451155E+02 -0.24739372498E+00  0.59301964570E+02  0.50000037465E+02 0.  0.
        -12    1    1    2    0    0 -0.82456206818E+01 -0.30800451155E+02  0.24739372498E+00  0.31886035430E+02  0.00000000000E+00 0.  1.
         11    1    3    3    0    0 -0.40198838630E+01  0.78440846791E+01  0.37169791481E+01  0.95658279816E+01  0.51100000000E-03 0. -1.
        -11    1    3    3    0    0  0.14765374536E+02 -0.50991854333E+01 -0.12822083782E+02  0.20209498015E+02  0.51100000000E-03 0.  1.
         12    1    3    3    0    0 -0.24998699910E+01  0.28055551909E+02  0.88577109086E+01  0.29526638573E+02  0.00000000000E+00 0. -1.
</event>
<event>
 7    1  0.3755162E-013  0.5930194E+02  0.7816164E-02  0.1266605E+00
        -11   -1    0    0    0    0  0.00000000000E+00  0.00000000000E+00  0.45593999997E+02  0.45594000000E+02  0.51100000000E-03 0. -1.
         11   -1    0    0    0    0 -0.00000000000E+00 -0.00000000000E+00 -0.45593999997E+02  0.45594000000E+02  0.51100000000E-03 0.  1.
    9900012    2    1    2    0    0 -0.16201592763E+02 -0.23626597686E+02  0.14000472898E+02  0.59301937721E+02  0.49999988498E+02 0.  0.
        -12    1    1    2    0    0  0.16201592763E+02  0.23626597686E+02 -0.14000472898E+02  0.31886062279E+02  0.00000000000E+00 0.  1.
         11    1    3    3    0    0 -0.71219880896E+01  0.28779459674E+01  0.13887195352E+01  0.78060123974E+01  0.51100000000E-03 0. -1.
        -11    1    3    3    0    0  0.10646106697E+02 -0.95405806700E+00 -0.78644125406E+01  0.13270222284E+02  0.51100000000E-03 0.  1.
         12    1    3    3    0    0 -0.19725711371E+02 -0.25550485586E+02  0.20476165904E+02  0.38225703040E+02  0.00000000000E+00 0. -1.
</event>
<event>
 7    1  0.3755162E-013  0.5930194E+02  0.7816164E-02  0.1266605E+00
        -11   -1    0    0    0    0  0.00000000000E+00  0.00000000000E+00  0.45593999997E+02  0.45594000000E+02  0.51100000000E-03 0.  1.
         11   -1    0    0    0    0 -0.00000000000E+00 -0.00000000000E+00 -0.45593999997E+02  0.45594000000E+02  0.51100000000E-03 0. -1.
    9900012    2    1    2    0    0  0.13839882534E+02  0.16097974637E+02 -0.23791462357E+02  0.59301940083E+02  0.49999992805E+02 0.  0.
        -12    1    1    2    0    0 -0.13839882534E+02 -0.16097974637E+02  0.23791462357E+02  0.31886059917E+02  0.00000000000E+00 0.  1.
         11    1    3    3    0    0  0.14555021212E+02 -0.10835019431E+01 -0.26107614718E+02  0.29910368862E+02  0.51100000000E-03 0. -1.
        -11    1    3    3    0    0  0.20791447215E+01 -0.52423085788E+01  0.37115476622E+01  0.67513130810E+01  0.51100000000E-03 0.  1.
        -12    1    3    3    0    0 -0.27942834001E+01  0.22423785159E+02 -0.13953953010E+01  0.22640258140E+02  0.00000000000E+00 0.  1.
</event>
<event>
 7    1  0.3755162E-013  0.5930196E+02  0.7816164E-02  0.1266605E+00
        -11   -1    0    0    0    0  0.00000000000E+00  0.00000000000E+00  0.45593999997E+02  0.45594000000E+02  0.51100000000E-03 0.  1.
         11   -1    0    0    0    0 -0.00000000000E+00 -0.00000000000E+00 -0.45593999997E+02  0.45594000000E+02  0.51100000000E-03 0. -1.
    9900012    2    1    2    0    0  0.10458915016E+02  0.25810281968E+02 -0.15529333055E+02  0.59301956913E+02  0.50000023500E+02 0.  0.
        -12    1    1    2    0    0 -0.10458915016E+02 -0.25810281968E+02  0.15529333055E+02  0.31886043087E+02  0.00000000000E+00 0.  1.
         11    1    3    3    0    0 -0.59951477778E+01  0.22099761293E+02 -0.15473399180E+02  0.27636340722E+02  0.51100000000E-03 0.  1.
        -11    1    3    3    0    0 -0.70277903795E+00 -0.54773593386E+01 -0.87523854069E+01  0.10348894350E+02  0.51100000000E-03 0. -1.
        -12    1    3    3    0    0  0.17156841832E+02  0.91878800139E+01  0.86964515320E+01  0.21316721841E+02  0.00000000000E+00 0.  1.
</event>
<event>
 7    1  0.3755162E-013  0.5930194E+02  0.7816164E-02  0.1266605E+00
        -11   -1    0    0    0    0  0.00000000000E+00  0.00000000000E+00  0.45593999997E+02  0.45594000000E+02  0.51100000000E-03 0.  1.
         11   -1    0    0    0    0 -0.00000000000E+00 -0.00000000000E+00 -0.45593999997E+02  0.45594000000E+02  0.51100000000E-03 0. -1.
    9900012    2    1    2    0    0  0.18996121584E+02  0.12714247636E+02 -0.22230973342E+02  0.59301938720E+02  0.49999990320E+02 0.  0.
        -12    1    1    2    0    0 -0.18996121584E+02 -0.12714247636E+02  0.22230973342E+02  0.31886061280E+02  0.00000000000E+00 0.  1.
         11    1    3    3    0    0  0.30345211102E+01 -0.39550575958E+01  0.13126180996E+02  0.14040919726E+02  0.51100000000E-03 0.  1.
        -11    1    3    3    0    0  0.33412918272E+01 -0.81029263013E+00  0.44685057030E+00  0.34670565202E+01  0.51100000000E-03 0. -1.
         12    1    3    3    0    0  0.12620308647E+02  0.17479597862E+02 -0.35804004909E+02  0.41793962474E+02  0.00000000000E+00 0. -1.
</event>
<event>
 7    1  0.3755162E-013  0.5930202E+02  0.7816164E-02  0.1266605E+00
        -11   -1    0    0    0    0  0.00000000000E+00  0.00000000000E+00  0.45593999997E+02  0.45594000000E+02  0.51100000000E-03 0.  1.
         11   -1    0    0    0    0 -0.00000000000E+00 -0.00000000000E+00 -0.45593999997E+02  0.45594000000E+02  0.51100000000E-03 0. -1.
    9900012    2    1    2    0    0  0.20976539993E+02  0.14554851693E+02 -0.19101232893E+02  0.59302015055E+02  0.50000129536E+02 0.  0.
        -12    1    1    2    0    0 -0.20976539993E+02 -0.14554851693E+02  0.19101232893E+02  0.31885984945E+02  0.00000000000E+00 0.  1.
         11    1    3    3    0    0  0.11912876260E+02  0.25411878128E+02 -0.17195727048E+02  0.32914635039E+02  0.51100000000E-03 0. -1.
        -11    1    3    3    0    0  0.58406501889E+01  0.63326742366E+01 -0.22162501968E+01  0.88953764851E+01  0.51100000000E-03 0.  1.
        -12    1    3    3    0    0  0.32230135445E+01 -0.17189700671E+02  0.31074435160E+00  0.17492003531E+02  0.00000000000E+00 0.  1.
</event>
<event>
 7    1  0.3755162E-013  0.5930195E+02  0.7816164E-02  0.1266605E+00
        -11   -1    0    0    0    0  0.00000000000E+00  0.00000000000E+00  0.45593999997E+02  0.45594000000E+02  0.51100000000E-03 0. -1.
         11   -1    0    0    0    0 -0.00000000000E+00 -0.00000000000E+00 -0.45593999997E+02  0.45594000000E+02  0.51100000000E-03 0.  1.
    9900012    2    1    2    0    0  0.12722939157E+02  0.24276281492E+02  0.16294443097E+02  0.59301954467E+02  0.50000019039E+02 0.  0.
        -12    1    1    2    0    0 -0.12722939157E+02 -0.24276281492E+02 -0.16294443097E+02  0.31886045533E+02  0.00000000000E+00 0.  1.
         11    1    3    3    0    0  0.15838827028E+02  0.13841204880E+02  0.82966800495E+01  0.22611552230E+02  0.51100000000E-03 0. -1.
        -11    1    3    3    0    0  0.11954076377E+01  0.10380611137E+01  0.20446806016E+02  0.20508009333E+02  0.51100000000E-03 0.  1.
        -12    1    3    3    0    0 -0.43112955086E+01  0.93970154988E+01 -0.12449042969E+02  0.16182392904E+02  0.00000000000E+00 0.  1.
</event>
<event>
 7    1  0.3755162E-013  0.5930194E+02  0.7816164E-02  0.1266605E+00
        -11   -1    0    0    0    0  0.00000000000E+00  0.00000000000E+00  0.45593999997E+02  0.45594000000E+02  0.51100000000E-03 0. -1.
         11   -1    0    0    0    0 -0.00000000000E+00 -0.00000000000E+00 -0.45593999997E+02  0.45594000000E+02  0.51100000000E-03 0.  1.
    9900012    2    1    2    0    0 -0.16012035987E+02 -0.17921847145E+01  0.27515881270E+02  0.59301938083E+02  0.49999989158E+02 0.  0.
        -12    1    1    2    0    0  0.16012035987E+02  0.17921847145E+01 -0.27515881270E+02  0.31886061917E+02  0.00000000000E+00 0.  1.
         11    1    3    3    0    0  0.17783969503E+00  0.11250016673E+02  0.21183952351E+02  0.23986544969E+02  0.51100000000E-03 0. -1.
        -11    1    3    3    0    0 -0.99855113304E+01 -0.17664195770E+02  0.13818336247E+02  0.24549555304E+02  0.51100000000E-03 0.  1.
        -12    1    3    3    0    0 -0.62043643517E+01  0.46219943823E+01 -0.74864073270E+01  0.10765837810E+02  0.00000000000E+00 0.  1.
</event>
<event>
 7    1  0.3755162E-013  0.5930189E+02  0.7816164E-02  0.1266605E+00
        -11   -1    0    0    0    0  0.00000000000E+00  0.00000000000E+00  0.45593999997E+02  0.45594000000E+02  0.51100000000E-03 0.  1.
         11   -1    0    0    0    0 -0.00000000000E+00 -0.00000000000E+00 -0.45593999997E+02  0.45594000000E+02  0.51100000000E-03 0. -1.
    9900012    2    1    2    0    0 -0.23650810971E+02  0.18623821668E+02  0.10512680245E+02  0.59301889559E+02  0.49999900662E+02 0.  0.
        -12    1    1    2    0    0  0.23650810971E+02 -0.18623821668E+02 -0.10512680245E+02  0.31886110441E+02  0.00000000000E+00 0.  1.
         11    1    3    3    0    0 -0.90373707845E+01  0.14447508872E+02  0.10311462163E+02  0.19918103210E+02  0.51100000000E-03 0. -1.
        -11    1    3    3    0    0 -0.89842932056E+01  0.12142933654E+01  0.18178805330E+02  0.20314059079E+02  0.51100000000E-03 0.  1.
        -12    1    3    3    0    0 -0.56291469813E+01  0.29620194306E+01 -0.17977587248E+02  0.19069727269E+02  0.00000000000E+00 0.  1.
</event>
<event>
 7    1  0.3755162E-013  0.5930196E+02  0.7816164E-02  0.1266605E+00
        -11   -1    0    0    0    0  0.00000000000E+00  0.00000000000E+00  0.45593999997E+02  0.45594000000E+02  0.51100000000E-03 0.  1.
         11   -1    0    0    0    0 -0.00000000000E+00 -0.00000000000E+00 -0.45593999997E+02  0.45594000000E+02  0.51100000000E-03 0. -1.
    9900012    2    1    2    0    0 -0.27524988493E+02 -0.10714980209E+02 -0.12011814568E+02  0.59301961023E+02  0.50000030995E+02 0.  0.
        -12    1    1    2    0    0  0.27524988493E+02  0.10714980209E+02  0.12011814568E+02  0.31886038977E+02  0.00000000000E+00 0.  1.
         11    1    3    3    0    0 -0.11694530748E+02  0.99831022736E+01  0.47388963553E+00  0.15383398586E+02  0.51100000000E-03 0. -1.
        -11    1    3    3    0    0 -0.72046899048E+00  0.62902219761E+01  0.52845569962E+01  0.82469698060E+01  0.51100000000E-03 0.  1.
        -12    1    3    3    0    0 -0.15109988755E+02 -0.26988304459E+02 -0.17770261199E+02  0.35671592631E+02  0.00000000000E+00 0.  1.
</event>
<event>
 7    1  0.3755162E-013  0.5930194E+02  0.7816164E-02  0.1266605E+00
        -11   -1    0    0    0    0  0.00000000000E+00  0.00000000000E+00  0.45593999997E+02  0.45594000000E+02  0.51100000000E-03 0.  1.
         11   -1    0    0    0    0 -0.00000000000E+00 -0.00000000000E+00 -0.45593999997E+02  0.45594000000E+02  0.51100000000E-03 0. -1.
    9900012    2    1    2    0    0  0.27472554505E+02 -0.12800675167E+02 -0.99056634539E+01  0.59301941852E+02  0.49999996031E+02 0.  0.
        -12    1    1    2    0    0 -0.27472554505E+02  0.12800675167E+02  0.99056634539E+01  0.31886058148E+02  0.00000000000E+00 0.  1.
         11    1    3    3    0    0  0.10536209183E+02 -0.12526372645E+02 -0.13942890060E+02  0.21501765022E+02  0.51100000000E-03 0. -1.
        -11    1    3    3    0    0  0.13792913565E+02  0.12672303727E+02  0.12032606378E+02  0.22262420419E+02  0.51100000000E-03 0.  1.
         12    1    3    3    0    0  0.31434317572E+01 -0.12946606249E+02 -0.79953797725E+01  0.15537756411E+02  0.00000000000E+00 0. -1.
</event>
<event>
 7    1  0.3755162E-013  0.5930191E+02  0.7816164E-02  0.1266605E+00
        -11   -1    0    0    0    0  0.00000000000E+00  0.00000000000E+00  0.45593999997E+02  0.45594000000E+02  0.51100000000E-03 0.  1.
         11   -1    0    0    0    0 -0.00000000000E+00 -0.00000000000E+00 -0.45593999997E+02  0.45594000000E+02  0.51100000000E-03 0. -1.
    9900012    2    1    2    0    0  0.12089674695E+02 -0.15133896738E+02 -0.25328402474E+02  0.59301905278E+02  0.49999929331E+02 0.  0.
        -12    1    1    2    0    0 -0.12089674695E+02  0.15133896738E+02  0.25328402474E+02  0.31886094722E+02  0.00000000000E+00 0.  1.
         11    1    3    3    0    0 -0.29892542561E+01 -0.11837023579E+02 -0.17137431795E+02  0.21041443320E+02  0.51100000000E-03 0. -1.
        -11    1    3    3    0    0  0.10774189384E+01 -0.17326441195E+02 -0.57621951941E+01  0.18291235326E+02  0.51100000000E-03 0.  1.
        -12    1    3    3    0    0  0.14001510012E+02  0.14029568036E+02 -0.24287754854E+01  0.19969226632E+02  0.00000000000E+00 0.  1.
</event>
<event>
 7    1  0.3755162E-013  0.5930194E+02  0.7816164E-02  0.1266605E+00
        -11   -1    0    0    0    0  0.00000000000E+00  0.00000000000E+00  0.45593999997E+02  0.45594000000E+02  0.51100000000E-03 0.  1.
         11   -1    0    0    0    0 -0.00000000000E+00 -0.00000000000E+00 -0.45593999997E+02  0.45594000000E+02  0.51100000000E-03 0. -1.
    9900012    2    1    2    0    0 -0.21240492956E+02  0.23167768404E+02 -0.53681564530E+01  0.59301935057E+02  0.49999983639E+02 0.  0.
        -12    1    1    2    0    0  0.21240492956E+02 -0.23167768404E+02  0.53681564530E+01  0.31886064943E+02  0.00000000000E+00 0.  1.
         11    1    3    3    0    0 -0.18481596942E+02  0.30071047640E+02  0.69377701158E+01  0.35971794313E+02  0.51100000000E-03 0. -1.
        -11    1    3    3    0    0 -0.25422744820E+01 -0.61973661399E+01  0.34651858733E+01  0.75417517867E+01  0.51100000000E-03 0.  1.
        -12    1    3    3    0    0 -0.21662153242E+00 -0.70591309526E+00 -0.15771112442E+02  0.15788388957E+02  0.00000000000E+00 0.  1.
</event>
<event>
 7    1  0.3755162E-013  0.5930192E+02  0.7816164E-02  0.1266605E+00
        -11   -1    0    0    0    0  0.00000000000E+00  0.00000000000E+00  0.45593999997E+02  0.45594000000E+02  0.51100000000E-03 0.  1.
         11   -1    0    0    0    0 -0.00000000000E+00 -0.00000000000E+00 -0.45593999997E+02  0.45594000000E+02  0.51100000000E-03 0. -1.
    9900012    2    1    2    0    0  0.90154727769E+01  0.14146527547E+02 -0.27116766502E+02  0.59301921273E+02  0.49999958501E+02 0.  0.
        -12    1    1    2    0    0 -0.90154727769E+01 -0.14146527547E+02  0.27116766502E+02  0.31886078727E+02  0.00000000000E+00 0.  1.
         11    1    3    3    0    0  0.19086207219E+02  0.17393761976E+01 -0.74234050367E+01  0.20552753543E+02  0.51100000000E-03 0. -1.
        -11    1    3    3    0    0 -0.36323803264E+01 -0.95714952110E+01 -0.40264120704E+01  0.11000895501E+02  0.51100000000E-03 0.  1.
         12    1    3    3    0    0 -0.64383541162E+01  0.21978646561E+02 -0.15666949395E+02  0.27748272229E+02  0.00000000000E+00 0. -1.
</event>
<event>
 7    1  0.3755162E-013  0.5930191E+02  0.7816164E-02  0.1266605E+00
        -11   -1    0    0    0    0  0.00000000000E+00  0.00000000000E+00  0.45593999997E+02  0.45594000000E+02  0.51100000000E-03 0.  1.
         11   -1    0    0    0    0 -0.00000000000E+00 -0.00000000000E+00 -0.45593999997E+02  0.45594000000E+02  0.51100000000E-03 0. -1.
    9900012    2    1    2    0    0 -0.68738542112E+01 -0.29643806239E+02 -0.95245848226E+01  0.59301908423E+02  0.49999935065E+02 0.  0.
        -12    1    1    2    0    0  0.68738542112E+01  0.29643806239E+02  0.95245848226E+01  0.31886091577E+02  0.00000000000E+00 0.  1.
         11    1    3    3    0    0 -0.10426524755E+02 -0.40373761479E+00 -0.13168642480E+02  0.16801445400E+02  0.51100000000E-03 0. -1.
        -11    1    3    3    0    0  0.63974161829E+01 -0.17651157338E+02 -0.12403898084E+02  0.22502154944E+02  0.51100000000E-03 0.  1.
        -12    1    3    3    0    0 -0.28447456394E+01 -0.11588911286E+02  0.16047955741E+02  0.19998308079E+02  0.00000000000E+00 0.  1.
</event>
<event>
 7    1  0.3755162E-013  0.5930195E+02  0.7816164E-02  0.1266605E+00
        -11   -1    0    0    0    0  0.00000000000E+00  0.00000000000E+00  0.45593999997E+02  0.45594000000E+02  0.51100000000E-03 0.  1.
         11   -1    0    0    0    0 -0.00000000000E+00 -0.00000000000E+00 -0.45593999997E+02  0.45594000000E+02  0.51100000000E-03 0. -1.
    9900012    2    1    2    0    0 -0.16106922998E+02 -0.19111801315E+02 -0.19799654752E+02  0.59301949033E+02  0.50000009128E+02 0.  0.
        -12    1    1    2    0    0  0.16106922998E+02  0.19111801315E+02  0.19799654752E+02  0.31886050967E+02  0.00000000000E+00 0.  1.
         11    1    3    3    0    0 -0.35816808415E+01  0.54322824162E+01 -0.89489918597E+00  0.65680266986E+01  0.51100000000E-03 0. -1.
        -11    1    3    3    0    0 -0.11979081642E+02  0.40943458459E+01  0.66922808420E+01  0.14319521222E+02  0.51100000000E-03 0.  1.
         12    1    3    3    0    0 -0.54616051401E+00 -0.28638429577E+02 -0.25597036408E+02  0.38414401113E+02  0.00000000000E+00 0. -1.
</event>
<event>
 7    1  0.3755162E-013  0.5930202E+02  0.7816164E-02  0.1266604E+00
        -11   -1    0    0    0    0  0.00000000000E+00  0.00000000000E+00  0.45593999997E+02  0.45594000000E+02  0.51100000000E-03 0.  1.
         11   -1    0    0    0    0 -0.00000000000E+00 -0.00000000000E+00 -0.45593999997E+02  0.45594000000E+02  0.51100000000E-03 0. -1.
    9900012    2    1    2    0    0  0.88371806417E+01  0.21917074357E+02 -0.21407043430E+02  0.59302024737E+02  0.50000147194E+02 0.  0.
        -12    1    1    2    0    0 -0.88371806417E+01 -0.21917074357E+02  0.21407043430E+02  0.31885975263E+02  0.00000000000E+00 0.  1.
         11    1    3    3    0    0  0.12454295447E+02 -0.75656751018E+01 -0.34357119212E+01  0.14971741098E+02  0.51100000000E-03 0. -1.
        -11    1    3    3    0    0  0.95734100893E+01  0.16378457799E+01 -0.42179728399E+01  0.10588862766E+02  0.51100000000E-03 0.  1.
        -12    1    3    3    0    0 -0.13190524895E+02  0.27844903679E+02 -0.13753358669E+02  0.33741420873E+02  0.00000000000E+00 0.  1.
</event>
<event>
 7    1  0.3755162E-013  0.5930195E+02  0.7816164E-02  0.1266605E+00
        -11   -1    0    0    0    0  0.00000000000E+00  0.00000000000E+00  0.45593999997E+02  0.45594000000E+02  0.51100000000E-03 0. -1.
         11   -1    0    0    0    0 -0.00000000000E+00 -0.00000000000E+00 -0.45593999997E+02  0.45594000000E+02  0.51100000000E-03 0.  1.
    9900012    2    1    2    0    0  0.25549023785E+02  0.17857969407E+02 -0.67127329095E+01  0.59301945512E+02  0.50000002707E+02 0.  0.
        -12    1    1    2    0    0 -0.25549023785E+02 -0.17857969407E+02  0.67127329095E+01  0.31886054488E+02  0.00000000000E+00 0.  1.
         11    1    3    3    0    0  0.79122115680E+01 -0.12147941954E+02  0.15571982828E+01  0.14580824818E+02  0.51100000000E-03 0. -1.
        -11    1    3    3    0    0  0.10318100216E+02 -0.25091927986E+01 -0.21988302305E+01  0.10844081114E+02  0.51100000000E-03 0.  1.
        -12    1    3    3    0    0  0.73187120012E+01  0.32515104159E+02 -0.60711009618E+01  0.33877039580E+02  0.00000000000E+00 0.  1.
</event>
<event>
 7    1  0.3755162E-013  0.5930196E+02  0.7816164E-02  0.1266605E+00
        -11   -1    0    0    0    0  0.00000000000E+00  0.00000000000E+00  0.45593999997E+02  0.45594000000E+02  0.51100000000E-03 0.  1.
         11   -1    0    0    0    0 -0.00000000000E+00 -0.00000000000E+00 -0.45593999997E+02  0.45594000000E+02  0.51100000000E-03 0. -1.
    9900012    2    1    2    0    0  0.18936082008E+02 -0.10379307874E+02 -0.23460913202E+02  0.59301957881E+02  0.50000025265E+02 0.  0.
        -12    1    1    2    0    0 -0.18936082008E+02  0.10379307874E+02  0.23460913202E+02  0.31886042119E+02  0.00000000000E+00 0.  1.
         11    1    3    3    0    0  0.14998517194E+02 -0.11236159699E+02 -0.11471002333E+02  0.21972498665E+02  0.51100000000E-03 0. -1.
        -11    1    3    3    0    0  0.17502119598E+02 -0.21247598288E+01  0.18440108236E+01  0.17726792460E+02  0.51100000000E-03 0.  1.
         12    1    3    3    0    0 -0.13564554784E+02  0.29816116539E+01 -0.13833921693E+02  0.19602666756E+02  0.00000000000E+00 0. -1.
</event>
<event>
 7    1  0.3755162E-013  0.5930195E+02  0.7816164E-02  0.1266605E+00
        -11   -1    0    0    0    0  0.00000000000E+00  0.00000000000E+00  0.45593999997E+02  0.45594000000E+02  0.51100000000E-03 0.  1.
         11   -1    0    0    0    0 -0.00000000000E+00 -0.00000000000E+00 -0.45593999997E+02  0.45594000000E+02  0.51100000000E-03 0. -1.
    9900012    2    1    2    0    0  0.30059184615E+02  0.47332293156E+01 -0.95269205460E+01  0.59301948903E+02  0.50000008891E+02 0.  0.
        -12    1    1    2    0    0 -0.30059184615E+02 -0.47332293156E+01  0.95269205460E+01  0.31886051097E+02  0.00000000000E+00 0.  1.
         11    1    3    3    0    0  0.18430269479E+02 -0.73067447871E+01  0.39349678759E+01  0.20212553646E+02  0.51100000000E-03 0. -1.
        -11    1    3    3    0    0 -0.37724553521E+01  0.70773866428E+00  0.88848880471E+01  0.96785096617E+01  0.51100000000E-03 0.  1.
         12    1    3    3    0    0  0.15401370489E+02  0.11332235438E+02 -0.22346776469E+02  0.29410885596E+02  0.00000000000E+00 0. -1.
</event>
<event>
 7    1  0.3755162E-013  0.5930200E+02  0.7816164E-02  0.1266605E+00
        -11   -1    0    0    0    0  0.00000000000E+00  0.00000000000E+00  0.45593999997E+02  0.45594000000E+02  0.51100000000E-03 0. -1.
         11   -1    0    0    0    0 -0.00000000000E+00 -0.00000000000E+00 -0.45593999997E+02  0.45594000000E+02  0.51100000000E-03 0.  1.
    9900012    2    1    2    0    0  0.30376279635E+02 -0.76868935302E+01  0.59085173605E+01  0.59301995640E+02  0.50000094129E+02 0.  0.
        -12    1    1    2    0    0 -0.30376279635E+02  0.76868935302E+01 -0.59085173605E+01  0.31886004360E+02  0.00000000000E+00 0.  1.
         11    1    3    3    0    0  0.38144543530E+01  0.84021160499E+01 -0.91347362028E+01  0.12984183528E+02  0.51100000000E-03 0. -1.
        -11    1    3    3    0    0 -0.57241448344E+00 -0.74716798980E+01 -0.70442691947E+01  0.10284716213E+02  0.51100000000E-03 0.  1.
         12    1    3    3    0    0  0.27134239766E+02 -0.86173296822E+01  0.22087522758E+02  0.36033095899E+02  0.00000000000E+00 0. -1.
</event>
<event>
 7    1  0.3755162E-013  0.5930196E+02  0.7816164E-02  0.1266605E+00
        -11   -1    0    0    0    0  0.00000000000E+00  0.00000000000E+00  0.45593999997E+02  0.45594000000E+02  0.51100000000E-03 0.  1.
         11   -1    0    0    0    0 -0.00000000000E+00 -0.00000000000E+00 -0.45593999997E+02  0.45594000000E+02  0.51100000000E-03 0. -1.
    9900012    2    1    2    0    0  0.96488972557E+01 -0.29780536257E+02  0.60612070080E+01  0.59301956213E+02  0.50000022223E+02 0.  0.
        -12    1    1    2    0    0 -0.96488972557E+01  0.29780536257E+02 -0.60612070080E+01  0.31886043787E+02  0.00000000000E+00 0.  1.
         11    1    3    3    0    0 -0.97780066801E+01 -0.44707722226E+01 -0.10294448648E+02  0.14885324724E+02  0.51100000000E-03 0. -1.
        -11    1    3    3    0    0  0.12044657709E+02 -0.23231897457E+02 -0.20175145932E+00  0.26169362673E+02  0.51100000000E-03 0.  1.
         12    1    3    3    0    0  0.73822462267E+01 -0.20778665768E+01  0.16557407115E+02  0.18247268816E+02  0.00000000000E+00 0. -1.
</event>
<event>
 7    1  0.3755162E-013  0.5930195E+02  0.7816164E-02  0.1266605E+00
        -11   -1    0    0    0    0  0.00000000000E+00  0.00000000000E+00  0.45593999997E+02  0.45594000000E+02  0.51100000000E-03 0. -1.
         11   -1    0    0    0    0 -0.00000000000E+00 -0.00000000000E+00 -0.45593999997E+02  0.45594000000E+02  0.51100000000E-03 0.  1.
    9900012    2    1    2    0    0 -0.31201783222E+02  0.37962009701E+01 -0.53626443822E+01  0.59301947049E+02  0.50000005509E+02 0.  0.
        -12    1    1    2    0    0  0.31201783222E+02 -0.37962009701E+01  0.53626443822E+01  0.31886052951E+02  0.00000000000E+00 0.  1.
         11    1    3    3    0    0 -0.37595093787E+02 -0.10535917946E+02 -0.89573338384E+01  0.40057839103E+02  0.51100000000E-03 0.  1.
        -11    1    3    3    0    0 -0.16749574918E+01  0.62176224389E+01 -0.16637301039E+01  0.66507375164E+01  0.51100000000E-03 0. -1.
        -12    1    3    3    0    0  0.80682680566E+01  0.81144964768E+01  0.52584195602E+01  0.12593370430E+02  0.00000000000E+00 0.  1.
</event>
<event>
 7    1  0.3755162E-013  0.5930195E+02  0.7816164E-02  0.1266605E+00
        -11   -1    0    0    0    0  0.00000000000E+00  0.00000000000E+00  0.45593999997E+02  0.45594000000E+02  0.51100000000E-03 0. -1.
         11   -1    0    0    0    0 -0.00000000000E+00 -0.00000000000E+00 -0.45593999997E+02  0.45594000000E+02  0.51100000000E-03 0.  1.
    9900012    2    1    2    0    0  0.20346108718E+02  0.44603288185E+01  0.24142518662E+02  0.59301954769E+02  0.50000019589E+02 0.  0.
        -12    1    1    2    0    0 -0.20346108718E+02 -0.44603288185E+01 -0.24142518662E+02  0.31886045231E+02  0.00000000000E+00 0.  1.
         11    1    3    3    0    0  0.12941271438E+02  0.91185562608E+01  0.17552205305E+02  0.23636930554E+02  0.51100000000E-03 0. -1.
        -11    1    3    3    0    0  0.13589221468E+02  0.10064032930E+02  0.95561457697E+01  0.19423481180E+02  0.51100000000E-03 0.  1.
        -12    1    3    3    0    0 -0.61843841868E+01 -0.14722260372E+02 -0.29658324123E+01  0.16241543035E+02  0.00000000000E+00 0.  1.
</event>
<event>
 7    1  0.3755162E-013  0.5930190E+02  0.7816164E-02  0.1266605E+00
        -11   -1    0    0    0    0  0.00000000000E+00  0.00000000000E+00  0.45593999997E+02  0.45594000000E+02  0.51100000000E-03 0.  1.
         11   -1    0    0    0    0 -0.00000000000E+00 -0.00000000000E+00 -0.45593999997E+02  0.45594000000E+02  0.51100000000E-03 0. -1.
    9900012    2    1    2    0    0  0.22440807686E+02 -0.77314586627E+01 -0.21292204310E+02  0.59301901665E+02  0.49999922741E+02 0.  0.
        -12    1    1    2    0    0 -0.22440807686E+02  0.77314586627E+01  0.21292204310E+02  0.31886098335E+02  0.00000000000E+00 0.  1.
         11    1    3    3    0    0  0.22570058992E+01  0.10425683449E+02 -0.19789457828E+01  0.10849201707E+02  0.51100000000E-03 0. -1.
        -11    1    3    3    0    0 -0.83116142061E+01 -0.55129772593E+01 -0.13428780130E+02  0.16727462002E+02  0.51100000000E-03 0.  1.
         12    1    3    3    0    0  0.28495415992E+02 -0.12644164852E+02 -0.58844783973E+01  0.31725237956E+02  0.00000000000E+00 0. -1.
</event>
<event>
 7    1  0.3755162E-013  0.5930199E+02  0.7816164E-02  0.1266605E+00
        -11   -1    0    0    0    0  0.00000000000E+00  0.00000000000E+00  0.45593999997E+02  0.45594000000E+02  0.51100000000E-03 0.  1.
         11   -1    0    0    0    0 -0.00000000000E+00 -0.00000000000E+00 -0.45593999997E+02  0.45594000000E+02  0.51100000000E-03 0. -1.
    9900012    2    1    2    0    0  0.30361478065E+02  0.77162998371E+00  0.97109596907E+01  0.59301992077E+02  0.50000087630E+02 0.  0.
        -12    1    1    2    0    0 -0.30361478065E+02 -0.77162998371E+00 -0.97109596907E+01  0.31886007923E+02  0.00000000000E+00 0.  1.
         11    1    3    3    0    0  0.28663244943E+02 -0.38312649647E+01  0.65059873791E+01  0.29640986385E+02  0.51100000000E-03 0. -1.
        -11    1    3    3    0    0 -0.86800086360E+00 -0.93318806193E+01 -0.74174750051E+01  0.11952253223E+02  0.51100000000E-03 0.  1.
         12    1    3    3    0    0  0.25662339866E+01  0.13934775568E+02  0.10622447317E+02  0.17708752469E+02  0.00000000000E+00 0. -1.
</event>
<event>
 7    1  0.3755162E-013  0.5930194E+02  0.7816164E-02  0.1266605E+00
        -11   -1    0    0    0    0  0.00000000000E+00  0.00000000000E+00  0.45593999997E+02  0.45594000000E+02  0.51100000000E-03 0.  1.
         11   -1    0    0    0    0 -0.00000000000E+00 -0.00000000000E+00 -0.45593999997E+02  0.45594000000E+02  0.51100000000E-03 0. -1.
    9900012    2    1    2    0    0  0.27057833123E+01 -0.23454673119E+02 -0.21430771762E+02  0.59301938268E+02  0.49999989496E+02 0.  0.
        -12    1    1    2    0    0 -0.27057833123E+01  0.23454673119E+02  0.21430771762E+02  0.31886061732E+02  0.00000000000E+00 0.  1.
         11    1    3    3    0    0  0.25988495550E+00 -0.25264819400E+02 -0.62157428844E+01  0.26019494603E+02  0.51100000000E-03 0. -1.
        -11    1    3    3    0    0 -0.41056591369E+01 -0.12877679978E+02 -0.67555273551E+01  0.15110533699E+02  0.51100000000E-03 0.  1.
        -12    1    3    3    0    0  0.65515574937E+01  0.14687826259E+02 -0.84595015221E+01  0.18171909966E+02  0.00000000000E+00 0.  1.
</event>
<event>
 7    1  0.3755162E-013  0.5930195E+02  0.7816164E-02  0.1266605E+00
        -11   -1    0    0    0    0  0.00000000000E+00  0.00000000000E+00  0.45593999997E+02  0.45594000000E+02  0.51100000000E-03 0.  1.
         11   -1    0    0    0    0 -0.00000000000E+00 -0.00000000000E+00 -0.45593999997E+02  0.45594000000E+02  0.51100000000E-03 0. -1.
    9900012    2    1    2    0    0 -0.25125367025E+02  0.14675073053E+02 -0.13041404686E+02  0.59301951743E+02  0.50000014071E+02 0.  0.
        -12    1    1    2    0    0  0.25125367025E+02 -0.14675073053E+02  0.13041404686E+02  0.31886048257E+02  0.00000000000E+00 0.  1.
         11    1    3    3    0    0 -0.61809367051E+01 -0.76374040214E+01 -0.37318371706E+01  0.10510020346E+02  0.51100000000E-03 0.  1.
        -11    1    3    3    0    0 -0.25189170036E+02  0.12451812662E+01 -0.81283753080E+00  0.25233023374E+02  0.51100000000E-03 0. -1.
         12    1    3    3    0    0  0.62447397159E+01  0.21067295808E+02 -0.84967299846E+01  0.23558908023E+02  0.00000000000E+00 0. -1.
</event>
<event>
 7    1  0.3755162E-013  0.5930192E+02  0.7816164E-02  0.1266605E+00
        -11   -1    0    0    0    0  0.00000000000E+00  0.00000000000E+00  0.45593999997E+02  0.45594000000E+02  0.51100000000E-03 0. -1.
         11   -1    0    0    0    0 -0.00000000000E+00 -0.00000000000E+00 -0.45593999997E+02  0.45594000000E+02  0.51100000000E-03 0.  1.
    9900012    2    1    2    0    0 -0.29962686838E+02  0.52908103008E+01  0.95376414709E+01  0.59301923398E+02  0.49999962377E+02 0.  0.
        -12    1    1    2    0    0  0.29962686838E+02 -0.52908103008E+01 -0.95376414709E+01  0.31886076602E+02  0.00000000000E+00 0.  1.
         11    1    3    3    0    0 -0.27702100070E+02  0.19765640803E+01  0.16510303647E+02  0.32309492114E+02  0.51100000000E-03 0. -1.
        -11    1    3    3    0    0 -0.84061592038E+01  0.17731987723E+01  0.73658206255E+01  0.11316495049E+02  0.51100000000E-03 0.  1.
        -12    1    3    3    0    0  0.61455724359E+01  0.15410474481E+01 -0.14338482802E+02  0.15675936236E+02  0.00000000000E+00 0.  1.
</event>
<event>
 7    1  0.3755162E-013  0.5930195E+02  0.7816164E-02  0.1266605E+00
        -11   -1    0    0    0    0  0.00000000000E+00  0.00000000000E+00  0.45593999997E+02  0.45594000000E+02  0.51100000000E-03 0. -1.
         11   -1    0    0    0    0 -0.00000000000E+00 -0.00000000000E+00 -0.45593999997E+02  0.45594000000E+02  0.51100000000E-03 0.  1.
    9900012    2    1    2    0    0 -0.30241311330E+02 -0.98126958178E+01  0.24278094087E+01  0.59301950250E+02  0.50000011347E+02 0.  0.
        -12    1    1    2    0    0  0.30241311330E+02  0.98126958178E+01 -0.24278094087E+01  0.31886049750E+02  0.00000000000E+00 0.  1.
         11    1    3    3    0    0 -0.67097399233E+01  0.11092498605E+02  0.16372367705E+01  0.13066930766E+02  0.51100000000E-03 0. -1.
        -11    1    3    3    0    0  0.10889859376E+01  0.75592757757E+01 -0.34143444713E+01  0.83657808395E+01  0.51100000000E-03 0.  1.
        -12    1    3    3    0    0 -0.24620557344E+02 -0.28464470198E+02  0.42049171094E+01  0.37869238644E+02  0.00000000000E+00 0.  1.
</event>
<event>
 7    1  0.3755162E-013  0.5930196E+02  0.7816164E-02  0.1266605E+00
        -11   -1    0    0    0    0  0.00000000000E+00  0.00000000000E+00  0.45593999997E+02  0.45594000000E+02  0.51100000000E-03 0. -1.
         11   -1    0    0    0    0 -0.00000000000E+00 -0.00000000000E+00 -0.45593999997E+02  0.45594000000E+02  0.51100000000E-03 0.  1.
    9900012    2    1    2    0    0 -0.26646480506E+02  0.26277607949E+00  0.17510436763E+02  0.59301962769E+02  0.50000034180E+02 0.  0.
        -12    1    1    2    0    0  0.26646480506E+02 -0.26277607949E+00 -0.17510436763E+02  0.31886037231E+02  0.00000000000E+00 0.  1.
         11    1    3    3    0    0 -0.63947207113E+01 -0.81930189608E+01  0.12756472965E+01  0.10471164642E+02  0.51100000000E-03 0. -1.
        -11    1    3    3    0    0 -0.13275800973E+02  0.31103823651E+01 -0.12673845015E+02  0.18615792158E+02  0.51100000000E-03 0.  1.
        -12    1    3    3    0    0 -0.69759588216E+01  0.53454126752E+01  0.28908634482E+02  0.30215005970E+02  0.00000000000E+00 0.  1.
</event>
<event>
 7    1  0.3755162E-013  0.5930197E+02  0.7816164E-02  0.1266605E+00
        -11   -1    0    0    0    0  0.00000000000E+00  0.00000000000E+00  0.45593999997E+02  0.45594000000E+02  0.51100000000E-03 0.  1.
         11   -1    0    0    0    0 -0.00000000000E+00 -0.00000000000E+00 -0.45593999997E+02  0.45594000000E+02  0.51100000000E-03 0. -1.
    9900012    2    1    2    0    0  0.12039132365E+02 -0.76858473642E+01 -0.28507999361E+02  0.59301968805E+02  0.50000045187E+02 0.  0.
        -12    1    1    2    0    0 -0.12039132365E+02  0.76858473642E+01  0.28507999361E+02  0.31886031195E+02  0.00000000000E+00 0.  1.
         11    1    3    3    0    0 -0.96899190853E+01 -0.16904693682E+02 -0.13032867740E+02  0.23441818235E+02  0.51100000000E-03 0. -1.
        -11    1    3    3    0    0 -0.57294953382E+00  0.89411540860E+01 -0.88495156614E+01  0.12593110627E+02  0.51100000000E-03 0.  1.
        -12    1    3    3    0    0  0.22302000984E+02  0.27769223160E+00 -0.66256159596E+01  0.23267039943E+02  0.00000000000E+00 0.  1.
</event>
<event>
 7    1  0.3755162E-013  0.5930187E+02  0.7816164E-02  0.1266605E+00
        -11   -1    0    0    0    0  0.00000000000E+00  0.00000000000E+00  0.45593999997E+02  0.45594000000E+02  0.51100000000E-03 0. -1.
         11   -1    0    0    0    0 -0.00000000000E+00 -0.00000000000E+00 -0.45593999997E+02  0.45594000000E+02  0.51100000000E-03 0.  1.
    9900012    2    1    2    0    0  0.14561198607E+02  0.26714301513E+02 -0.95416295979E+01  0.59301872835E+02  0.49999870162E+02 0.  0.
        -12    1    1    2    0    0 -0.14561198607E+02 -0.26714301513E+02  0.95416295979E+01  0.31886127165E+02  0.00000000000E+00 0.  1.
         11    1    3    3    0    0 -0.99416087214E+01  0.11142697268E+01 -0.44674291743E+01  0.10956053335E+02  0.51100000000E-03 0. -1.
        -11    1    3    3    0    0 -0.62464476423E+01 -0.16876828042E+01 -0.31322960021E+01  0.71887175422E+01  0.51100000000E-03 0.  1.
        -12    1    3    3    0    0  0.30749254971E+02  0.27287714590E+02 -0.19419044215E+01  0.41157101958E+02  0.00000000000E+00 0.  1.
</event>
<event>
 7    1  0.3755162E-013  0.5930192E+02  0.7816164E-02  0.1266605E+00
        -11   -1    0    0    0    0  0.00000000000E+00  0.00000000000E+00  0.45593999997E+02  0.45594000000E+02  0.51100000000E-03 0.  1.
         11   -1    0    0    0    0 -0.00000000000E+00 -0.00000000000E+00 -0.45593999997E+02  0.45594000000E+02  0.51100000000E-03 0. -1.
    9900012    2    1    2    0    0 -0.10839226914E+02  0.84275434301E+01 -0.28778632970E+02  0.59301920843E+02  0.49999957717E+02 0.  0.
        -12    1    1    2    0    0  0.10839226914E+02 -0.84275434301E+01  0.28778632970E+02  0.31886079157E+02  0.00000000000E+00 0.  1.
         11    1    3    3    0    0 -0.34184356246E+01  0.14185361286E+02 -0.85748518150E+01  0.16924487019E+02  0.51100000000E-03 0. -1.
        -11    1    3    3    0    0 -0.11292399187E+02  0.51211887328E+01  0.59758094318E+01  0.13764270851E+02  0.51100000000E-03 0.  1.
         12    1    3    3    0    0  0.38716078967E+01 -0.10879006589E+02 -0.26179590587E+02  0.28613162974E+02  0.00000000000E+00 0. -1.
</event>
<event>
 7    1  0.3755162E-013  0.5930196E+02  0.7816164E-02  0.1266605E+00
        -11   -1    0    0    0    0  0.00000000000E+00  0.00000000000E+00  0.45593999997E+02  0.45594000000E+02  0.51100000000E-03 0. -1.
         11   -1    0    0    0    0 -0.00000000000E+00 -0.00000000000E+00 -0.45593999997E+02  0.45594000000E+02  0.51100000000E-03 0.  1.
    9900012    2    1    2    0    0 -0.26872565679E+02 -0.16858967708E+02  0.32187166257E+01  0.59301957363E+02  0.50000024320E+02 0.  0.
        -12    1    1    2    0    0  0.26872565679E+02  0.16858967708E+02 -0.32187166257E+01  0.31886042637E+02  0.00000000000E+00 0.  1.
         11    1    3    3    0    0 -0.19961297118E+02  0.89126815188E+01  0.71212811596E+00  0.21872274715E+02  0.51100000000E-03 0. -1.
        -11    1    3    3    0    0 -0.76408408745E-01 -0.11894437388E+02  0.13843029492E+02  0.18251381997E+02  0.51100000000E-03 0.  1.
        -12    1    3    3    0    0 -0.68348601521E+01 -0.13877211839E+02 -0.11336440982E+02  0.19178300651E+02  0.00000000000E+00 0.  1.
</event>
<event>
 7    1  0.3755162E-013  0.5930193E+02  0.7816164E-02  0.1266605E+00
        -11   -1    0    0    0    0  0.00000000000E+00  0.00000000000E+00  0.45593999997E+02  0.45594000000E+02  0.51100000000E-03 0. -1.
         11   -1    0    0    0    0 -0.00000000000E+00 -0.00000000000E+00 -0.45593999997E+02  0.45594000000E+02  0.51100000000E-03 0.  1.
    9900012    2    1    2    0    0 -0.12795090699E+02  0.49988639367E+01  0.28775313321E+02  0.59301927125E+02  0.49999969174E+02 0.  0.
        -12    1    1    2    0    0  0.12795090699E+02 -0.49988639367E+01 -0.28775313321E+02  0.31886072875E+02  0.00000000000E+00 0.  1.
         11    1    3    3    0    0 -0.63423798513E+01  0.71022923894E+01  0.30798956974E+01  0.10007701891E+02  0.51100000000E-03 0. -1.
        -11    1    3    3    0    0 -0.66145613959E+01  0.11992873814E+02 -0.57340999529E+01  0.14847940844E+02  0.51100000000E-03 0.  1.
         12    1    3    3    0    0  0.16185054835E+00 -0.14096302267E+02  0.31429517577E+02  0.34446284390E+02  0.00000000000E+00 0. -1.
</event>
<event>
 7    1  0.3755162E-013  0.5930196E+02  0.7816164E-02  0.1266605E+00
        -11   -1    0    0    0    0  0.00000000000E+00  0.00000000000E+00  0.45593999997E+02  0.45594000000E+02  0.51100000000E-03 0.  1.
         11   -1    0    0    0    0 -0.00000000000E+00 -0.00000000000E+00 -0.45593999997E+02  0.45594000000E+02  0.51100000000E-03 0. -1.
    9900012    2    1    2    0    0 -0.97516513298E+01  0.30267375973E+02 -0.23475702836E+01  0.59301955432E+02  0.50000020799E+02 0.  0.
        -12    1    1    2    0    0  0.97516513298E+01 -0.30267375973E+02  0.23475702836E+01  0.31886044568E+02  0.00000000000E+00 0.  1.
         11    1    3    3    0    0  0.98864053299E+01  0.45883058485E+00 -0.38098561901E+01  0.10605024295E+02  0.51100000000E-03 0. -1.
        -11    1    3    3    0    0  0.12270724652E+01  0.18405044836E+02  0.12702019396E+02  0.22396264850E+02  0.51100000000E-03 0.  1.
        -12    1    3    3    0    0 -0.20865129125E+02  0.11403500552E+02 -0.11239733489E+02  0.26300666287E+02  0.00000000000E+00 0.  1.
</event>
<event>
 7    1  0.3755162E-013  0.5930194E+02  0.7816164E-02  0.1266605E+00
        -11   -1    0    0    0    0  0.00000000000E+00  0.00000000000E+00  0.45593999997E+02  0.45594000000E+02  0.51100000000E-03 0.  1.
         11   -1    0    0    0    0 -0.00000000000E+00 -0.00000000000E+00 -0.45593999997E+02  0.45594000000E+02  0.51100000000E-03 0. -1.
    9900012    2    1    2    0    0  0.65230574047E+01  0.31210999761E+02 -0.20925604530E+00  0.59301943924E+02  0.49999999812E+02 0.  0.
        -12    1    1    2    0    0 -0.65230574047E+01 -0.31210999761E+02  0.20925604530E+00  0.31886056076E+02  0.00000000000E+00 0.  1.
         11    1    3    3    0    0  0.18763014980E+02  0.15089360009E+02 -0.63443815162E+00  0.24086137686E+02  0.51100000000E-03 0. -1.
        -11    1    3    3    0    0  0.85915790818E+01  0.10505953950E+02 -0.88797000606E+00  0.13600690810E+02  0.51100000000E-03 0.  1.
        -12    1    3    3    0    0 -0.20831536657E+02  0.56156858017E+01  0.13131521124E+01  0.21615115428E+02  0.00000000000E+00 0.  1.
</event>
<event>
 7    1  0.3755162E-013  0.5930194E+02  0.7816164E-02  0.1266605E+00
        -11   -1    0    0    0    0  0.00000000000E+00  0.00000000000E+00  0.45593999997E+02  0.45594000000E+02  0.51100000000E-03 0. -1.
         11   -1    0    0    0    0 -0.00000000000E+00 -0.00000000000E+00 -0.45593999997E+02  0.45594000000E+02  0.51100000000E-03 0.  1.
    9900012    2    1    2    0    0  0.13136730411E+01 -0.14734806952E+02  0.28246779566E+02  0.59301939901E+02  0.49999992474E+02 0.  0.
        -12    1    1    2    0    0 -0.13136730411E+01  0.14734806952E+02 -0.28246779566E+02  0.31886060099E+02  0.00000000000E+00 0.  1.
         11    1    3    3    0    0 -0.87165453673E+01 -0.73370571788E+01  0.44146006083E+01  0.12218808042E+02  0.51100000000E-03 0. -1.
        -11    1    3    3    0    0  0.49684116429E+01  0.59239666182E+01 -0.86563222793E+01  0.11606481397E+02  0.51100000000E-03 0.  1.
         12    1    3    3    0    0  0.50618067654E+01 -0.13321716391E+02  0.32488501237E+02  0.35476650462E+02  0.00000000000E+00 0. -1.
</event>
<event>
 7    1  0.3755162E-013  0.5930211E+02  0.7816164E-02  0.1266604E+00
        -11   -1    0    0    0    0  0.00000000000E+00  0.00000000000E+00  0.45593999997E+02  0.45594000000E+02  0.51100000000E-03 0. -1.
         11   -1    0    0    0    0 -0.00000000000E+00 -0.00000000000E+00 -0.45593999997E+02  0.45594000000E+02  0.51100000000E-03 0.  1.
    9900012    2    1    2    0    0 -0.30961108462E+02  0.34958615923E+01 -0.67748492111E+01  0.59302111784E+02  0.50000305947E+02 0.  0.
        -12    1    1    2    0    0  0.30961108462E+02 -0.34958615923E+01  0.67748492111E+01  0.31885888216E+02  0.00000000000E+00 0.  1.
         11    1    3    3    0    0 -0.23601915481E+02 -0.17300854048E+02 -0.97906140236E+01  0.30858160807E+02  0.51100000000E-03 0.  1.
        -11    1    3    3    0    0  0.48866894051E+01  0.17228995573E+01  0.25443531014E+01  0.57725080504E+01  0.51100000000E-03 0. -1.
        -12    1    3    3    0    0 -0.12245882386E+02  0.19073816083E+02  0.47141171113E+00  0.22671442927E+02  0.00000000000E+00 0.  1.
</event>
<event>
 7    1  0.3755162E-013  0.5930194E+02  0.7816164E-02  0.1266605E+00
        -11   -1    0    0    0    0  0.00000000000E+00  0.00000000000E+00  0.45593999997E+02  0.45594000000E+02  0.51100000000E-03 0.  1.
         11   -1    0    0    0    0 -0.00000000000E+00 -0.00000000000E+00 -0.45593999997E+02  0.45594000000E+02  0.51100000000E-03 0. -1.
    9900012    2    1    2    0    0 -0.21589412150E+02 -0.13882619680E+02 -0.18917999223E+02  0.59301944415E+02  0.50000000706E+02 0.  0.
        -12    1    1    2    0    0  0.21589412150E+02  0.13882619680E+02  0.18917999223E+02  0.31886055585E+02  0.00000000000E+00 0.  1.
         11    1    3    3    0    0 -0.61770761094E+01 -0.21101376506E+02 -0.17464182136E+02  0.28078853567E+02  0.51100000000E-03 0. -1.
        -11    1    3    3    0    0 -0.98774640192E+01 -0.46675587848E+01 -0.10611376524E+02  0.15229961013E+02  0.51100000000E-03 0.  1.
        -12    1    3    3    0    0 -0.55348720212E+01  0.11886315610E+02  0.91575594367E+01  0.15993129835E+02  0.00000000000E+00 0.  1.
</event>
<event>
 7    1  0.3755162E-013  0.5930194E+02  0.7816164E-02  0.1266605E+00
        -11   -1    0    0    0    0  0.00000000000E+00  0.00000000000E+00  0.45593999997E+02  0.45594000000E+02  0.51100000000E-03 0.  1.
         11   -1    0    0    0    0 -0.00000000000E+00 -0.00000000000E+00 -0.45593999997E+02  0.45594000000E+02  0.51100000000E-03 0. -1.
    9900012    2    1    2    0    0  0.89193944283E+01  0.29234097474E+02  0.90847624844E+01  0.59301937818E+02  0.49999988674E+02 0.  0.
        -12    1    1    2    0    0 -0.89193944283E+01 -0.29234097474E+02 -0.90847624844E+01  0.31886062182E+02  0.00000000000E+00 0.  1.
         11    1    3    3    0    0  0.10901825295E+02  0.14748164926E+02 -0.80921588409E+01  0.20045977113E+02  0.51100000000E-03 0. -1.
        -11    1    3    3    0    0 -0.35267792861E+01 -0.47375697725E+00 -0.86589659267E+01  0.93616402936E+01  0.51100000000E-03 0.  1.
         12    1    3    3    0    0  0.15443484197E+01  0.14959689525E+02  0.25835887252E+02  0.29894320411E+02  0.00000000000E+00 0. -1.
</event>
<event>
 7    1  0.3755162E-013  0.5930196E+02  0.7816164E-02  0.1266605E+00
        -11   -1    0    0    0    0  0.00000000000E+00  0.00000000000E+00  0.45593999997E+02  0.45594000000E+02  0.51100000000E-03 0.  1.
         11   -1    0    0    0    0 -0.00000000000E+00 -0.00000000000E+00 -0.45593999997E+02  0.45594000000E+02  0.51100000000E-03 0. -1.
    9900012    2    1    2    0    0 -0.16882920889E+02  0.91870372976E+01 -0.25441798840E+02  0.59301956027E+02  0.50000021883E+02 0.  0.
        -12    1    1    2    0    0  0.16882920889E+02 -0.91870372976E+01  0.25441798840E+02  0.31886043973E+02  0.00000000000E+00 0.  1.
         11    1    3    3    0    0 -0.36342529001E+01  0.19227548124E+01  0.85137304140E+01  0.94545431425E+01  0.51100000000E-03 0. -1.
        -11    1    3    3    0    0 -0.18302293188E+01  0.58748895588E+01  0.58031926089E+01  0.84581978816E+01  0.51100000000E-03 0.  1.
         12    1    3    3    0    0 -0.11418438670E+02  0.13893929264E+01 -0.39758721863E+02  0.41389215003E+02  0.00000000000E+00 0. -1.
</event>
<event>
 7    1  0.3755162E-013  0.5930192E+02  0.7816164E-02  0.1266605E+00
        -11   -1    0    0    0    0  0.00000000000E+00  0.00000000000E+00  0.45593999997E+02  0.45594000000E+02  0.51100000000E-03 0. -1.
         11   -1    0    0    0    0 -0.00000000000E+00 -0.00000000000E+00 -0.45593999997E+02  0.45594000000E+02  0.51100000000E-03 0.  1.
    9900012    2    1    2    0    0  0.18760389885E+02 -0.25708155771E+02  0.19649047003E+01  0.59301916009E+02  0.49999948900E+02 0.  0.
        -12    1    1    2    0    0 -0.18760389885E+02  0.25708155771E+02 -0.19649047003E+01  0.31886083991E+02  0.00000000000E+00 0.  1.
         11    1    3    3    0    0  0.16999833843E+02 -0.13835422372E+02  0.54977087780E+01  0.22597302162E+02  0.51100000000E-03 0. -1.
        -11    1    3    3    0    0  0.13186844869E+02 -0.13171926684E+02 -0.12224381045E+02  0.22289639351E+02  0.51100000000E-03 0.  1.
        -12    1    3    3    0    0 -0.11426288827E+02  0.12991932854E+01  0.86915769676E+01  0.14414974497E+02  0.00000000000E+00 0.  1.
</event>
<event>
 7    1  0.3755162E-013  0.5930194E+02  0.7816164E-02  0.1266605E+00
        -11   -1    0    0    0    0  0.00000000000E+00  0.00000000000E+00  0.45593999997E+02  0.45594000000E+02  0.51100000000E-03 0.  1.
         11   -1    0    0    0    0 -0.00000000000E+00 -0.00000000000E+00 -0.45593999997E+02  0.45594000000E+02  0.51100000000E-03 0. -1.
    9900012    2    1    2    0    0  0.26820254061E+02 -0.17204827995E+02  0.11783451544E+01  0.59301942991E+02  0.49999998110E+02 0.  0.
        -12    1    1    2    0    0 -0.26820254061E+02  0.17204827995E+02 -0.11783451544E+01  0.31886057009E+02  0.00000000000E+00 0.  1.
         11    1    3    3    0    0  0.33498972831E+02 -0.19575924189E+02  0.63746525918E+01  0.39319641205E+02  0.51100000000E-03 0. -1.
        -11    1    3    3    0    0  0.11140725280E+00  0.69504675117E+00  0.64008520362E+01  0.64394416382E+01  0.51100000000E-03 0.  1.
        -12    1    3    3    0    0 -0.67901260222E+01  0.16760494426E+01 -0.11597159474E+02  0.13542860148E+02  0.00000000000E+00 0.  1.
</event>
<event>
 7    1  0.3755162E-013  0.5930193E+02  0.7816164E-02  0.1266605E+00
        -11   -1    0    0    0    0  0.00000000000E+00  0.00000000000E+00  0.45593999997E+02  0.45594000000E+02  0.51100000000E-03 0.  1.
         11   -1    0    0    0    0 -0.00000000000E+00 -0.00000000000E+00 -0.45593999997E+02  0.45594000000E+02  0.51100000000E-03 0. -1.
    9900012    2    1    2    0    0  0.30715594850E+02  0.45279945600E+01 -0.72643409312E+01  0.59301934848E+02  0.49999983259E+02 0.  0.
        -12    1    1    2    0    0 -0.30715594850E+02 -0.45279945600E+01  0.72643409312E+01  0.31886065152E+02  0.00000000000E+00 0.  1.
         11    1    3    3    0    0 -0.55993092584E+01 -0.48204151598E-01 -0.66939651866E+01  0.87271849982E+01  0.51100000000E-03 0. -1.
        -11    1    3    3    0    0 -0.62789207149E+01  0.48935525282E+01 -0.55184116952E+00  0.79797387569E+01  0.51100000000E-03 0.  1.
         12    1    3    3    0    0  0.42593824823E+02 -0.31735381666E+00 -0.18534575037E-01  0.42595011093E+02  0.00000000000E+00 0. -1.
</event>
<event>
 7    1  0.3755162E-013  0.5930191E+02  0.7816164E-02  0.1266605E+00
        -11   -1    0    0    0    0  0.00000000000E+00  0.00000000000E+00  0.45593999997E+02  0.45594000000E+02  0.51100000000E-03 0.  1.
         11   -1    0    0    0    0 -0.00000000000E+00 -0.00000000000E+00 -0.45593999997E+02  0.45594000000E+02  0.51100000000E-03 0. -1.
    9900012    2    1    2    0    0  0.10880073121E+02  0.29972209314E+02  0.11472816191E+00  0.59301913931E+02  0.49999945111E+02 0.  0.
        -12    1    1    2    0    0 -0.10880073121E+02 -0.29972209314E+02 -0.11472816191E+00  0.31886086069E+02  0.00000000000E+00 0.  1.
         11    1    3    3    0    0 -0.70926378471E+01  0.74300478339E+01 -0.21130482074E+01  0.10486948814E+02  0.51100000000E-03 0. -1.
        -11    1    3    3    0    0 -0.11755163035E+02  0.50337483436E+01  0.59690240177E+01  0.14112112824E+02  0.51100000000E-03 0.  1.
         12    1    3    3    0    0  0.29727874003E+02  0.17508413136E+02 -0.37412476484E+01  0.34702852293E+02  0.00000000000E+00 0. -1.
</event>
<event>
 7    1  0.3755162E-013  0.5930191E+02  0.7816164E-02  0.1266605E+00
        -11   -1    0    0    0    0  0.00000000000E+00  0.00000000000E+00  0.45593999997E+02  0.45594000000E+02  0.51100000000E-03 0.  1.
         11   -1    0    0    0    0 -0.00000000000E+00 -0.00000000000E+00 -0.45593999997E+02  0.45594000000E+02  0.51100000000E-03 0. -1.
    9900012    2    1    2    0    0  0.26953542167E+02  0.16626862606E+02 -0.37116733595E+01  0.59301913464E+02  0.49999944258E+02 0.  0.
        -12    1    1    2    0    0 -0.26953542167E+02 -0.16626862606E+02  0.37116733595E+01  0.31886086536E+02  0.00000000000E+00 0.  1.
         11    1    3    3    0    0  0.24457416744E+00  0.14664482316E+01 -0.29616655121E+01  0.33138723280E+01  0.51100000000E-03 0. -1.
        -11    1    3    3    0    0  0.31456342850E+02  0.55609963624E+01 -0.17260071128E+02  0.36308900309E+02  0.51100000000E-03 0.  1.
         12    1    3    3    0    0 -0.47473748503E+01  0.95994180124E+01  0.16510063281E+02  0.19679140827E+02  0.00000000000E+00 0. -1.
</event>
<event>
 7    1  0.3755162E-013  0.5930193E+02  0.7816164E-02  0.1266605E+00
        -11   -1    0    0    0    0  0.00000000000E+00  0.00000000000E+00  0.45593999997E+02  0.45594000000E+02  0.51100000000E-03 0.  1.
         11   -1    0    0    0    0 -0.00000000000E+00 -0.00000000000E+00 -0.45593999997E+02  0.45594000000E+02  0.51100000000E-03 0. -1.
    9900012    2    1    2    0    0 -0.24263578628E+02 -0.12239664569E+02 -0.16679055879E+02  0.59301928721E+02  0.49999972084E+02 0.  0.
        -12    1    1    2    0    0  0.24263578628E+02  0.12239664569E+02  0.16679055879E+02  0.31886071279E+02  0.00000000000E+00 0.  1.
         11    1    3    3    0    0 -0.55279776115E+01  0.10225097244E+01  0.61720356565E+01  0.83485380166E+01  0.51100000000E-03 0. -1.
        -11    1    3    3    0    0  0.89067053979E-01 -0.18245929732E+02  0.31010057758E+01  0.18507785438E+02  0.51100000000E-03 0.  1.
        -12    1    3    3    0    0 -0.18824668071E+02  0.49837554383E+01 -0.25952097311E+02  0.32445605266E+02  0.00000000000E+00 0.  1.
</event>
<event>
 7    1  0.3755162E-013  0.5930211E+02  0.7816164E-02  0.1266604E+00
        -11   -1    0    0    0    0  0.00000000000E+00  0.00000000000E+00  0.45593999997E+02  0.45594000000E+02  0.51100000000E-03 0.  1.
         11   -1    0    0    0    0 -0.00000000000E+00 -0.00000000000E+00 -0.45593999997E+02  0.45594000000E+02  0.51100000000E-03 0. -1.
    9900012    2    1    2    0    0  0.12829373880E+02  0.26126674482E+01 -0.29073895103E+02  0.59302105912E+02  0.50000295237E+02 0.  0.
        -12    1    1    2    0    0 -0.12829373880E+02 -0.26126674482E+01  0.29073895103E+02  0.31885894088E+02  0.00000000000E+00 0.  1.
         11    1    3    3    0    0  0.57704451573E+01  0.99362745822E+01  0.30164082235E+01  0.11879659453E+02  0.51100000000E-03 0.  1.
        -11    1    3    3    0    0  0.17613691540E+02  0.12267550333E+00 -0.29331695959E+02  0.34214113565E+02  0.51100000000E-03 0. -1.
         12    1    3    3    0    0 -0.10554762817E+02 -0.74462826374E+01 -0.27586073675E+01  0.13208332894E+02  0.00000000000E+00 0. -1.
</event>
<event>
 7    1  0.3755162E-013  0.5930199E+02  0.7816164E-02  0.1266605E+00
        -11   -1    0    0    0    0  0.00000000000E+00  0.00000000000E+00  0.45593999997E+02  0.45594000000E+02  0.51100000000E-03 0.  1.
         11   -1    0    0    0    0 -0.00000000000E+00 -0.00000000000E+00 -0.45593999997E+02  0.45594000000E+02  0.51100000000E-03 0. -1.
    9900012    2    1    2    0    0  0.11621956582E+02 -0.28733291575E+01 -0.29553203434E+02  0.59301988514E+02  0.50000081133E+02 0.  0.
        -12    1    1    2    0    0 -0.11621956582E+02  0.28733291575E+01  0.29553203434E+02  0.31886011486E+02  0.00000000000E+00 0.  1.
         11    1    3    3    0    0  0.19687138796E+02 -0.61245134067E+00 -0.88471337876E+01  0.21592366872E+02  0.51100000000E-03 0.  1.
        -11    1    3    3    0    0  0.10142235102E+02 -0.70348095319E+01 -0.55049195770E+01  0.13515088525E+02  0.51100000000E-03 0. -1.
        -12    1    3    3    0    0 -0.18207417316E+02  0.47739317150E+01 -0.15201150069E+02  0.24194533117E+02  0.00000000000E+00 0.  1.
</event>
<event>
 7    1  0.3755162E-013  0.5930194E+02  0.7816164E-02  0.1266605E+00
        -11   -1    0    0    0    0  0.00000000000E+00  0.00000000000E+00  0.45593999997E+02  0.45594000000E+02  0.51100000000E-03 0.  1.
         11   -1    0    0    0    0 -0.00000000000E+00 -0.00000000000E+00 -0.45593999997E+02  0.45594000000E+02  0.51100000000E-03 0. -1.
    9900012    2    1    2    0    0 -0.22431984648E+02  0.55977528958E+00 -0.22654211069E+02  0.59301944070E+02  0.50000000076E+02 0.  0.
        -12    1    1    2    0    0  0.22431984648E+02 -0.55977528958E+00  0.22654211069E+02  0.31886055930E+02  0.00000000000E+00 0.  1.
         11    1    3    3    0    0 -0.62554210267E-01 -0.27987823677E+01 -0.13415813849E+02  0.13704785925E+02  0.51100000000E-03 0. -1.
        -11    1    3    3    0    0 -0.48934996807E+01  0.40388402968E+01 -0.22672696501E+02  0.23543783404E+02  0.51100000000E-03 0.  1.
        -12    1    3    3    0    0 -0.17475930757E+02 -0.68028263947E+00  0.13434299281E+02  0.22053374741E+02  0.00000000000E+00 0.  1.
</event>
<event>
 7    1  0.3755162E-013  0.5930194E+02  0.7816164E-02  0.1266605E+00
        -11   -1    0    0    0    0  0.00000000000E+00  0.00000000000E+00  0.45593999997E+02  0.45594000000E+02  0.51100000000E-03 0. -1.
         11   -1    0    0    0    0 -0.00000000000E+00 -0.00000000000E+00 -0.45593999997E+02  0.45594000000E+02  0.51100000000E-03 0.  1.
    9900012    2    1    2    0    0 -0.22974145768E+02  0.14625351925E+02  0.16583384115E+02  0.59301938446E+02  0.49999989821E+02 0.  0.
        -12    1    1    2    0    0  0.22974145768E+02 -0.14625351925E+02 -0.16583384115E+02  0.31886061554E+02  0.00000000000E+00 0.  1.
         11    1    3    3    0    0  0.50505094030E+01 -0.26220937234E+01 -0.22815945972E+01  0.61309619875E+01  0.51100000000E-03 0. -1.
        -11    1    3    3    0    0 -0.96248460920E+01 -0.11809093196E+02  0.43707422971E+01  0.15849155589E+02  0.51100000000E-03 0.  1.
         12    1    3    3    0    0 -0.18399809079E+02  0.29056538844E+02  0.14494236415E+02  0.37321820870E+02  0.00000000000E+00 0. -1.
</event>
<event>
 7    1  0.3755162E-013  0.5930191E+02  0.7816164E-02  0.1266605E+00
        -11   -1    0    0    0    0  0.00000000000E+00  0.00000000000E+00  0.45593999997E+02  0.45594000000E+02  0.51100000000E-03 0. -1.
         11   -1    0    0    0    0 -0.00000000000E+00 -0.00000000000E+00 -0.45593999997E+02  0.45594000000E+02  0.51100000000E-03 0.  1.
    9900012    2    1    2    0    0  0.17827818242E+02  0.25650129514E+02 -0.64002129849E+01  0.59301906266E+02  0.49999931132E+02 0.  0.
        -12    1    1    2    0    0 -0.17827818242E+02 -0.25650129514E+02  0.64002129849E+01  0.31886093734E+02  0.00000000000E+00 0.  1.
         11    1    3    3    0    0  0.20126679275E+02  0.33811123922E+02 -0.26936940519E+01  0.39440224485E+02  0.51100000000E-03 0. -1.
        -11    1    3    3    0    0 -0.15093039091E+01  0.52401417127E+01 -0.34148275644E+01  0.64341379388E+01  0.51100000000E-03 0.  1.
        -12    1    3    3    0    0 -0.78955712334E+00 -0.13401136121E+02 -0.29169136858E+00  0.13427543843E+02  0.00000000000E+00 0.  1.
</event>
<event>
 7    1  0.3755162E-013  0.5930195E+02  0.7816164E-02  0.1266605E+00
        -11   -1    0    0    0    0  0.00000000000E+00  0.00000000000E+00  0.45593999997E+02  0.45594000000E+02  0.51100000000E-03 0.  1.
         11   -1    0    0    0    0 -0.00000000000E+00 -0.00000000000E+00 -0.45593999997E+02  0.45594000000E+02  0.51100000000E-03 0. -1.
    9900012    2    1    2    0    0  0.21364316598E+02 -0.23367564681E+02 -0.37740147836E+01  0.59301948340E+02  0.50000007865E+02 0.  0.
        -12    1    1    2    0    0 -0.21364316598E+02  0.23367564681E+02  0.37740147836E+01  0.31886051660E+02  0.00000000000E+00 0.  1.
         11    1    3    3    0    0  0.62015591945E+01  0.15620396866E+02  0.95225833843E+00  0.16833387387E+02  0.51100000000E-03 0.  1.
        -11    1    3    3    0    0  0.63304714147E+01 -0.11537507826E+02 -0.34457998568E+01  0.13603767570E+02  0.51100000000E-03 0. -1.
        -12    1    3    3    0    0  0.88322859892E+01 -0.27450453722E+02 -0.12804732652E+01  0.28864793384E+02  0.00000000000E+00 0.  1.
</event>
<event>
 7    1  0.3755162E-013  0.5930200E+02  0.7816164E-02  0.1266605E+00
        -11   -1    0    0    0    0  0.00000000000E+00  0.00000000000E+00  0.45593999997E+02  0.45594000000E+02  0.51100000000E-03 0. -1.
         11   -1    0    0    0    0 -0.00000000000E+00 -0.00000000000E+00 -0.45593999997E+02  0.45594000000E+02  0.51100000000E-03 0.  1.
    9900012    2    1    2    0    0 -0.84690441553E+01 -0.11301310220E+02  0.28587983255E+02  0.59301998241E+02  0.50000098871E+02 0.  0.
        -12    1    1    2    0    0  0.84690441553E+01  0.11301310220E+02 -0.28587983255E+02  0.31886001759E+02  0.00000000000E+00 0.  1.
         11    1    3    3    0    0  0.70187625932E+01  0.59410461761E+01  0.11523791611E+02  0.14743026533E+02  0.51100000000E-03 0. -1.
        -11    1    3    3    0    0  0.70502920774E+01 -0.12332564364E+01 -0.53768487488E+01  0.89519853967E+01  0.51100000000E-03 0.  1.
         12    1    3    3    0    0 -0.22538098826E+02 -0.16009099960E+02  0.22441040393E+02  0.35606986311E+02  0.00000000000E+00 0. -1.
</event>
<event>
 7    1  0.3755162E-013  0.5930196E+02  0.7816164E-02  0.1266605E+00
        -11   -1    0    0    0    0  0.00000000000E+00  0.00000000000E+00  0.45593999997E+02  0.45594000000E+02  0.51100000000E-03 0.  1.
         11   -1    0    0    0    0 -0.00000000000E+00 -0.00000000000E+00 -0.45593999997E+02  0.45594000000E+02  0.51100000000E-03 0. -1.
    9900012    2    1    2    0    0  0.29518423256E+02 -0.99804051695E+01 -0.67656398840E+01  0.59301957883E+02  0.50000025268E+02 0.  0.
        -12    1    1    2    0    0 -0.29518423256E+02  0.99804051695E+01  0.67656398840E+01  0.31886042117E+02  0.00000000000E+00 0.  1.
         11    1    3    3    0    0  0.15753667936E+02 -0.11376300576E+02  0.42102818070E+01  0.19882774992E+02  0.51100000000E-03 0. -1.
        -11    1    3    3    0    0  0.63051396940E+01 -0.40070260735E+01  0.12297802587E+02  0.14389127605E+02  0.51100000000E-03 0.  1.
         12    1    3    3    0    0  0.74596156259E+01  0.54029214800E+01 -0.23273724278E+02  0.25030055285E+02  0.00000000000E+00 0. -1.
</event>
<event>
 7    1  0.3755162E-013  0.5930197E+02  0.7816164E-02  0.1266605E+00
        -11   -1    0    0    0    0  0.00000000000E+00  0.00000000000E+00  0.45593999997E+02  0.45594000000E+02  0.51100000000E-03 0. -1.
         11   -1    0    0    0    0 -0.00000000000E+00 -0.00000000000E+00 -0.45593999997E+02  0.45594000000E+02  0.51100000000E-03 0.  1.
    9900012    2    1    2    0    0  0.30077158748E+02 -0.10271355075E+02  0.25656554358E+01  0.59301971693E+02  0.50000050454E+02 0.  0.
        -12    1    1    2    0    0 -0.30077158748E+02  0.10271355075E+02 -0.25656554358E+01  0.31886028307E+02  0.00000000000E+00 0.  1.
         11    1    3    3    0    0  0.33083239231E+01 -0.18465939333E+02  0.71505207923E+01  0.20076500455E+02  0.51100000000E-03 0. -1.
        -11    1    3    3    0    0  0.40663788887E+01  0.60604452981E+01 -0.13009162306E+02  0.14916525689E+02  0.51100000000E-03 0.  1.
        -12    1    3    3    0    0  0.22702455936E+02  0.21341389605E+01  0.84242969490E+01  0.24308945549E+02  0.00000000000E+00 0.  1.
</event>
<event>
 7    1  0.3755162E-013  0.5930187E+02  0.7816164E-02  0.1266605E+00
        -11   -1    0    0    0    0  0.00000000000E+00  0.00000000000E+00  0.45593999997E+02  0.45594000000E+02  0.51100000000E-03 0. -1.
         11   -1    0    0    0    0 -0.00000000000E+00 -0.00000000000E+00 -0.45593999997E+02  0.45594000000E+02  0.51100000000E-03 0.  1.
    9900012    2    1    2    0    0  0.16393472175E+02  0.24196080896E+01  0.27241974311E+02  0.59301865120E+02  0.49999856091E+02 0.  0.
        -12    1    1    2    0    0 -0.16393472175E+02 -0.24196080896E+01 -0.27241974311E+02  0.31886134880E+02  0.00000000000E+00 0.  1.
         11    1    3    3    0    0  0.10270055389E+02  0.24860095264E+02  0.22416118798E+02  0.35014008004E+02  0.51100000000E-03 0. -1.
        -11    1    3    3    0    0  0.12187513028E+01 -0.50126325714E+00  0.38217961357E+00  0.13721082717E+01  0.51100000000E-03 0.  1.
        -12    1    3    3    0    0  0.49046654832E+01 -0.21939223918E+02  0.44436758986E+01  0.22915748844E+02  0.00000000000E+00 0.  1.
</event>
<event>
 7    1  0.3755162E-013  0.5930195E+02  0.7816164E-02  0.1266605E+00
        -11   -1    0    0    0    0  0.00000000000E+00  0.00000000000E+00  0.45593999997E+02  0.45594000000E+02  0.51100000000E-03 0.  1.
         11   -1    0    0    0    0 -0.00000000000E+00 -0.00000000000E+00 -0.45593999997E+02  0.45594000000E+02  0.51100000000E-03 0. -1.
    9900012    2    1    2    0    0  0.22918005549E+01  0.76891428144E+01 -0.30860090278E+02  0.59301946012E+02  0.50000003618E+02 0.  0.
        -12    1    1    2    0    0 -0.22918005549E+01 -0.76891428144E+01  0.30860090278E+02  0.31886053988E+02  0.00000000000E+00 0.  1.
         11    1    3    3    0    0 -0.12014150917E+01 -0.10715818718E+02 -0.14455917927E+02  0.18034570480E+02  0.51100000000E-03 0. -1.
        -11    1    3    3    0    0  0.65840500847E+01 -0.22014475198E+01  0.70498890054E+01  0.98942923926E+01  0.51100000000E-03 0.  1.
         12    1    3    3    0    0 -0.30908344381E+01  0.20606409052E+02 -0.23454061356E+02  0.31373083139E+02  0.00000000000E+00 0. -1.
</event>
<event>
 7    1  0.3755162E-013  0.5930218E+02  0.7816164E-02  0.1266604E+00
        -11   -1    0    0    0    0  0.00000000000E+00  0.00000000000E+00  0.45593999997E+02  0.45594000000E+02  0.51100000000E-03 0.  1.
         11   -1    0    0    0    0 -0.00000000000E+00 -0.00000000000E+00 -0.45593999997E+02  0.45594000000E+02  0.51100000000E-03 0. -1.
    9900012    2    1    2    0    0 -0.27990809910E+02  0.11960989193E+02 -0.94949753322E+01  0.59302184056E+02  0.50000437751E+02 0.  0.
        -12    1    1    2    0    0  0.27990809910E+02 -0.11960989193E+02  0.94949753322E+01  0.31885815944E+02  0.00000000000E+00 0.  1.
         11    1    3    3    0    0 -0.18175094935E+01 -0.20752005214E+01 -0.30047707382E+00  0.27749026462E+01  0.51100000000E-03 0. -1.
        -11    1    3    3    0    0  0.96313905161E+01  0.85206175479E+01 -0.15087416149E+02  0.19824094758E+02  0.51100000000E-03 0.  1.
         12    1    3    3    0    0 -0.35804690932E+02  0.55155721668E+01  0.58929178907E+01  0.36703186651E+02  0.00000000000E+00 0. -1.
</event>
<event>
 7    1  0.3755162E-013  0.5930193E+02  0.7816164E-02  0.1266605E+00
        -11   -1    0    0    0    0  0.00000000000E+00  0.00000000000E+00  0.45593999997E+02  0.45594000000E+02  0.51100000000E-03 0.  1.
         11   -1    0    0    0    0 -0.00000000000E+00 -0.00000000000E+00 -0.45593999997E+02  0.45594000000E+02  0.51100000000E-03 0. -1.
    9900012    2    1    2    0    0  0.34262101168E+00 -0.51170614676E+01 -0.31470936986E+02  0.59301928087E+02  0.49999970928E+02 0.  0.
        -12    1    1    2    0    0 -0.34262101168E+00  0.51170614676E+01  0.31470936986E+02  0.31886071913E+02  0.00000000000E+00 0.  1.
         11    1    3    3    0    0 -0.47713084541E+01 -0.88337363720E+01  0.56557203193E+01  0.11523343926E+02  0.51100000000E-03 0. -1.
        -11    1    3    3    0    0 -0.55165981004E+01  0.12580939060E+01  0.28529508489E+01  0.63367960110E+01  0.51100000000E-03 0.  1.
         12    1    3    3    0    0  0.10630527566E+02  0.24585809983E+01 -0.39979608155E+02  0.41441788150E+02  0.00000000000E+00 0. -1.
</event>
<event>
 7    1  0.3755162E-013  0.5930202E+02  0.7816164E-02  0.1266605E+00
        -11   -1    0    0    0    0  0.00000000000E+00  0.00000000000E+00  0.45593999997E+02  0.45594000000E+02  0.51100000000E-03 0.  1.
         11   -1    0    0    0    0 -0.00000000000E+00 -0.00000000000E+00 -0.45593999997E+02  0.45594000000E+02  0.51100000000E-03 0. -1.
    9900012    2    1    2    0    0 -0.14999657771E+01  0.80500645985E+01 -0.30816594821E+02  0.59302016344E+02  0.50000131887E+02 0.  0.
        -12    1    1    2    0    0  0.14999657771E+01 -0.80500645985E+01  0.30816594821E+02  0.31885983656E+02  0.00000000000E+00 0.  1.
         11    1    3    3    0    0  0.10070461226E+02  0.69404722034E+01 -0.72945463811E+01  0.14240602195E+02  0.51100000000E-03 0. -1.
        -11    1    3    3    0    0  0.21618678603E+01 -0.45333399556E+01  0.84389771553E+01  0.98204470106E+01  0.51100000000E-03 0.  1.
        -12    1    3    3    0    0 -0.13732294863E+02  0.56429323506E+01 -0.31961025595E+02  0.35240967138E+02  0.00000000000E+00 0.  1.
</event>
<event>
 7    1  0.3755162E-013  0.5930198E+02  0.7816164E-02  0.1266605E+00
        -11   -1    0    0    0    0  0.00000000000E+00  0.00000000000E+00  0.45593999997E+02  0.45594000000E+02  0.51100000000E-03 0.  1.
         11   -1    0    0    0    0 -0.00000000000E+00 -0.00000000000E+00 -0.45593999997E+02  0.45594000000E+02  0.51100000000E-03 0. -1.
    9900012    2    1    2    0    0 -0.25561829085E+02 -0.16609739118E+01 -0.18988222716E+02  0.59301975750E+02  0.50000057855E+02 0.  0.
        -12    1    1    2    0    0  0.25561829085E+02  0.16609739118E+01  0.18988222716E+02  0.31886024250E+02  0.00000000000E+00 0.  1.
         11    1    3    3    0    0 -0.14269213955E+01 -0.45097983830E+00  0.28746817549E+01  0.32408768778E+01  0.51100000000E-03 0.  1.
        -11    1    3    3    0    0 -0.96890768391E+01 -0.23219198032E+02 -0.12718279048E+02  0.28191558834E+02  0.51100000000E-03 0. -1.
         12    1    3    3    0    0 -0.14445830851E+02  0.22009203959E+02 -0.91446254232E+01  0.27869540039E+02  0.00000000000E+00 0. -1.
</event>
<event>
 7    1  0.3755162E-013  0.5930194E+02  0.7816164E-02  0.1266605E+00
        -11   -1    0    0    0    0  0.00000000000E+00  0.00000000000E+00  0.45593999997E+02  0.45594000000E+02  0.51100000000E-03 0.  1.
         11   -1    0    0    0    0 -0.00000000000E+00 -0.00000000000E+00 -0.45593999997E+02  0.45594000000E+02  0.51100000000E-03 0. -1.
    9900012    2    1    2    0    0  0.15196272298E+02 -0.13045168803E+02 -0.24811640271E+02  0.59301943270E+02  0.49999998618E+02 0.  0.
        -12    1    1    2    0    0 -0.15196272298E+02  0.13045168803E+02  0.24811640271E+02  0.31886056730E+02  0.00000000000E+00 0.  1.
         11    1    3    3    0    0  0.86337368924E+00 -0.11801551932E+02  0.74805845346E+00  0.11856712607E+02  0.51100000000E-03 0. -1.
        -11    1    3    3    0    0  0.16135376835E+02  0.47497284375E+01  0.39513615288E+01  0.17277834471E+02  0.51100000000E-03 0.  1.
         12    1    3    3    0    0 -0.18024782259E+01 -0.59933453079E+01 -0.29511060253E+02  0.30167396192E+02  0.00000000000E+00 0. -1.
</event>
<event>
 7    1  0.3755162E-013  0.5930195E+02  0.7816164E-02  0.1266605E+00
        -11   -1    0    0    0    0  0.00000000000E+00  0.00000000000E+00  0.45593999997E+02  0.45594000000E+02  0.51100000000E-03 0.  1.
         11   -1    0    0    0    0 -0.00000000000E+00 -0.00000000000E+00 -0.45593999997E+02  0.45594000000E+02  0.51100000000E-03 0. -1.
    9900012    2    1    2    0    0 -0.42432038001E+01  0.61300278061E+01 -0.31002224488E+02  0.59301953795E+02  0.50000017813E+02 0.  0.
        -12    1    1    2    0    0  0.42432038001E+01 -0.61300278061E+01  0.31002224488E+02  0.31886046205E+02  0.00000000000E+00 0.  1.
         11    1    3    3    0    0 -0.61030672202E+01 -0.63722593461E+00  0.83099400430E+01  0.10329985003E+02  0.51100000000E-03 0.  1.
        -11    1    3    3    0    0 -0.19092408929E+00 -0.83378801447E+00 -0.40926406123E+02  0.40935343811E+02  0.51100000000E-03 0. -1.
         12    1    3    3    0    0  0.20507875094E+01  0.76010417552E+01  0.16142415926E+01  0.80366249814E+01  0.00000000000E+00 0. -1.
</event>
<event>
 7    1  0.3755162E-013  0.5930195E+02  0.7816164E-02  0.1266605E+00
        -11   -1    0    0    0    0  0.00000000000E+00  0.00000000000E+00  0.45593999997E+02  0.45594000000E+02  0.51100000000E-03 0.  1.
         11   -1    0    0    0    0 -0.00000000000E+00 -0.00000000000E+00 -0.45593999997E+02  0.45594000000E+02  0.51100000000E-03 0. -1.
    9900012    2    1    2    0    0  0.61735800161E+01  0.61188604727E+01 -0.30678440495E+02  0.59301948897E+02  0.50000008881E+02 0.  0.
        -12    1    1    2    0    0 -0.61735800161E+01 -0.61188604727E+01  0.30678440495E+02  0.31886051103E+02  0.00000000000E+00 0.  1.
         11    1    3    3    0    0 -0.57035985004E+01 -0.40410569373E+01 -0.47725736560E+01  0.84639610460E+01  0.51100000000E-03 0. -1.
        -11    1    3    3    0    0 -0.14959842565E+02  0.63609253633E+01 -0.65225700520E+01  0.17515769506E+02  0.51100000000E-03 0.  1.
        -12    1    3    3    0    0  0.26837021081E+02  0.37989920467E+01 -0.19383296787E+02  0.33322218345E+02  0.00000000000E+00 0.  1.
</event>
<event>
 7    1  0.3755162E-013  0.5930179E+02  0.7816164E-02  0.1266605E+00
        -11   -1    0    0    0    0  0.00000000000E+00  0.00000000000E+00  0.45593999997E+02  0.45594000000E+02  0.51100000000E-03 0. -1.
         11   -1    0    0    0    0 -0.00000000000E+00 -0.00000000000E+00 -0.45593999997E+02  0.45594000000E+02  0.51100000000E-03 0.  1.
    9900012    2    1    2    0    0  0.16869737300E+02  0.10854850286E+02 -0.24785368573E+02  0.59301791279E+02  0.49999721422E+02 0.  0.
        -12    1    1    2    0    0 -0.16869737300E+02 -0.10854850286E+02  0.24785368573E+02  0.31886208721E+02  0.00000000000E+00 0.  1.
         11    1    3    3    0    0  0.13531407277E+02  0.20957400441E+02 -0.34693197063E+01  0.25186262041E+02  0.51100000000E-03 0. -1.
        -11    1    3    3    0    0  0.10266473702E+02 -0.38767263470E+01 -0.13276693106E+00  0.10974840170E+02  0.51100000000E-03 0.  1.
        -12    1    3    3    0    0 -0.69281436793E+01 -0.62258238078E+01 -0.21183281936E+02  0.23140689067E+02  0.00000000000E+00 0.  1.
</event>
<event>
 7    1  0.3755162E-013  0.5930194E+02  0.7816164E-02  0.1266605E+00
        -11   -1    0    0    0    0  0.00000000000E+00  0.00000000000E+00  0.45593999997E+02  0.45594000000E+02  0.51100000000E-03 0.  1.
         11   -1    0    0    0    0 -0.00000000000E+00 -0.00000000000E+00 -0.45593999997E+02  0.45594000000E+02  0.51100000000E-03 0. -1.
    9900012    2    1    2    0    0  0.27415751071E+02 -0.43624739025E+01 -0.15686491376E+02  0.59301943533E+02  0.49999999097E+02 0.  0.
        -12    1    1    2    0    0 -0.27415751071E+02  0.43624739025E+01  0.15686491376E+02  0.31886056467E+02  0.00000000000E+00 0.  1.
         11    1    3    3    0    0  0.13771077875E+02 -0.55768104781E+01 -0.15028039591E+02  0.21132566696E+02  0.51100000000E-03 0. -1.
        -11    1    3    3    0    0 -0.90609626304E+01 -0.67682018553E+01 -0.69733841971E+01  0.13286748570E+02  0.51100000000E-03 0.  1.
        -12    1    3    3    0    0  0.22705635827E+02  0.79825384309E+01  0.63149324123E+01  0.24882628267E+02  0.00000000000E+00 0.  1.
</event>
<event>
 7    1  0.3755162E-013  0.5930195E+02  0.7816164E-02  0.1266605E+00
        -11   -1    0    0    0    0  0.00000000000E+00  0.00000000000E+00  0.45593999997E+02  0.45594000000E+02  0.51100000000E-03 0. -1.
         11   -1    0    0    0    0 -0.00000000000E+00 -0.00000000000E+00 -0.45593999997E+02  0.45594000000E+02  0.51100000000E-03 0.  1.
    9900012    2    1    2    0    0 -0.27210947730E+02  0.11111234441E+02  0.12362243499E+02  0.59301948638E+02  0.50000008407E+02 0.  0.
        -12    1    1    2    0    0  0.27210947730E+02 -0.11111234441E+02 -0.12362243499E+02  0.31886051362E+02  0.00000000000E+00 0.  1.
         11    1    3    3    0    0 -0.95142055989E+01  0.44113800611E+01 -0.24813446222E+01  0.10776708849E+02  0.51100000000E-03 0. -1.
        -11    1    3    3    0    0 -0.18196301485E+02  0.59104346947E+01 -0.11396031294E+02  0.22268995387E+02  0.51100000000E-03 0.  1.
         12    1    3    3    0    0  0.49955935453E+00  0.78941968501E+00  0.26239619416E+02  0.26256244402E+02  0.00000000000E+00 0. -1.
</event>
<event>
 7    1  0.3755162E-013  0.5930194E+02  0.7816164E-02  0.1266605E+00
        -11   -1    0    0    0    0  0.00000000000E+00  0.00000000000E+00  0.45593999997E+02  0.45594000000E+02  0.51100000000E-03 0.  1.
         11   -1    0    0    0    0 -0.00000000000E+00 -0.00000000000E+00 -0.45593999997E+02  0.45594000000E+02  0.51100000000E-03 0. -1.
    9900012    2    1    2    0    0  0.58181630245E+01 -0.31349622805E+02 -0.26683913815E+00  0.59301936052E+02  0.49999985454E+02 0.  0.
        -12    1    1    2    0    0 -0.58181630245E+01  0.31349622805E+02  0.26683913815E+00  0.31886063948E+02  0.00000000000E+00 0.  1.
         11    1    3    3    0    0  0.97840296712E+00 -0.73960109657E+01 -0.58244081231E+01  0.94647757932E+01  0.51100000000E-03 0. -1.
        -11    1    3    3    0    0 -0.19197301573E+02 -0.12100269268E+02  0.34542231478E+01  0.22953966147E+02  0.51100000000E-03 0.  1.
         12    1    3    3    0    0  0.24037061630E+02 -0.11853342571E+02  0.21033458372E+01  0.26883194112E+02  0.00000000000E+00 0. -1.
</event>
<event>
 7    1  0.3755162E-013  0.5930211E+02  0.7816164E-02  0.1266604E+00
        -11   -1    0    0    0    0  0.00000000000E+00  0.00000000000E+00  0.45593999997E+02  0.45594000000E+02  0.51100000000E-03 0.  1.
         11   -1    0    0    0    0 -0.00000000000E+00 -0.00000000000E+00 -0.45593999997E+02  0.45594000000E+02  0.51100000000E-03 0. -1.
    9900012    2    1    2    0    0  0.13260914105E+02 -0.10380236883E+02 -0.27075984698E+02  0.59302108010E+02  0.50000299063E+02 0.  0.
        -12    1    1    2    0    0 -0.13260914105E+02  0.10380236883E+02  0.27075984698E+02  0.31885891990E+02  0.00000000000E+00 0.  1.
         11    1    3    3    0    0 -0.89643109870E+01 -0.16679709018E+01 -0.26536542871E+01  0.94964666976E+01  0.51100000000E-03 0. -1.
        -11    1    3    3    0    0 -0.79514880571E+01  0.12108691970E+00  0.25789368673E+01  0.83601279889E+01  0.51100000000E-03 0.  1.
        -12    1    3    3    0    0  0.30176713150E+02 -0.88333529008E+01 -0.27001267278E+02  0.41445513323E+02  0.00000000000E+00 0.  1.
</event>
<event>
 7    1  0.3755162E-013  0.5930193E+02  0.7816164E-02  0.1266605E+00
        -11   -1    0    0    0    0  0.00000000000E+00  0.00000000000E+00  0.45593999997E+02  0.45594000000E+02  0.51100000000E-03 0.  1.
         11   -1    0    0    0    0 -0.00000000000E+00 -0.00000000000E+00 -0.45593999997E+02  0.45594000000E+02  0.51100000000E-03 0. -1.
    9900012    2    1    2    0    0 -0.20134835029E+00 -0.30877364507E+02 -0.79541868712E+01  0.59301932998E+02  0.49999979884E+02 0.  0.
        -12    1    1    2    0    0  0.20134835029E+00  0.30877364507E+02  0.79541868712E+01  0.31886067002E+02  0.00000000000E+00 0.  1.
         11    1    3    3    0    0  0.81619835161E+01 -0.13657164132E+02  0.16997365652E+02  0.23281893102E+02  0.51100000000E-03 0. -1.
        -11    1    3    3    0    0 -0.51312156764E+01 -0.11534776452E+02 -0.28109531269E+01  0.12933750417E+02  0.51100000000E-03 0.  1.
         12    1    3    3    0    0 -0.32321161900E+01 -0.56854239234E+01 -0.22140599396E+02  0.23086289479E+02  0.00000000000E+00 0. -1.
</event>
<event>
 7    1  0.3755162E-013  0.5930222E+02  0.7816164E-02  0.1266604E+00
        -11   -1    0    0    0    0  0.00000000000E+00  0.00000000000E+00  0.45593999997E+02  0.45594000000E+02  0.51100000000E-03 0. -1.
         11   -1    0    0    0    0 -0.00000000000E+00 -0.00000000000E+00 -0.45593999997E+02  0.45594000000E+02  0.51100000000E-03 0.  1.
    9900012    2    1    2    0    0  0.11110920021E+02  0.14828659828E+02  0.25949204207E+02  0.59302221117E+02  0.50000505341E+02 0.  0.
        -12    1    1    2    0    0 -0.11110920021E+02 -0.14828659828E+02 -0.25949204207E+02  0.31885778883E+02  0.00000000000E+00 0.  1.
         11    1    3    3    0    0  0.73493922428E+01  0.19312876915E+02  0.69740376224E+00  0.20675762461E+02  0.51100000000E-03 0. -1.
        -11    1    3    3    0    0 -0.10073137208E+02  0.10390221956E+01  0.10143751092E+01  0.10177259821E+02  0.51100000000E-03 0.  1.
         12    1    3    3    0    0  0.13834664986E+02 -0.55232392822E+01  0.24237425336E+02  0.28449198835E+02  0.00000000000E+00 0. -1.
</event>
<event>
 7    1  0.3755162E-013  0.5930198E+02  0.7816164E-02  0.1266605E+00
        -11   -1    0    0    0    0  0.00000000000E+00  0.00000000000E+00  0.45593999997E+02  0.45594000000E+02  0.51100000000E-03 0.  1.
         11   -1    0    0    0    0 -0.00000000000E+00 -0.00000000000E+00 -0.45593999997E+02  0.45594000000E+02  0.51100000000E-03 0. -1.
    9900012    2    1    2    0    0 -0.13186494433E+02 -0.61622109529E+01 -0.28370080682E+02  0.59301984928E+02  0.50000074593E+02 0.  0.
        -12    1    1    2    0    0  0.13186494433E+02  0.61622109529E+01  0.28370080682E+02  0.31886015072E+02  0.00000000000E+00 0.  1.
         11    1    3    3    0    0 -0.60408695042E+00  0.30271166313E+01 -0.13045613800E+01  0.33511545471E+01  0.51100000000E-03 0. -1.
        -11    1    3    3    0    0 -0.47148381240E+01  0.16322550093E+02  0.12477198931E+01  0.17035614027E+02  0.51100000000E-03 0.  1.
         12    1    3    3    0    0 -0.78675693582E+01 -0.25511877677E+02 -0.28313239195E+02  0.38915216355E+02  0.00000000000E+00 0. -1.
</event>
<event>
 7    1  0.3755162E-013  0.5930193E+02  0.7816164E-02  0.1266605E+00
        -11   -1    0    0    0    0  0.00000000000E+00  0.00000000000E+00  0.45593999997E+02  0.45594000000E+02  0.51100000000E-03 0.  1.
         11   -1    0    0    0    0 -0.00000000000E+00 -0.00000000000E+00 -0.45593999997E+02  0.45594000000E+02  0.51100000000E-03 0. -1.
    9900012    2    1    2    0    0  0.14636895857E+02  0.24799724808E+02 -0.13691481350E+02  0.59301925728E+02  0.49999966626E+02 0.  0.
        -12    1    1    2    0    0 -0.14636895857E+02 -0.24799724808E+02  0.13691481350E+02  0.31886074272E+02  0.00000000000E+00 0.  1.
         11    1    3    3    0    0  0.78870689535E+01 -0.53672316051E+01 -0.41169190561E+01  0.10390479034E+02  0.51100000000E-03 0. -1.
        -11    1    3    3    0    0  0.31014596248E+01 -0.80998326647E+01 -0.54664492800E+01  0.10252239218E+02  0.51100000000E-03 0.  1.
        -12    1    3    3    0    0  0.36483672789E+01  0.38266789078E+02 -0.41081130139E+01  0.38659207476E+02  0.00000000000E+00 0.  1.
</event>
<event>
 7    1  0.3755162E-013  0.5930195E+02  0.7816164E-02  0.1266605E+00
        -11   -1    0    0    0    0  0.00000000000E+00  0.00000000000E+00  0.45593999997E+02  0.45594000000E+02  0.51100000000E-03 0.  1.
         11   -1    0    0    0    0 -0.00000000000E+00 -0.00000000000E+00 -0.45593999997E+02  0.45594000000E+02  0.51100000000E-03 0. -1.
    9900012    2    1    2    0    0 -0.79908506307E+01  0.26892341069E+02 -0.15154811587E+02  0.59301952641E+02  0.50000015708E+02 0.  0.
        -12    1    1    2    0    0  0.79908506307E+01 -0.26892341069E+02  0.15154811587E+02  0.31886047359E+02  0.00000000000E+00 0.  1.
         11    1    3    3    0    0 -0.93240422035E+01  0.18694923969E+02 -0.13168406015E+02  0.24695037203E+02  0.51100000000E-03 0. -1.
        -11    1    3    3    0    0 -0.97176910772E+01 -0.51013459633E+01  0.89377158927E+01  0.14154151905E+02  0.51100000000E-03 0.  1.
         12    1    3    3    0    0  0.11050882650E+02  0.13298763063E+02 -0.10924121464E+02  0.20452763533E+02  0.00000000000E+00 0. -1.
</event>
<event>
 7    1  0.3755162E-013  0.5930205E+02  0.7816164E-02  0.1266604E+00
        -11   -1    0    0    0    0  0.00000000000E+00  0.00000000000E+00  0.45593999997E+02  0.45594000000E+02  0.51100000000E-03 0.  1.
         11   -1    0    0    0    0 -0.00000000000E+00 -0.00000000000E+00 -0.45593999997E+02  0.45594000000E+02  0.51100000000E-03 0. -1.
    9900012    2    1    2    0    0 -0.11517715846E+02 -0.18277424000E+02 -0.23451897367E+02  0.59302054875E+02  0.50000202158E+02 0.  0.
        -12    1    1    2    0    0  0.11517715846E+02  0.18277424000E+02  0.23451897367E+02  0.31885945125E+02  0.00000000000E+00 0.  1.
         11    1    3    3    0    0  0.53381604366E+01 -0.25851579126E+01  0.53581336321E+01  0.79930341273E+01  0.51100000000E-03 0. -1.
        -11    1    3    3    0    0 -0.26672083907E+00 -0.23718751946E+02 -0.19247035798E+02  0.30546664649E+02  0.51100000000E-03 0.  1.
         12    1    3    3    0    0 -0.16589155444E+02  0.80264858584E+01 -0.95629952010E+01  0.20762356099E+02  0.00000000000E+00 0. -1.
</event>
<event>
 7    1  0.3755162E-013  0.5930194E+02  0.7816164E-02  0.1266605E+00
        -11   -1    0    0    0    0  0.00000000000E+00  0.00000000000E+00  0.45593999997E+02  0.45594000000E+02  0.51100000000E-03 0.  1.
         11   -1    0    0    0    0 -0.00000000000E+00 -0.00000000000E+00 -0.45593999997E+02  0.45594000000E+02  0.51100000000E-03 0. -1.
    9900012    2    1    2    0    0  0.67051260621E+01 -0.98831586031E+01 -0.29564932460E+02  0.59301940807E+02  0.49999994126E+02 0.  0.
        -12    1    1    2    0    0 -0.67051260621E+01  0.98831586031E+01  0.29564932460E+02  0.31886059193E+02  0.00000000000E+00 0.  1.
         11    1    3    3    0    0  0.12409397217E+02  0.93023132669E+01 -0.14212728322E+02  0.21036345168E+02  0.51100000000E-03 0. -1.
        -11    1    3    3    0    0 -0.87998793083E+00 -0.34879760530E+01  0.85440769471E+01  0.92704696129E+01  0.51100000000E-03 0.  1.
        -12    1    3    3    0    0 -0.48242832245E+01 -0.15697495817E+02 -0.23896281085E+02  0.28995126026E+02  0.00000000000E+00 0.  1.
</event>
<event>
 7    1  0.3755162E-013  0.5930193E+02  0.7816164E-02  0.1266605E+00
        -11   -1    0    0    0    0  0.00000000000E+00  0.00000000000E+00  0.45593999997E+02  0.45594000000E+02  0.51100000000E-03 0.  1.
         11   -1    0    0    0    0 -0.00000000000E+00 -0.00000000000E+00 -0.45593999997E+02  0.45594000000E+02  0.51100000000E-03 0. -1.
    9900012    2    1    2    0    0 -0.23562305862E+02  0.16751867854E+02  0.13450437199E+02  0.59301927884E+02  0.49999970558E+02 0.  0.
        -12    1    1    2    0    0  0.23562305862E+02 -0.16751867854E+02 -0.13450437199E+02  0.31886072116E+02  0.00000000000E+00 0.  1.
         11    1    3    3    0    0 -0.89643781789E+01  0.16708415795E+02  0.27539640377E+01  0.19160259724E+02  0.51100000000E-03 0. -1.
        -11    1    3    3    0    0 -0.11796858239E+02  0.10768422447E+01  0.23862680992E+02  0.26641189874E+02  0.51100000000E-03 0.  1.
         12    1    3    3    0    0 -0.28010694437E+01 -0.10333901847E+01 -0.13166207831E+02  0.13500478286E+02  0.00000000000E+00 0. -1.
</event>
<event>
 7    1  0.3755162E-013  0.5930195E+02  0.7816164E-02  0.1266605E+00
        -11   -1    0    0    0    0  0.00000000000E+00  0.00000000000E+00  0.45593999997E+02  0.45594000000E+02  0.51100000000E-03 0. -1.
         11   -1    0    0    0    0 -0.00000000000E+00 -0.00000000000E+00 -0.45593999997E+02  0.45594000000E+02  0.51100000000E-03 0.  1.
    9900012    2    1    2    0    0 -0.64723009262E+01 -0.49319971073E+01  0.30830264492E+02  0.59301945315E+02  0.50000002347E+02 0.  0.
        -12    1    1    2    0    0  0.64723009262E+01  0.49319971073E+01 -0.30830264492E+02  0.31886054685E+02  0.00000000000E+00 0.  1.
         11    1    3    3    0    0  0.14161248929E+01  0.88496291016E+01  0.20001645764E+02  0.21917736618E+02  0.51100000000E-03 0. -1.
        -11    1    3    3    0    0  0.59778346036E+01 -0.19666337041E+02  0.44778876739E+01  0.21036891345E+02  0.51100000000E-03 0.  1.
         12    1    3    3    0    0 -0.13866260423E+02  0.58847108322E+01  0.63507310541E+01  0.16347317352E+02  0.00000000000E+00 0. -1.
</event>
<event>
 7    1  0.3755162E-013  0.5930191E+02  0.7816164E-02  0.1266605E+00
        -11   -1    0    0    0    0  0.00000000000E+00  0.00000000000E+00  0.45593999997E+02  0.45594000000E+02  0.51100000000E-03 0.  1.
         11   -1    0    0    0    0 -0.00000000000E+00 -0.00000000000E+00 -0.45593999997E+02  0.45594000000E+02  0.51100000000E-03 0. -1.
    9900012    2    1    2    0    0  0.12390844948E+02  0.94355198507E+00 -0.29364937766E+02  0.59301907438E+02  0.49999933268E+02 0.  0.
        -12    1    1    2    0    0 -0.12390844948E+02 -0.94355198507E+00  0.29364937766E+02  0.31886092562E+02  0.00000000000E+00 0.  1.
         11    1    3    3    0    0  0.63359754205E+01  0.20781504419E+02 -0.25626371401E+02  0.33596523955E+02  0.51100000000E-03 0. -1.
        -11    1    3    3    0    0 -0.28972526135E+01 -0.14864432004E+01 -0.41594318481E+01  0.52824671939E+01  0.51100000000E-03 0.  1.
        -12    1    3    3    0    0  0.89521221408E+01 -0.18351509234E+02  0.42086548228E+00  0.20422916289E+02  0.00000000000E+00 0.  1.
</event>
<event>
 7    1  0.3755162E-013  0.5930202E+02  0.7816164E-02  0.1266604E+00
        -11   -1    0    0    0    0  0.00000000000E+00  0.00000000000E+00  0.45593999997E+02  0.45594000000E+02  0.51100000000E-03 0. -1.
         11   -1    0    0    0    0 -0.00000000000E+00 -0.00000000000E+00 -0.45593999997E+02  0.45594000000E+02  0.51100000000E-03 0.  1.
    9900012    2    1    2    0    0  0.12522133242E+01 -0.17007802369E+02  0.26942200562E+02  0.59302022663E+02  0.50000143412E+02 0.  0.
        -12    1    1    2    0    0 -0.12522133242E+01  0.17007802369E+02 -0.26942200562E+02  0.31885977337E+02  0.00000000000E+00 0.  1.
         11    1    3    3    0    0  0.15408755443E+01  0.96657131639E+01  0.35382952624E+01  0.10407681876E+02  0.51100000000E-03 0. -1.
        -11    1    3    3    0    0 -0.14499008651E+02 -0.29992657555E+01  0.46614230067E+01  0.15522426088E+02  0.51100000000E-03 0.  1.
        -12    1    3    3    0    0  0.14210346431E+02 -0.23674249777E+02  0.18742482293E+02  0.33371914699E+02  0.00000000000E+00 0.  1.
</event>
<event>
 7    1  0.3755162E-013  0.5930195E+02  0.7816164E-02  0.1266605E+00
        -11   -1    0    0    0    0  0.00000000000E+00  0.00000000000E+00  0.45593999997E+02  0.45594000000E+02  0.51100000000E-03 0.  1.
         11   -1    0    0    0    0 -0.00000000000E+00 -0.00000000000E+00 -0.45593999997E+02  0.45594000000E+02  0.51100000000E-03 0. -1.
    9900012    2    1    2    0    0 -0.91213340897E+01 -0.17994738307E+02 -0.24692328814E+02  0.59301945923E+02  0.50000003457E+02 0.  0.
        -12    1    1    2    0    0  0.91213340897E+01  0.17994738307E+02  0.24692328814E+02  0.31886054077E+02  0.00000000000E+00 0.  1.
         11    1    3    3    0    0 -0.12620815366E+02 -0.30598164663E+02 -0.13703278320E+02  0.35823351297E+02  0.51100000000E-03 0. -1.
        -11    1    3    3    0    0 -0.37947167722E+01  0.71475026055E+01 -0.11827725652E+02  0.14331146613E+02  0.51100000000E-03 0.  1.
        -12    1    3    3    0    0  0.72941980482E+01  0.54559237498E+01  0.83867515781E+00  0.91474480130E+01  0.00000000000E+00 0.  1.
</event>
<event>
 7    1  0.3755162E-013  0.5930197E+02  0.7816164E-02  0.1266605E+00
        -11   -1    0    0    0    0  0.00000000000E+00  0.00000000000E+00  0.45593999997E+02  0.45594000000E+02  0.51100000000E-03 0.  1.
         11   -1    0    0    0    0 -0.00000000000E+00 -0.00000000000E+00 -0.45593999997E+02  0.45594000000E+02  0.51100000000E-03 0. -1.
    9900012    2    1    2    0    0  0.22863491341E+02  0.14675315006E+01 -0.22177153305E+02  0.59301968361E+02  0.50000044378E+02 0.  0.
        -12    1    1    2    0    0 -0.22863491341E+02 -0.14675315006E+01  0.22177153305E+02  0.31886031639E+02  0.00000000000E+00 0.  1.
         11    1    3    3    0    0  0.28022319111E+01 -0.13315902779E+02  0.25241024591E+01  0.13839684389E+02  0.51100000000E-03 0.  1.
        -11    1    3    3    0    0 -0.24487139698E+01  0.12085239607E+02 -0.55840442689E+00  0.12343461112E+02  0.51100000000E-03 0. -1.
         12    1    3    3    0    0  0.22509973400E+02  0.26981946720E+01 -0.24142851337E+02  0.33118822860E+02  0.00000000000E+00 0. -1.
</event>
<event>
 7    1  0.3755162E-013  0.5930197E+02  0.7816164E-02  0.1266605E+00
        -11   -1    0    0    0    0  0.00000000000E+00  0.00000000000E+00  0.45593999997E+02  0.45594000000E+02  0.51100000000E-03 0.  1.
         11   -1    0    0    0    0 -0.00000000000E+00 -0.00000000000E+00 -0.45593999997E+02  0.45594000000E+02  0.51100000000E-03 0. -1.
    9900012    2    1    2    0    0  0.73438122845E+01 -0.25639167175E+02 -0.17476276879E+02  0.59301972875E+02  0.50000052610E+02 0.  0.
        -12    1    1    2    0    0 -0.73438122845E+01  0.25639167175E+02  0.17476276879E+02  0.31886027125E+02  0.00000000000E+00 0.  1.
         11    1    3    3    0    0  0.90803861368E+01 -0.14559702416E+02  0.82278733121E+01  0.19029877728E+02  0.51100000000E-03 0. -1.
        -11    1    3    3    0    0 -0.94401636973E+01 -0.79146264244E+01  0.94177187217E+00  0.12354955953E+02  0.51100000000E-03 0.  1.
        -12    1    3    3    0    0  0.77035898450E+01 -0.31648383340E+01 -0.26645922063E+02  0.27917139194E+02  0.00000000000E+00 0.  1.
</event>
<event>
 7    1  0.3755162E-013  0.5930196E+02  0.7816164E-02  0.1266605E+00
        -11   -1    0    0    0    0  0.00000000000E+00  0.00000000000E+00  0.45593999997E+02  0.45594000000E+02  0.51100000000E-03 0. -1.
         11   -1    0    0    0    0 -0.00000000000E+00 -0.00000000000E+00 -0.45593999997E+02  0.45594000000E+02  0.51100000000E-03 0.  1.
    9900012    2    1    2    0    0 -0.67376677677E+00 -0.25417615208E+02  0.19240857189E+02  0.59301957444E+02  0.50000024469E+02 0.  0.
        -12    1    1    2    0    0  0.67376677677E+00  0.25417615208E+02 -0.19240857189E+02  0.31886042556E+02  0.00000000000E+00 0.  1.
         11    1    3    3    0    0 -0.11122845039E+02  0.90947174295E+00 -0.48500658345E-01  0.11160070483E+02  0.51100000000E-03 0. -1.
        -11    1    3    3    0    0 -0.52616604197E+01  0.61112383941E+01  0.33677845190E+01  0.87392378335E+01  0.51100000000E-03 0.  1.
         12    1    3    3    0    0  0.15710738681E+02 -0.32438325345E+02  0.15921573328E+02  0.39402649128E+02  0.00000000000E+00 0. -1.
</event>
<event>
 7    1  0.3755162E-013  0.5930192E+02  0.7816164E-02  0.1266605E+00
        -11   -1    0    0    0    0  0.00000000000E+00  0.00000000000E+00  0.45593999997E+02  0.45594000000E+02  0.51100000000E-03 0. -1.
         11   -1    0    0    0    0 -0.00000000000E+00 -0.00000000000E+00 -0.45593999997E+02  0.45594000000E+02  0.51100000000E-03 0.  1.
    9900012    2    1    2    0    0  0.14271451841E+02 -0.86999131030E+01  0.27154365236E+02  0.59301915621E+02  0.49999948194E+02 0.  0.
        -12    1    1    2    0    0 -0.14271451841E+02  0.86999131030E+01 -0.27154365236E+02  0.31886084379E+02  0.00000000000E+00 0.  1.
         11    1    3    3    0    0  0.15032401536E+01  0.10363779892E+02  0.11676036911E+02  0.15684307534E+02  0.51100000000E-03 0. -1.
        -11    1    3    3    0    0 -0.64441613529E+01 -0.23862123362E+01  0.16790845530E+02  0.18142594046E+02  0.51100000000E-03 0.  1.
        -12    1    3    3    0    0  0.19212373041E+02 -0.16677480659E+02 -0.13125172057E+01  0.25475014041E+02  0.00000000000E+00 0.  1.
</event>
<event>
 7    1  0.3755162E-013  0.5930195E+02  0.7816164E-02  0.1266605E+00
        -11   -1    0    0    0    0  0.00000000000E+00  0.00000000000E+00  0.45593999997E+02  0.45594000000E+02  0.51100000000E-03 0.  1.
         11   -1    0    0    0    0 -0.00000000000E+00 -0.00000000000E+00 -0.45593999997E+02  0.45594000000E+02  0.51100000000E-03 0. -1.
    9900012    2    1    2    0    0 -0.30274666338E+02 -0.81873079287E+00 -0.99746947903E+01  0.59301948533E+02  0.50000008217E+02 0.  0.
        -12    1    1    2    0    0  0.30274666338E+02  0.81873079287E+00  0.99746947903E+01  0.31886051467E+02  0.00000000000E+00 0.  1.
         11    1    3    3    0    0  0.86083298821E+01 -0.12704359537E+01  0.20254912693E+01  0.89342020356E+01  0.51100000000E-03 0. -1.
        -11    1    3    3    0    0 -0.14421093115E+02 -0.14285912668E+02 -0.37613613232E+01  0.20644686160E+02  0.51100000000E-03 0.  1.
         12    1    3    3    0    0 -0.24461903105E+02  0.14737617829E+02 -0.82388247364E+01  0.29723060337E+02  0.00000000000E+00 0. -1.
</event>
<event>
 7    1  0.3755162E-013  0.5930194E+02  0.7816164E-02  0.1266605E+00
        -11   -1    0    0    0    0  0.00000000000E+00  0.00000000000E+00  0.45593999997E+02  0.45594000000E+02  0.51100000000E-03 0.  1.
         11   -1    0    0    0    0 -0.00000000000E+00 -0.00000000000E+00 -0.45593999997E+02  0.45594000000E+02  0.51100000000E-03 0. -1.
    9900012    2    1    2    0    0 -0.29549084348E+02  0.10724972026E+02  0.53429624610E+01  0.59301942567E+02  0.49999997335E+02 0.  0.
        -12    1    1    2    0    0  0.29549084348E+02 -0.10724972026E+02 -0.53429624610E+01  0.31886057433E+02  0.00000000000E+00 0.  1.
         11    1    3    3    0    0 -0.71804411279E+01 -0.29029162775E+01  0.14409029714E+02  0.16358661169E+02  0.51100000000E-03 0. -1.
        -11    1    3    3    0    0 -0.14804192990E+02 -0.16953502039E+01  0.95300261967E+01  0.17687841643E+02  0.51100000000E-03 0.  1.
         12    1    3    3    0    0 -0.75644502305E+01  0.15323238507E+02 -0.18596093449E+02  0.25255439755E+02  0.00000000000E+00 0. -1.
</event>
<event>
 7    1  0.3755162E-013  0.5930195E+02  0.7816164E-02  0.1266605E+00
        -11   -1    0    0    0    0  0.00000000000E+00  0.00000000000E+00  0.45593999997E+02  0.45594000000E+02  0.51100000000E-03 0.  1.
         11   -1    0    0    0    0 -0.00000000000E+00 -0.00000000000E+00 -0.45593999997E+02  0.45594000000E+02  0.51100000000E-03 0. -1.
    9900012    2    1    2    0    0 -0.19928097873E+02 -0.11555999926E+02 -0.22046545693E+02  0.59301946683E+02  0.50000004843E+02 0.  0.
        -12    1    1    2    0    0  0.19928097873E+02  0.11555999926E+02  0.22046545693E+02  0.31886053317E+02  0.00000000000E+00 0.  1.
         11    1    3    3    0    0 -0.63031679982E+01 -0.20901276435E+02 -0.56372418266E+01  0.22547101346E+02  0.51100000000E-03 0. -1.
        -11    1    3    3    0    0 -0.18195718148E+02 -0.40965093492E+01 -0.10208471482E+02  0.21262136252E+02  0.51100000000E-03 0.  1.
        -12    1    3    3    0    0  0.45707882728E+01  0.13441785859E+02 -0.62008323847E+01  0.15492709084E+02  0.00000000000E+00 0.  1.
</event>
<event>
 7    1  0.3755162E-013  0.5930191E+02  0.7816164E-02  0.1266605E+00
        -11   -1    0    0    0    0  0.00000000000E+00  0.00000000000E+00  0.45593999997E+02  0.45594000000E+02  0.51100000000E-03 0.  1.
         11   -1    0    0    0    0 -0.00000000000E+00 -0.00000000000E+00 -0.45593999997E+02  0.45594000000E+02  0.51100000000E-03 0. -1.
    9900012    2    1    2    0    0  0.56997249577E+01  0.25155241251E+01 -0.31271523783E+02  0.59301907014E+02  0.49999932495E+02 0.  0.
        -12    1    1    2    0    0 -0.56997249577E+01 -0.25155241251E+01  0.31271523783E+02  0.31886092986E+02  0.00000000000E+00 0.  1.
         11    1    3    3    0    0  0.73742405933E+01  0.12944770432E+02 -0.72529897863E+01  0.16569621811E+02  0.51100000000E-03 0. -1.
        -11    1    3    3    0    0 -0.17597517719E+02 -0.40999785796E+01 -0.14223213389E+02  0.22995265896E+02  0.51100000000E-03 0.  1.
         12    1    3    3    0    0  0.15923002084E+02 -0.63292677268E+01 -0.97953206075E+01  0.19737019307E+02  0.00000000000E+00 0. -1.
</event>
<event>
 7    1  0.3755162E-013  0.5930194E+02  0.7816164E-02  0.1266605E+00
        -11   -1    0    0    0    0  0.00000000000E+00  0.00000000000E+00  0.45593999997E+02  0.45594000000E+02  0.51100000000E-03 0.  1.
         11   -1    0    0    0    0 -0.00000000000E+00 -0.00000000000E+00 -0.45593999997E+02  0.45594000000E+02  0.51100000000E-03 0. -1.
    9900012    2    1    2    0    0  0.29133250936E+02  0.71142184169E+01 -0.10833380272E+02  0.59301944397E+02  0.50000000674E+02 0.  0.
        -12    1    1    2    0    0 -0.29133250936E+02 -0.71142184169E+01  0.10833380272E+02  0.31886055603E+02  0.00000000000E+00 0.  1.
         11    1    3    3    0    0  0.17551239600E+02  0.49399888523E+01  0.12174393545E+01  0.18273797093E+02  0.51100000000E-03 0. -1.
        -11    1    3    3    0    0  0.22073567893E+02  0.11728864827E+02 -0.84807330189E+01  0.26395672040E+02  0.51100000000E-03 0.  1.
        -12    1    3    3    0    0 -0.10491556556E+02 -0.95546352627E+01 -0.35700866073E+01  0.14632475264E+02  0.00000000000E+00 0.  1.
</event>
<event>
 7    1  0.3755162E-013  0.5930195E+02  0.7816164E-02  0.1266605E+00
        -11   -1    0    0    0    0  0.00000000000E+00  0.00000000000E+00  0.45593999997E+02  0.45594000000E+02  0.51100000000E-03 0.  1.
         11   -1    0    0    0    0 -0.00000000000E+00 -0.00000000000E+00 -0.45593999997E+02  0.45594000000E+02  0.51100000000E-03 0. -1.
    9900012    2    1    2    0    0  0.17141775531E+02  0.26673555031E+02  0.33765268632E+01  0.59301953836E+02  0.50000017888E+02 0.  0.
        -12    1    1    2    0    0 -0.17141775531E+02 -0.26673555031E+02 -0.33765268632E+01  0.31886046164E+02  0.00000000000E+00 0.  1.
         11    1    3    3    0    0  0.11623482381E+02  0.27321431883E+02 -0.11618823195E+02  0.31883585675E+02  0.51100000000E-03 0. -1.
        -11    1    3    3    0    0  0.48815835034E+01  0.84591744335E+01 -0.11149728308E+00  0.97672883392E+01  0.51100000000E-03 0.  1.
        -12    1    3    3    0    0  0.63670964611E+00 -0.91070512855E+01  0.15106847341E+02  0.17651079822E+02  0.00000000000E+00 0.  1.
</event>
<event>
 7    1  0.3755162E-013  0.5930191E+02  0.7816164E-02  0.1266605E+00
        -11   -1    0    0    0    0  0.00000000000E+00  0.00000000000E+00  0.45593999997E+02  0.45594000000E+02  0.51100000000E-03 0. -1.
         11   -1    0    0    0    0 -0.00000000000E+00 -0.00000000000E+00 -0.45593999997E+02  0.45594000000E+02  0.51100000000E-03 0.  1.
    9900012    2    1    2    0    0  0.42662916309E+01 -0.30879290159E+02  0.67075513671E+01  0.59301905063E+02  0.49999928938E+02 0.  0.
        -12    1    1    2    0    0 -0.42662916309E+01  0.30879290159E+02 -0.67075513671E+01  0.31886094937E+02  0.00000000000E+00 0.  1.
         11    1    3    3    0    0 -0.51454942962E+01 -0.17660544352E+02  0.17512329488E+02  0.25397886186E+02  0.51100000000E-03 0. -1.
        -11    1    3    3    0    0 -0.12156985693E+01 -0.73531699377E+01  0.83716580545E+01  0.11208554322E+02  0.51100000000E-03 0.  1.
        -12    1    3    3    0    0  0.10627484496E+02 -0.58655758684E+01 -0.19176436175E+02  0.22695464555E+02  0.00000000000E+00 0.  1.
</event>
<event>
 7    1  0.3755162E-013  0.5930195E+02  0.7816164E-02  0.1266605E+00
        -11   -1    0    0    0    0  0.00000000000E+00  0.00000000000E+00  0.45593999997E+02  0.45594000000E+02  0.51100000000E-03 0.  1.
         11   -1    0    0    0    0 -0.00000000000E+00 -0.00000000000E+00 -0.45593999997E+02  0.45594000000E+02  0.51100000000E-03 0. -1.
    9900012    2    1    2    0    0 -0.98483039525E+01  0.22871318760E+02 -0.19915664925E+02  0.59301952550E+02  0.50000015543E+02 0.  0.
        -12    1    1    2    0    0  0.98483039525E+01 -0.22871318760E+02  0.19915664925E+02  0.31886047450E+02  0.00000000000E+00 0.  1.
         11    1    3    3    0    0 -0.91498665693E+00  0.64191058171E+01  0.17711725844E+01  0.67215454070E+01  0.51100000000E-03 0. -1.
        -11    1    3    3    0    0  0.10422466404E+02 -0.10093659550E+02 -0.31090180162E+01  0.14838320738E+02  0.51100000000E-03 0.  1.
         12    1    3    3    0    0 -0.19355783699E+02  0.26545872493E+02 -0.18577819493E+02  0.37742086405E+02  0.00000000000E+00 0. -1.
</event>
<event>
 7    1  0.3755162E-013  0.5930191E+02  0.7816164E-02  0.1266605E+00
        -11   -1    0    0    0    0  0.00000000000E+00  0.00000000000E+00  0.45593999997E+02  0.45594000000E+02  0.51100000000E-03 0.  1.
         11   -1    0    0    0    0 -0.00000000000E+00 -0.00000000000E+00 -0.45593999997E+02  0.45594000000E+02  0.51100000000E-03 0. -1.
    9900012    2    1    2    0    0  0.92916491401E+00  0.31303995168E+02 -0.59932763369E+01  0.59301908641E+02  0.49999935463E+02 0.  0.
        -12    1    1    2    0    0 -0.92916491401E+00 -0.31303995168E+02  0.59932763369E+01  0.31886091359E+02  0.00000000000E+00 0.  1.
         11    1    3    3    0    0 -0.54327784894E+01  0.23959546997E+02 -0.44634345180E+01  0.24969926359E+02  0.51100000000E-03 0. -1.
        -11    1    3    3    0    0  0.17871562034E+02  0.52558585183E+01 -0.87547497358E+01  0.20583061519E+02  0.51100000000E-03 0.  1.
         12    1    3    3    0    0 -0.11509618630E+02  0.20885896528E+01  0.72249079168E+01  0.13748920764E+02  0.00000000000E+00 0. -1.
</event>
<event>
 7    1  0.3755162E-013  0.5930191E+02  0.7816164E-02  0.1266605E+00
        -11   -1    0    0    0    0  0.00000000000E+00  0.00000000000E+00  0.45593999997E+02  0.45594000000E+02  0.51100000000E-03 0. -1.
         11   -1    0    0    0    0 -0.00000000000E+00 -0.00000000000E+00 -0.45593999997E+02  0.45594000000E+02  0.51100000000E-03 0.  1.
    9900012    2    1    2    0    0  0.91046896521E+01 -0.76750440678E+01  0.29579063336E+02  0.59301911138E+02  0.49999940017E+02 0.  0.
        -12    1    1    2    0    0 -0.91046896521E+01  0.76750440678E+01 -0.29579063336E+02  0.31886088862E+02  0.00000000000E+00 0.  1.
         11    1    3    3    0    0  0.14685913225E+02 -0.19915155371E+02  0.60365098441E+01  0.25470157284E+02  0.51100000000E-03 0. -1.
        -11    1    3    3    0    0  0.55507724254E+01 -0.16547045496E+01  0.26141401525E+01  0.63547502439E+01  0.51100000000E-03 0.  1.
         12    1    3    3    0    0 -0.11131995998E+02  0.13894815853E+02  0.20928413339E+02  0.27477003610E+02  0.00000000000E+00 0. -1.
</event>
<event>
 7    1  0.3755162E-013  0.5930190E+02  0.7816164E-02  0.1266605E+00
        -11   -1    0    0    0    0  0.00000000000E+00  0.00000000000E+00  0.45593999997E+02  0.45594000000E+02  0.51100000000E-03 0.  1.
         11   -1    0    0    0    0 -0.00000000000E+00 -0.00000000000E+00 -0.45593999997E+02  0.45594000000E+02  0.51100000000E-03 0. -1.
    9900012    2    1    2    0    0  0.12517949842E+02  0.19281557833E+02 -0.22096283821E+02  0.59301901157E+02  0.49999921814E+02 0.  0.
        -12    1    1    2    0    0 -0.12517949842E+02 -0.19281557833E+02  0.22096283821E+02  0.31886098843E+02  0.00000000000E+00 0.  1.
         11    1    3    3    0    0  0.37168395922E+01  0.87605084155E+01 -0.29278399050E+02  0.30786134142E+02  0.51100000000E-03 0. -1.
        -11    1    3    3    0    0 -0.22990930394E+01 -0.66723588096E+01  0.93987356720E+00  0.71196603480E+01  0.51100000000E-03 0.  1.
        -12    1    3    3    0    0  0.11100203289E+02  0.17193408227E+02  0.62422416615E+01  0.21396106667E+02  0.00000000000E+00 0.  1.
</event>
<event>
 7    1  0.3755162E-013  0.5930193E+02  0.7816164E-02  0.1266605E+00
        -11   -1    0    0    0    0  0.00000000000E+00  0.00000000000E+00  0.45593999997E+02  0.45594000000E+02  0.51100000000E-03 0.  1.
         11   -1    0    0    0    0 -0.00000000000E+00 -0.00000000000E+00 -0.45593999997E+02  0.45594000000E+02  0.51100000000E-03 0. -1.
    9900012    2    1    2    0    0 -0.28324752161E+02 -0.14539949045E+02 -0.17377126822E+01  0.59301931747E+02  0.49999977604E+02 0.  0.
        -12    1    1    2    0    0  0.28324752161E+02  0.14539949045E+02  0.17377126822E+01  0.31886068253E+02  0.00000000000E+00 0.  1.
         11    1    3    3    0    0 -0.53291860942E+01 -0.63416389385E+01  0.12788396416E+02  0.15236787457E+02  0.51100000000E-03 0.  1.
        -11    1    3    3    0    0 -0.10300861385E+02  0.11302396141E+01 -0.23677819135E+02  0.25846166178E+02  0.51100000000E-03 0. -1.
         12    1    3    3    0    0 -0.12694704682E+02 -0.93285497208E+01  0.91517100362E+01  0.18218978112E+02  0.00000000000E+00 0. -1.
</event>
<event>
 7    1  0.3755162E-013  0.5930198E+02  0.7816164E-02  0.1266605E+00
        -11   -1    0    0    0    0  0.00000000000E+00  0.00000000000E+00  0.45593999997E+02  0.45594000000E+02  0.51100000000E-03 0.  1.
         11   -1    0    0    0    0 -0.00000000000E+00 -0.00000000000E+00 -0.45593999997E+02  0.45594000000E+02  0.51100000000E-03 0. -1.
    9900012    2    1    2    0    0  0.15465272999E+02 -0.10255011800E+01 -0.27865606061E+02  0.59301979195E+02  0.50000064137E+02 0.  0.
        -12    1    1    2    0    0 -0.15465272999E+02  0.10255011800E+01  0.27865606061E+02  0.31886020805E+02  0.00000000000E+00 0.  1.
         11    1    3    3    0    0  0.15533567320E+02  0.65138346450E+01 -0.91276277588E+01  0.19158166516E+02  0.51100000000E-03 0. -1.
        -11    1    3    3    0    0 -0.84137216292E+01  0.47490270041E+01 -0.22784446258E+02  0.24748231466E+02  0.51100000000E-03 0.  1.
        -12    1    3    3    0    0  0.83454273081E+01 -0.12288362829E+02  0.40464679558E+01  0.15395581213E+02  0.00000000000E+00 0.  1.
</event>
<event>
 7    1  0.3755162E-013  0.5930200E+02  0.7816164E-02  0.1266605E+00
        -11   -1    0    0    0    0  0.00000000000E+00  0.00000000000E+00  0.45593999997E+02  0.45594000000E+02  0.51100000000E-03 0.  1.
         11   -1    0    0    0    0 -0.00000000000E+00 -0.00000000000E+00 -0.45593999997E+02  0.45594000000E+02  0.51100000000E-03 0. -1.
    9900012    2    1    2    0    0  0.16625917890E+02  0.26552352670E+02 -0.59387428744E+01  0.59301996096E+02  0.50000094961E+02 0.  0.
        -12    1    1    2    0    0 -0.16625917890E+02 -0.26552352670E+02  0.59387428744E+01  0.31886003904E+02  0.00000000000E+00 0.  1.
         11    1    3    3    0    0  0.13329662513E+02  0.86870916817E+01 -0.56610811376E+01  0.16887667231E+02  0.51100000000E-03 0. -1.
        -11    1    3    3    0    0  0.10709559975E+02  0.70443439616E+01  0.16641561140E+02  0.21006166098E+02  0.51100000000E-03 0.  1.
        -12    1    3    3    0    0 -0.74133045975E+01  0.10820917027E+02 -0.16919222876E+02  0.21408162768E+02  0.00000000000E+00 0.  1.
</event>
<event>
 7    1  0.3755162E-013  0.5930195E+02  0.7816164E-02  0.1266605E+00
        -11   -1    0    0    0    0  0.00000000000E+00  0.00000000000E+00  0.45593999997E+02  0.45594000000E+02  0.51100000000E-03 0. -1.
         11   -1    0    0    0    0 -0.00000000000E+00 -0.00000000000E+00 -0.45593999997E+02  0.45594000000E+02  0.51100000000E-03 0.  1.
    9900012    2    1    2    0    0  0.55030860839E+00 -0.28178047434E+02  0.14913587973E+02  0.59301948143E+02  0.50000007506E+02 0.  0.
        -12    1    1    2    0    0 -0.55030860839E+00  0.28178047434E+02 -0.14913587973E+02  0.31886051857E+02  0.00000000000E+00 0.  1.
         11    1    3    3    0    0  0.64541047271E+01 -0.72151298328E+01  0.13635230715E+02  0.16722233202E+02  0.51100000000E-03 0. -1.
        -11    1    3    3    0    0  0.12461307395E+02 -0.18228331319E+02 -0.55988288015E+01  0.22779445315E+02  0.51100000000E-03 0.  1.
        -12    1    3    3    0    0 -0.18365103513E+02 -0.27345862825E+01  0.68771860591E+01  0.19800269627E+02  0.00000000000E+00 0.  1.
</event>
<event>
 7    1  0.3755162E-013  0.5930204E+02  0.7816164E-02  0.1266604E+00
        -11   -1    0    0    0    0  0.00000000000E+00  0.00000000000E+00  0.45593999997E+02  0.45594000000E+02  0.51100000000E-03 0.  1.
         11   -1    0    0    0    0 -0.00000000000E+00 -0.00000000000E+00 -0.45593999997E+02  0.45594000000E+02  0.51100000000E-03 0. -1.
    9900012    2    1    2    0    0 -0.75341576432E+01  0.48319558574E+00 -0.30979304766E+02  0.59302041755E+02  0.50000178232E+02 0.  0.
        -12    1    1    2    0    0  0.75341576432E+01 -0.48319558574E+00  0.30979304766E+02  0.31885958245E+02  0.00000000000E+00 0.  1.
         11    1    3    3    0    0 -0.25586962263E+02 -0.19061711575E+01 -0.22173031013E+02  0.33911199196E+02  0.51100000000E-03 0. -1.
        -11    1    3    3    0    0  0.63487101835E+00 -0.46557890499E+01 -0.35244348330E+01  0.58737614899E+01  0.51100000000E-03 0.  1.
        -12    1    3    3    0    0  0.17417933602E+02  0.70451557932E+01 -0.52818389204E+01  0.19517081070E+02  0.00000000000E+00 0.  1.
</event>
<event>
 7    1  0.3755162E-013  0.5930193E+02  0.7816164E-02  0.1266605E+00
        -11   -1    0    0    0    0  0.00000000000E+00  0.00000000000E+00  0.45593999997E+02  0.45594000000E+02  0.51100000000E-03 0.  1.
         11   -1    0    0    0    0 -0.00000000000E+00 -0.00000000000E+00 -0.45593999997E+02  0.45594000000E+02  0.51100000000E-03 0. -1.
    9900012    2    1    2    0    0  0.21632744550E+02  0.12543670305E+02 -0.19783893493E+02  0.59301925559E+02  0.49999966318E+02 0.  0.
        -12    1    1    2    0    0 -0.21632744550E+02 -0.12543670305E+02  0.19783893493E+02  0.31886074441E+02  0.00000000000E+00 0.  1.
         11    1    3    3    0    0  0.95844738826E+01 -0.11829219255E+02 -0.98965507954E+01  0.18158587106E+02  0.51100000000E-03 0.  1.
        -11    1    3    3    0    0  0.12101236551E+02  0.14390328389E+01 -0.13206998936E+02  0.17970407974E+02  0.51100000000E-03 0. -1.
         12    1    3    3    0    0 -0.52965883815E-01  0.22933856721E+02  0.33196562385E+01  0.23172930480E+02  0.00000000000E+00 0. -1.
</event>
<event>
 7    1  0.3755162E-013  0.5930195E+02  0.7816164E-02  0.1266605E+00
        -11   -1    0    0    0    0  0.00000000000E+00  0.00000000000E+00  0.45593999997E+02  0.45594000000E+02  0.51100000000E-03 0.  1.
         11   -1    0    0    0    0 -0.00000000000E+00 -0.00000000000E+00 -0.45593999997E+02  0.45594000000E+02  0.51100000000E-03 0. -1.
    9900012    2    1    2    0    0  0.15143891374E+02 -0.15691876372E+02 -0.23262576056E+02  0.59301954858E+02  0.50000019752E+02 0.  0.
        -12    1    1    2    0    0 -0.15143891374E+02  0.15691876372E+02  0.23262576056E+02  0.31886045142E+02  0.00000000000E+00 0.  1.
         11    1    3    3    0    0  0.96562061667E+00 -0.12241820559E+02  0.67801099899E+01  0.14027276483E+02  0.51100000000E-03 0. -1.
        -11    1    3    3    0    0  0.31712936121E+01  0.68417337116E+01  0.36409738508E+01  0.83739545137E+01  0.51100000000E-03 0.  1.
         12    1    3    3    0    0  0.11006977145E+02 -0.10291789524E+02 -0.33683659897E+02  0.36900723862E+02  0.00000000000E+00 0. -1.
</event>
<event>
 7    1  0.3755162E-013  0.5930199E+02  0.7816164E-02  0.1266605E+00
        -11   -1    0    0    0    0  0.00000000000E+00  0.00000000000E+00  0.45593999997E+02  0.45594000000E+02  0.51100000000E-03 0. -1.
         11   -1    0    0    0    0 -0.00000000000E+00 -0.00000000000E+00 -0.45593999997E+02  0.45594000000E+02  0.51100000000E-03 0.  1.
    9900012    2    1    2    0    0 -0.69573936813E+01  0.23415896027E+02  0.20494104132E+02  0.59301987114E+02  0.50000078579E+02 0.  0.
        -12    1    1    2    0    0  0.69573936813E+01 -0.23415896027E+02 -0.20494104132E+02  0.31886012886E+02  0.00000000000E+00 0.  1.
         11    1    3    3    0    0 -0.12318424392E+02  0.30811302966E+01 -0.90727807042E+00  0.12730282682E+02  0.51100000000E-03 0. -1.
        -11    1    3    3    0    0  0.11717962032E+02  0.17293583397E+02 -0.30626097787E+01  0.21112987468E+02  0.51100000000E-03 0.  1.
         12    1    3    3    0    0 -0.63569313210E+01  0.30411823338E+01  0.24463991981E+02  0.25458716964E+02  0.00000000000E+00 0. -1.
</event>
<event>
 7    1  0.3755162E-013  0.5930196E+02  0.7816164E-02  0.1266605E+00
        -11   -1    0    0    0    0  0.00000000000E+00  0.00000000000E+00  0.45593999997E+02  0.45594000000E+02  0.51100000000E-03 0.  1.
         11   -1    0    0    0    0 -0.00000000000E+00 -0.00000000000E+00 -0.45593999997E+02  0.45594000000E+02  0.51100000000E-03 0. -1.
    9900012    2    1    2    0    0  0.40300479276E+01  0.38598825509E+01 -0.31393940515E+02  0.59301961038E+02  0.50000031023E+02 0.  0.
        -12    1    1    2    0    0 -0.40300479276E+01 -0.38598825509E+01  0.31393940515E+02  0.31886038962E+02  0.00000000000E+00 0.  1.
         11    1    3    3    0    0  0.71779997087E+01  0.69571535783E+01 -0.83087104478E+01  0.12998474345E+02  0.51100000000E-03 0. -1.
        -11    1    3    3    0    0  0.17713661129E+02 -0.25395475844E+01 -0.47263718712E+01  0.18508421971E+02  0.51100000000E-03 0.  1.
        -12    1    3    3    0    0 -0.20861612910E+02 -0.55772344297E+00 -0.18358858196E+02  0.27795064722E+02  0.00000000000E+00 0.  1.
</event>
<event>
 7    1  0.3755162E-013  0.5930191E+02  0.7816164E-02  0.1266605E+00
        -11   -1    0    0    0    0  0.00000000000E+00  0.00000000000E+00  0.45593999997E+02  0.45594000000E+02  0.51100000000E-03 0. -1.
         11   -1    0    0    0    0 -0.00000000000E+00 -0.00000000000E+00 -0.45593999997E+02  0.45594000000E+02  0.51100000000E-03 0.  1.
    9900012    2    1    2    0    0  0.20872109034E+02  0.22284791352E+02 -0.91905384449E+01  0.59301908079E+02  0.49999934438E+02 0.  0.
        -12    1    1    2    0    0 -0.20872109034E+02 -0.22284791352E+02  0.91905384449E+01  0.31886091921E+02  0.00000000000E+00 0.  1.
         11    1    3    3    0    0 -0.12361070354E+02  0.21261007769E+02 -0.36695687999E+01  0.24865483046E+02  0.51100000000E-03 0. -1.
        -11    1    3    3    0    0  0.73568253677E+01  0.22642835250E+01 -0.34877271917E+01  0.84506863980E+01  0.51100000000E-03 0.  1.
        -12    1    3    3    0    0  0.25876354021E+02 -0.12404999429E+01 -0.20332424532E+01  0.25985738635E+02  0.00000000000E+00 0.  1.
</event>
<event>
 7    1  0.3755162E-013  0.5930196E+02  0.7816164E-02  0.1266605E+00
        -11   -1    0    0    0    0  0.00000000000E+00  0.00000000000E+00  0.45593999997E+02  0.45594000000E+02  0.51100000000E-03 0.  1.
         11   -1    0    0    0    0 -0.00000000000E+00 -0.00000000000E+00 -0.45593999997E+02  0.45594000000E+02  0.51100000000E-03 0. -1.
    9900012    2    1    2    0    0 -0.21924311393E+02 -0.22990919597E+02 -0.27316588605E+01  0.59301956437E+02  0.50000022631E+02 0.  0.
        -12    1    1    2    0    0  0.21924311393E+02  0.22990919597E+02  0.27316588605E+01  0.31886043563E+02  0.00000000000E+00 0.  1.
         11    1    3    3    0    0 -0.16321753553E+01  0.84750064993E+01 -0.11690251952E+02  0.14531060612E+02  0.51100000000E-03 0. -1.
        -11    1    3    3    0    0 -0.83794305181E+01 -0.66518478616E+01 -0.71597410307E+01  0.12873376700E+02  0.51100000000E-03 0.  1.
        -12    1    3    3    0    0 -0.11912705520E+02 -0.24814078235E+02  0.16118334122E+02  0.31897519125E+02  0.00000000000E+00 0.  1.
</event>
<event>
 7    1  0.3755162E-013  0.5930194E+02  0.7816164E-02  0.1266605E+00
        -11   -1    0    0    0    0  0.00000000000E+00  0.00000000000E+00  0.45593999997E+02  0.45594000000E+02  0.51100000000E-03 0.  1.
         11   -1    0    0    0    0 -0.00000000000E+00 -0.00000000000E+00 -0.45593999997E+02  0.45594000000E+02  0.51100000000E-03 0. -1.
    9900012    2    1    2    0    0  0.66053548469E-01  0.12732252526E+02 -0.29233651857E+02  0.59301936926E+02  0.49999987048E+02 0.  0.
        -12    1    1    2    0    0 -0.66053548469E-01 -0.12732252526E+02  0.29233651857E+02  0.31886063074E+02  0.00000000000E+00 0.  1.
         11    1    3    3    0    0  0.14497764679E+02  0.84245090792E+01 -0.63042216020E+01  0.17913702693E+02  0.51100000000E-03 0. -1.
        -11    1    3    3    0    0 -0.46978442281E+01 -0.12272063150E+02 -0.25771558693E+01  0.13390855350E+02  0.51100000000E-03 0.  1.
         12    1    3    3    0    0 -0.97338669020E+01  0.16579806597E+02 -0.20352274386E+02  0.27997378883E+02  0.00000000000E+00 0. -1.
</event>
<event>
 7    1  0.3755162E-013  0.5930189E+02  0.7816164E-02  0.1266605E+00
        -11   -1    0    0    0    0  0.00000000000E+00  0.00000000000E+00  0.45593999997E+02  0.45594000000E+02  0.51100000000E-03 0.  1.
         11   -1    0    0    0    0 -0.00000000000E+00 -0.00000000000E+00 -0.45593999997E+02  0.45594000000E+02  0.51100000000E-03 0. -1.
    9900012    2    1    2    0    0 -0.17503557032E+02 -0.44549275532E+01 -0.26277428764E+02  0.59301887808E+02  0.49999897469E+02 0.  0.
        -12    1    1    2    0    0  0.17503557032E+02  0.44549275532E+01  0.26277428764E+02  0.31886112192E+02  0.00000000000E+00 0.  1.
         11    1    3    3    0    0 -0.70733798633E+01 -0.15208673768E+00 -0.26869709976E+01  0.75680675518E+01  0.51100000000E-03 0. -1.
        -11    1    3    3    0    0 -0.21106275822E+02  0.13646381633E+02 -0.13718762239E+02  0.28633949228E+02  0.51100000000E-03 0.  1.
         12    1    3    3    0    0  0.10676098653E+02 -0.17949222448E+02 -0.98716955277E+01  0.23099871029E+02  0.00000000000E+00 0. -1.
</event>
<event>
 7    1  0.3755162E-013  0.5930222E+02  0.7816164E-02  0.1266604E+00
        -11   -1    0    0    0    0  0.00000000000E+00  0.00000000000E+00  0.45593999997E+02  0.45594000000E+02  0.51100000000E-03 0. -1.
         11   -1    0    0    0    0 -0.00000000000E+00 -0.00000000000E+00 -0.45593999997E+02  0.45594000000E+02  0.51100000000E-03 0.  1.
    9900012    2    1    2    0    0  0.12826517433E+02 -0.68898617180E+01  0.28367472787E+02  0.59302215452E+02  0.50000495009E+02 0.  0.
        -12    1    1    2    0    0 -0.12826517433E+02  0.68898617180E+01 -0.28367472787E+02  0.31885784548E+02  0.00000000000E+00 0.  1.
         11    1    3    3    0    0  0.11207439754E+02  0.12313878466E+02  0.17594884194E+02  0.24224331958E+02  0.51100000000E-03 0. -1.
        -11    1    3    3    0    0  0.12368266963E+02 -0.67800789995E+01 -0.20299763108E+01  0.14250063263E+02  0.51100000000E-03 0.  1.
         12    1    3    3    0    0 -0.10749189284E+02 -0.12423661184E+02  0.12802564903E+02  0.20827820231E+02  0.00000000000E+00 0. -1.
</event>
<event>
 7    1  0.3755162E-013  0.5930199E+02  0.7816164E-02  0.1266605E+00
        -11   -1    0    0    0    0  0.00000000000E+00  0.00000000000E+00  0.45593999997E+02  0.45594000000E+02  0.51100000000E-03 0.  1.
         11   -1    0    0    0    0 -0.00000000000E+00 -0.00000000000E+00 -0.45593999997E+02  0.45594000000E+02  0.51100000000E-03 0. -1.
    9900012    2    1    2    0    0 -0.68529324995E+01 -0.31071361017E+02 -0.20797488298E+01  0.59301991869E+02  0.50000087252E+02 0.  0.
        -12    1    1    2    0    0  0.68529324995E+01  0.31071361017E+02  0.20797488298E+01  0.31886008131E+02  0.00000000000E+00 0.  1.
         11    1    3    3    0    0  0.69123618619E+01 -0.20445688255E+02 -0.34486547695E+01  0.21856352274E+02  0.51100000000E-03 0. -1.
        -11    1    3    3    0    0  0.10246340643E+02 -0.50347767718E+01 -0.42106077072E+01  0.12168224655E+02  0.51100000000E-03 0.  1.
         12    1    3    3    0    0 -0.24011635005E+02 -0.55908959904E+01  0.55795136469E+01  0.25277414941E+02  0.00000000000E+00 0. -1.
</event>
<event>
 7    1  0.3755162E-013  0.5930194E+02  0.7816164E-02  0.1266605E+00
        -11   -1    0    0    0    0  0.00000000000E+00  0.00000000000E+00  0.45593999997E+02  0.45594000000E+02  0.51100000000E-03 0. -1.
         11   -1    0    0    0    0 -0.00000000000E+00 -0.00000000000E+00 -0.45593999997E+02  0.45594000000E+02  0.51100000000E-03 0.  1.
    9900012    2    1    2    0    0  0.26044381374E+02  0.14976386387E+02  0.10682657232E+02  0.59301935397E+02  0.49999984259E+02 0.  0.
        -12    1    1    2    0    0 -0.26044381374E+02 -0.14976386387E+02 -0.10682657232E+02  0.31886064603E+02  0.00000000000E+00 0.  1.
         11    1    3    3    0    0  0.91267785121E+01  0.98323416757E+01  0.15100039697E+02  0.20198619456E+02  0.51100000000E-03 0. -1.
        -11    1    3    3    0    0  0.20578822327E+01  0.18192107079E+02 -0.59962646445E+01  0.19265067589E+02  0.51100000000E-03 0.  1.
        -12    1    3    3    0    0  0.14859720629E+02 -0.13048062368E+02  0.15788821796E+01  0.19838248352E+02  0.00000000000E+00 0.  1.
</event>
<event>
 7    1  0.3755162E-013  0.5930192E+02  0.7816164E-02  0.1266605E+00
        -11   -1    0    0    0    0  0.00000000000E+00  0.00000000000E+00  0.45593999997E+02  0.45594000000E+02  0.51100000000E-03 0.  1.
         11   -1    0    0    0    0 -0.00000000000E+00 -0.00000000000E+00 -0.45593999997E+02  0.45594000000E+02  0.51100000000E-03 0. -1.
    9900012    2    1    2    0    0 -0.29188029852E+02  0.18065150458E+01 -0.12708947087E+02  0.59301922798E+02  0.49999961283E+02 0.  0.
        -12    1    1    2    0    0  0.29188029852E+02 -0.18065150458E+01  0.12708947087E+02  0.31886077202E+02  0.00000000000E+00 0.  1.
         11    1    3    3    0    0 -0.54816188157E+01  0.84420750749E+01 -0.36480812584E+01  0.10706319327E+02  0.51100000000E-03 0. -1.
        -11    1    3    3    0    0 -0.20558682026E+02  0.37014337744E+01  0.12595762237E+02  0.24392893334E+02  0.51100000000E-03 0.  1.
         12    1    3    3    0    0 -0.31477290105E+01 -0.10336993803E+02 -0.21656628065E+02  0.24202710137E+02  0.00000000000E+00 0. -1.
</event>
<event>
 7    1  0.3755162E-013  0.5930191E+02  0.7816164E-02  0.1266605E+00
        -11   -1    0    0    0    0  0.00000000000E+00  0.00000000000E+00  0.45593999997E+02  0.45594000000E+02  0.51100000000E-03 0. -1.
         11   -1    0    0    0    0 -0.00000000000E+00 -0.00000000000E+00 -0.45593999997E+02  0.45594000000E+02  0.51100000000E-03 0.  1.
    9900012    2    1    2    0    0 -0.96976502518E+01 -0.26357514818E+02  0.15098330311E+02  0.59301912345E+02  0.49999942218E+02 0.  0.
        -12    1    1    2    0    0  0.96976502518E+01  0.26357514818E+02 -0.15098330311E+02  0.31886087655E+02  0.00000000000E+00 0.  1.
         11    1    3    3    0    0 -0.15518088035E+02 -0.14688754448E+01  0.74954670286E+01  0.17295972871E+02  0.51100000000E-03 0. -1.
        -11    1    3    3    0    0 -0.49432109481E+01 -0.87875815561E+01 -0.11160193424E+02  0.15040174255E+02  0.51100000000E-03 0.  1.
        -12    1    3    3    0    0  0.10763648731E+02 -0.16101057817E+02  0.18763056707E+02  0.26965765218E+02  0.00000000000E+00 0.  1.
</event>
<event>
 7    1  0.3755162E-013  0.5930194E+02  0.7816164E-02  0.1266605E+00
        -11   -1    0    0    0    0  0.00000000000E+00  0.00000000000E+00  0.45593999997E+02  0.45594000000E+02  0.51100000000E-03 0.  1.
         11   -1    0    0    0    0 -0.00000000000E+00 -0.00000000000E+00 -0.45593999997E+02  0.45594000000E+02  0.51100000000E-03 0. -1.
    9900012    2    1    2    0    0 -0.18573567030E+01  0.13248101341E+02 -0.28944065694E+02  0.59301938751E+02  0.49999990377E+02 0.  0.
        -12    1    1    2    0    0  0.18573567030E+01 -0.13248101341E+02  0.28944065694E+02  0.31886061249E+02  0.00000000000E+00 0.  1.
         11    1    3    3    0    0  0.19915045957E+02  0.86222925193E+01 -0.21747846729E+01  0.21810150674E+02  0.51100000000E-03 0. -1.
        -11    1    3    3    0    0  0.12638452241E+01 -0.19180637087E+01 -0.21426365488E+01  0.31412043522E+01  0.51100000000E-03 0.  1.
        -12    1    3    3    0    0 -0.23036247884E+02  0.65438725308E+01 -0.24626644472E+02  0.34350583725E+02  0.00000000000E+00 0.  1.
</event>
<event>
 7    1  0.3755162E-013  0.5930201E+02  0.7816164E-02  0.1266605E+00
        -11   -1    0    0    0    0  0.00000000000E+00  0.00000000000E+00  0.45593999997E+02  0.45594000000E+02  0.51100000000E-03 0.  1.
         11   -1    0    0    0    0 -0.00000000000E+00 -0.00000000000E+00 -0.45593999997E+02  0.45594000000E+02  0.51100000000E-03 0. -1.
    9900012    2    1    2    0    0  0.10608707350E+02  0.40015750299E+01 -0.29801996570E+02  0.59302011323E+02  0.50000122731E+02 0.  0.
        -12    1    1    2    0    0 -0.10608707350E+02 -0.40015750299E+01  0.29801996570E+02  0.31885988677E+02  0.00000000000E+00 0.  1.
         11    1    3    3    0    0  0.46420597271E-03  0.10850138910E+01 -0.74717578536E+01  0.75501272203E+01  0.51100000000E-03 0. -1.
        -11    1    3    3    0    0  0.23697616394E+02 -0.10080017854E+02 -0.21051697372E+02  0.33261956425E+02  0.51100000000E-03 0.  1.
        -12    1    3    3    0    0 -0.13089373250E+02  0.12996578993E+02 -0.12785413439E+01  0.18489927678E+02  0.00000000000E+00 0.  1.
</event>
<event>
 7    1  0.3755162E-013  0.5930195E+02  0.7816164E-02  0.1266605E+00
        -11   -1    0    0    0    0  0.00000000000E+00  0.00000000000E+00  0.45593999997E+02  0.45594000000E+02  0.51100000000E-03 0.  1.
         11   -1    0    0    0    0 -0.00000000000E+00 -0.00000000000E+00 -0.45593999997E+02  0.45594000000E+02  0.51100000000E-03 0. -1.
    9900012    2    1    2    0    0  0.55416829939E+01 -0.30965193902E+02 -0.52121400900E+01  0.59301954649E+02  0.50000019371E+02 0.  0.
        -12    1    1    2    0    0 -0.55416829939E+01  0.30965193902E+02  0.52121400900E+01  0.31886045351E+02  0.00000000000E+00 0.  1.
         11    1    3    3    0    0  0.20716761654E+02 -0.29761712275E+02 -0.12651653187E+02  0.38405833666E+02  0.51100000000E-03 0. -1.
        -11    1    3    3    0    0 -0.15043135814E+01  0.44194821779E+00 -0.31546281698E+01  0.35227768492E+01  0.51100000000E-03 0.  1.
        -12    1    3    3    0    0 -0.13670765078E+02 -0.16454298449E+01  0.10594141267E+02  0.17373344134E+02  0.00000000000E+00 0.  1.
</event>
<event>
 7    1  0.3755162E-013  0.5930194E+02  0.7816164E-02  0.1266605E+00
        -11   -1    0    0    0    0  0.00000000000E+00  0.00000000000E+00  0.45593999997E+02  0.45594000000E+02  0.51100000000E-03 0. -1.
         11   -1    0    0    0    0 -0.00000000000E+00 -0.00000000000E+00 -0.45593999997E+02  0.45594000000E+02  0.51100000000E-03 0.  1.
    9900012    2    1    2    0    0 -0.12556875223E+02 -0.12829444232E+02  0.26352440955E+02  0.59301938798E+02  0.49999990463E+02 0.  0.
        -12    1    1    2    0    0  0.12556875223E+02  0.12829444232E+02 -0.26352440955E+02  0.31886061202E+02  0.00000000000E+00 0.  1.
         11    1    3    3    0    0 -0.35982022173E+01 -0.47844631560E+01  0.26186112552E+02  0.26861694618E+02  0.51100000000E-03 0. -1.
        -11    1    3    3    0    0 -0.19162613073E+02  0.15978560158E+00  0.17890825729E+01  0.19246612375E+02  0.51100000000E-03 0.  1.
        -12    1    3    3    0    0  0.10203940067E+02 -0.82047666779E+01 -0.16227541699E+01  0.13193631806E+02  0.00000000000E+00 0.  1.
</event>
<event>
 7    1  0.3755162E-013  0.5930196E+02  0.7816164E-02  0.1266605E+00
        -11   -1    0    0    0    0  0.00000000000E+00  0.00000000000E+00  0.45593999997E+02  0.45594000000E+02  0.51100000000E-03 0. -1.
         11   -1    0    0    0    0 -0.00000000000E+00 -0.00000000000E+00 -0.45593999997E+02  0.45594000000E+02  0.51100000000E-03 0.  1.
    9900012    2    1    2    0    0  0.29632468090E+01  0.31512580425E+02  0.38595543646E+01  0.59301957338E+02  0.50000024276E+02 0.  0.
        -12    1    1    2    0    0 -0.29632468090E+01 -0.31512580425E+02 -0.38595543646E+01  0.31886042662E+02  0.00000000000E+00 0.  1.
         11    1    3    3    0    0 -0.25457171800E+01  0.28407292459E+02  0.46593752489E+01  0.28899216578E+02  0.51100000000E-03 0. -1.
        -11    1    3    3    0    0  0.91787092628E+01  0.15196889162E+02 -0.65152742776E+00  0.17765658788E+02  0.51100000000E-03 0.  1.
         12    1    3    3    0    0 -0.36697452738E+01 -0.12091601195E+02 -0.14829345654E+00  0.12637081973E+02  0.00000000000E+00 0. -1.
</event>
<event>
 7    1  0.3755162E-013  0.5930196E+02  0.7816164E-02  0.1266605E+00
        -11   -1    0    0    0    0  0.00000000000E+00  0.00000000000E+00  0.45593999997E+02  0.45594000000E+02  0.51100000000E-03 0.  1.
         11   -1    0    0    0    0 -0.00000000000E+00 -0.00000000000E+00 -0.45593999997E+02  0.45594000000E+02  0.51100000000E-03 0. -1.
    9900012    2    1    2    0    0 -0.72463958247E+01 -0.30954213010E+02 -0.24588820534E+01  0.59301958282E+02  0.50000025996E+02 0.  0.
        -12    1    1    2    0    0  0.72463958247E+01  0.30954213010E+02  0.24588820534E+01  0.31886041718E+02  0.00000000000E+00 0.  1.
         11    1    3    3    0    0 -0.91803700215E+01  0.39725074370E+01  0.15407951545E+02  0.18370219926E+02  0.51100000000E-03 0. -1.
        -11    1    3    3    0    0 -0.36383719305E+01 -0.12634838872E+02 -0.27660939351E+01  0.13436077536E+02  0.51100000000E-03 0.  1.
        -12    1    3    3    0    0  0.55723461273E+01 -0.22291881575E+02 -0.15100739663E+02  0.27495660819E+02  0.00000000000E+00 0.  1.
</event>
<event>
 7    1  0.3755162E-013  0.5930193E+02  0.7816164E-02  0.1266605E+00
        -11   -1    0    0    0    0  0.00000000000E+00  0.00000000000E+00  0.45593999997E+02  0.45594000000E+02  0.51100000000E-03 0.  1.
         11   -1    0    0    0    0 -0.00000000000E+00 -0.00000000000E+00 -0.45593999997E+02  0.45594000000E+02  0.51100000000E-03 0. -1.
    9900012    2    1    2    0    0  0.70742298300E+01 -0.99221960734E+01 -0.29465684908E+02  0.59301932671E+02  0.49999979288E+02 0.  0.
        -12    1    1    2    0    0 -0.70742298300E+01  0.99221960734E+01  0.29465684908E+02  0.31886067329E+02  0.00000000000E+00 0.  1.
         11    1    3    3    0    0 -0.11269944811E+02 -0.19003536806E+02 -0.20246196452E+02  0.29967558096E+02  0.51100000000E-03 0. -1.
        -11    1    3    3    0    0  0.72664870492E+01 -0.42198637579E+01  0.20879136633E+01  0.86584333397E+01  0.51100000000E-03 0.  1.
        -12    1    3    3    0    0  0.11077687592E+02  0.13301204491E+02 -0.11307402119E+02  0.20675941235E+02  0.00000000000E+00 0.  1.
</event>
<event>
 7    1  0.3755162E-013  0.5930192E+02  0.7816164E-02  0.1266605E+00
        -11   -1    0    0    0    0  0.00000000000E+00  0.00000000000E+00  0.45593999997E+02  0.45594000000E+02  0.51100000000E-03 0. -1.
         11   -1    0    0    0    0 -0.00000000000E+00 -0.00000000000E+00 -0.45593999997E+02  0.45594000000E+02  0.51100000000E-03 0.  1.
    9900012    2    1    2    0    0 -0.28443649551E+02  0.59018237467E+01  0.13147214671E+02  0.59301921895E+02  0.49999959636E+02 0.  0.
        -12    1    1    2    0    0  0.28443649551E+02 -0.59018237467E+01 -0.13147214671E+02  0.31886078105E+02  0.00000000000E+00 0.  1.
         11    1    3    3    0    0 -0.15497528640E+01 -0.22331547856E+00 -0.32860557313E+01  0.36400228396E+01  0.51100000000E-03 0. -1.
        -11    1    3    3    0    0 -0.80174444888E+01  0.50026290351E+01 -0.15730690660E+02  0.18351031096E+02  0.51100000000E-03 0.  1.
         12    1    3    3    0    0 -0.18876452198E+02  0.11225101902E+01  0.32163961062E+02  0.37310867960E+02  0.00000000000E+00 0. -1.
</event>
<event>
 7    1  0.3755162E-013  0.5930196E+02  0.7816164E-02  0.1266605E+00
        -11   -1    0    0    0    0  0.00000000000E+00  0.00000000000E+00  0.45593999997E+02  0.45594000000E+02  0.51100000000E-03 0.  1.
         11   -1    0    0    0    0 -0.00000000000E+00 -0.00000000000E+00 -0.45593999997E+02  0.45594000000E+02  0.51100000000E-03 0. -1.
    9900012    2    1    2    0    0  0.15742573527E+02 -0.89234779410E+00 -0.27714523085E+02  0.59301957667E+02  0.50000024876E+02 0.  0.
        -12    1    1    2    0    0 -0.15742573527E+02  0.89234779410E+00  0.27714523085E+02  0.31886042333E+02  0.00000000000E+00 0.  1.
         11    1    3    3    0    0 -0.11337882901E+01 -0.11141874996E+01 -0.16090093875E+02  0.16168426356E+02  0.51100000000E-03 0. -1.
        -11    1    3    3    0    0 -0.12206351539E+02  0.77612217710E+00 -0.54855688792E+01  0.13404806963E+02  0.51100000000E-03 0.  1.
         12    1    3    3    0    0  0.29082713356E+02 -0.55428247156E+00 -0.61388603302E+01  0.29728724348E+02  0.00000000000E+00 0. -1.
</event>
<event>
 7    1  0.3755162E-013  0.5930192E+02  0.7816164E-02  0.1266605E+00
        -11   -1    0    0    0    0  0.00000000000E+00  0.00000000000E+00  0.45593999997E+02  0.45594000000E+02  0.51100000000E-03 0. -1.
         11   -1    0    0    0    0 -0.00000000000E+00 -0.00000000000E+00 -0.45593999997E+02  0.45594000000E+02  0.51100000000E-03 0.  1.
    9900012    2    1    2    0    0 -0.29092071138E+02  0.13048469899E+02  0.33288289566E+00  0.59301921834E+02  0.49999959524E+02 0.  0.
        -12    1    1    2    0    0  0.29092071138E+02 -0.13048469899E+02 -0.33288289566E+00  0.31886078166E+02  0.00000000000E+00 0.  1.
         11    1    3    3    0    0 -0.23745174534E+02 -0.76851774508E+01 -0.65533478228E+01  0.25803907341E+02  0.51100000000E-03 0. -1.
        -11    1    3    3    0    0  0.84390245325E+01  0.14658974017E+02 -0.45962704840E-01  0.16914631747E+02  0.51100000000E-03 0.  1.
        -12    1    3    3    0    0 -0.13785921136E+02  0.60746733322E+01  0.69321934233E+01  0.16583382746E+02  0.00000000000E+00 0.  1.
</event>
<event>
 7    1  0.3755162E-013  0.5930194E+02  0.7816164E-02  0.1266605E+00
        -11   -1    0    0    0    0  0.00000000000E+00  0.00000000000E+00  0.45593999997E+02  0.45594000000E+02  0.51100000000E-03 0.  1.
         11   -1    0    0    0    0 -0.00000000000E+00 -0.00000000000E+00 -0.45593999997E+02  0.45594000000E+02  0.51100000000E-03 0. -1.
    9900012    2    1    2    0    0 -0.84362673889E+01 -0.22295943761E+02 -0.21176429476E+02  0.59301939080E+02  0.49999990977E+02 0.  0.
        -12    1    1    2    0    0  0.84362673889E+01  0.22295943761E+02  0.21176429476E+02  0.31886060920E+02  0.00000000000E+00 0.  1.
         11    1    3    3    0    0 -0.54102798952E+01 -0.32585558121E+01  0.16285850857E+01  0.65223925186E+01  0.51100000000E-03 0. -1.
        -11    1    3    3    0    0  0.13707961853E+02 -0.19425818910E+02  0.86260382599E+00  0.23791064375E+02  0.51100000000E-03 0.  1.
         12    1    3    3    0    0 -0.16733949347E+02  0.38843096063E+00 -0.23667618387E+02  0.28988482186E+02  0.00000000000E+00 0. -1.
</event>
<event>
 7    1  0.3755162E-013  0.5930195E+02  0.7816164E-02  0.1266605E+00
        -11   -1    0    0    0    0  0.00000000000E+00  0.00000000000E+00  0.45593999997E+02  0.45594000000E+02  0.51100000000E-03 0.  1.
         11   -1    0    0    0    0 -0.00000000000E+00 -0.00000000000E+00 -0.45593999997E+02  0.45594000000E+02  0.51100000000E-03 0. -1.
    9900012    2    1    2    0    0  0.27138513197E+02 -0.39838106651E+01 -0.16258865503E+02  0.59301947353E+02  0.50000006065E+02 0.  0.
        -12    1    1    2    0    0 -0.27138513197E+02  0.39838106651E+01  0.16258865503E+02  0.31886052647E+02  0.00000000000E+00 0.  1.
         11    1    3    3    0    0 -0.95128596373E+00 -0.66974459963E+01 -0.18757611850E+02  0.19940128647E+02  0.51100000000E-03 0. -1.
        -11    1    3    3    0    0 -0.37500464372E+01  0.79196144169E+00  0.61595417202E+01  0.72546540696E+01  0.51100000000E-03 0.  1.
         12    1    3    3    0    0  0.31839845598E+02  0.19216738895E+01 -0.36607953725E+01  0.32107164637E+02  0.00000000000E+00 0. -1.
</event>
<event>
 7    1  0.3755162E-013  0.5930181E+02  0.7816164E-02  0.1266605E+00
        -11   -1    0    0    0    0  0.00000000000E+00  0.00000000000E+00  0.45593999997E+02  0.45594000000E+02  0.51100000000E-03 0. -1.
         11   -1    0    0    0    0 -0.00000000000E+00 -0.00000000000E+00 -0.45593999997E+02  0.45594000000E+02  0.51100000000E-03 0.  1.
    9900012    2    1    2    0    0  0.12393484115E+02  0.51161806940E+01  0.28930181158E+02  0.59301809647E+02  0.49999754921E+02 0.  0.
        -12    1    1    2    0    0 -0.12393484115E+02 -0.51161806940E+01 -0.28930181158E+02  0.31886190353E+02  0.00000000000E+00 0.  1.
         11    1    3    3    0    0  0.71002518224E+01 -0.54530768029E+01  0.59462528943E+01  0.10747443710E+02  0.51100000000E-03 0. -1.
        -11    1    3    3    0    0 -0.12409715235E+02 -0.51434000319E+01 -0.26188490612E+01  0.13686269279E+02  0.51100000000E-03 0.  1.
         12    1    3    3    0    0  0.17702947528E+02  0.15712657529E+02  0.25602777325E+02  0.34868096658E+02  0.00000000000E+00 0. -1.
</event>
<event>
 7    1  0.3755162E-013  0.5930195E+02  0.7816164E-02  0.1266605E+00
        -11   -1    0    0    0    0  0.00000000000E+00  0.00000000000E+00  0.45593999997E+02  0.45594000000E+02  0.51100000000E-03 0.  1.
         11   -1    0    0    0    0 -0.00000000000E+00 -0.00000000000E+00 -0.45593999997E+02  0.45594000000E+02  0.51100000000E-03 0. -1.
    9900012    2    1    2    0    0  0.25999568215E+02  0.19385963554E+00 -0.18458203915E+02  0.59301946298E+02  0.50000004141E+02 0.  0.
        -12    1    1    2    0    0 -0.25999568215E+02 -0.19385963554E+00  0.18458203915E+02  0.31886053702E+02  0.00000000000E+00 0.  1.
         11    1    3    3    0    0  0.21581202327E+02  0.87186900477E+01 -0.17104476620E+02  0.28884718637E+02  0.51100000000E-03 0.  1.
        -11    1    3    3    0    0 -0.71718965782E+01  0.88151668809E+00 -0.10622121698E+02  0.12846892302E+02  0.51100000000E-03 0. -1.
        -12    1    3    3    0    0  0.11590262465E+02 -0.94063471003E+01  0.92683944032E+01  0.17570335358E+02  0.00000000000E+00 0.  1.
</event>
<event>
 7    1  0.3755162E-013  0.5930194E+02  0.7816164E-02  0.1266605E+00
        -11   -1    0    0    0    0  0.00000000000E+00  0.00000000000E+00  0.45593999997E+02  0.45594000000E+02  0.51100000000E-03 0.  1.
         11   -1    0    0    0    0 -0.00000000000E+00 -0.00000000000E+00 -0.45593999997E+02  0.45594000000E+02  0.51100000000E-03 0. -1.
    9900012    2    1    2    0    0  0.28503499588E+02  0.14136436252E+02 -0.21053083224E+01  0.59301942830E+02  0.49999997816E+02 0.  0.
        -12    1    1    2    0    0 -0.28503499588E+02 -0.14136436252E+02  0.21053083224E+01  0.31886057170E+02  0.00000000000E+00 0.  1.
         11    1    3    3    0    0  0.10885015074E+02  0.43721840367E+01  0.13567838764E+02  0.17935601340E+02  0.51100000000E-03 0. -1.
        -11    1    3    3    0    0 -0.11105981585E+01  0.20009775257E+01  0.90834702880E+01  0.93673247015E+01  0.51100000000E-03 0.  1.
         12    1    3    3    0    0  0.18729082672E+02  0.77632746895E+01 -0.24756617375E+02  0.31999016789E+02  0.00000000000E+00 0. -1.
</event>
<event>
 7    1  0.3755162E-013  0.5930195E+02  0.7816164E-02  0.1266605E+00
        -11   -1    0    0    0    0  0.00000000000E+00  0.00000000000E+00  0.45593999997E+02  0.45594000000E+02  0.51100000000E-03 0.  1.
         11   -1    0    0    0    0 -0.00000000000E+00 -0.00000000000E+00 -0.45593999997E+02  0.45594000000E+02  0.51100000000E-03 0. -1.
    9900012    2    1    2    0    0 -0.18707407718E+02 -0.25282765498E+02  0.52473382731E+01  0.59301954562E+02  0.50000019212E+02 0.  0.
        -12    1    1    2    0    0  0.18707407718E+02  0.25282765498E+02 -0.52473382731E+01  0.31886045438E+02  0.00000000000E+00 0.  1.
         11    1    3    3    0    0 -0.44103958308E+01 -0.15105318874E+01 -0.45775712172E+01  0.65335638419E+01  0.51100000000E-03 0. -1.
        -11    1    3    3    0    0 -0.17196653290E+02 -0.20305191663E+02 -0.12919411544E+02  0.29579332105E+02  0.51100000000E-03 0.  1.
        -12    1    3    3    0    0  0.28996414026E+01 -0.34670419470E+01  0.22744321035E+02  0.23189058615E+02  0.00000000000E+00 0.  1.
</event>
<event>
 7    1  0.3755162E-013  0.5930195E+02  0.7816164E-02  0.1266605E+00
        -11   -1    0    0    0    0  0.00000000000E+00  0.00000000000E+00  0.45593999997E+02  0.45594000000E+02  0.51100000000E-03 0.  1.
         11   -1    0    0    0    0 -0.00000000000E+00 -0.00000000000E+00 -0.45593999997E+02  0.45594000000E+02  0.51100000000E-03 0. -1.
    9900012    2    1    2    0    0  0.14452592525E+02 -0.22542203941E+02 -0.17311602492E+02  0.59301953365E+02  0.50000017028E+02 0.  0.
        -12    1    1    2    0    0 -0.14452592525E+02  0.22542203941E+02  0.17311602492E+02  0.31886046635E+02  0.00000000000E+00 0.  1.
         11    1    3    3    0    0  0.69102152000E+01 -0.19460264250E+02  0.59670549704E+01  0.21495550797E+02  0.51100000000E-03 0. -1.
        -11    1    3    3    0    0  0.15170729907E+02 -0.64472320988E+01 -0.42375214905E+01  0.17019824802E+02  0.51100000000E-03 0.  1.
        -12    1    3    3    0    0 -0.76283525823E+01  0.33652924078E+01 -0.19041135972E+02  0.20786577765E+02  0.00000000000E+00 0.  1.
</event>
<event>
 7    1  0.3755162E-013  0.5930195E+02  0.7816164E-02  0.1266605E+00
        -11   -1    0    0    0    0  0.00000000000E+00  0.00000000000E+00  0.45593999997E+02  0.45594000000E+02  0.51100000000E-03 0. -1.
         11   -1    0    0    0    0 -0.00000000000E+00 -0.00000000000E+00 -0.45593999997E+02  0.45594000000E+02  0.51100000000E-03 0.  1.
    9900012    2    1    2    0    0  0.14371410098E+02  0.27637902452E+02 -0.68065649558E+01  0.59301946518E+02  0.50000004541E+02 0.  0.
        -12    1    1    2    0    0 -0.14371410098E+02 -0.27637902452E+02  0.68065649558E+01  0.31886053482E+02  0.00000000000E+00 0.  1.
         11    1    3    3    0    0  0.82594875692E+01 -0.11842325291E+02  0.60964206493E+01  0.15672464649E+02  0.51100000000E-03 0. -1.
        -11    1    3    3    0    0  0.71967159691E+01  0.11244837142E+02 -0.53369397497E+01  0.14377830478E+02  0.51100000000E-03 0.  1.
        -12    1    3    3    0    0 -0.10847934405E+01  0.28235390601E+02 -0.75660458554E+01  0.29251651391E+02  0.00000000000E+00 0.  1.
</event>
<event>
 7    1  0.3755162E-013  0.5930196E+02  0.7816164E-02  0.1266605E+00
        -11   -1    0    0    0    0  0.00000000000E+00  0.00000000000E+00  0.45593999997E+02  0.45594000000E+02  0.51100000000E-03 0.  1.
         11   -1    0    0    0    0 -0.00000000000E+00 -0.00000000000E+00 -0.45593999997E+02  0.45594000000E+02  0.51100000000E-03 0. -1.
    9900012    2    1    2    0    0 -0.14385563212E+02  0.11100276004E+02 -0.26202272995E+02  0.59301958127E+02  0.50000025713E+02 0.  0.
        -12    1    1    2    0    0  0.14385563212E+02 -0.11100276004E+02  0.26202272995E+02  0.31886041873E+02  0.00000000000E+00 0.  1.
         11    1    3    3    0    0 -0.71316179112E+00  0.15210752539E+02 -0.13270878383E+02  0.20198807040E+02  0.51100000000E-03 0. -1.
        -11    1    3    3    0    0 -0.25751333481E+01  0.13343849891E+02  0.18016352526E+01  0.13708958075E+02  0.51100000000E-03 0.  1.
        -12    1    3    3    0    0 -0.11097268073E+02 -0.17454326426E+02 -0.14733029865E+02  0.25394193011E+02  0.00000000000E+00 0.  1.
</event>
<event>
 7    1  0.3755162E-013  0.5930197E+02  0.7816164E-02  0.1266605E+00
        -11   -1    0    0    0    0  0.00000000000E+00  0.00000000000E+00  0.45593999997E+02  0.45594000000E+02  0.51100000000E-03 0.  1.
         11   -1    0    0    0    0 -0.00000000000E+00 -0.00000000000E+00 -0.45593999997E+02  0.45594000000E+02  0.51100000000E-03 0. -1.
    9900012    2    1    2    0    0  0.26022234238E+01 -0.31774001983E+02  0.59989374160E+00  0.59301974201E+02  0.50000055029E+02 0.  0.
        -12    1    1    2    0    0 -0.26022234238E+01  0.31774001983E+02 -0.59989374160E+00  0.31886025799E+02  0.00000000000E+00 0.  1.
         11    1    3    3    0    0  0.70028738154E+01 -0.66972317803E+01 -0.12899797177E+01  0.97753364713E+01  0.51100000000E-03 0. -1.
        -11    1    3    3    0    0  0.11239651887E+01 -0.28776610733E+02 -0.14205781103E+02  0.32111693198E+02  0.51100000000E-03 0.  1.
        -12    1    3    3    0    0 -0.55246155803E+01  0.36998405304E+01  0.16095654562E+02  0.17414944532E+02  0.00000000000E+00 0.  1.
</event>
<event>
 7    1  0.3755162E-013  0.5930192E+02  0.7816164E-02  0.1266605E+00
        -11   -1    0    0    0    0  0.00000000000E+00  0.00000000000E+00  0.45593999997E+02  0.45594000000E+02  0.51100000000E-03 0.  1.
         11   -1    0    0    0    0 -0.00000000000E+00 -0.00000000000E+00 -0.45593999997E+02  0.45594000000E+02  0.51100000000E-03 0. -1.
    9900012    2    1    2    0    0 -0.22653230929E+02 -0.21235720432E+02 -0.72523883329E+01  0.59301924194E+02  0.49999963828E+02 0.  0.
        -12    1    1    2    0    0  0.22653230929E+02  0.21235720432E+02  0.72523883329E+01  0.31886075806E+02  0.00000000000E+00 0.  1.
         11    1    3    3    0    0 -0.21357748159E+02 -0.14974831499E+02 -0.76362867772E+01  0.27179254237E+02  0.51100000000E-03 0. -1.
        -11    1    3    3    0    0  0.16398627404E+01 -0.16157005944E+02 -0.86548616636E+01  0.18402299356E+02  0.51100000000E-03 0.  1.
         12    1    3    3    0    0 -0.29353455096E+01  0.98961170112E+01  0.90387601079E+01  0.13720370602E+02  0.00000000000E+00 0. -1.
</event>
<event>
 7    1  0.3755162E-013  0.5930192E+02  0.7816164E-02  0.1266605E+00
        -11   -1    0    0    0    0  0.00000000000E+00  0.00000000000E+00  0.45593999997E+02  0.45594000000E+02  0.51100000000E-03 0.  1.
         11   -1    0    0    0    0 -0.00000000000E+00 -0.00000000000E+00 -0.45593999997E+02  0.45594000000E+02  0.51100000000E-03 0. -1.
    9900012    2    1    2    0    0  0.24420667253E+02  0.59273787853E+01 -0.19627005026E+02  0.59301919422E+02  0.49999955125E+02 0.  0.
        -12    1    1    2    0    0 -0.24420667253E+02 -0.59273787853E+01  0.19627005026E+02  0.31886080578E+02  0.00000000000E+00 0.  1.
         11    1    3    3    0    0  0.28374869343E+01  0.16542984297E+02  0.30220653298E+01  0.17054458088E+02  0.51100000000E-03 0. -1.
        -11    1    3    3    0    0 -0.10398774684E+01  0.69392920834E+01 -0.40402825915E+01  0.80968514528E+01  0.51100000000E-03 0.  1.
        -12    1    3    3    0    0  0.22623057787E+02 -0.17554897595E+02 -0.18608787764E+02  0.34150609881E+02  0.00000000000E+00 0.  1.
</event>
<event>
 7    1  0.3755162E-013  0.5930199E+02  0.7816164E-02  0.1266605E+00
        -11   -1    0    0    0    0  0.00000000000E+00  0.00000000000E+00  0.45593999997E+02  0.45594000000E+02  0.51100000000E-03 0.  1.
         11   -1    0    0    0    0 -0.00000000000E+00 -0.00000000000E+00 -0.45593999997E+02  0.45594000000E+02  0.51100000000E-03 0. -1.
    9900012    2    1    2    0    0 -0.12866306291E+02 -0.27134050487E+02  0.10720045644E+02  0.59301985636E+02  0.50000075884E+02 0.  0.
        -12    1    1    2    0    0  0.12866306291E+02  0.27134050487E+02 -0.10720045644E+02  0.31886014364E+02  0.00000000000E+00 0.  1.
         11    1    3    3    0    0 -0.78175519678E+01  0.32562018816E+01 -0.11170595229E+02  0.14017816075E+02  0.51100000000E-03 0. -1.
        -11    1    3    3    0    0 -0.76484973345E+01 -0.73067443364E+00  0.11337921847E+02  0.13696053032E+02  0.51100000000E-03 0.  1.
        -12    1    3    3    0    0  0.25997430117E+01 -0.29659577935E+02  0.10552719027E+02  0.31588116529E+02  0.00000000000E+00 0.  1.
</event>
<event>
 7    1  0.3755162E-013  0.5930195E+02  0.7816164E-02  0.1266605E+00
        -11   -1    0    0    0    0  0.00000000000E+00  0.00000000000E+00  0.45593999997E+02  0.45594000000E+02  0.51100000000E-03 0. -1.
         11   -1    0    0    0    0 -0.00000000000E+00 -0.00000000000E+00 -0.45593999997E+02  0.45594000000E+02  0.51100000000E-03 0.  1.
    9900012    2    1    2    0    0 -0.13638377228E+02  0.15134384952E+02 -0.24528864446E+02  0.59301950820E+02  0.50000012388E+02 0.  0.
        -12    1    1    2    0    0  0.13638377228E+02 -0.15134384952E+02  0.24528864446E+02  0.31886049180E+02  0.00000000000E+00 0.  1.
         11    1    3    3    0    0 -0.91611764860E+01  0.24264923068E+02 -0.28264166640E+01  0.26090271703E+02  0.51100000000E-03 0. -1.
        -11    1    3    3    0    0  0.13848936514E+01  0.56121654576E+01 -0.14839317858E+02  0.15925441479E+02  0.51100000000E-03 0.  1.
        -12    1    3    3    0    0 -0.58620943938E+01 -0.14742703573E+02 -0.68631299238E+01  0.17286237638E+02  0.00000000000E+00 0.  1.
</event>
<event>
 7    1  0.3755162E-013  0.5930194E+02  0.7816164E-02  0.1266605E+00
        -11   -1    0    0    0    0  0.00000000000E+00  0.00000000000E+00  0.45593999997E+02  0.45594000000E+02  0.51100000000E-03 0.  1.
         11   -1    0    0    0    0 -0.00000000000E+00 -0.00000000000E+00 -0.45593999997E+02  0.45594000000E+02  0.51100000000E-03 0. -1.
    9900012    2    1    2    0    0  0.24429402320E+02  0.11442579293E+02 -0.16999784102E+02  0.59301937557E+02  0.49999988199E+02 0.  0.
        -12    1    1    2    0    0 -0.24429402320E+02 -0.11442579293E+02  0.16999784102E+02  0.31886062443E+02  0.00000000000E+00 0.  1.
         11    1    3    3    0    0 -0.64468206793E+00 -0.92887537353E+01 -0.13627989125E+02  0.16505109778E+02  0.51100000000E-03 0. -1.
        -11    1    3    3    0    0 -0.39598412522E+01 -0.29065255784E+01 -0.20820984728E+01  0.53351071209E+01  0.51100000000E-03 0.  1.
         12    1    3    3    0    0  0.29033925641E+02  0.23637858607E+02 -0.12896965045E+01  0.37461720658E+02  0.00000000000E+00 0. -1.
</event>
<event>
 7    1  0.3755162E-013  0.5930193E+02  0.7816164E-02  0.1266605E+00
        -11   -1    0    0    0    0  0.00000000000E+00  0.00000000000E+00  0.45593999997E+02  0.45594000000E+02  0.51100000000E-03 0.  1.
         11   -1    0    0    0    0 -0.00000000000E+00 -0.00000000000E+00 -0.45593999997E+02  0.45594000000E+02  0.51100000000E-03 0. -1.
    9900012    2    1    2    0    0  0.31590639694E+02  0.29598466603E+01 -0.31610939077E+01  0.59301925873E+02  0.49999966891E+02 0.  0.
        -12    1    1    2    0    0 -0.31590639694E+02 -0.29598466603E+01  0.31610939077E+01  0.31886074127E+02  0.00000000000E+00 0.  1.
         11    1    3    3    0    0  0.10048495762E+02  0.10302781913E+02 -0.87424505677E+01  0.16838943684E+02  0.51100000000E-03 0. -1.
        -11    1    3    3    0    0 -0.95354225342E+01 -0.31246225159E+01  0.47190170787E+01  0.11088582922E+02  0.51100000000E-03 0.  1.
         12    1    3    3    0    0  0.31077566466E+02 -0.42183127365E+01  0.86233958137E+00  0.31374399267E+02  0.00000000000E+00 0. -1.
</event>
<event>
 7    1  0.3755162E-013  0.5930194E+02  0.7816164E-02  0.1266605E+00
        -11   -1    0    0    0    0  0.00000000000E+00  0.00000000000E+00  0.45593999997E+02  0.45594000000E+02  0.51100000000E-03 0.  1.
         11   -1    0    0    0    0 -0.00000000000E+00 -0.00000000000E+00 -0.45593999997E+02  0.45594000000E+02  0.51100000000E-03 0. -1.
    9900012    2    1    2    0    0 -0.21820308699E+02 -0.18093394052E+02  0.14602200260E+02  0.59301936704E+02  0.49999986644E+02 0.  0.
        -12    1    1    2    0    0  0.21820308699E+02  0.18093394052E+02 -0.14602200260E+02  0.31886063296E+02  0.00000000000E+00 0.  1.
         11    1    3    3    0    0  0.30600418838E+01  0.38646395805E+00  0.20418877190E+02  0.20650514683E+02  0.51100000000E-03 0. -1.
        -11    1    3    3    0    0 -0.37856213536E+00  0.42905155854E+01 -0.26403748452E+01  0.50520701562E+01  0.51100000000E-03 0.  1.
         12    1    3    3    0    0 -0.24501788448E+02 -0.22770373596E+02 -0.31763020846E+01  0.33599351865E+02  0.00000000000E+00 0. -1.
</event>
<event>
 7    1  0.3755162E-013  0.5930195E+02  0.7816164E-02  0.1266605E+00
        -11   -1    0    0    0    0  0.00000000000E+00  0.00000000000E+00  0.45593999997E+02  0.45594000000E+02  0.51100000000E-03 0. -1.
         11   -1    0    0    0    0 -0.00000000000E+00 -0.00000000000E+00 -0.45593999997E+02  0.45594000000E+02  0.51100000000E-03 0.  1.
    9900012    2    1    2    0    0  0.25235633542E+02  0.19433766341E+02 -0.14871774517E+01  0.59301950210E+02  0.50000011275E+02 0.  0.
        -12    1    1    2    0    0 -0.25235633542E+02 -0.19433766341E+02  0.14871774517E+01  0.31886049790E+02  0.00000000000E+00 0.  1.
         11    1    3    3    0    0  0.80216025567E+01 -0.98374273426E+01  0.97828265613E+01  0.16025753651E+02  0.51100000000E-03 0.  1.
        -11    1    3    3    0    0  0.17938072146E+02  0.11844062746E+02  0.16668781038E+01  0.21560026381E+02  0.51100000000E-03 0. -1.
        -12    1    3    3    0    0 -0.72404116126E+00  0.17427130937E+02 -0.12936882117E+02  0.21716170178E+02  0.00000000000E+00 0.  1.
</event>
<event>
 7    1  0.3755162E-013  0.5930190E+02  0.7816164E-02  0.1266605E+00
        -11   -1    0    0    0    0  0.00000000000E+00  0.00000000000E+00  0.45593999997E+02  0.45594000000E+02  0.51100000000E-03 0.  1.
         11   -1    0    0    0    0 -0.00000000000E+00 -0.00000000000E+00 -0.45593999997E+02  0.45594000000E+02  0.51100000000E-03 0. -1.
    9900012    2    1    2    0    0 -0.17831185293E+02 -0.35262068476E+01 -0.26198052718E+02  0.59301901621E+02  0.49999922659E+02 0.  0.
        -12    1    1    2    0    0  0.17831185293E+02  0.35262068476E+01  0.26198052718E+02  0.31886098379E+02  0.00000000000E+00 0.  1.
         11    1    3    3    0    0 -0.37641058450E+01 -0.11186305672E+02  0.68559759910E+01  0.13649407842E+02  0.51100000000E-03 0. -1.
        -11    1    3    3    0    0  0.36336500732E+01 -0.56775373389E+01 -0.12000190149E+01  0.68467429473E+01  0.51100000000E-03 0.  1.
         12    1    3    3    0    0 -0.17700729521E+02  0.13337636163E+02 -0.31854009694E+02  0.38805750831E+02  0.00000000000E+00 0. -1.
</event>
<event>
 7    1  0.3755162E-013  0.5930194E+02  0.7816164E-02  0.1266605E+00
        -11   -1    0    0    0    0  0.00000000000E+00  0.00000000000E+00  0.45593999997E+02  0.45594000000E+02  0.51100000000E-03 0.  1.
         11   -1    0    0    0    0 -0.00000000000E+00 -0.00000000000E+00 -0.45593999997E+02  0.45594000000E+02  0.51100000000E-03 0. -1.
    9900012    2    1    2    0    0  0.27171039068E+02  0.47848305801E+01 -0.15986275768E+02  0.59301937517E+02  0.49999988126E+02 0.  0.
        -12    1    1    2    0    0 -0.27171039068E+02 -0.47848305801E+01  0.15986275768E+02  0.31886062483E+02  0.00000000000E+00 0.  1.
         11    1    3    3    0    0 -0.30345473744E+01  0.12542664266E+01 -0.15492958252E+02  0.15837089938E+02  0.51100000000E-03 0. -1.
        -11    1    3    3    0    0  0.15062930343E+02 -0.84419807808E+01 -0.11966765318E+02  0.21008626382E+02  0.51100000000E-03 0.  1.
        -12    1    3    3    0    0  0.15142656100E+02  0.11972544934E+02  0.11473447802E+02  0.22456221197E+02  0.00000000000E+00 0.  1.
</event>
<event>
 7    1  0.3755162E-013  0.5930194E+02  0.7816164E-02  0.1266605E+00
        -11   -1    0    0    0    0  0.00000000000E+00  0.00000000000E+00  0.45593999997E+02  0.45594000000E+02  0.51100000000E-03 0. -1.
         11   -1    0    0    0    0 -0.00000000000E+00 -0.00000000000E+00 -0.45593999997E+02  0.45594000000E+02  0.51100000000E-03 0.  1.
    9900012    2    1    2    0    0 -0.23297753936E+02 -0.46884077500E+01  0.21259213492E+02  0.59301942483E+02  0.49999997183E+02 0.  0.
        -12    1    1    2    0    0  0.23297753936E+02  0.46884077500E+01 -0.21259213492E+02  0.31886057517E+02  0.00000000000E+00 0.  1.
         11    1    3    3    0    0 -0.23845666962E+02 -0.70060260539E+01  0.23015774830E+02  0.33873678944E+02  0.51100000000E-03 0. -1.
        -11    1    3    3    0    0 -0.71660003490E+01  0.11225694283E+02  0.90134290863E+00  0.13348415353E+02  0.51100000000E-03 0.  1.
         12    1    3    3    0    0  0.77139133750E+01 -0.89080759789E+01 -0.26579042470E+01  0.12079848186E+02  0.00000000000E+00 0. -1.
</event>
<event>
 7    1  0.3755162E-013  0.5930203E+02  0.7816164E-02  0.1266604E+00
        -11   -1    0    0    0    0  0.00000000000E+00  0.00000000000E+00  0.45593999997E+02  0.45594000000E+02  0.51100000000E-03 0. -1.
         11   -1    0    0    0    0 -0.00000000000E+00 -0.00000000000E+00 -0.45593999997E+02  0.45594000000E+02  0.51100000000E-03 0.  1.
    9900012    2    1    2    0    0 -0.10038721981E+02  0.29814445504E+02  0.51998285401E+01  0.59302026335E+02  0.50000150109E+02 0.  0.
        -12    1    1    2    0    0  0.10038721981E+02 -0.29814445504E+02 -0.51998285401E+01  0.31885973665E+02  0.00000000000E+00 0.  1.
         11    1    3    3    0    0 -0.99027803872E+01  0.18976568144E+02 -0.73139279535E+01  0.22620095939E+02  0.51100000000E-03 0. -1.
        -11    1    3    3    0    0 -0.99413789012E+01  0.75845199335E+01 -0.71972401604E+01  0.14427620153E+02  0.51100000000E-03 0.  1.
         12    1    3    3    0    0  0.98054373077E+01  0.32533574262E+01  0.19710996654E+02  0.22254310244E+02  0.00000000000E+00 0. -1.
</event>
<event>
 7    1  0.3755162E-013  0.5930194E+02  0.7816164E-02  0.1266605E+00
        -11   -1    0    0    0    0  0.00000000000E+00  0.00000000000E+00  0.45593999997E+02  0.45594000000E+02  0.51100000000E-03 0.  1.
         11   -1    0    0    0    0 -0.00000000000E+00 -0.00000000000E+00 -0.45593999997E+02  0.45594000000E+02  0.51100000000E-03 0. -1.
    9900012    2    1    2    0    0  0.11289232188E+02  0.93945035346E+01 -0.28302247197E+02  0.59301942602E+02  0.49999997399E+02 0.  0.
        -12    1    1    2    0    0 -0.11289232188E+02 -0.93945035346E+01  0.28302247197E+02  0.31886057398E+02  0.00000000000E+00 0.  1.
         11    1    3    3    0    0  0.12810899099E+02 -0.80874561983E+00  0.21927767240E+01  0.13022345227E+02  0.51100000000E-03 0. -1.
        -11    1    3    3    0    0 -0.10020528256E+02 -0.50214790762E+01 -0.25940406583E+02  0.28258289626E+02  0.51100000000E-03 0.  1.
         12    1    3    3    0    0  0.84988613450E+01  0.15224728231E+02 -0.45546173375E+01  0.18021307748E+02  0.00000000000E+00 0. -1.
</event>
<event>
 7    1  0.3755162E-013  0.5930195E+02  0.7816164E-02  0.1266605E+00
        -11   -1    0    0    0    0  0.00000000000E+00  0.00000000000E+00  0.45593999997E+02  0.45594000000E+02  0.51100000000E-03 0.  1.
         11   -1    0    0    0    0 -0.00000000000E+00 -0.00000000000E+00 -0.45593999997E+02  0.45594000000E+02  0.51100000000E-03 0. -1.
    9900012    2    1    2    0    0 -0.11632306820E+02  0.27970137803E+02  0.99539546171E+01  0.59301946886E+02  0.50000005214E+02 0.  0.
        -12    1    1    2    0    0  0.11632306820E+02 -0.27970137803E+02 -0.99539546171E+01  0.31886053114E+02  0.00000000000E+00 0.  1.
         11    1    3    3    0    0 -0.96551164945E+01  0.58621997749E+01  0.50126023774E+00  0.11306543363E+02  0.51100000000E-03 0. -1.
        -11    1    3    3    0    0 -0.21227593101E+02  0.15698477624E+02  0.82902230576E+01  0.27672743037E+02  0.51100000000E-03 0.  1.
        -12    1    3    3    0    0  0.19250402776E+02  0.64094604041E+01  0.11624713217E+01  0.20322660487E+02  0.00000000000E+00 0.  1.
</event>
<event>
 7    1  0.3755162E-013  0.5930198E+02  0.7816164E-02  0.1266605E+00
        -11   -1    0    0    0    0  0.00000000000E+00  0.00000000000E+00  0.45593999997E+02  0.45594000000E+02  0.51100000000E-03 0.  1.
         11   -1    0    0    0    0 -0.00000000000E+00 -0.00000000000E+00 -0.45593999997E+02  0.45594000000E+02  0.51100000000E-03 0. -1.
    9900012    2    1    2    0    0 -0.14431793160E+02 -0.20472507099E+02 -0.19731145122E+02  0.59301979731E+02  0.50000065115E+02 0.  0.
        -12    1    1    2    0    0  0.14431793160E+02  0.20472507099E+02  0.19731145122E+02  0.31886020269E+02  0.00000000000E+00 0.  1.
         11    1    3    3    0    0  0.47287437092E+01  0.12016284408E+01 -0.75847802280E+01  0.90185264509E+01  0.51100000000E-03 0. -1.
        -11    1    3    3    0    0  0.11935360897E+02 -0.84864929039E+01 -0.65633749663E+01  0.16048404679E+02  0.51100000000E-03 0.  1.
         12    1    3    3    0    0 -0.31095897766E+02 -0.13187642636E+02 -0.55829899280E+01  0.34235048601E+02  0.00000000000E+00 0. -1.
</event>
<event>
 7    1  0.3755162E-013  0.5930194E+02  0.7816164E-02  0.1266605E+00
        -11   -1    0    0    0    0  0.00000000000E+00  0.00000000000E+00  0.45593999997E+02  0.45594000000E+02  0.51100000000E-03 0. -1.
         11   -1    0    0    0    0 -0.00000000000E+00 -0.00000000000E+00 -0.45593999997E+02  0.45594000000E+02  0.51100000000E-03 0.  1.
    9900012    2    1    2    0    0 -0.25095132761E+02 -0.14174682460E+02 -0.13639402335E+02  0.59301943374E+02  0.49999998807E+02 0.  0.
        -12    1    1    2    0    0  0.25095132761E+02  0.14174682460E+02  0.13639402335E+02  0.31886056626E+02  0.00000000000E+00 0.  1.
         11    1    3    3    0    0 -0.38564451781E+01 -0.10643749279E+02 -0.17254615756E+02  0.20636940987E+02  0.51100000000E-03 0. -1.
        -11    1    3    3    0    0 -0.11038081492E+01 -0.23583307179E+01 -0.12550028480E+02  0.12817305931E+02  0.51100000000E-03 0.  1.
         12    1    3    3    0    0 -0.20134879434E+02 -0.11726024633E+01  0.16165241902E+02  0.25847696456E+02  0.00000000000E+00 0. -1.
</event>
<event>
 7    1  0.3755162E-013  0.5930193E+02  0.7816164E-02  0.1266605E+00
        -11   -1    0    0    0    0  0.00000000000E+00  0.00000000000E+00  0.45593999997E+02  0.45594000000E+02  0.51100000000E-03 0.  1.
         11   -1    0    0    0    0 -0.00000000000E+00 -0.00000000000E+00 -0.45593999997E+02  0.45594000000E+02  0.51100000000E-03 0. -1.
    9900012    2    1    2    0    0 -0.73982161615E+01  0.30545060431E+02  0.53839675573E+01  0.59301930537E+02  0.49999975396E+02 0.  0.
        -12    1    1    2    0    0  0.73982161615E+01 -0.30545060431E+02 -0.53839675573E+01  0.31886069463E+02  0.00000000000E+00 0.  1.
         11    1    3    3    0    0 -0.47774633741E+01  0.26111711132E+01 -0.77868918371E+01  0.95014764967E+01  0.51100000000E-03 0. -1.
        -11    1    3    3    0    0 -0.13216696310E+02  0.88896176275E+01 -0.93430990616E+01  0.18466181610E+02  0.51100000000E-03 0.  1.
         12    1    3    3    0    0  0.10595943523E+02  0.19044271691E+02  0.22513958456E+02  0.31334272430E+02  0.00000000000E+00 0. -1.
</event>
<event>
 7    1  0.3755162E-013  0.5930192E+02  0.7816164E-02  0.1266605E+00
        -11   -1    0    0    0    0  0.00000000000E+00  0.00000000000E+00  0.45593999997E+02  0.45594000000E+02  0.51100000000E-03 0.  1.
         11   -1    0    0    0    0 -0.00000000000E+00 -0.00000000000E+00 -0.45593999997E+02  0.45594000000E+02  0.51100000000E-03 0. -1.
    9900012    2    1    2    0    0  0.11501165321E+02 -0.71986127400E+01 -0.28855246937E+02  0.59301919887E+02  0.49999955974E+02 0.  0.
        -12    1    1    2    0    0 -0.11501165321E+02  0.71986127400E+01  0.28855246937E+02  0.31886080113E+02  0.00000000000E+00 0.  1.
         11    1    3    3    0    0  0.78930456189E+01 -0.14101729084E+01 -0.83924317710E+01  0.11606966359E+02  0.51100000000E-03 0. -1.
        -11    1    3    3    0    0 -0.99035793323E+01 -0.20026820514E+02 -0.54876938166E+01  0.23005851586E+02  0.51100000000E-03 0.  1.
         12    1    3    3    0    0  0.13511699035E+02  0.14238380683E+02 -0.14975121350E+02  0.24689101942E+02  0.00000000000E+00 0. -1.
</event>
<event>
 7    1  0.3755162E-013  0.5930195E+02  0.7816164E-02  0.1266605E+00
        -11   -1    0    0    0    0  0.00000000000E+00  0.00000000000E+00  0.45593999997E+02  0.45594000000E+02  0.51100000000E-03 0.  1.
         11   -1    0    0    0    0 -0.00000000000E+00 -0.00000000000E+00 -0.45593999997E+02  0.45594000000E+02  0.51100000000E-03 0. -1.
    9900012    2    1    2    0    0 -0.22174971651E+02  0.13691415006E+02 -0.18372159595E+02  0.59301945670E+02  0.50000002995E+02 0.  0.
        -12    1    1    2    0    0  0.22174971651E+02 -0.13691415006E+02  0.18372159595E+02  0.31886054330E+02  0.00000000000E+00 0.  1.
         11    1    3    3    0    0 -0.14221970042E+01  0.26094113124E+02 -0.14532251598E+01  0.26173216228E+02  0.51100000000E-03 0.  1.
        -11    1    3    3    0    0 -0.38351357598E+01 -0.18801572915E+01 -0.11813411540E+02  0.12561845016E+02  0.51100000000E-03 0. -1.
        -12    1    3    3    0    0 -0.16917638886E+02 -0.10522540827E+02 -0.51055228950E+01  0.20566884426E+02  0.00000000000E+00 0.  1.
</event>
<event>
 7    1  0.3755162E-013  0.5930194E+02  0.7816164E-02  0.1266605E+00
        -11   -1    0    0    0    0  0.00000000000E+00  0.00000000000E+00  0.45593999997E+02  0.45594000000E+02  0.51100000000E-03 0. -1.
         11   -1    0    0    0    0 -0.00000000000E+00 -0.00000000000E+00 -0.45593999997E+02  0.45594000000E+02  0.51100000000E-03 0.  1.
    9900012    2    1    2    0    0  0.22599653067E+02  0.21601780675E+02 -0.62721175995E+01  0.59301941820E+02  0.49999995974E+02 0.  0.
        -12    1    1    2    0    0 -0.22599653067E+02 -0.21601780675E+02  0.62721175995E+01  0.31886058180E+02  0.00000000000E+00 0.  1.
         11    1    3    3    0    0  0.68761736529E+00  0.10870174199E+02 -0.98909595789E+01  0.14712735517E+02  0.51100000000E-03 0. -1.
        -11    1    3    3    0    0 -0.46435136306E+01  0.61799858760E+01 -0.11376749862E+02  0.13754449532E+02  0.51100000000E-03 0.  1.
         12    1    3    3    0    0  0.26555549332E+02  0.45516206004E+01  0.14995591841E+02  0.30834756770E+02  0.00000000000E+00 0. -1.
</event>
<event>
 7    1  0.3755162E-013  0.5930193E+02  0.7816164E-02  0.1266605E+00
        -11   -1    0    0    0    0  0.00000000000E+00  0.00000000000E+00  0.45593999997E+02  0.45594000000E+02  0.51100000000E-03 0.  1.
         11   -1    0    0    0    0 -0.00000000000E+00 -0.00000000000E+00 -0.45593999997E+02  0.45594000000E+02  0.51100000000E-03 0. -1.
    9900012    2    1    2    0    0  0.27232795784E+02 -0.44448749242E+01 -0.15979332718E+02  0.59301934808E+02  0.49999983186E+02 0.  0.
        -12    1    1    2    0    0 -0.27232795784E+02  0.44448749242E+01  0.15979332718E+02  0.31886065192E+02  0.00000000000E+00 0.  1.
         11    1    3    3    0    0  0.27026525364E+00 -0.17392146954E+02 -0.66538270800E+01  0.18623459239E+02  0.51100000000E-03 0.  1.
        -11    1    3    3    0    0  0.14951472055E+02 -0.15191719290E+01  0.62365196715E+01  0.16271096393E+02  0.51100000000E-03 0. -1.
         12    1    3    3    0    0  0.12011058476E+02  0.14466443958E+02 -0.15562025310E+02  0.24407379176E+02  0.00000000000E+00 0. -1.
</event>
<event>
 7    1  0.3755162E-013  0.5930194E+02  0.7816164E-02  0.1266605E+00
        -11   -1    0    0    0    0  0.00000000000E+00  0.00000000000E+00  0.45593999997E+02  0.45594000000E+02  0.51100000000E-03 0. -1.
         11   -1    0    0    0    0 -0.00000000000E+00 -0.00000000000E+00 -0.45593999997E+02  0.45594000000E+02  0.51100000000E-03 0.  1.
    9900012    2    1    2    0    0  0.13749420741E+02 -0.28029117909E+02  0.64840397422E+01  0.59301940462E+02  0.49999993497E+02 0.  0.
        -12    1    1    2    0    0 -0.13749420741E+02  0.28029117909E+02 -0.64840397422E+01  0.31886059538E+02  0.00000000000E+00 0.  1.
         11    1    3    3    0    0 -0.88174002951E+01 -0.31375019612E+01 -0.62291916538E+01  0.11242477282E+02  0.51100000000E-03 0. -1.
        -11    1    3    3    0    0  0.14547937317E+02 -0.32283574684E+02  0.89659624796E+01  0.36527526032E+02  0.51100000000E-03 0.  1.
         12    1    3    3    0    0  0.80188837191E+01  0.73919587357E+01  0.37472689164E+01  0.11531937148E+02  0.00000000000E+00 0. -1.
</event>
<event>
 7    1  0.3755162E-013  0.5930194E+02  0.7816164E-02  0.1266605E+00
        -11   -1    0    0    0    0  0.00000000000E+00  0.00000000000E+00  0.45593999997E+02  0.45594000000E+02  0.51100000000E-03 0.  1.
         11   -1    0    0    0    0 -0.00000000000E+00 -0.00000000000E+00 -0.45593999997E+02  0.45594000000E+02  0.51100000000E-03 0. -1.
    9900012    2    1    2    0    0  0.90245093681E+01 -0.21285145236E+02 -0.21959541168E+02  0.59301943089E+02  0.49999998288E+02 0.  0.
        -12    1    1    2    0    0 -0.90245093681E+01  0.21285145236E+02  0.21959541168E+02  0.31886056911E+02  0.00000000000E+00 0.  1.
         11    1    3    3    0    0 -0.91478329371E+01  0.37885707399E+01 -0.28976576376E+01  0.10316614549E+02  0.51100000000E-03 0. -1.
        -11    1    3    3    0    0  0.10789840603E+02  0.60404099545E+00 -0.19465738426E+02  0.22264332428E+02  0.51100000000E-03 0.  1.
         12    1    3    3    0    0  0.73825017024E+01 -0.25677756971E+02  0.40385489549E+00  0.26720996112E+02  0.00000000000E+00 0. -1.
</event>
<event>
 7    1  0.3755162E-013  0.5930195E+02  0.7816164E-02  0.1266605E+00
        -11   -1    0    0    0    0  0.00000000000E+00  0.00000000000E+00  0.45593999997E+02  0.45594000000E+02  0.51100000000E-03 0.  1.
         11   -1    0    0    0    0 -0.00000000000E+00 -0.00000000000E+00 -0.45593999997E+02  0.45594000000E+02  0.51100000000E-03 0. -1.
    9900012    2    1    2    0    0  0.20904150519E+02 -0.23850609815E+02 -0.32992452746E+01  0.59301951062E+02  0.50000012829E+02 0.  0.
        -12    1    1    2    0    0 -0.20904150519E+02  0.23850609815E+02  0.32992452746E+01  0.31886048938E+02  0.00000000000E+00 0.  1.
         11    1    3    3    0    0  0.25301578644E+02 -0.13937006495E+02  0.63914549027E+01  0.29584805695E+02  0.51100000000E-03 0. -1.
        -11    1    3    3    0    0  0.41230006486E+01  0.75666008823E+01 -0.23515949798E+01  0.89321096315E+01  0.51100000000E-03 0.  1.
        -12    1    3    3    0    0 -0.85204287742E+01 -0.17480204202E+02 -0.73391051975E+01  0.20785035736E+02  0.00000000000E+00 0.  1.
</event>
<event>
 7    1  0.3755162E-013  0.5930194E+02  0.7816164E-02  0.1266605E+00
        -11   -1    0    0    0    0  0.00000000000E+00  0.00000000000E+00  0.45593999997E+02  0.45594000000E+02  0.51100000000E-03 0.  1.
         11   -1    0    0    0    0 -0.00000000000E+00 -0.00000000000E+00 -0.45593999997E+02  0.45594000000E+02  0.51100000000E-03 0. -1.
    9900012    2    1    2    0    0  0.40336642374E+00  0.21082909791E+02 -0.23917961111E+02  0.59301942648E+02  0.49999997484E+02 0.  0.
        -12    1    1    2    0    0 -0.40336642374E+00 -0.21082909791E+02  0.23917961111E+02  0.31886057352E+02  0.00000000000E+00 0.  1.
         11    1    3    3    0    0 -0.53755972296E+01 -0.95932542418E+01 -0.16367899329E+02  0.19718917345E+02  0.51100000000E-03 0. -1.
        -11    1    3    3    0    0 -0.50952297252E+01  0.12086702268E+02  0.56949213394E+01  0.14299715626E+02  0.51100000000E-03 0.  1.
        -12    1    3    3    0    0  0.10874193378E+02  0.18589461765E+02 -0.13244983121E+02  0.25283309677E+02  0.00000000000E+00 0.  1.
</event>
<event>
 7    1  0.3755162E-013  0.5930190E+02  0.7816164E-02  0.1266605E+00
        -11   -1    0    0    0    0  0.00000000000E+00  0.00000000000E+00  0.45593999997E+02  0.45594000000E+02  0.51100000000E-03 0. -1.
         11   -1    0    0    0    0 -0.00000000000E+00 -0.00000000000E+00 -0.45593999997E+02  0.45594000000E+02  0.51100000000E-03 0.  1.
    9900012    2    1    2    0    0  0.31345035397E+00 -0.41678741807E+01  0.31610977429E+02  0.59301900829E+02  0.49999921216E+02 0.  0.
        -12    1    1    2    0    0 -0.31345035397E+00  0.41678741807E+01 -0.31610977429E+02  0.31886099171E+02  0.00000000000E+00 0.  1.
         11    1    3    3    0    0 -0.21185076781E+01 -0.84620780261E+01  0.23465731266E+01  0.90333407442E+01  0.51100000000E-03 0. -1.
        -11    1    3    3    0    0 -0.34651136819E+01  0.16081582194E+02 -0.17755611574E+01  0.16546205498E+02  0.51100000000E-03 0.  1.
         12    1    3    3    0    0  0.58970717139E+01 -0.11787378349E+02  0.31039965460E+02  0.33722354587E+02  0.00000000000E+00 0. -1.
</event>
<event>
 7    1  0.3755162E-013  0.5930194E+02  0.7816164E-02  0.1266605E+00
        -11   -1    0    0    0    0  0.00000000000E+00  0.00000000000E+00  0.45593999997E+02  0.45594000000E+02  0.51100000000E-03 0.  1.
         11   -1    0    0    0    0 -0.00000000000E+00 -0.00000000000E+00 -0.45593999997E+02  0.45594000000E+02  0.51100000000E-03 0. -1.
    9900012    2    1    2    0    0 -0.24489701204E+01 -0.23718840002E+02 -0.21169315049E+02  0.59301941521E+02  0.49999995429E+02 0.  0.
        -12    1    1    2    0    0  0.24489701204E+01  0.23718840002E+02  0.21169315049E+02  0.31886058479E+02  0.00000000000E+00 0.  1.
         11    1    3    3    0    0  0.58575213858E+00 -0.12932331721E+02 -0.77404262506E+01  0.15083186272E+02  0.51100000000E-03 0. -1.
        -11    1    3    3    0    0  0.53569785139E+01 -0.24491837072E+02 -0.34624873406E+01  0.25308815081E+02  0.51100000000E-03 0.  1.
         12    1    3    3    0    0 -0.83917007729E+01  0.13705328791E+02 -0.99664014576E+01  0.18909940168E+02  0.00000000000E+00 0. -1.
</event>
<event>
 7    1  0.3755162E-013  0.5930192E+02  0.7816164E-02  0.1266605E+00
        -11   -1    0    0    0    0  0.00000000000E+00  0.00000000000E+00  0.45593999997E+02  0.45594000000E+02  0.51100000000E-03 0.  1.
         11   -1    0    0    0    0 -0.00000000000E+00 -0.00000000000E+00 -0.45593999997E+02  0.45594000000E+02  0.51100000000E-03 0. -1.
    9900012    2    1    2    0    0  0.36168108130E+01  0.30311994147E+02 -0.92099723446E+01  0.59301923098E+02  0.49999961829E+02 0.  0.
        -12    1    1    2    0    0 -0.36168108130E+01 -0.30311994147E+02  0.92099723446E+01  0.31886076902E+02  0.00000000000E+00 0.  1.
         11    1    3    3    0    0  0.77025987847E+01  0.48977830052E+01  0.13679531104E+02  0.16445299569E+02  0.51100000000E-03 0. -1.
        -11    1    3    3    0    0  0.33418988048E+01  0.82784948062E+00  0.42640531710E+01  0.54804901323E+01  0.51100000000E-03 0.  1.
         12    1    3    3    0    0 -0.74276867765E+01  0.24586361661E+02 -0.27153556620E+02  0.37376133397E+02  0.00000000000E+00 0. -1.
</event>
<event>
 7    1  0.3755162E-013  0.5930195E+02  0.7816164E-02  0.1266605E+00
        -11   -1    0    0    0    0  0.00000000000E+00  0.00000000000E+00  0.45593999997E+02  0.45594000000E+02  0.51100000000E-03 0. -1.
         11   -1    0    0    0    0 -0.00000000000E+00 -0.00000000000E+00 -0.45593999997E+02  0.45594000000E+02  0.51100000000E-03 0.  1.
    9900012    2    1    2    0    0  0.26930864323E+01 -0.29506418003E+02 -0.11782973405E+02  0.59301954774E+02  0.50000019599E+02 0.  0.
        -12    1    1    2    0    0 -0.26930864323E+01  0.29506418003E+02  0.11782973405E+02  0.31886045226E+02  0.00000000000E+00 0.  1.
         11    1    3    3    0    0  0.13461306538E+02 -0.18156034426E+02 -0.12656710028E+02  0.25904452683E+02  0.51100000000E-03 0. -1.
        -11    1    3    3    0    0  0.26411724625E+01  0.80006364710E+01 -0.40452042939E+01  0.93461036779E+01  0.51100000000E-03 0.  1.
         12    1    3    3    0    0 -0.13409392568E+02 -0.19351020047E+02  0.49189409168E+01  0.24051398414E+02  0.00000000000E+00 0. -1.
</event>
<event>
 7    1  0.3755162E-013  0.5930194E+02  0.7816164E-02  0.1266605E+00
        -11   -1    0    0    0    0  0.00000000000E+00  0.00000000000E+00  0.45593999997E+02  0.45594000000E+02  0.51100000000E-03 0.  1.
         11   -1    0    0    0    0 -0.00000000000E+00 -0.00000000000E+00 -0.45593999997E+02  0.45594000000E+02  0.51100000000E-03 0. -1.
    9900012    2    1    2    0    0  0.47076078565E+01 -0.68708447721E+01 -0.30779063045E+02  0.59301940326E+02  0.49999993249E+02 0.  0.
        -12    1    1    2    0    0 -0.47076078565E+01  0.68708447721E+01  0.30779063045E+02  0.31886059674E+02  0.00000000000E+00 0.  1.
         11    1    3    3    0    0  0.11852946342E+02  0.82295394772E+01 -0.23009166897E+02  0.27159518010E+02  0.51100000000E-03 0. -1.
        -11    1    3    3    0    0 -0.15804169015E+02 -0.32271355668E+01 -0.65060650367E+01  0.17392959631E+02  0.51100000000E-03 0.  1.
         12    1    3    3    0    0  0.86588305292E+01 -0.11873248682E+02 -0.12638311113E+01  0.14749462685E+02  0.00000000000E+00 0. -1.
</event>
<event>
 7    1  0.3755162E-013  0.5930201E+02  0.7816164E-02  0.1266605E+00
        -11   -1    0    0    0    0  0.00000000000E+00  0.00000000000E+00  0.45593999997E+02  0.45594000000E+02  0.51100000000E-03 0. -1.
         11   -1    0    0    0    0 -0.00000000000E+00 -0.00000000000E+00 -0.45593999997E+02  0.45594000000E+02  0.51100000000E-03 0.  1.
    9900012    2    1    2    0    0 -0.15410799121E+01  0.28741829181E+01  0.31718767094E+02  0.59302014980E+02  0.50000129399E+02 0.  0.
        -12    1    1    2    0    0  0.15410799121E+01 -0.28741829181E+01 -0.31718767094E+02  0.31885985020E+02  0.00000000000E+00 0.  1.
         11    1    3    3    0    0  0.44630303455E+01 -0.89986182568E+01  0.32013864451E+02  0.33552664391E+02  0.51100000000E-03 0. -1.
        -11    1    3    3    0    0 -0.18392906361E+00 -0.11900233273E+01  0.87471951455E+01  0.88296890429E+01  0.51100000000E-03 0.  1.
        -12    1    3    3    0    0 -0.58201811940E+01  0.13062824502E+02 -0.90422925028E+01  0.16919661545E+02  0.00000000000E+00 0.  1.
</event>
<event>
 7    1  0.3755162E-013  0.5930193E+02  0.7816164E-02  0.1266605E+00
        -11   -1    0    0    0    0  0.00000000000E+00  0.00000000000E+00  0.45593999997E+02  0.45594000000E+02  0.51100000000E-03 0. -1.
         11   -1    0    0    0    0 -0.00000000000E+00 -0.00000000000E+00 -0.45593999997E+02  0.45594000000E+02  0.51100000000E-03 0.  1.
    9900012    2    1    2    0    0 -0.28109278579E+02  0.10623258662E+02  0.10664719423E+02  0.59301930828E+02  0.49999975928E+02 0.  0.
        -12    1    1    2    0    0  0.28109278579E+02 -0.10623258662E+02 -0.10664719423E+02  0.31886069172E+02  0.00000000000E+00 0.  1.
         11    1    3    3    0    0  0.58455881515E+01  0.11410138348E+02  0.54175361970E+01  0.13918040691E+02  0.51100000000E-03 0. -1.
        -11    1    3    3    0    0  0.37486595747E+01  0.27386611171E+01  0.59034288564E+01  0.75102054463E+01  0.51100000000E-03 0.  1.
        -12    1    3    3    0    0 -0.37703526305E+02 -0.35255408027E+01 -0.65624563038E+00  0.37873684692E+02  0.00000000000E+00 0.  1.
</event>
<event>
 7    1  0.3755162E-013  0.5930194E+02  0.7816164E-02  0.1266605E+00
        -11   -1    0    0    0    0  0.00000000000E+00  0.00000000000E+00  0.45593999997E+02  0.45594000000E+02  0.51100000000E-03 0.  1.
         11   -1    0    0    0    0 -0.00000000000E+00 -0.00000000000E+00 -0.45593999997E+02  0.45594000000E+02  0.51100000000E-03 0. -1.
    9900012    2    1    2    0    0  0.87470240359E+01  0.32080041884E+01 -0.30494570066E+02  0.59301944680E+02  0.50000001190E+02 0.  0.
        -12    1    1    2    0    0 -0.87470240359E+01 -0.32080041884E+01  0.30494570066E+02  0.31886055320E+02  0.00000000000E+00 0.  1.
         11    1    3    3    0    0 -0.37063435766E+01 -0.28614211572E+01 -0.81657143572E+01  0.94129487926E+01  0.51100000000E-03 0. -1.
        -11    1    3    3    0    0  0.12581126144E+02 -0.17215057920E+02 -0.11081019188E+02  0.24029813581E+02  0.51100000000E-03 0.  1.
         12    1    3    3    0    0 -0.12775853151E+00  0.23284483265E+02 -0.11247836521E+02  0.25859182307E+02  0.00000000000E+00 0. -1.
</event>
<event>
 7    1  0.3755162E-013  0.5930195E+02  0.7816164E-02  0.1266605E+00
        -11   -1    0    0    0    0  0.00000000000E+00  0.00000000000E+00  0.45593999997E+02  0.45594000000E+02  0.51100000000E-03 0. -1.
         11   -1    0    0    0    0 -0.00000000000E+00 -0.00000000000E+00 -0.45593999997E+02  0.45594000000E+02  0.51100000000E-03 0.  1.
    9900012    2    1    2    0    0  0.16401562039E+00 -0.31489584797E+02 -0.50099505313E+01  0.59301945742E+02  0.50000003127E+02 0.  0.
        -12    1    1    2    0    0 -0.16401562039E+00  0.31489584797E+02  0.50099505313E+01  0.31886054258E+02  0.00000000000E+00 0.  1.
         11    1    3    3    0    0  0.93327113452E+01  0.66864659446E+01 -0.16047994518E+01  0.11592398778E+02  0.51100000000E-03 0. -1.
        -11    1    3    3    0    0  0.26548470403E+01 -0.14323555398E+02  0.10228107819E+02  0.17799624768E+02  0.51100000000E-03 0.  1.
        -12    1    3    3    0    0 -0.11823542765E+02 -0.23852495343E+02 -0.13633258898E+02  0.29909922197E+02  0.00000000000E+00 0.  1.
</event>
<event>
 7    1  0.3755162E-013  0.5930195E+02  0.7816164E-02  0.1266605E+00
        -11   -1    0    0    0    0  0.00000000000E+00  0.00000000000E+00  0.45593999997E+02  0.45594000000E+02  0.51100000000E-03 0. -1.
         11   -1    0    0    0    0 -0.00000000000E+00 -0.00000000000E+00 -0.45593999997E+02  0.45594000000E+02  0.51100000000E-03 0.  1.
    9900012    2    1    2    0    0 -0.29790186325E+01  0.20001920658E+01  0.31683513384E+02  0.59301947553E+02  0.50000006429E+02 0.  0.
        -12    1    1    2    0    0  0.29790186325E+01 -0.20001920658E+01 -0.31683513384E+02  0.31886052447E+02  0.00000000000E+00 0.  1.
         11    1    3    3    0    0 -0.61580793740E+01 -0.76346781863E+01  0.68000816924E+01  0.11935299069E+02  0.51100000000E-03 0. -1.
        -11    1    3    3    0    0 -0.15749748243E+01  0.41967238873E+01 -0.10413992706E+02  0.11337737050E+02  0.51100000000E-03 0.  1.
         12    1    3    3    0    0  0.47540355657E+01  0.54381463648E+01  0.35297424397E+02  0.36028911434E+02  0.00000000000E+00 0. -1.
</event>
<event>
 7    1  0.3755162E-013  0.5930194E+02  0.7816164E-02  0.1266605E+00
        -11   -1    0    0    0    0  0.00000000000E+00  0.00000000000E+00  0.45593999997E+02  0.45594000000E+02  0.51100000000E-03 0. -1.
         11   -1    0    0    0    0 -0.00000000000E+00 -0.00000000000E+00 -0.45593999997E+02  0.45594000000E+02  0.51100000000E-03 0.  1.
    9900012    2    1    2    0    0  0.18787025236E+02 -0.17249145710E+02  0.19137284669E+02  0.59301937066E+02  0.49999987304E+02 0.  0.
        -12    1    1    2    0    0 -0.18787025236E+02  0.17249145710E+02 -0.19137284669E+02  0.31886062934E+02  0.00000000000E+00 0.  1.
         11    1    3    3    0    0  0.19362601483E+02 -0.17908808457E+02  0.11995489832E+02  0.28974601518E+02  0.51100000000E-03 0. -1.
        -11    1    3    3    0    0 -0.35154729400E+01 -0.24559994628E+01 -0.10937137027E+02  0.11747827457E+02  0.51100000000E-03 0.  1.
         12    1    3    3    0    0  0.29398966926E+01  0.31156622102E+01  0.18078931864E+02  0.18579508092E+02  0.00000000000E+00 0. -1.
</event>
<event>
 7    1  0.3755162E-013  0.5930194E+02  0.7816164E-02  0.1266605E+00
        -11   -1    0    0    0    0  0.00000000000E+00  0.00000000000E+00  0.45593999997E+02  0.45594000000E+02  0.51100000000E-03 0. -1.
         11   -1    0    0    0    0 -0.00000000000E+00 -0.00000000000E+00 -0.45593999997E+02  0.45594000000E+02  0.51100000000E-03 0.  1.
    9900012    2    1    2    0    0 -0.10603760544E+02  0.23555721807E+01  0.29978867270E+02  0.59301938142E+02  0.49999989267E+02 0.  0.
        -12    1    1    2    0    0  0.10603760544E+02 -0.23555721807E+01 -0.29978867270E+02  0.31886061858E+02  0.00000000000E+00 0.  1.
         11    1    3    3    0    0 -0.27094699498E+01  0.12927458454E+01  0.40987086746E+02  0.41096881870E+02  0.51100000000E-03 0. -1.
        -11    1    3    3    0    0 -0.84329755696E+01  0.47948454969E+01 -0.45232470968E+01  0.10703522077E+02  0.51100000000E-03 0.  1.
        -12    1    3    3    0    0  0.53868497525E+00 -0.37320191616E+01 -0.64849723791E+01  0.75015341953E+01  0.00000000000E+00 0.  1.
</event>
<event>
 7    1  0.3755162E-013  0.5930195E+02  0.7816164E-02  0.1266605E+00
        -11   -1    0    0    0    0  0.00000000000E+00  0.00000000000E+00  0.45593999997E+02  0.45594000000E+02  0.51100000000E-03 0.  1.
         11   -1    0    0    0    0 -0.00000000000E+00 -0.00000000000E+00 -0.45593999997E+02  0.45594000000E+02  0.51100000000E-03 0. -1.
    9900012    2    1    2    0    0 -0.29155673833E+01  0.21072443680E+02 -0.23752300142E+02  0.59301950106E+02  0.50000011085E+02 0.  0.
        -12    1    1    2    0    0  0.29155673833E+01 -0.21072443680E+02  0.23752300142E+02  0.31886049894E+02  0.00000000000E+00 0.  1.
         11    1    3    3    0    0 -0.11007546170E+02  0.16678084776E+01 -0.24030792542E+02  0.26484460505E+02  0.51100000000E-03 0. -1.
        -11    1    3    3    0    0 -0.47282207934E+01 -0.39226875761E+01  0.79235063561E+00  0.61944628081E+01  0.51100000000E-03 0.  1.
        -12    1    3    3    0    0  0.12820199580E+02  0.23327322779E+02 -0.51385823601E+00  0.26623026793E+02  0.00000000000E+00 0.  1.
</event>
<event>
 7    1  0.3755162E-013  0.5930182E+02  0.7816164E-02  0.1266605E+00
        -11   -1    0    0    0    0  0.00000000000E+00  0.00000000000E+00  0.45593999997E+02  0.45594000000E+02  0.51100000000E-03 0.  1.
         11   -1    0    0    0    0 -0.00000000000E+00 -0.00000000000E+00 -0.45593999997E+02  0.45594000000E+02  0.51100000000E-03 0. -1.
    9900012    2    1    2    0    0 -0.21895920218E+02 -0.83068653408E+01 -0.21640082529E+02  0.59301819516E+02  0.49999772920E+02 0.  0.
        -12    1    1    2    0    0  0.21895920218E+02  0.83068653408E+01  0.21640082529E+02  0.31886180484E+02  0.00000000000E+00 0.  1.
         11    1    3    3    0    0 -0.14806914473E+01 -0.99332096271E+01  0.42928075611E+01  0.10921964003E+02  0.51100000000E-03 0. -1.
        -11    1    3    3    0    0 -0.54368641184E+01 -0.30823727956E+01  0.84916945517E+01  0.10543689587E+02  0.51100000000E-03 0.  1.
        -12    1    3    3    0    0 -0.14978364653E+02  0.47087170818E+01 -0.34424584642E+02  0.37836165926E+02  0.00000000000E+00 0.  1.
</event>
<event>
 7    1  0.3755162E-013  0.5930195E+02  0.7816164E-02  0.1266605E+00
        -11   -1    0    0    0    0  0.00000000000E+00  0.00000000000E+00  0.45593999997E+02  0.45594000000E+02  0.51100000000E-03 0.  1.
         11   -1    0    0    0    0 -0.00000000000E+00 -0.00000000000E+00 -0.45593999997E+02  0.45594000000E+02  0.51100000000E-03 0. -1.
    9900012    2    1    2    0    0 -0.26889167028E+01 -0.25924072688E+02 -0.18369334301E+02  0.59301948811E+02  0.50000008723E+02 0.  0.
        -12    1    1    2    0    0  0.26889167028E+01  0.25924072688E+02  0.18369334301E+02  0.31886051189E+02  0.00000000000E+00 0.  1.
         11    1    3    3    0    0  0.10712597077E+02 -0.28886231887E+02 -0.76038710533E+01  0.31733152759E+02  0.51100000000E-03 0. -1.
        -11    1    3    3    0    0  0.57123837507E+01 -0.14848763834E+00 -0.73944797541E+00  0.57619580234E+01  0.51100000000E-03 0.  1.
         12    1    3    3    0    0 -0.19113897530E+02  0.31106468373E+01 -0.10026015272E+02  0.21806838028E+02  0.00000000000E+00 0. -1.
</event>
<event>
 7    1  0.3755162E-013  0.5930195E+02  0.7816164E-02  0.1266605E+00
        -11   -1    0    0    0    0  0.00000000000E+00  0.00000000000E+00  0.45593999997E+02  0.45594000000E+02  0.51100000000E-03 0.  1.
         11   -1    0    0    0    0 -0.00000000000E+00 -0.00000000000E+00 -0.45593999997E+02  0.45594000000E+02  0.51100000000E-03 0. -1.
    9900012    2    1    2    0    0  0.13558556254E+02 -0.12031324378E+02 -0.26232290505E+02  0.59301948518E+02  0.50000008190E+02 0.  0.
        -12    1    1    2    0    0 -0.13558556254E+02  0.12031324378E+02  0.26232290505E+02  0.31886051482E+02  0.00000000000E+00 0.  1.
         11    1    3    3    0    0 -0.32931274328E+01  0.94495214495E+01 -0.28050388326E+01  0.10392612137E+02  0.51100000000E-03 0. -1.
        -11    1    3    3    0    0  0.24204968770E+02 -0.47618577785E+01 -0.13468573448E+02  0.28106196357E+02  0.51100000000E-03 0.  1.
         12    1    3    3    0    0 -0.73532850835E+01 -0.16718988049E+02 -0.99586782240E+01  0.20803140024E+02  0.00000000000E+00 0. -1.
</event>
<event>
 7    1  0.3755162E-013  0.5930193E+02  0.7816164E-02  0.1266605E+00
        -11   -1    0    0    0    0  0.00000000000E+00  0.00000000000E+00  0.45593999997E+02  0.45594000000E+02  0.51100000000E-03 0.  1.
         11   -1    0    0    0    0 -0.00000000000E+00 -0.00000000000E+00 -0.45593999997E+02  0.45594000000E+02  0.51100000000E-03 0. -1.
    9900012    2    1    2    0    0  0.27666252596E+02 -0.93759618923E+01 -0.12782449823E+02  0.59301933802E+02  0.49999981350E+02 0.  0.
        -12    1    1    2    0    0 -0.27666252596E+02  0.93759618923E+01  0.12782449823E+02  0.31886066198E+02  0.00000000000E+00 0.  1.
         11    1    3    3    0    0  0.12345052372E+02 -0.83168079373E+01 -0.95948309658E+01  0.17709613035E+02  0.51100000000E-03 0. -1.
        -11    1    3    3    0    0 -0.85841617037E+01 -0.99157618568E+01 -0.83959383893E+01  0.15572474018E+02  0.51100000000E-03 0.  1.
         12    1    3    3    0    0  0.23905361928E+02  0.88566079018E+01  0.52083195322E+01  0.26019846748E+02  0.00000000000E+00 0. -1.
</event>
<event>
 7    1  0.3755162E-013  0.5930195E+02  0.7816164E-02  0.1266605E+00
        -11   -1    0    0    0    0  0.00000000000E+00  0.00000000000E+00  0.45593999997E+02  0.45594000000E+02  0.51100000000E-03 0.  1.
         11   -1    0    0    0    0 -0.00000000000E+00 -0.00000000000E+00 -0.45593999997E+02  0.45594000000E+02  0.51100000000E-03 0. -1.
    9900012    2    1    2    0    0  0.27699037844E+02  0.29302835521E+01  0.15520848178E+02  0.59301953093E+02  0.50000016532E+02 0.  0.
        -12    1    1    2    0    0 -0.27699037844E+02 -0.29302835521E+01 -0.15520848178E+02  0.31886046907E+02  0.00000000000E+00 0.  1.
         11    1    3    3    0    0  0.11031058520E+01 -0.91961932021E+01 -0.36370044464E+01  0.99506087017E+01  0.51100000000E-03 0. -1.
        -11    1    3    3    0    0  0.10454441479E+02 -0.47963138928E+01  0.22938936619E+02  0.25661153268E+02  0.51100000000E-03 0.  1.
         12    1    3    3    0    0  0.16141490513E+02  0.16922790647E+02 -0.37810839940E+01  0.23690191123E+02  0.00000000000E+00 0. -1.
</event>
<event>
 7    1  0.3755162E-013  0.5930194E+02  0.7816164E-02  0.1266605E+00
        -11   -1    0    0    0    0  0.00000000000E+00  0.00000000000E+00  0.45593999997E+02  0.45594000000E+02  0.51100000000E-03 0.  1.
         11   -1    0    0    0    0 -0.00000000000E+00 -0.00000000000E+00 -0.45593999997E+02  0.45594000000E+02  0.51100000000E-03 0. -1.
    9900012    2    1    2    0    0  0.23903419104E+02  0.11908272340E+02 -0.17422410260E+02  0.59301940754E+02  0.49999994029E+02 0.  0.
        -12    1    1    2    0    0 -0.23903419104E+02 -0.11908272340E+02  0.17422410260E+02  0.31886059246E+02  0.00000000000E+00 0.  1.
         11    1    3    3    0    0  0.12707489764E+01 -0.10585241270E+02 -0.12608019856E+02  0.16511338548E+02  0.51100000000E-03 0. -1.
        -11    1    3    3    0    0  0.62433265193E+01 -0.44773573004E+01  0.56546582717E+01  0.95394452068E+01  0.51100000000E-03 0.  1.
         12    1    3    3    0    0  0.16389343608E+02  0.26970870911E+02 -0.10469048676E+02  0.33251156999E+02  0.00000000000E+00 0. -1.
</event>
<event>
 7    1  0.3755162E-013  0.5930195E+02  0.7816164E-02  0.1266605E+00
        -11   -1    0    0    0    0  0.00000000000E+00  0.00000000000E+00  0.45593999997E+02  0.45594000000E+02  0.51100000000E-03 0. -1.
         11   -1    0    0    0    0 -0.00000000000E+00 -0.00000000000E+00 -0.45593999997E+02  0.45594000000E+02  0.51100000000E-03 0.  1.
    9900012    2    1    2    0    0  0.46330248209E+01 -0.29683936840E+02  0.10682646607E+02  0.59301953462E+02  0.50000017206E+02 0.  0.
        -12    1    1    2    0    0 -0.46330248209E+01  0.29683936840E+02 -0.10682646607E+02  0.31886046538E+02  0.00000000000E+00 0.  1.
         11    1    3    3    0    0  0.15458497809E+02 -0.22338347770E+02  0.16412055344E+02  0.31738344262E+02  0.51100000000E-03 0. -1.
        -11    1    3    3    0    0  0.13013747779E+01 -0.88084184429E+01 -0.11091837965E+02  0.14223595941E+02  0.51100000000E-03 0.  1.
        -12    1    3    3    0    0 -0.12126847766E+02  0.14628293733E+01  0.53624292285E+01  0.13340013259E+02  0.00000000000E+00 0.  1.
</event>
<event>
 7    1  0.3755162E-013  0.5930194E+02  0.7816164E-02  0.1266605E+00
        -11   -1    0    0    0    0  0.00000000000E+00  0.00000000000E+00  0.45593999997E+02  0.45594000000E+02  0.51100000000E-03 0.  1.
         11   -1    0    0    0    0 -0.00000000000E+00 -0.00000000000E+00 -0.45593999997E+02  0.45594000000E+02  0.51100000000E-03 0. -1.
    9900012    2    1    2    0    0  0.13542927864E+02 -0.27474484671E+02 -0.88579150737E+01  0.59301939369E+02  0.49999991504E+02 0.  0.
        -12    1    1    2    0    0 -0.13542927864E+02  0.27474484671E+02  0.88579150737E+01  0.31886060631E+02  0.00000000000E+00 0.  1.
         11    1    3    3    0    0  0.96424962174E+01  0.12880563811E+01 -0.13434610024E+02  0.16586909577E+02  0.51100000000E-03 0. -1.
        -11    1    3    3    0    0  0.83076350246E+01 -0.23393830724E+02 -0.98463834558E+01  0.26706541953E+02  0.51100000000E-03 0.  1.
        -12    1    3    3    0    0 -0.44072033777E+01 -0.53687103284E+01  0.14423078406E+02  0.16008487840E+02  0.00000000000E+00 0.  1.
</event>
<event>
 7    1  0.3755162E-013  0.5930203E+02  0.7816164E-02  0.1266604E+00
        -11   -1    0    0    0    0  0.00000000000E+00  0.00000000000E+00  0.45593999997E+02  0.45594000000E+02  0.51100000000E-03 0. -1.
         11   -1    0    0    0    0 -0.00000000000E+00 -0.00000000000E+00 -0.45593999997E+02  0.45594000000E+02  0.51100000000E-03 0.  1.
    9900012    2    1    2    0    0  0.26317655600E+02 -0.77497065979E+01  0.16249255855E+02  0.59302027152E+02  0.50000151599E+02 0.  0.
        -12    1    1    2    0    0 -0.26317655600E+02  0.77497065979E+01 -0.16249255855E+02  0.31885972848E+02  0.00000000000E+00 0.  1.
         11    1    3    3    0    0  0.67895388262E+01 -0.23388395638E+01  0.24197390509E+02  0.25240477723E+02  0.51100000000E-03 0. -1.
        -11    1    3    3    0    0  0.78493076784E+00 -0.11954546854E+01 -0.13881362526E+02  0.13954836225E+02  0.51100000000E-03 0.  1.
         12    1    3    3    0    0  0.18743186006E+02 -0.42154123487E+01  0.59332278725E+01  0.20106713205E+02  0.00000000000E+00 0. -1.
</event>
<event>
 7    1  0.3755162E-013  0.5930188E+02  0.7816164E-02  0.1266605E+00
        -11   -1    0    0    0    0  0.00000000000E+00  0.00000000000E+00  0.45593999997E+02  0.45594000000E+02  0.51100000000E-03 0.  1.
         11   -1    0    0    0    0 -0.00000000000E+00 -0.00000000000E+00 -0.45593999997E+02  0.45594000000E+02  0.51100000000E-03 0. -1.
    9900012    2    1    2    0    0 -0.23477132503E+02 -0.21280073903E+02 -0.35647011969E+01  0.59301884048E+02  0.49999890611E+02 0.  0.
        -12    1    1    2    0    0  0.23477132503E+02  0.21280073903E+02  0.35647011969E+01  0.31886115952E+02  0.00000000000E+00 0.  1.
         11    1    3    3    0    0 -0.14153595856E+02  0.77825357319E+01 -0.73448922292E+01  0.17743719458E+02  0.51100000000E-03 0. -1.
        -11    1    3    3    0    0 -0.17173582710E+02 -0.17144368577E+02  0.96661615240E+01  0.26120796233E+02  0.51100000000E-03 0.  1.
         12    1    3    3    0    0  0.78500460640E+01 -0.11918241059E+02 -0.58859704918E+01  0.15437368356E+02  0.00000000000E+00 0. -1.
</event>
<event>
 7    1  0.3755162E-013  0.5930194E+02  0.7816164E-02  0.1266605E+00
        -11   -1    0    0    0    0  0.00000000000E+00  0.00000000000E+00  0.45593999997E+02  0.45594000000E+02  0.51100000000E-03 0.  1.
         11   -1    0    0    0    0 -0.00000000000E+00 -0.00000000000E+00 -0.45593999997E+02  0.45594000000E+02  0.51100000000E-03 0. -1.
    9900012    2    1    2    0    0  0.82420214264E+01 -0.24420773706E+02 -0.18772732895E+02  0.59301943393E+02  0.49999998843E+02 0.  0.
        -12    1    1    2    0    0 -0.82420214264E+01  0.24420773706E+02  0.18772732895E+02  0.31886056607E+02  0.00000000000E+00 0.  1.
         11    1    3    3    0    0  0.42850258177E+01 -0.30695593982E+02 -0.95144598007E+01  0.32420763127E+02  0.51100000000E-03 0. -1.
        -11    1    3    3    0    0 -0.32163459405E+01 -0.37348249162E+01  0.56806519209E+01  0.75208779322E+01  0.51100000000E-03 0.  1.
        -12    1    3    3    0    0  0.71733415491E+01  0.10009645193E+02 -0.14938925015E+02  0.19360302334E+02  0.00000000000E+00 0.  1.
</event>
<event>
 7    1  0.3755162E-013  0.5930191E+02  0.7816164E-02  0.1266605E+00
        -11   -1    0    0    0    0  0.00000000000E+00  0.00000000000E+00  0.45593999997E+02  0.45594000000E+02  0.51100000000E-03 0.  1.
         11   -1    0    0    0    0 -0.00000000000E+00 -0.00000000000E+00 -0.45593999997E+02  0.45594000000E+02  0.51100000000E-03 0. -1.
    9900012    2    1    2    0    0  0.51144633527E+01 -0.20241512281E+02 -0.24100747245E+02  0.59301912555E+02  0.49999942601E+02 0.  0.
        -12    1    1    2    0    0 -0.51144633527E+01  0.20241512281E+02  0.24100747245E+02  0.31886087445E+02  0.00000000000E+00 0.  1.
         11    1    3    3    0    0  0.63962729919E+00 -0.54541597092E+01 -0.36247722807E+02  0.36661347359E+02  0.51100000000E-03 0. -1.
        -11    1    3    3    0    0  0.14549866477E+01 -0.59680189327E+01 -0.12995161164E+01  0.62787720554E+01  0.51100000000E-03 0.  1.
        -12    1    3    3    0    0  0.30198494058E+01 -0.88193336394E+01  0.13446491679E+02  0.16361793140E+02  0.00000000000E+00 0.  1.
</event>
<event>
 7    1  0.3755162E-013  0.5930195E+02  0.7816164E-02  0.1266605E+00
        -11   -1    0    0    0    0  0.00000000000E+00  0.00000000000E+00  0.45593999997E+02  0.45594000000E+02  0.51100000000E-03 0.  1.
         11   -1    0    0    0    0 -0.00000000000E+00 -0.00000000000E+00 -0.45593999997E+02  0.45594000000E+02  0.51100000000E-03 0. -1.
    9900012    2    1    2    0    0 -0.23481202795E+02  0.15557665378E+02 -0.14943636003E+02  0.59301951425E+02  0.50000013491E+02 0.  0.
        -12    1    1    2    0    0  0.23481202795E+02 -0.15557665378E+02  0.14943636003E+02  0.31886048575E+02  0.00000000000E+00 0.  1.
         11    1    3    3    0    0 -0.28273440945E+02 -0.31694275385E+01 -0.31676663281E+01  0.28626331306E+02  0.51100000000E-03 0. -1.
        -11    1    3    3    0    0  0.54659647407E+00 -0.40373124009E+01 -0.51944085960E+01  0.66015558812E+01  0.51100000000E-03 0.  1.
        -12    1    3    3    0    0  0.42456416759E+01  0.22764405318E+02 -0.65815610784E+01  0.24074064238E+02  0.00000000000E+00 0.  1.
</event>
<event>
 7    1  0.3755162E-013  0.5930183E+02  0.7816164E-02  0.1266605E+00
        -11   -1    0    0    0    0  0.00000000000E+00  0.00000000000E+00  0.45593999997E+02  0.45594000000E+02  0.51100000000E-03 0.  1.
         11   -1    0    0    0    0 -0.00000000000E+00 -0.00000000000E+00 -0.45593999997E+02  0.45594000000E+02  0.51100000000E-03 0. -1.
    9900012    2    1    2    0    0 -0.22091279121E+02 -0.15297690695E+02 -0.17166353623E+02  0.59301832929E+02  0.49999797381E+02 0.  0.
        -12    1    1    2    0    0  0.22091279121E+02  0.15297690695E+02  0.17166353623E+02  0.31886167071E+02  0.00000000000E+00 0.  1.
         11    1    3    3    0    0 -0.11142206103E+02  0.15311613199E+01 -0.96268338628E+01  0.14804362273E+02  0.51100000000E-03 0. -1.
        -11    1    3    3    0    0 -0.16247568093E+02 -0.23083314384E+02 -0.16221673971E+02  0.32557112565E+02  0.51100000000E-03 0.  1.
        -12    1    3    3    0    0  0.52984950745E+01  0.62544623689E+01  0.86821542116E+01  0.11940358091E+02  0.00000000000E+00 0.  1.
</event>
<event>
 7    1  0.3755162E-013  0.5930189E+02  0.7816164E-02  0.1266605E+00
        -11   -1    0    0    0    0  0.00000000000E+00  0.00000000000E+00  0.45593999997E+02  0.45594000000E+02  0.51100000000E-03 0. -1.
         11   -1    0    0    0    0 -0.00000000000E+00 -0.00000000000E+00 -0.45593999997E+02  0.45594000000E+02  0.51100000000E-03 0.  1.
    9900012    2    1    2    0    0  0.31820536200E+02 -0.13289342979E+01 -0.15527790750E+01  0.59301894668E+02  0.49999909979E+02 0.  0.
        -12    1    1    2    0    0 -0.31820536200E+02  0.13289342979E+01  0.15527790750E+01  0.31886105332E+02  0.00000000000E+00 0.  1.
         11    1    3    3    0    0  0.18781659071E+01  0.12450618355E+01  0.84136337181E+00  0.24053229998E+01  0.51100000000E-03 0. -1.
        -11    1    3    3    0    0  0.42614598380E+02  0.27494322803E+01  0.10891722982E+01  0.42717088730E+02  0.51100000000E-03 0.  1.
        -12    1    3    3    0    0 -0.12672228088E+02 -0.53234284137E+01 -0.34833147450E+01  0.14179482938E+02  0.00000000000E+00 0.  1.
</event>
<event>
 7    1  0.3755162E-013  0.5930195E+02  0.7816164E-02  0.1266605E+00
        -11   -1    0    0    0    0  0.00000000000E+00  0.00000000000E+00  0.45593999997E+02  0.45594000000E+02  0.51100000000E-03 0.  1.
         11   -1    0    0    0    0 -0.00000000000E+00 -0.00000000000E+00 -0.45593999997E+02  0.45594000000E+02  0.51100000000E-03 0. -1.
    9900012    2    1    2    0    0  0.13991278601E+02  0.26900606474E+02 -0.98651592212E+01  0.59301954901E+02  0.50000019831E+02 0.  0.
        -12    1    1    2    0    0 -0.13991278601E+02 -0.26900606474E+02  0.98651592212E+01  0.31886045099E+02  0.00000000000E+00 0.  1.
         11    1    3    3    0    0 -0.11343339146E+02 -0.92473989675E+00 -0.10453318980E+02  0.15453102110E+02  0.51100000000E-03 0. -1.
        -11    1    3    3    0    0  0.91866043908E+01  0.91008003834E+01 -0.10589437893E+02  0.16713900293E+02  0.51100000000E-03 0.  1.
        -12    1    3    3    0    0  0.16148013356E+02  0.18724545988E+02  0.11177597652E+02  0.27134952498E+02  0.00000000000E+00 0.  1.
</event>
<event>
 7    1  0.3755162E-013  0.5930188E+02  0.7816164E-02  0.1266605E+00
        -11   -1    0    0    0    0  0.00000000000E+00  0.00000000000E+00  0.45593999997E+02  0.45594000000E+02  0.51100000000E-03 0.  1.
         11   -1    0    0    0    0 -0.00000000000E+00 -0.00000000000E+00 -0.45593999997E+02  0.45594000000E+02  0.51100000000E-03 0. -1.
    9900012    2    1    2    0    0 -0.13653508980E+02 -0.28355606942E+02 -0.51250565660E+01  0.59301875160E+02  0.49999874402E+02 0.  0.
        -12    1    1    2    0    0  0.13653508980E+02  0.28355606942E+02  0.51250565660E+01  0.31886124840E+02  0.00000000000E+00 0.  1.
         11    1    3    3    0    0  0.16486838540E+01 -0.50692509772E+01 -0.20704741216E+02  0.21379938565E+02  0.51100000000E-03 0. -1.
        -11    1    3    3    0    0 -0.40709905917E+01 -0.15806680193E+02 -0.12269485319E+01  0.16368552352E+02  0.51100000000E-03 0.  1.
         12    1    3    3    0    0 -0.11231202242E+02 -0.74796757712E+01  0.16806633182E+02  0.21553384244E+02  0.00000000000E+00 0. -1.
</event>
<event>
 7    1  0.3755162E-013  0.5930196E+02  0.7816164E-02  0.1266605E+00
        -11   -1    0    0    0    0  0.00000000000E+00  0.00000000000E+00  0.45593999997E+02  0.45594000000E+02  0.51100000000E-03 0.  1.
         11   -1    0    0    0    0 -0.00000000000E+00 -0.00000000000E+00 -0.45593999997E+02  0.45594000000E+02  0.51100000000E-03 0. -1.
    9900012    2    1    2    0    0  0.28722256303E+02 -0.76026366392E+01  0.11573739010E+02  0.59301960332E+02  0.50000029735E+02 0.  0.
        -12    1    1    2    0    0 -0.28722256303E+02  0.76026366392E+01 -0.11573739010E+02  0.31886039668E+02  0.00000000000E+00 0.  1.
         11    1    3    3    0    0 -0.23461387004E+01  0.53821692070E+01  0.10745842762E+02  0.12245213314E+02  0.51100000000E-03 0.  1.
        -11    1    3    3    0    0  0.16006624180E+02 -0.21377956511E+02  0.87200796540E+01  0.28093928733E+02  0.51100000000E-03 0. -1.
         12    1    3    3    0    0  0.15061770823E+02  0.83931506648E+01 -0.78921834054E+01  0.18962818285E+02  0.00000000000E+00 0. -1.
</event>
<event>
 7    1  0.3755162E-013  0.5930178E+02  0.7816164E-02  0.1266605E+00
        -11   -1    0    0    0    0  0.00000000000E+00  0.00000000000E+00  0.45593999997E+02  0.45594000000E+02  0.51100000000E-03 0.  1.
         11   -1    0    0    0    0 -0.00000000000E+00 -0.00000000000E+00 -0.45593999997E+02  0.45594000000E+02  0.51100000000E-03 0. -1.
    9900012    2    1    2    0    0 -0.24312385687E+02 -0.20595483745E+02  0.12103343768E+01  0.59301781068E+02  0.49999702800E+02 0.  0.
        -12    1    1    2    0    0  0.24312385687E+02  0.20595483745E+02 -0.12103343768E+01  0.31886218932E+02  0.00000000000E+00 0.  1.
         11    1    3    3    0    0 -0.12459440693E+02 -0.23018422723E+02 -0.12364042023E+02  0.28947452089E+02  0.51100000000E-03 0. -1.
        -11    1    3    3    0    0 -0.78822180915E+01  0.49245390074E+01 -0.54401563937E+01  0.10769203700E+02  0.51100000000E-03 0.  1.
        -12    1    3    3    0    0 -0.39707269023E+01 -0.25016000290E+01  0.19014532794E+02  0.19585125279E+02  0.00000000000E+00 0.  1.
</event>
<event>
 7    1  0.3755162E-013  0.5930193E+02  0.7816164E-02  0.1266605E+00
        -11   -1    0    0    0    0  0.00000000000E+00  0.00000000000E+00  0.45593999997E+02  0.45594000000E+02  0.51100000000E-03 0. -1.
         11   -1    0    0    0    0 -0.00000000000E+00 -0.00000000000E+00 -0.45593999997E+02  0.45594000000E+02  0.51100000000E-03 0.  1.
    9900012    2    1    2    0    0 -0.25409333857E+02 -0.18977133509E+02  0.33099319754E+01  0.59301929484E+02  0.49999973476E+02 0.  0.
        -12    1    1    2    0    0  0.25409333857E+02  0.18977133509E+02 -0.33099319754E+01  0.31886070516E+02  0.00000000000E+00 0.  1.
         11    1    3    3    0    0 -0.23617120658E+02 -0.38280392914E+00  0.15467624825E+02  0.28234063559E+02  0.51100000000E-03 0. -1.
        -11    1    3    3    0    0  0.31147307044E+01  0.30322484577E+01  0.19713280571E+01  0.47730716148E+01  0.51100000000E-03 0.  1.
        -12    1    3    3    0    0 -0.49069439031E+01 -0.21626578037E+02 -0.14129020907E+02  0.26294794311E+02  0.00000000000E+00 0.  1.
</event>
<event>
 7    1  0.3755162E-013  0.5930196E+02  0.7816164E-02  0.1266605E+00
        -11   -1    0    0    0    0  0.00000000000E+00  0.00000000000E+00  0.45593999997E+02  0.45594000000E+02  0.51100000000E-03 0.  1.
         11   -1    0    0    0    0 -0.00000000000E+00 -0.00000000000E+00 -0.45593999997E+02  0.45594000000E+02  0.51100000000E-03 0. -1.
    9900012    2    1    2    0    0  0.16574038949E+02  0.86538102324E+01 -0.25828900289E+02  0.59301964047E+02  0.50000036510E+02 0.  0.
        -12    1    1    2    0    0 -0.16574038949E+02 -0.86538102324E+01  0.25828900289E+02  0.31886035953E+02  0.00000000000E+00 0.  1.
         11    1    3    3    0    0 -0.12799251968E+00 -0.49916819210E+01 -0.44766855916E+00  0.50133499664E+01  0.51100000000E-03 0. -1.
        -11    1    3    3    0    0  0.38217494519E+01  0.28237281083E+02 -0.16050495610E+02  0.32704253873E+02  0.51100000000E-03 0.  1.
         12    1    3    3    0    0  0.12880282017E+02 -0.14591788930E+02 -0.93307361206E+01  0.21584360207E+02  0.00000000000E+00 0. -1.
</event>
<event>
 7    1  0.3755162E-013  0.5930194E+02  0.7816164E-02  0.1266605E+00
        -11   -1    0    0    0    0  0.00000000000E+00  0.00000000000E+00  0.45593999997E+02  0.45594000000E+02  0.51100000000E-03 0.  1.
         11   -1    0    0    0    0 -0.00000000000E+00 -0.00000000000E+00 -0.45593999997E+02  0.45594000000E+02  0.51100000000E-03 0. -1.
    9900012    2    1    2    0    0  0.11130226475E+02 -0.11811754215E+02 -0.27446695997E+02  0.59301943484E+02  0.49999999008E+02 0.  0.
        -12    1    1    2    0    0 -0.11130226475E+02  0.11811754215E+02  0.27446695997E+02  0.31886056516E+02  0.00000000000E+00 0.  1.
         11    1    3    3    0    0  0.35166934940E+01  0.63030276528E+01 -0.10771945865E+01  0.72976461383E+01  0.51100000000E-03 0. -1.
        -11    1    3    3    0    0  0.15201762150E+01  0.10299248885E+02  0.28504070145E+01  0.10793992946E+02  0.51100000000E-03 0.  1.
         12    1    3    3    0    0  0.60933567657E+01 -0.28414030753E+02 -0.29219908425E+02  0.41210304399E+02  0.00000000000E+00 0. -1.
</event>
<event>
 7    1  0.3755162E-013  0.5930194E+02  0.7816164E-02  0.1266605E+00
        -11   -1    0    0    0    0  0.00000000000E+00  0.00000000000E+00  0.45593999997E+02  0.45594000000E+02  0.51100000000E-03 0. -1.
         11   -1    0    0    0    0 -0.00000000000E+00 -0.00000000000E+00 -0.45593999997E+02  0.45594000000E+02  0.51100000000E-03 0.  1.
    9900012    2    1    2    0    0 -0.33631652792E+01  0.19968553664E+02 -0.24630602385E+02  0.59301943643E+02  0.49999999299E+02 0.  0.
        -12    1    1    2    0    0  0.33631652792E+01 -0.19968553664E+02  0.24630602385E+02  0.31886056357E+02  0.00000000000E+00 0.  1.
         11    1    3    3    0    0 -0.16257299181E+02  0.86916971895E+01 -0.12828563818E+02  0.22459239225E+02  0.51100000000E-03 0. -1.
        -11    1    3    3    0    0  0.31407001830E+01  0.45273720112E+00  0.10072155350E+02  0.10560174348E+02  0.51100000000E-03 0.  1.
         12    1    3    3    0    0  0.97534337187E+01  0.10824119273E+02 -0.21874193917E+02  0.26282530070E+02  0.00000000000E+00 0. -1.
</event>
<event>
 7    1  0.3755162E-013  0.5930195E+02  0.7816164E-02  0.1266605E+00
        -11   -1    0    0    0    0  0.00000000000E+00  0.00000000000E+00  0.45593999997E+02  0.45594000000E+02  0.51100000000E-03 0. -1.
         11   -1    0    0    0    0 -0.00000000000E+00 -0.00000000000E+00 -0.45593999997E+02  0.45594000000E+02  0.51100000000E-03 0.  1.
    9900012    2    1    2    0    0 -0.24085850958E+02 -0.20488876887E+01  0.20794081923E+02  0.59301952893E+02  0.50000016167E+02 0.  0.
        -12    1    1    2    0    0  0.24085850958E+02  0.20488876887E+01 -0.20794081923E+02  0.31886047107E+02  0.00000000000E+00 0.  1.
         11    1    3    3    0    0 -0.29359372339E+02  0.17024282439E+01  0.29583401590E+01  0.29557110529E+02  0.51100000000E-03 0. -1.
        -11    1    3    3    0    0 -0.85919180165E+01 -0.17251041060E+00  0.10764919277E+02  0.13774407513E+02  0.51100000000E-03 0.  1.
        -12    1    3    3    0    0  0.13865439398E+02 -0.35788055220E+01  0.70708224870E+01  0.15970434850E+02  0.00000000000E+00 0.  1.
</event>
<event>
 7    1  0.3755162E-013  0.5930188E+02  0.7816164E-02  0.1266605E+00
        -11   -1    0    0    0    0  0.00000000000E+00  0.00000000000E+00  0.45593999997E+02  0.45594000000E+02  0.51100000000E-03 0. -1.
         11   -1    0    0    0    0 -0.00000000000E+00 -0.00000000000E+00 -0.45593999997E+02  0.45594000000E+02  0.51100000000E-03 0.  1.
    9900012    2    1    2    0    0  0.44805758104E+00 -0.12148423287E+02  0.29477782052E+02  0.59301881097E+02  0.49999885230E+02 0.  0.
        -12    1    1    2    0    0 -0.44805758104E+00  0.12148423287E+02 -0.29477782052E+02  0.31886118903E+02  0.00000000000E+00 0.  1.
         11    1    3    3    0    0 -0.53613826375E+00  0.12430382809E+01 -0.30458246265E+01  0.33331121076E+01  0.51100000000E-03 0. -1.
        -11    1    3    3    0    0 -0.13802425056E+02 -0.84014795783E+01 -0.36560989171E+01  0.16566799814E+02  0.51100000000E-03 0.  1.
         12    1    3    3    0    0  0.14786620901E+02 -0.49899819893E+01  0.36179705596E+02  0.39401969176E+02  0.00000000000E+00 0. -1.
</event>
<event>
 7    1  0.3755162E-013  0.5930188E+02  0.7816164E-02  0.1266605E+00
        -11   -1    0    0    0    0  0.00000000000E+00  0.00000000000E+00  0.45593999997E+02  0.45594000000E+02  0.51100000000E-03 0. -1.
         11   -1    0    0    0    0 -0.00000000000E+00 -0.00000000000E+00 -0.45593999997E+02  0.45594000000E+02  0.51100000000E-03 0.  1.
    9900012    2    1    2    0    0  0.41297775122E+01 -0.31599745501E+02  0.10608294623E+01  0.59301884884E+02  0.49999892136E+02 0.  0.
        -12    1    1    2    0    0 -0.41297775122E+01  0.31599745501E+02 -0.10608294623E+01  0.31886115116E+02  0.00000000000E+00 0.  1.
         11    1    3    3    0    0  0.42258577342E+01  0.18966146661E+01 -0.97850974389E+01  0.10826040501E+02  0.51100000000E-03 0. -1.
        -11    1    3    3    0    0  0.62204537070E+01  0.47523993339E+01 -0.11119247743E+01  0.79066883532E+01  0.51100000000E-03 0.  1.
         12    1    3    3    0    0 -0.63165339290E+01 -0.38248759501E+02  0.11957851675E+02  0.40569156030E+02  0.00000000000E+00 0. -1.
</event>
<event>
 7    1  0.3755162E-013  0.5930192E+02  0.7816164E-02  0.1266605E+00
        -11   -1    0    0    0    0  0.00000000000E+00  0.00000000000E+00  0.45593999997E+02  0.45594000000E+02  0.51100000000E-03 0. -1.
         11   -1    0    0    0    0 -0.00000000000E+00 -0.00000000000E+00 -0.45593999997E+02  0.45594000000E+02  0.51100000000E-03 0.  1.
    9900012    2    1    2    0    0 -0.25971938904E+02 -0.75349613317E+01  0.16893929622E+02  0.59301919796E+02  0.49999955807E+02 0.  0.
        -12    1    1    2    0    0  0.25971938904E+02  0.75349613317E+01 -0.16893929622E+02  0.31886080204E+02  0.00000000000E+00 0.  1.
         11    1    3    3    0    0 -0.30545499766E+02  0.96771693831E+00  0.20057980979E+02  0.36555254523E+02  0.51100000000E-03 0. -1.
        -11    1    3    3    0    0 -0.65174597290E+01  0.16967998657E+01  0.16399837972E+01  0.69315191855E+01  0.51100000000E-03 0.  1.
        -12    1    3    3    0    0  0.11091020592E+02 -0.10199478136E+02 -0.48040351537E+01  0.15815146087E+02  0.00000000000E+00 0.  1.
</event>
<event>
 7    1  0.3755162E-013  0.5930196E+02  0.7816164E-02  0.1266605E+00
        -11   -1    0    0    0    0  0.00000000000E+00  0.00000000000E+00  0.45593999997E+02  0.45594000000E+02  0.51100000000E-03 0.  1.
         11   -1    0    0    0    0 -0.00000000000E+00 -0.00000000000E+00 -0.45593999997E+02  0.45594000000E+02  0.51100000000E-03 0. -1.
    9900012    2    1    2    0    0  0.17402620406E+01 -0.30519230691E+02 -0.90701543372E+01  0.59301958326E+02  0.50000026076E+02 0.  0.
        -12    1    1    2    0    0 -0.17402620406E+01  0.30519230691E+02  0.90701543372E+01  0.31886041674E+02  0.00000000000E+00 0.  1.
         11    1    3    3    0    0 -0.89119351625E+01 -0.13425658050E+01  0.23905783065E+01  0.93241587385E+01  0.51100000000E-03 0.  1.
        -11    1    3    3    0    0  0.21981249976E+02 -0.28133604740E+02 -0.30562540728E+01  0.35833165578E+02  0.51100000000E-03 0. -1.
         12    1    3    3    0    0 -0.11329052773E+02 -0.10430601465E+01 -0.84044785709E+01  0.14144634009E+02  0.00000000000E+00 0. -1.
</event>
<event>
 7    1  0.3755162E-013  0.5930192E+02  0.7816164E-02  0.1266605E+00
        -11   -1    0    0    0    0  0.00000000000E+00  0.00000000000E+00  0.45593999997E+02  0.45594000000E+02  0.51100000000E-03 0. -1.
         11   -1    0    0    0    0 -0.00000000000E+00 -0.00000000000E+00 -0.45593999997E+02  0.45594000000E+02  0.51100000000E-03 0.  1.
    9900012    2    1    2    0    0  0.10818836418E+02 -0.51414028261E+01  0.29550653821E+02  0.59301915484E+02  0.49999947944E+02 0.  0.
        -12    1    1    2    0    0 -0.10818836418E+02  0.51414028261E+01 -0.29550653821E+02  0.31886084516E+02  0.00000000000E+00 0.  1.
         11    1    3    3    0    0  0.15383552728E+02  0.12563509082E+02 -0.85110577934E+00  0.19880136727E+02  0.51100000000E-03 0.  1.
        -11    1    3    3    0    0 -0.54302460851E+01  0.20719752648E+00  0.14385901074E+02  0.15378057528E+02  0.51100000000E-03 0. -1.
        -12    1    3    3    0    0  0.86552977537E+00 -0.17912109435E+02  0.16015858526E+02  0.24043721229E+02  0.00000000000E+00 0.  1.
</event>
<event>
 7    1  0.3755162E-013  0.5930195E+02  0.7816164E-02  0.1266605E+00
        -11   -1    0    0    0    0  0.00000000000E+00  0.00000000000E+00  0.45593999997E+02  0.45594000000E+02  0.51100000000E-03 0.  1.
         11   -1    0    0    0    0 -0.00000000000E+00 -0.00000000000E+00 -0.45593999997E+02  0.45594000000E+02  0.51100000000E-03 0. -1.
    9900012    2    1    2    0    0  0.21860981906E+02  0.18540791768E+02  0.13966275163E+02  0.59301947701E+02  0.50000006699E+02 0.  0.
        -12    1    1    2    0    0 -0.21860981906E+02 -0.18540791768E+02 -0.13966275163E+02  0.31886052299E+02  0.00000000000E+00 0.  1.
         11    1    3    3    0    0 -0.28272098454E+01  0.15528599088E+02  0.18578303212E+01  0.15892829795E+02  0.51100000000E-03 0. -1.
        -11    1    3    3    0    0  0.25586670666E+01  0.15300622579E+02  0.39582020250E+00  0.15518134629E+02  0.51100000000E-03 0.  1.
         12    1    3    3    0    0  0.22129524685E+02 -0.12288429900E+02  0.11712624639E+02  0.27890983276E+02  0.00000000000E+00 0. -1.
</event>
<event>
 7    1  0.3755162E-013  0.5930195E+02  0.7816164E-02  0.1266605E+00
        -11   -1    0    0    0    0  0.00000000000E+00  0.00000000000E+00  0.45593999997E+02  0.45594000000E+02  0.51100000000E-03 0.  1.
         11   -1    0    0    0    0 -0.00000000000E+00 -0.00000000000E+00 -0.45593999997E+02  0.45594000000E+02  0.51100000000E-03 0. -1.
    9900012    2    1    2    0    0  0.75844347410E+01 -0.20141609561E+02 -0.23526834015E+02  0.59301952819E+02  0.50000016033E+02 0.  0.
        -12    1    1    2    0    0 -0.75844347410E+01  0.20141609561E+02  0.23526834015E+02  0.31886047181E+02  0.00000000000E+00 0.  1.
         11    1    3    3    0    0  0.18940400311E+02 -0.16405312514E+01 -0.15108705380E+02  0.24283802941E+02  0.51100000000E-03 0. -1.
        -11    1    3    3    0    0  0.73639872446E+01 -0.38008272491E+01  0.27431272865E+01  0.87292235329E+01  0.51100000000E-03 0.  1.
         12    1    3    3    0    0 -0.18719952815E+02 -0.14700251061E+02 -0.11161255922E+02  0.26288926345E+02  0.00000000000E+00 0. -1.
</event>
<event>
 7    1  0.3755162E-013  0.5930192E+02  0.7816164E-02  0.1266605E+00
        -11   -1    0    0    0    0  0.00000000000E+00  0.00000000000E+00  0.45593999997E+02  0.45594000000E+02  0.51100000000E-03 0. -1.
         11   -1    0    0    0    0 -0.00000000000E+00 -0.00000000000E+00 -0.45593999997E+02  0.45594000000E+02  0.51100000000E-03 0.  1.
    9900012    2    1    2    0    0  0.16052722958E+00 -0.49766740677E+01  0.31494900658E+02  0.59301924336E+02  0.49999964087E+02 0.  0.
        -12    1    1    2    0    0 -0.16052722958E+00  0.49766740677E+01 -0.31494900658E+02  0.31886075664E+02  0.00000000000E+00 0.  1.
         11    1    3    3    0    0  0.45048342028E+01  0.16718881982E+02  0.11585399985E+02  0.20833531601E+02  0.51100000000E-03 0. -1.
        -11    1    3    3    0    0  0.31746162106E+01  0.38929235345E+01 -0.26033273398E+00  0.50299915630E+01  0.51100000000E-03 0.  1.
        -12    1    3    3    0    0 -0.75189231838E+01 -0.25588479584E+02  0.20169833408E+02  0.33438401172E+02  0.00000000000E+00 0.  1.
</event>
<event>
 7    1  0.3755162E-013  0.5930195E+02  0.7816164E-02  0.1266605E+00
        -11   -1    0    0    0    0  0.00000000000E+00  0.00000000000E+00  0.45593999997E+02  0.45594000000E+02  0.51100000000E-03 0. -1.
         11   -1    0    0    0    0 -0.00000000000E+00 -0.00000000000E+00 -0.45593999997E+02  0.45594000000E+02  0.51100000000E-03 0.  1.
    9900012    2    1    2    0    0 -0.25198541217E+02  0.13962198601E+02  0.13667876854E+02  0.59301947768E+02  0.50000006822E+02 0.  0.
        -12    1    1    2    0    0  0.25198541217E+02 -0.13962198601E+02 -0.13667876854E+02  0.31886052232E+02  0.00000000000E+00 0.  1.
         11    1    3    3    0    0 -0.26905497565E+02  0.15408167935E+02  0.28142500068E+02  0.41872637231E+02  0.51100000000E-03 0. -1.
        -11    1    3    3    0    0 -0.50113866547E+00 -0.35550573342E+01 -0.11658778839E+01  0.37747641135E+01  0.51100000000E-03 0.  1.
        -12    1    3    3    0    0  0.22080950136E+01  0.21090879997E+01 -0.13308745330E+02  0.13654546424E+02  0.00000000000E+00 0.  1.
</event>
<event>
 7    1  0.3755162E-013  0.5930197E+02  0.7816164E-02  0.1266605E+00
        -11   -1    0    0    0    0  0.00000000000E+00  0.00000000000E+00  0.45593999997E+02  0.45594000000E+02  0.51100000000E-03 0.  1.
         11   -1    0    0    0    0 -0.00000000000E+00 -0.00000000000E+00 -0.45593999997E+02  0.45594000000E+02  0.51100000000E-03 0. -1.
    9900012    2    1    2    0    0 -0.20169017792E+02  0.20672621799E+02  0.13511936099E+02  0.59301968765E+02  0.50000045116E+02 0.  0.
        -12    1    1    2    0    0  0.20169017792E+02 -0.20672621799E+02 -0.13511936099E+02  0.31886031235E+02  0.00000000000E+00 0.  1.
         11    1    3    3    0    0 -0.28178536830E+02  0.12698229714E+02 -0.38954805844E+01  0.31152042389E+02  0.51100000000E-03 0. -1.
        -11    1    3    3    0    0 -0.33981086169E+01  0.75237278000E+01  0.13970293859E+02  0.16227221973E+02  0.51100000000E-03 0.  1.
        -12    1    3    3    0    0  0.11407627654E+02  0.45066428500E+00  0.34371228236E+01  0.11922704404E+02  0.00000000000E+00 0.  1.
</event>
<event>
 7    1  0.3755162E-013  0.5930194E+02  0.7816164E-02  0.1266605E+00
        -11   -1    0    0    0    0  0.00000000000E+00  0.00000000000E+00  0.45593999997E+02  0.45594000000E+02  0.51100000000E-03 0.  1.
         11   -1    0    0    0    0 -0.00000000000E+00 -0.00000000000E+00 -0.45593999997E+02  0.45594000000E+02  0.51100000000E-03 0. -1.
    9900012    2    1    2    0    0  0.16314031798E+02 -0.42570815144E+01 -0.27063821222E+02  0.59301940418E+02  0.49999993417E+02 0.  0.
        -12    1    1    2    0    0 -0.16314031798E+02  0.42570815144E+01  0.27063821222E+02  0.31886059582E+02  0.00000000000E+00 0.  1.
         11    1    3    3    0    0 -0.28438291559E+00  0.96979045833E+00  0.34427933447E+01  0.35880626320E+01  0.51100000000E-03 0. -1.
        -11    1    3    3    0    0  0.15135997429E+02  0.15575386954E+02 -0.41603964196E+01  0.22113344287E+02  0.51100000000E-03 0.  1.
         12    1    3    3    0    0  0.14624172851E+01 -0.20802258927E+02 -0.26346218147E+02  0.33600533499E+02  0.00000000000E+00 0. -1.
</event>
<event>
 7    1  0.3755162E-013  0.5930197E+02  0.7816164E-02  0.1266605E+00
        -11   -1    0    0    0    0  0.00000000000E+00  0.00000000000E+00  0.45593999997E+02  0.45594000000E+02  0.51100000000E-03 0. -1.
         11   -1    0    0    0    0 -0.00000000000E+00 -0.00000000000E+00 -0.45593999997E+02  0.45594000000E+02  0.51100000000E-03 0.  1.
    9900012    2    1    2    0    0  0.11056482087E+02  0.23571777477E+02  0.18407728727E+02  0.59301969102E+02  0.50000045729E+02 0.  0.
        -12    1    1    2    0    0 -0.11056482087E+02 -0.23571777477E+02 -0.18407728727E+02  0.31886030898E+02  0.00000000000E+00 0.  1.
         11    1    3    3    0    0  0.14744019503E+02  0.22372145866E+02  0.80667415280E+01  0.27981625059E+02  0.51100000000E-03 0. -1.
        -11    1    3    3    0    0  0.95631641462E+01  0.31092845629E+01 -0.47717726267E+01  0.11130659156E+02  0.51100000000E-03 0.  1.
         12    1    3    3    0    0 -0.13250701563E+02 -0.19096529524E+01  0.15112759826E+02  0.20189684887E+02  0.00000000000E+00 0. -1.
</event>
<event>
 7    1  0.3755162E-013  0.5930193E+02  0.7816164E-02  0.1266605E+00
        -11   -1    0    0    0    0  0.00000000000E+00  0.00000000000E+00  0.45593999997E+02  0.45594000000E+02  0.51100000000E-03 0. -1.
         11   -1    0    0    0    0 -0.00000000000E+00 -0.00000000000E+00 -0.45593999997E+02  0.45594000000E+02  0.51100000000E-03 0.  1.
    9900012    2    1    2    0    0  0.84042583703E+01  0.23819896043E+02  0.19460276569E+02  0.59301931406E+02  0.49999976981E+02 0.  0.
        -12    1    1    2    0    0 -0.84042583703E+01 -0.23819896043E+02 -0.19460276569E+02  0.31886068594E+02  0.00000000000E+00 0.  1.
         11    1    3    3    0    0  0.25901487837E+02  0.17480225827E+02  0.15259650214E+02  0.34775023970E+02  0.51100000000E-03 0. -1.
        -11    1    3    3    0    0 -0.13305793611E+02  0.10200997900E+02  0.70105924112E+01  0.18172861855E+02  0.51100000000E-03 0.  1.
        -12    1    3    3    0    0 -0.41914358560E+01 -0.38613276837E+01 -0.28099660567E+01  0.63540455818E+01  0.00000000000E+00 0.  1.
</event>
<event>
 7    1  0.3755162E-013  0.5930197E+02  0.7816164E-02  0.1266605E+00
        -11   -1    0    0    0    0  0.00000000000E+00  0.00000000000E+00  0.45593999997E+02  0.45594000000E+02  0.51100000000E-03 0.  1.
         11   -1    0    0    0    0 -0.00000000000E+00 -0.00000000000E+00 -0.45593999997E+02  0.45594000000E+02  0.51100000000E-03 0. -1.
    9900012    2    1    2    0    0 -0.68457832574E+01  0.29209440223E+02 -0.10801059809E+02  0.59301967955E+02  0.50000043638E+02 0.  0.
        -12    1    1    2    0    0  0.68457832574E+01 -0.29209440223E+02  0.10801059809E+02  0.31886032045E+02  0.00000000000E+00 0.  1.
         11    1    3    3    0    0 -0.38720992128E+01  0.87572597932E+01  0.30574871022E+01  0.10051416768E+02  0.51100000000E-03 0. -1.
        -11    1    3    3    0    0  0.16521449499E+02  0.15552238158E+02  0.31644520451E+01  0.22909477564E+02  0.51100000000E-03 0.  1.
        -12    1    3    3    0    0 -0.19495133543E+02  0.48999422727E+01 -0.17022998956E+02  0.26341073623E+02  0.00000000000E+00 0.  1.
</event>
<event>
 7    1  0.3755162E-013  0.5930196E+02  0.7816164E-02  0.1266605E+00
        -11   -1    0    0    0    0  0.00000000000E+00  0.00000000000E+00  0.45593999997E+02  0.45594000000E+02  0.51100000000E-03 0.  1.
         11   -1    0    0    0    0 -0.00000000000E+00 -0.00000000000E+00 -0.45593999997E+02  0.45594000000E+02  0.51100000000E-03 0. -1.
    9900012    2    1    2    0    0  0.29784997935E+02 -0.36091076258E+01  0.10795723688E+02  0.59301962150E+02  0.50000033050E+02 0.  0.
        -12    1    1    2    0    0 -0.29784997935E+02  0.36091076258E+01 -0.10795723688E+02  0.31886037850E+02  0.00000000000E+00 0.  1.
         11    1    3    3    0    0  0.29865190482E+02  0.10819828456E+01  0.20655584270E+02  0.36328411075E+02  0.51100000000E-03 0. -1.
        -11    1    3    3    0    0  0.15250549385E+01  0.27215399531E+01  0.52271911323E+01  0.60873721486E+01  0.51100000000E-03 0.  1.
         12    1    3    3    0    0 -0.16052474855E+01 -0.74126304244E+01 -0.15087051715E+02  0.16886178927E+02  0.00000000000E+00 0. -1.
</event>
<event>
 7    1  0.3755162E-013  0.5930195E+02  0.7816164E-02  0.1266605E+00
        -11   -1    0    0    0    0  0.00000000000E+00  0.00000000000E+00  0.45593999997E+02  0.45594000000E+02  0.51100000000E-03 0.  1.
         11   -1    0    0    0    0 -0.00000000000E+00 -0.00000000000E+00 -0.45593999997E+02  0.45594000000E+02  0.51100000000E-03 0. -1.
    9900012    2    1    2    0    0  0.13881288808E+02 -0.13418737930E+02 -0.25376513322E+02  0.59301950778E+02  0.50000012311E+02 0.  0.
        -12    1    1    2    0    0 -0.13881288808E+02  0.13418737930E+02  0.25376513322E+02  0.31886049222E+02  0.00000000000E+00 0.  1.
         11    1    3    3    0    0  0.86019914225E+01  0.34963198268E+01 -0.28430001576E+02  0.29907916990E+02  0.51100000000E-03 0. -1.
        -11    1    3    3    0    0 -0.79639988536E+01 -0.65018103943E+00 -0.93047545604E+00  0.80444886699E+01  0.51100000000E-03 0.  1.
        -12    1    3    3    0    0  0.13243296239E+02 -0.16264876718E+02  0.39839637104E+01  0.21349545118E+02  0.00000000000E+00 0.  1.
</event>
<event>
 7    1  0.3755162E-013  0.5930186E+02  0.7816164E-02  0.1266605E+00
        -11   -1    0    0    0    0  0.00000000000E+00  0.00000000000E+00  0.45593999997E+02  0.45594000000E+02  0.51100000000E-03 0.  1.
         11   -1    0    0    0    0 -0.00000000000E+00 -0.00000000000E+00 -0.45593999997E+02  0.45594000000E+02  0.51100000000E-03 0. -1.
    9900012    2    1    2    0    0  0.24866028333E+02 -0.86446142736E+01 -0.17991029279E+02  0.59301861075E+02  0.49999848714E+02 0.  0.
        -12    1    1    2    0    0 -0.24866028333E+02  0.86446142736E+01  0.17991029279E+02  0.31886138925E+02  0.00000000000E+00 0.  1.
         11    1    3    3    0    0 -0.73515345591E+01 -0.93095635904E+01 -0.42723872677E+01  0.12608184954E+02  0.51100000000E-03 0.  1.
        -11    1    3    3    0    0  0.20293008520E+02 -0.14276267103E+02 -0.36215560461E+01  0.25074562123E+02  0.51100000000E-03 0. -1.
         12    1    3    3    0    0  0.11924554372E+02  0.14941216420E+02 -0.10097085966E+02  0.21619113998E+02  0.00000000000E+00 0. -1.
</event>
<event>
 7    1  0.3755162E-013  0.5930196E+02  0.7816164E-02  0.1266605E+00
        -11   -1    0    0    0    0  0.00000000000E+00  0.00000000000E+00  0.45593999997E+02  0.45594000000E+02  0.51100000000E-03 0.  1.
         11   -1    0    0    0    0 -0.00000000000E+00 -0.00000000000E+00 -0.45593999997E+02  0.45594000000E+02  0.51100000000E-03 0. -1.
    9900012    2    1    2    0    0 -0.10709247149E+02 -0.13308873992E+02 -0.26924070883E+02  0.59301957687E+02  0.50000024912E+02 0.  0.
        -12    1    1    2    0    0  0.10709247149E+02  0.13308873992E+02  0.26924070883E+02  0.31886042313E+02  0.00000000000E+00 0.  1.
         11    1    3    3    0    0 -0.44927076335E+01 -0.80859620429E+01 -0.47262311272E+01  0.10387707397E+02  0.51100000000E-03 0. -1.
        -11    1    3    3    0    0  0.63837794044E+01 -0.15585507935E+02  0.46731919003E+01  0.17478541697E+02  0.51100000000E-03 0.  1.
        -12    1    3    3    0    0 -0.12600318920E+02  0.10362595985E+02 -0.26871031657E+02  0.31435708593E+02  0.00000000000E+00 0.  1.
</event>
<event>
 7    1  0.3755162E-013  0.5930174E+02  0.7816164E-02  0.1266605E+00
        -11   -1    0    0    0    0  0.00000000000E+00  0.00000000000E+00  0.45593999997E+02  0.45594000000E+02  0.51100000000E-03 0. -1.
         11   -1    0    0    0    0 -0.00000000000E+00 -0.00000000000E+00 -0.45593999997E+02  0.45594000000E+02  0.51100000000E-03 0.  1.
    9900012    2    1    2    0    0  0.29649041367E+02  0.11123014746E+02  0.37345079146E+01  0.59301738690E+02  0.49999625511E+02 0.  0.
        -12    1    1    2    0    0 -0.29649041367E+02 -0.11123014746E+02 -0.37345079146E+01  0.31886261310E+02  0.00000000000E+00 0.  1.
         11    1    3    3    0    0  0.15266346362E+02  0.12164648411E+02  0.16425175171E+01  0.19589228322E+02  0.51100000000E-03 0. -1.
        -11    1    3    3    0    0  0.98172761693E+00  0.12422694832E+02 -0.11015899960E+02  0.16632413781E+02  0.51100000000E-03 0.  1.
         12    1    3    3    0    0  0.13400967388E+02 -0.13464328497E+02  0.13107890357E+02  0.23080096586E+02  0.00000000000E+00 0. -1.
</event>
<event>
 7    1  0.3755162E-013  0.5930194E+02  0.7816164E-02  0.1266605E+00
        -11   -1    0    0    0    0  0.00000000000E+00  0.00000000000E+00  0.45593999997E+02  0.45594000000E+02  0.51100000000E-03 0. -1.
         11   -1    0    0    0    0 -0.00000000000E+00 -0.00000000000E+00 -0.45593999997E+02  0.45594000000E+02  0.51100000000E-03 0.  1.
    9900012    2    1    2    0    0  0.27454119543E+02  0.15736720379E+02 -0.39175967616E+01  0.59301943290E+02  0.49999998654E+02 0.  0.
        -12    1    1    2    0    0 -0.27454119543E+02 -0.15736720379E+02  0.39175967616E+01  0.31886056710E+02  0.00000000000E+00 0.  1.
         11    1    3    3    0    0  0.66388532090E+01  0.27305122046E+01 -0.13951332831E+02  0.15689797858E+02  0.51100000000E-03 0. -1.
        -11    1    3    3    0    0  0.53841302342E+01  0.43151346417E+01 -0.12904008502E+02  0.14632931389E+02  0.51100000000E-03 0.  1.
         12    1    3    3    0    0  0.15431136100E+02  0.86910735327E+01  0.22937744571E+02  0.28979214042E+02  0.00000000000E+00 0. -1.
</event>
<event>
 7    1  0.3755162E-013  0.5930196E+02  0.7816164E-02  0.1266605E+00
        -11   -1    0    0    0    0  0.00000000000E+00  0.00000000000E+00  0.45593999997E+02  0.45594000000E+02  0.51100000000E-03 0.  1.
         11   -1    0    0    0    0 -0.00000000000E+00 -0.00000000000E+00 -0.45593999997E+02  0.45594000000E+02  0.51100000000E-03 0. -1.
    9900012    2    1    2    0    0 -0.91862846961E+01 -0.29448671584E+02 -0.80689136992E+01  0.59301961474E+02  0.50000031818E+02 0.  0.
        -12    1    1    2    0    0  0.91862846961E+01  0.29448671584E+02  0.80689136992E+01  0.31886038526E+02  0.00000000000E+00 0.  1.
         11    1    3    3    0    0  0.82651895203E+00 -0.49611970565E+00 -0.49759951600E+01  0.50685102776E+01  0.51100000000E-03 0. -1.
        -11    1    3    3    0    0  0.15538845901E+01  0.11513250675E+02 -0.35387466496E+01  0.12144637769E+02  0.51100000000E-03 0.  1.
         12    1    3    3    0    0 -0.11566688238E+02 -0.40465802553E+02  0.44582811041E+00  0.42088813428E+02  0.00000000000E+00 0. -1.
</event>
<event>
 7    1  0.3755162E-013  0.5930194E+02  0.7816164E-02  0.1266605E+00
        -11   -1    0    0    0    0  0.00000000000E+00  0.00000000000E+00  0.45593999997E+02  0.45594000000E+02  0.51100000000E-03 0. -1.
         11   -1    0    0    0    0 -0.00000000000E+00 -0.00000000000E+00 -0.45593999997E+02  0.45594000000E+02  0.51100000000E-03 0.  1.
    9900012    2    1    2    0    0 -0.17026576787E+02  0.26946896892E+02 -0.82551665206E+00  0.59301936478E+02  0.49999986231E+02 0.  0.
        -12    1    1    2    0    0  0.17026576787E+02 -0.26946896892E+02  0.82551665206E+00  0.31886063522E+02  0.00000000000E+00 0.  1.
         11    1    3    3    0    0 -0.19851270713E+01 -0.59018022486E+01  0.17896687382E+01  0.64788049611E+01  0.51100000000E-03 0. -1.
        -11    1    3    3    0    0 -0.19913649061E+02  0.64052109831E+01 -0.12272672610E+02  0.24252806846E+02  0.51100000000E-03 0.  1.
        -12    1    3    3    0    0  0.48721993452E+01  0.26443488158E+02  0.96574872197E+01  0.28570324671E+02  0.00000000000E+00 0.  1.
</event>
<event>
 7    1  0.3755162E-013  0.5930193E+02  0.7816164E-02  0.1266605E+00
        -11   -1    0    0    0    0  0.00000000000E+00  0.00000000000E+00  0.45593999997E+02  0.45594000000E+02  0.51100000000E-03 0.  1.
         11   -1    0    0    0    0 -0.00000000000E+00 -0.00000000000E+00 -0.45593999997E+02  0.45594000000E+02  0.51100000000E-03 0. -1.
    9900012    2    1    2    0    0 -0.28988646368E+02 -0.84441249840E+01 -0.10250682845E+02  0.59301931509E+02  0.49999977169E+02 0.  0.
        -12    1    1    2    0    0  0.28988646368E+02  0.84441249840E+01  0.10250682845E+02  0.31886068491E+02  0.00000000000E+00 0.  1.
         11    1    3    3    0    0 -0.26790607238E+02 -0.16622618765E+02 -0.13864633125E+02  0.34442359715E+02  0.51100000000E-03 0. -1.
        -11    1    3    3    0    0 -0.11659387257E+02  0.30398273408E+01 -0.27413516143E+01  0.12357057514E+02  0.51100000000E-03 0.  1.
        -12    1    3    3    0    0  0.94613481268E+01  0.51386664403E+01  0.63553018942E+01  0.12502514280E+02  0.00000000000E+00 0.  1.
</event>
<event>
 7    1  0.3755162E-013  0.5930196E+02  0.7816164E-02  0.1266605E+00
        -11   -1    0    0    0    0  0.00000000000E+00  0.00000000000E+00  0.45593999997E+02  0.45594000000E+02  0.51100000000E-03 0.  1.
         11   -1    0    0    0    0 -0.00000000000E+00 -0.00000000000E+00 -0.45593999997E+02  0.45594000000E+02  0.51100000000E-03 0. -1.
    9900012    2    1    2    0    0  0.27090560543E+02  0.16542510280E+02 -0.30276268876E+01  0.59301958517E+02  0.50000026425E+02 0.  0.
        -12    1    1    2    0    0 -0.27090560543E+02 -0.16542510280E+02  0.30276268876E+01  0.31886041483E+02  0.00000000000E+00 0.  1.
         11    1    3    3    0    0  0.10085370178E+02  0.15442989714E+02 -0.54779676862E+00  0.18452661177E+02  0.51100000000E-03 0.  1.
        -11    1    3    3    0    0  0.26651578195E+02  0.85493324861E+01 -0.49222720668E+01  0.28418769657E+02  0.51100000000E-03 0. -1.
        -12    1    3    3    0    0 -0.96463878298E+01 -0.74498119208E+01  0.24424419478E+01  0.12430527683E+02  0.00000000000E+00 0.  1.
</event>
<event>
 7    1  0.3755162E-013  0.5930193E+02  0.7816164E-02  0.1266605E+00
        -11   -1    0    0    0    0  0.00000000000E+00  0.00000000000E+00  0.45593999997E+02  0.45594000000E+02  0.51100000000E-03 0. -1.
         11   -1    0    0    0    0 -0.00000000000E+00 -0.00000000000E+00 -0.45593999997E+02  0.45594000000E+02  0.51100000000E-03 0.  1.
    9900012    2    1    2    0    0 -0.55628764502E+01  0.26140616160E+02  0.17390924519E+02  0.59301926814E+02  0.49999968605E+02 0.  0.
        -12    1    1    2    0    0  0.55628764502E+01 -0.26140616160E+02 -0.17390924519E+02  0.31886073186E+02  0.00000000000E+00 0.  1.
         11    1    3    3    0    0  0.99293686460E+01  0.14019712455E+02  0.21070132602E+02  0.27186305140E+02  0.51100000000E-03 0. -1.
        -11    1    3    3    0    0  0.29892326602E+01  0.91722176982E+00 -0.92773925687E+01  0.97901389575E+01  0.51100000000E-03 0.  1.
         12    1    3    3    0    0 -0.18481477757E+02  0.11203681935E+02  0.55981844856E+01  0.22325482716E+02  0.00000000000E+00 0. -1.
</event>
<event>
 7    1  0.3755162E-013  0.5930194E+02  0.7816164E-02  0.1266605E+00
        -11   -1    0    0    0    0  0.00000000000E+00  0.00000000000E+00  0.45593999997E+02  0.45594000000E+02  0.51100000000E-03 0.  1.
         11   -1    0    0    0    0 -0.00000000000E+00 -0.00000000000E+00 -0.45593999997E+02  0.45594000000E+02  0.51100000000E-03 0. -1.
    9900012    2    1    2    0    0  0.24856851561E+01  0.16266109414E+02 -0.27312193209E+02  0.59301939659E+02  0.49999992033E+02 0.  0.
        -12    1    1    2    0    0 -0.24856851561E+01 -0.16266109414E+02  0.27312193209E+02  0.31886060341E+02  0.00000000000E+00 0.  1.
         11    1    3    3    0    0 -0.59484969281E-01 -0.74998620851E+01  0.28279414374E+01  0.80155301005E+01  0.51100000000E-03 0. -1.
        -11    1    3    3    0    0  0.65326666089E+01  0.62480692268E+01  0.60533214205E+01  0.10879191264E+02  0.51100000000E-03 0.  1.
         12    1    3    3    0    0 -0.39874964835E+01  0.17517902272E+02 -0.36193456067E+02  0.40407218294E+02  0.00000000000E+00 0. -1.
</event>
<event>
 7    1  0.3755162E-013  0.5930194E+02  0.7816164E-02  0.1266605E+00
        -11   -1    0    0    0    0  0.00000000000E+00  0.00000000000E+00  0.45593999997E+02  0.45594000000E+02  0.51100000000E-03 0.  1.
         11   -1    0    0    0    0 -0.00000000000E+00 -0.00000000000E+00 -0.45593999997E+02  0.45594000000E+02  0.51100000000E-03 0. -1.
    9900012    2    1    2    0    0 -0.25595701791E+02 -0.11072408706E+01 -0.18983023296E+02  0.59301935552E+02  0.49999984543E+02 0.  0.
        -12    1    1    2    0    0  0.25595701791E+02  0.11072408706E+01  0.18983023296E+02  0.31886064448E+02  0.00000000000E+00 0.  1.
         11    1    3    3    0    0 -0.15417159545E+02  0.62830051691E+01 -0.99873317162E+01  0.19414215345E+02  0.51100000000E-03 0. -1.
        -11    1    3    3    0    0  0.10021154922E+02 -0.12849520840E+01  0.79240491251E+01  0.12839984526E+02  0.51100000000E-03 0.  1.
         12    1    3    3    0    0 -0.20199697168E+02 -0.61052939557E+01 -0.16919740705E+02  0.27047735681E+02  0.00000000000E+00 0. -1.
</event>
<event>
 7    1  0.3755162E-013  0.5930191E+02  0.7816164E-02  0.1266605E+00
        -11   -1    0    0    0    0  0.00000000000E+00  0.00000000000E+00  0.45593999997E+02  0.45594000000E+02  0.51100000000E-03 0.  1.
         11   -1    0    0    0    0 -0.00000000000E+00 -0.00000000000E+00 -0.45593999997E+02  0.45594000000E+02  0.51100000000E-03 0. -1.
    9900012    2    1    2    0    0 -0.19570010764E+02 -0.25122751361E+02 -0.16077401223E+01  0.59301909215E+02  0.49999936510E+02 0.  0.
        -12    1    1    2    0    0  0.19570010764E+02  0.25122751361E+02  0.16077401223E+01  0.31886090785E+02  0.00000000000E+00 0.  1.
         11    1    3    3    0    0 -0.10520218626E+02 -0.13913499557E+02 -0.23709134746E+02  0.29434393837E+02  0.51100000000E-03 0. -1.
        -11    1    3    3    0    0 -0.95703293681E+01 -0.20550352366E+01  0.64319662042E+01  0.11712581421E+02  0.51100000000E-03 0.  1.
        -12    1    3    3    0    0  0.52053723075E+00 -0.91542165673E+01  0.15669428420E+02  0.18154933957E+02  0.00000000000E+00 0.  1.
</event>
<event>
 7    1  0.3755162E-013  0.5930197E+02  0.7816164E-02  0.1266605E+00
        -11   -1    0    0    0    0  0.00000000000E+00  0.00000000000E+00  0.45593999997E+02  0.45594000000E+02  0.51100000000E-03 0.  1.
         11   -1    0    0    0    0 -0.00000000000E+00 -0.00000000000E+00 -0.45593999997E+02  0.45594000000E+02  0.51100000000E-03 0. -1.
    9900012    2    1    2    0    0  0.22300525123E+02  0.64139482989E+01 -0.21869309132E+02  0.59301971156E+02  0.50000049475E+02 0.  0.
        -12    1    1    2    0    0 -0.22300525123E+02 -0.64139482989E+01  0.21869309132E+02  0.31886028844E+02  0.00000000000E+00 0.  1.
         11    1    3    3    0    0  0.96235737064E+01 -0.56897878684E+01 -0.69932672843E+00  0.11201603234E+02  0.51100000000E-03 0. -1.
        -11    1    3    3    0    0  0.24485682424E+02  0.17176568657E+02 -0.11615994925E+02  0.32086048260E+02  0.51100000000E-03 0.  1.
        -12    1    3    3    0    0 -0.11808731008E+02 -0.50728324894E+01 -0.95539874791E+01  0.16014319662E+02  0.00000000000E+00 0.  1.
</event>
<event>
 7    1  0.3755162E-013  0.5930194E+02  0.7816164E-02  0.1266605E+00
        -11   -1    0    0    0    0  0.00000000000E+00  0.00000000000E+00  0.45593999997E+02  0.45594000000E+02  0.51100000000E-03 0.  1.
         11   -1    0    0    0    0 -0.00000000000E+00 -0.00000000000E+00 -0.45593999997E+02  0.45594000000E+02  0.51100000000E-03 0. -1.
    9900012    2    1    2    0    0  0.21376037261E+02 -0.21587799940E+02 -0.96825895918E+01  0.59301943228E+02  0.49999998542E+02 0.  0.
        -12    1    1    2    0    0 -0.21376037261E+02  0.21587799940E+02  0.96825895918E+01  0.31886056772E+02  0.00000000000E+00 0.  1.
         11    1    3    3    0    0  0.12492843422E+02 -0.15505423982E+02 -0.38980550171E+01  0.20290001054E+02  0.51100000000E-03 0. -1.
        -11    1    3    3    0    0  0.22902205753E+02 -0.27749377404E+01 -0.80440635800E+01  0.24431910833E+02  0.51100000000E-03 0.  1.
         12    1    3    3    0    0 -0.14019011913E+02 -0.33074382181E+01  0.22595290053E+01  0.14580031341E+02  0.00000000000E+00 0. -1.
</event>
<event>
 7    1  0.3755162E-013  0.5930197E+02  0.7816164E-02  0.1266605E+00
        -11   -1    0    0    0    0  0.00000000000E+00  0.00000000000E+00  0.45593999997E+02  0.45594000000E+02  0.51100000000E-03 0. -1.
         11   -1    0    0    0    0 -0.00000000000E+00 -0.00000000000E+00 -0.45593999997E+02  0.45594000000E+02  0.51100000000E-03 0.  1.
    9900012    2    1    2    0    0  0.52879547471E+01 -0.12218923258E+02  0.28973334380E+02  0.59301973969E+02  0.50000054605E+02 0.  0.
        -12    1    1    2    0    0 -0.52879547471E+01  0.12218923258E+02 -0.28973334380E+02  0.31886026031E+02  0.00000000000E+00 0.  1.
         11    1    3    3    0    0  0.73444162059E+01 -0.22452152241E+02  0.19803986878E+02  0.30825922309E+02  0.51100000000E-03 0. -1.
        -11    1    3    3    0    0 -0.12877324393E+02  0.97024260029E+01  0.56608237867E+01  0.17088226358E+02  0.51100000000E-03 0.  1.
        -12    1    3    3    0    0  0.10820862934E+02  0.53080298018E+00  0.35085237144E+01  0.11387825302E+02  0.00000000000E+00 0.  1.
</event>
<event>
 7    1  0.3755162E-013  0.5930198E+02  0.7816164E-02  0.1266605E+00
        -11   -1    0    0    0    0  0.00000000000E+00  0.00000000000E+00  0.45593999997E+02  0.45594000000E+02  0.51100000000E-03 0. -1.
         11   -1    0    0    0    0 -0.00000000000E+00 -0.00000000000E+00 -0.45593999997E+02  0.45594000000E+02  0.51100000000E-03 0.  1.
    9900012    2    1    2    0    0 -0.28116075141E+02 -0.14940431614E+02  0.17285307305E+01  0.59301984310E+02  0.50000073464E+02 0.  0.
        -12    1    1    2    0    0  0.28116075141E+02  0.14940431614E+02 -0.17285307305E+01  0.31886015690E+02  0.00000000000E+00 0.  1.
         11    1    3    3    0    0 -0.84847520434E+01  0.10770729109E+02  0.19040152839E+01  0.13842864488E+02  0.51100000000E-03 0. -1.
        -11    1    3    3    0    0 -0.43599709956E+01  0.52756335123E+01  0.74136338494E+01  0.10089778152E+02  0.51100000000E-03 0.  1.
        -12    1    3    3    0    0 -0.15271352102E+02 -0.30986794235E+02 -0.75891184028E+01  0.35369341669E+02  0.00000000000E+00 0.  1.
</event>
<event>
 7    1  0.3755162E-013  0.5930195E+02  0.7816164E-02  0.1266605E+00
        -11   -1    0    0    0    0  0.00000000000E+00  0.00000000000E+00  0.45593999997E+02  0.45594000000E+02  0.51100000000E-03 0. -1.
         11   -1    0    0    0    0 -0.00000000000E+00 -0.00000000000E+00 -0.45593999997E+02  0.45594000000E+02  0.51100000000E-03 0.  1.
    9900012    2    1    2    0    0 -0.23377841463E+02 -0.21596498788E+02  0.19463307421E+01  0.59301946078E+02  0.50000003739E+02 0.  0.
        -12    1    1    2    0    0  0.23377841463E+02  0.21596498788E+02 -0.19463307421E+01  0.31886053922E+02  0.00000000000E+00 0.  1.
         11    1    3    3    0    0 -0.14601728273E+02  0.55811806526E+01  0.12833132176E+02  0.20224967930E+02  0.51100000000E-03 0. -1.
        -11    1    3    3    0    0 -0.13238480080E+02 -0.56919947397E+01 -0.91376259032E+01  0.17063187462E+02  0.51100000000E-03 0.  1.
        -12    1    3    3    0    0  0.44623668905E+01 -0.21485684701E+02 -0.17491755312E+01  0.22013790686E+02  0.00000000000E+00 0.  1.
</event>
<event>
 7    1  0.3755162E-013  0.5930197E+02  0.7816164E-02  0.1266605E+00
        -11   -1    0    0    0    0  0.00000000000E+00  0.00000000000E+00  0.45593999997E+02  0.45594000000E+02  0.51100000000E-03 0. -1.
         11   -1    0    0    0    0 -0.00000000000E+00 -0.00000000000E+00 -0.45593999997E+02  0.45594000000E+02  0.51100000000E-03 0.  1.
    9900012    2    1    2    0    0  0.30922925013E+02  0.31512361258E+01 -0.71106588334E+01  0.59301967799E+02  0.50000043353E+02 0.  0.
        -12    1    1    2    0    0 -0.30922925013E+02 -0.31512361258E+01  0.71106588334E+01  0.31886032201E+02  0.00000000000E+00 0.  1.
         11    1    3    3    0    0 -0.45250088014E+01 -0.88156964418E+01  0.68411951591E+01  0.12041352078E+02  0.51100000000E-03 0. -1.
        -11    1    3    3    0    0  0.68086597058E+01 -0.20367227917E+01 -0.13638974004E+02  0.15379457041E+02  0.51100000000E-03 0.  1.
        -12    1    3    3    0    0  0.28639274109E+02  0.14003655359E+02 -0.31287998850E+00  0.31881158680E+02  0.00000000000E+00 0.  1.
</event>
<event>
 7    1  0.3755162E-013  0.5930194E+02  0.7816164E-02  0.1266605E+00
        -11   -1    0    0    0    0  0.00000000000E+00  0.00000000000E+00  0.45593999997E+02  0.45594000000E+02  0.51100000000E-03 0.  1.
         11   -1    0    0    0    0 -0.00000000000E+00 -0.00000000000E+00 -0.45593999997E+02  0.45594000000E+02  0.51100000000E-03 0. -1.
    9900012    2    1    2    0    0  0.29934628695E+02 -0.73847597338E+01 -0.81304482670E+01  0.59301939402E+02  0.49999991563E+02 0.  0.
        -12    1    1    2    0    0 -0.29934628695E+02  0.73847597338E+01  0.81304482670E+01  0.31886060598E+02  0.00000000000E+00 0.  1.
         11    1    3    3    0    0  0.70013048117E+01 -0.20417315953E-03 -0.19565626545E+01  0.72695534106E+01  0.51100000000E-03 0. -1.
        -11    1    3    3    0    0 -0.93512417792E+01  0.71395281869E+01 -0.11239083077E+02  0.16270696796E+02  0.51100000000E-03 0.  1.
         12    1    3    3    0    0  0.32284565663E+02 -0.14524083748E+02  0.50651974647E+01  0.35761689195E+02  0.00000000000E+00 0. -1.
</event>
<event>
 7    1  0.3755162E-013  0.5930195E+02  0.7816164E-02  0.1266605E+00
        -11   -1    0    0    0    0  0.00000000000E+00  0.00000000000E+00  0.45593999997E+02  0.45594000000E+02  0.51100000000E-03 0.  1.
         11   -1    0    0    0    0 -0.00000000000E+00 -0.00000000000E+00 -0.45593999997E+02  0.45594000000E+02  0.51100000000E-03 0. -1.
    9900012    2    1    2    0    0  0.15275740567E+02 -0.27028155386E+02 -0.72698507298E+01  0.59301950338E+02  0.50000011508E+02 0.  0.
        -12    1    1    2    0    0 -0.15275740567E+02  0.27028155386E+02  0.72698507298E+01  0.31886049662E+02  0.00000000000E+00 0.  1.
         11    1    3    3    0    0  0.61324183873E+01 -0.12657222225E+02  0.10856835144E+02  0.17767461815E+02  0.51100000000E-03 0. -1.
        -11    1    3    3    0    0 -0.51091551366E+00 -0.10147105355E+02  0.82775913353E+01  0.13105086811E+02  0.51100000000E-03 0.  1.
         12    1    3    3    0    0  0.96542376936E+01 -0.42238278058E+01 -0.26404277209E+02  0.28429401712E+02  0.00000000000E+00 0. -1.
</event>
<event>
 7    1  0.3755162E-013  0.5930193E+02  0.7816164E-02  0.1266605E+00
        -11   -1    0    0    0    0  0.00000000000E+00  0.00000000000E+00  0.45593999997E+02  0.45594000000E+02  0.51100000000E-03 0.  1.
         11   -1    0    0    0    0 -0.00000000000E+00 -0.00000000000E+00 -0.45593999997E+02  0.45594000000E+02  0.51100000000E-03 0. -1.
    9900012    2    1    2    0    0 -0.22118986134E+02 -0.19433897585E+02 -0.12239102518E+02  0.59301928537E+02  0.49999971748E+02 0.  0.
        -12    1    1    2    0    0  0.22118986134E+02  0.19433897585E+02  0.12239102518E+02  0.31886071463E+02  0.00000000000E+00 0.  1.
         11    1    3    3    0    0 -0.57517192163E+01  0.11770703127E+02  0.23973380496E+00  0.13103022499E+02  0.51100000000E-03 0. -1.
        -11    1    3    3    0    0  0.15445153163E+01 -0.12399360208E+02  0.64504221771E+01  0.14061920482E+02  0.51100000000E-03 0.  1.
         12    1    3    3    0    0 -0.17911782234E+02 -0.18805240504E+02 -0.18929258500E+02  0.32136985555E+02  0.00000000000E+00 0. -1.
</event>
<event>
 7    1  0.3755162E-013  0.5930194E+02  0.7816164E-02  0.1266605E+00
        -11   -1    0    0    0    0  0.00000000000E+00  0.00000000000E+00  0.45593999997E+02  0.45594000000E+02  0.51100000000E-03 0. -1.
         11   -1    0    0    0    0 -0.00000000000E+00 -0.00000000000E+00 -0.45593999997E+02  0.45594000000E+02  0.51100000000E-03 0.  1.
    9900012    2    1    2    0    0 -0.83119045004E+01  0.29824196061E+02  0.76256382414E+01  0.59301940575E+02  0.49999993702E+02 0.  0.
        -12    1    1    2    0    0  0.83119045004E+01 -0.29824196061E+02 -0.76256382414E+01  0.31886059425E+02  0.00000000000E+00 0.  1.
         11    1    3    3    0    0 -0.12867460053E+02  0.30167673542E+01 -0.93850168307E+01  0.16209594525E+02  0.51100000000E-03 0. -1.
        -11    1    3    3    0    0 -0.25466133307E+01  0.26782879502E+02  0.26030285428E+01  0.27029310604E+02  0.51100000000E-03 0.  1.
         12    1    3    3    0    0  0.71021688835E+01  0.24549204514E-01  0.14407626529E+02  0.16063035445E+02  0.00000000000E+00 0. -1.
</event>
<event>
 7    1  0.3755162E-013  0.5930195E+02  0.7816164E-02  0.1266605E+00
        -11   -1    0    0    0    0  0.00000000000E+00  0.00000000000E+00  0.45593999997E+02  0.45594000000E+02  0.51100000000E-03 0.  1.
         11   -1    0    0    0    0 -0.00000000000E+00 -0.00000000000E+00 -0.45593999997E+02  0.45594000000E+02  0.51100000000E-03 0. -1.
    9900012    2    1    2    0    0  0.10152546512E+01  0.29214089115E+02  0.12736803507E+02  0.59301954331E+02  0.50000018791E+02 0.  0.
        -12    1    1    2    0    0 -0.10152546512E+01 -0.29214089115E+02 -0.12736803507E+02  0.31886045669E+02  0.00000000000E+00 0.  1.
         11    1    3    3    0    0  0.56533338514E+01 -0.34132491049E+01 -0.58962711314E+01  0.88530484356E+01  0.51100000000E-03 0. -1.
        -11    1    3    3    0    0 -0.58826400138E+01 -0.53501378619E+01  0.73065296587E+01  0.10798833483E+02  0.51100000000E-03 0.  1.
        -12    1    3    3    0    0  0.12445608136E+01  0.37977476082E+02  0.11326544980E+02  0.39650072413E+02  0.00000000000E+00 0.  1.
</event>
<event>
 7    1  0.3755162E-013  0.5930186E+02  0.7816164E-02  0.1266605E+00
        -11   -1    0    0    0    0  0.00000000000E+00  0.00000000000E+00  0.45593999997E+02  0.45594000000E+02  0.51100000000E-03 0.  1.
         11   -1    0    0    0    0 -0.00000000000E+00 -0.00000000000E+00 -0.45593999997E+02  0.45594000000E+02  0.51100000000E-03 0. -1.
    9900012    2    1    2    0    0 -0.31221292717E+02 -0.62791765112E+01 -0.15902204565E+01  0.59301859160E+02  0.49999845221E+02 0.  0.
        -12    1    1    2    0    0  0.31221292717E+02  0.62791765112E+01  0.15902204565E+01  0.31886140840E+02  0.00000000000E+00 0.  1.
         11    1    3    3    0    0 -0.25405033876E+02  0.11063006251E+02 -0.92703182029E+00  0.27724812746E+02  0.51100000000E-03 0. -1.
        -11    1    3    3    0    0  0.38721162878E+01  0.39620910199E+01  0.50387545884E+01  0.74886913316E+01  0.51100000000E-03 0.  1.
        -12    1    3    3    0    0 -0.96883751291E+01 -0.21304273782E+02 -0.57019432246E+01  0.24088355082E+02  0.00000000000E+00 0.  1.
</event>
<event>
 7    1  0.3755162E-013  0.5930192E+02  0.7816164E-02  0.1266605E+00
        -11   -1    0    0    0    0  0.00000000000E+00  0.00000000000E+00  0.45593999997E+02  0.45594000000E+02  0.51100000000E-03 0.  1.
         11   -1    0    0    0    0 -0.00000000000E+00 -0.00000000000E+00 -0.45593999997E+02  0.45594000000E+02  0.51100000000E-03 0. -1.
    9900012    2    1    2    0    0 -0.22675116993E+01  0.14550469000E+01 -0.31772048692E+02  0.59301923903E+02  0.49999963298E+02 0.  0.
        -12    1    1    2    0    0  0.22675116993E+01 -0.14550469000E+01  0.31772048692E+02  0.31886076097E+02  0.00000000000E+00 0.  1.
         11    1    3    3    0    0 -0.70898493750E+01 -0.15114744996E+02 -0.13284940762E+02  0.21335677439E+02  0.51100000000E-03 0. -1.
        -11    1    3    3    0    0 -0.11637788763E+02  0.75208227242E+01 -0.11207037300E+02  0.17821295885E+02  0.51100000000E-03 0.  1.
        -12    1    3    3    0    0  0.16460126439E+02  0.90489691722E+01 -0.72800706300E+01  0.20144950579E+02  0.00000000000E+00 0.  1.
</event>
<event>
 7    1  0.3755162E-013  0.5930191E+02  0.7816164E-02  0.1266605E+00
        -11   -1    0    0    0    0  0.00000000000E+00  0.00000000000E+00  0.45593999997E+02  0.45594000000E+02  0.51100000000E-03 0.  1.
         11   -1    0    0    0    0 -0.00000000000E+00 -0.00000000000E+00 -0.45593999997E+02  0.45594000000E+02  0.51100000000E-03 0. -1.
    9900012    2    1    2    0    0 -0.25405692913E+01  0.10736903747E+02 -0.29916333533E+02  0.59301912023E+02  0.49999941632E+02 0.  0.
        -12    1    1    2    0    0  0.25405692913E+01 -0.10736903747E+02  0.29916333533E+02  0.31886087977E+02  0.00000000000E+00 0.  1.
         11    1    3    3    0    0 -0.19199246428E+02  0.82843854149E+01 -0.39041387089E+00  0.20913979257E+02  0.51100000000E-03 0. -1.
        -11    1    3    3    0    0 -0.57819138713E+00  0.25014757496E+00  0.21599468046E+01  0.22499443436E+01  0.51100000000E-03 0.  1.
        -12    1    3    3    0    0  0.17236868524E+02  0.22023707569E+01 -0.31685866467E+02  0.36137988422E+02  0.00000000000E+00 0.  1.
</event>
<event>
 7    1  0.3755162E-013  0.5930197E+02  0.7816164E-02  0.1266605E+00
        -11   -1    0    0    0    0  0.00000000000E+00  0.00000000000E+00  0.45593999997E+02  0.45594000000E+02  0.51100000000E-03 0. -1.
         11   -1    0    0    0    0 -0.00000000000E+00 -0.00000000000E+00 -0.45593999997E+02  0.45594000000E+02  0.51100000000E-03 0.  1.
    9900012    2    1    2    0    0 -0.14551339666E+02  0.28236431127E+02  0.27715563076E+01  0.59301967741E+02  0.50000043247E+02 0.  0.
        -12    1    1    2    0    0  0.14551339666E+02 -0.28236431127E+02 -0.27715563076E+01  0.31886032259E+02  0.00000000000E+00 0.  1.
         11    1    3    3    0    0  0.53898155109E+01  0.90119060134E+00 -0.30466098838E+01  0.62565236183E+01  0.51100000000E-03 0. -1.
        -11    1    3    3    0    0 -0.17649620943E+02  0.15023218930E+02 -0.15807718790E+02  0.28055127875E+02  0.51100000000E-03 0.  1.
         12    1    3    3    0    0 -0.22915342336E+01  0.12312021595E+02  0.21625884982E+02  0.24990316247E+02  0.00000000000E+00 0. -1.
</event>
<event>
 7    1  0.3755162E-013  0.5930191E+02  0.7816164E-02  0.1266605E+00
        -11   -1    0    0    0    0  0.00000000000E+00  0.00000000000E+00  0.45593999997E+02  0.45594000000E+02  0.51100000000E-03 0.  1.
         11   -1    0    0    0    0 -0.00000000000E+00 -0.00000000000E+00 -0.45593999997E+02  0.45594000000E+02  0.51100000000E-03 0. -1.
    9900012    2    1    2    0    0  0.52941319980E+01 -0.18316129588E+02 -0.25558061744E+02  0.59301906529E+02  0.49999931612E+02 0.  0.
        -12    1    1    2    0    0 -0.52941319980E+01  0.18316129588E+02  0.25558061744E+02  0.31886093471E+02  0.00000000000E+00 0.  1.
         11    1    3    3    0    0 -0.81596743194E+01  0.64939062362E+01 -0.16040444194E+02  0.19132353577E+02  0.51100000000E-03 0. -1.
        -11    1    3    3    0    0  0.70312180051E+01  0.51349662695E+00  0.64463867448E+01  0.95528847865E+01  0.51100000000E-03 0.  1.
         12    1    3    3    0    0  0.64225883123E+01 -0.25323532451E+02 -0.15964004295E+02  0.30616668166E+02  0.00000000000E+00 0. -1.
</event>
<event>
 7    1  0.3755162E-013  0.5930196E+02  0.7816164E-02  0.1266605E+00
        -11   -1    0    0    0    0  0.00000000000E+00  0.00000000000E+00  0.45593999997E+02  0.45594000000E+02  0.51100000000E-03 0.  1.
         11   -1    0    0    0    0 -0.00000000000E+00 -0.00000000000E+00 -0.45593999997E+02  0.45594000000E+02  0.51100000000E-03 0. -1.
    9900012    2    1    2    0    0  0.20582643809E+02 -0.18859491345E+02 -0.15407601423E+02  0.59301955693E+02  0.50000021274E+02 0.  0.
        -12    1    1    2    0    0 -0.20582643809E+02  0.18859491345E+02  0.15407601423E+02  0.31886044307E+02  0.00000000000E+00 0.  1.
         11    1    3    3    0    0  0.11753434081E+02 -0.14496142449E+02  0.19457584093E+01  0.18763457427E+02  0.51100000000E-03 0. -1.
        -11    1    3    3    0    0  0.82529114781E+01 -0.82006805209E+01  0.84916500869E+01  0.14403813048E+02  0.51100000000E-03 0.  1.
         12    1    3    3    0    0  0.57629825018E+00  0.38373316245E+01 -0.25845009919E+02  0.26134685217E+02  0.00000000000E+00 0. -1.
</event>
<event>
 7    1  0.3755162E-013  0.5930193E+02  0.7816164E-02  0.1266605E+00
        -11   -1    0    0    0    0  0.00000000000E+00  0.00000000000E+00  0.45593999997E+02  0.45594000000E+02  0.51100000000E-03 0.  1.
         11   -1    0    0    0    0 -0.00000000000E+00 -0.00000000000E+00 -0.45593999997E+02  0.45594000000E+02  0.51100000000E-03 0. -1.
    9900012    2    1    2    0    0  0.19905531276E+02 -0.17781958655E+02 -0.17444010603E+02  0.59301925690E+02  0.49999966556E+02 0.  0.
        -12    1    1    2    0    0 -0.19905531276E+02  0.17781958655E+02  0.17444010603E+02  0.31886074310E+02  0.00000000000E+00 0.  1.
         11    1    3    3    0    0  0.25159979072E+02 -0.77948069801E+01  0.26359047708E+01  0.26471334628E+02  0.51100000000E-03 0. -1.
        -11    1    3    3    0    0  0.10595246377E+01 -0.42928421823E+01  0.48070102702E+01  0.65313424699E+01  0.51100000000E-03 0.  1.
         12    1    3    3    0    0 -0.63139724341E+01 -0.56943094929E+01 -0.24886925644E+02  0.26299248592E+02  0.00000000000E+00 0. -1.
</event>
<event>
 7    1  0.3755162E-013  0.5930195E+02  0.7816164E-02  0.1266605E+00
        -11   -1    0    0    0    0  0.00000000000E+00  0.00000000000E+00  0.45593999997E+02  0.45594000000E+02  0.51100000000E-03 0. -1.
         11   -1    0    0    0    0 -0.00000000000E+00 -0.00000000000E+00 -0.45593999997E+02  0.45594000000E+02  0.51100000000E-03 0.  1.
    9900012    2    1    2    0    0 -0.78369763290E+01  0.86735822454E+01  0.29665990867E+02  0.59301949115E+02  0.50000009278E+02 0.  0.
        -12    1    1    2    0    0  0.78369763290E+01 -0.86735822454E+01 -0.29665990867E+02  0.31886050885E+02  0.00000000000E+00 0.  1.
         11    1    3    3    0    0 -0.94104290056E+01  0.91394929018E+01  0.20609804451E+02  0.24430524848E+02  0.51100000000E-03 0. -1.
        -11    1    3    3    0    0 -0.10850107881E+02  0.11201194346E+02  0.49149515498E-01  0.15594678956E+02  0.51100000000E-03 0.  1.
         12    1    3    3    0    0  0.12423560557E+02 -0.11667105003E+02  0.90070368997E+01  0.19276745311E+02  0.00000000000E+00 0. -1.
</event>
<event>
 7    1  0.3755162E-013  0.5930194E+02  0.7816164E-02  0.1266605E+00
        -11   -1    0    0    0    0  0.00000000000E+00  0.00000000000E+00  0.45593999997E+02  0.45594000000E+02  0.51100000000E-03 0.  1.
         11   -1    0    0    0    0 -0.00000000000E+00 -0.00000000000E+00 -0.45593999997E+02  0.45594000000E+02  0.51100000000E-03 0. -1.
    9900012    2    1    2    0    0 -0.10391832623E+02  0.61096846880E+01 -0.29519521635E+02  0.59301943646E+02  0.49999999305E+02 0.  0.
        -12    1    1    2    0    0  0.10391832623E+02 -0.61096846880E+01  0.29519521635E+02  0.31886056354E+02  0.00000000000E+00 0.  1.
         11    1    3    3    0    0  0.76448749584E+01 -0.72469372846E+01 -0.20395918344E+02  0.22955515644E+02  0.51100000000E-03 0. -1.
        -11    1    3    3    0    0  0.37038157648E+01  0.10602505261E+02  0.25502318744E+01  0.11516729219E+02  0.51100000000E-03 0.  1.
         12    1    3    3    0    0 -0.21740523346E+02  0.27541167117E+01 -0.11673835165E+02  0.24829698784E+02  0.00000000000E+00 0. -1.
</event>
<event>
 7    1  0.3755162E-013  0.5930199E+02  0.7816164E-02  0.1266605E+00
        -11   -1    0    0    0    0  0.00000000000E+00  0.00000000000E+00  0.45593999997E+02  0.45594000000E+02  0.51100000000E-03 0. -1.
         11   -1    0    0    0    0 -0.00000000000E+00 -0.00000000000E+00 -0.45593999997E+02  0.45594000000E+02  0.51100000000E-03 0.  1.
    9900012    2    1    2    0    0  0.47025069542E+01  0.31230481388E+02 -0.43887781011E+01  0.59301985627E+02  0.50000075867E+02 0.  0.
        -12    1    1    2    0    0 -0.47025069542E+01 -0.31230481388E+02  0.43887781011E+01  0.31886014373E+02  0.00000000000E+00 0.  1.
         11    1    3    3    0    0 -0.13210294013E+02  0.23496576648E+01  0.47013845409E+01  0.14217446181E+02  0.51100000000E-03 0.  1.
        -11    1    3    3    0    0 -0.69568665243E+01  0.60511099957E+01 -0.63884289627E+01  0.11217216628E+02  0.51100000000E-03 0. -1.
         12    1    3    3    0    0  0.24869667491E+02  0.22829713727E+02 -0.27017336794E+01  0.33867322818E+02  0.00000000000E+00 0. -1.
</event>
<event>
 7    1  0.3755162E-013  0.5930195E+02  0.7816164E-02  0.1266605E+00
        -11   -1    0    0    0    0  0.00000000000E+00  0.00000000000E+00  0.45593999997E+02  0.45594000000E+02  0.51100000000E-03 0. -1.
         11   -1    0    0    0    0 -0.00000000000E+00 -0.00000000000E+00 -0.45593999997E+02  0.45594000000E+02  0.51100000000E-03 0.  1.
    9900012    2    1    2    0    0  0.10914100948E+02  0.24076233321E+02  0.17830803263E+02  0.59301950457E+02  0.50000011726E+02 0.  0.
        -12    1    1    2    0    0 -0.10914100948E+02 -0.24076233321E+02 -0.17830803263E+02  0.31886049543E+02  0.00000000000E+00 0.  1.
         11    1    3    3    0    0 -0.31769932462E+01 -0.56107914706E+00  0.13052918365E+02  0.13445697230E+02  0.51100000000E-03 0. -1.
        -11    1    3    3    0    0 -0.51359870179E+01 -0.58644227914E+01 -0.39787251078E+01  0.87521466549E+01  0.51100000000E-03 0.  1.
         12    1    3    3    0    0  0.19227081212E+02  0.30501735259E+02  0.87566100067E+01  0.37104106573E+02  0.00000000000E+00 0. -1.
</event>
<event>
 7    1  0.3755162E-013  0.5930172E+02  0.7816164E-02  0.1266606E+00
        -11   -1    0    0    0    0  0.00000000000E+00  0.00000000000E+00  0.45593999997E+02  0.45594000000E+02  0.51100000000E-03 0.  1.
         11   -1    0    0    0    0 -0.00000000000E+00 -0.00000000000E+00 -0.45593999997E+02  0.45594000000E+02  0.51100000000E-03 0. -1.
    9900012    2    1    2    0    0 -0.26697482621E+02  0.12476518721E+02 -0.12178490098E+02  0.59301722094E+02  0.49999595244E+02 0.  0.
        -12    1    1    2    0    0  0.26697482621E+02 -0.12476518721E+02  0.12178490098E+02  0.31886277906E+02  0.00000000000E+00 0.  1.
         11    1    3    3    0    0 -0.22332546985E+02  0.11675410417E+02 -0.15713389733E+02  0.29697954145E+02  0.51100000000E-03 0. -1.
        -11    1    3    3    0    0 -0.46259499479E+01  0.10904571755E+02  0.11671062864E+02  0.16628974915E+02  0.51100000000E-03 0.  1.
         12    1    3    3    0    0  0.26101431220E+00 -0.10103463451E+02 -0.81361632292E+01  0.12974793034E+02  0.00000000000E+00 0. -1.
</event>
<event>
 7    1  0.3755162E-013  0.5930193E+02  0.7816164E-02  0.1266605E+00
        -11   -1    0    0    0    0  0.00000000000E+00  0.00000000000E+00  0.45593999997E+02  0.45594000000E+02  0.51100000000E-03 0.  1.
         11   -1    0    0    0    0 -0.00000000000E+00 -0.00000000000E+00 -0.45593999997E+02  0.45594000000E+02  0.51100000000E-03 0. -1.
    9900012    2    1    2    0    0  0.15450841348E+02 -0.12647192702E+02 -0.24860442957E+02  0.59301927717E+02  0.49999970254E+02 0.  0.
        -12    1    1    2    0    0 -0.15450841348E+02  0.12647192702E+02  0.24860442957E+02  0.31886072283E+02  0.00000000000E+00 0.  1.
         11    1    3    3    0    0  0.20131801664E+02 -0.74238174837E+01 -0.31052368621E+02  0.37744563867E+02  0.51100000000E-03 0. -1.
        -11    1    3    3    0    0  0.20758667154E+01  0.65661721289E+01  0.77904369671E+00  0.69304219488E+01  0.51100000000E-03 0.  1.
        -12    1    3    3    0    0 -0.67568270310E+01 -0.11789547347E+02  0.54128819682E+01  0.14626941901E+02  0.00000000000E+00 0.  1.
</event>
<event>
 7    1  0.3755162E-013  0.5930196E+02  0.7816164E-02  0.1266605E+00
        -11   -1    0    0    0    0  0.00000000000E+00  0.00000000000E+00  0.45593999997E+02  0.45594000000E+02  0.51100000000E-03 0.  1.
         11   -1    0    0    0    0 -0.00000000000E+00 -0.00000000000E+00 -0.45593999997E+02  0.45594000000E+02  0.51100000000E-03 0. -1.
    9900012    2    1    2    0    0  0.73771839092E+01  0.50726041113E+01 -0.30603356423E+02  0.59301959493E+02  0.50000028204E+02 0.  0.
        -12    1    1    2    0    0 -0.73771839092E+01 -0.50726041113E+01  0.30603356423E+02  0.31886040507E+02  0.00000000000E+00 0.  1.
         11    1    3    3    0    0 -0.57437712395E+00 -0.23320175644E+01  0.61195306602E+01  0.65739539672E+01  0.51100000000E-03 0. -1.
        -11    1    3    3    0    0  0.39228934385E+00 -0.10287266171E+02  0.10394825695E+01  0.10347089469E+02  0.51100000000E-03 0.  1.
         12    1    3    3    0    0  0.75592716893E+01  0.17691887847E+02 -0.37762369652E+02  0.42380916057E+02  0.00000000000E+00 0. -1.
</event>
<event>
 7    1  0.3755162E-013  0.5930194E+02  0.7816164E-02  0.1266605E+00
        -11   -1    0    0    0    0  0.00000000000E+00  0.00000000000E+00  0.45593999997E+02  0.45594000000E+02  0.51100000000E-03 0. -1.
         11   -1    0    0    0    0 -0.00000000000E+00 -0.00000000000E+00 -0.45593999997E+02  0.45594000000E+02  0.51100000000E-03 0.  1.
    9900012    2    1    2    0    0 -0.25164759399E+02  0.22086101260E+01  0.19457075165E+02  0.59301939593E+02  0.49999991913E+02 0.  0.
        -12    1    1    2    0    0  0.25164759399E+02 -0.22086101260E+01 -0.19457075165E+02  0.31886060407E+02  0.00000000000E+00 0.  1.
         11    1    3    3    0    0 -0.34051063366E+01  0.26611193841E+01  0.43748847050E+01  0.61494651787E+01  0.51100000000E-03 0. -1.
        -11    1    3    3    0    0  0.61070607082E+01  0.10366443591E+02  0.19521557134E+02  0.22931431190E+02  0.51100000000E-03 0.  1.
         12    1    3    3    0    0 -0.27866713770E+02 -0.10818952849E+02 -0.44393666744E+01  0.30221043225E+02  0.00000000000E+00 0. -1.
</event>
<event>
 7    1  0.3755162E-013  0.5930195E+02  0.7816164E-02  0.1266605E+00
        -11   -1    0    0    0    0  0.00000000000E+00  0.00000000000E+00  0.45593999997E+02  0.45594000000E+02  0.51100000000E-03 0.  1.
         11   -1    0    0    0    0 -0.00000000000E+00 -0.00000000000E+00 -0.45593999997E+02  0.45594000000E+02  0.51100000000E-03 0. -1.
    9900012    2    1    2    0    0 -0.10595856191E+02  0.19502225371E+02 -0.22893471857E+02  0.59301952636E+02  0.50000015699E+02 0.  0.
        -12    1    1    2    0    0  0.10595856191E+02 -0.19502225371E+02  0.22893471857E+02  0.31886047364E+02  0.00000000000E+00 0.  1.
         11    1    3    3    0    0  0.45787849732E+01 -0.53657772811E+00 -0.13478202818E+02  0.14244828499E+02  0.51100000000E-03 0. -1.
        -11    1    3    3    0    0 -0.21297075646E+02  0.46749850497E+01  0.58232656325E+01  0.22568370326E+02  0.51100000000E-03 0.  1.
         12    1    3    3    0    0  0.61224344813E+01  0.15363818050E+02 -0.15238534671E+02  0.22488753811E+02  0.00000000000E+00 0. -1.
</event>
<event>
 7    1  0.3755162E-013  0.5930197E+02  0.7816164E-02  0.1266605E+00
        -11   -1    0    0    0    0  0.00000000000E+00  0.00000000000E+00  0.45593999997E+02  0.45594000000E+02  0.51100000000E-03 0. -1.
         11   -1    0    0    0    0 -0.00000000000E+00 -0.00000000000E+00 -0.45593999997E+02  0.45594000000E+02  0.51100000000E-03 0.  1.
    9900012    2    1    2    0    0 -0.13154834450E+01 -0.29625965748E+02 -0.11717104040E+02  0.59301970610E+02  0.50000048479E+02 0.  0.
        -12    1    1    2    0    0  0.13154834450E+01  0.29625965748E+02  0.11717104040E+02  0.31886029390E+02  0.00000000000E+00 0.  1.
         11    1    3    3    0    0  0.57751290763E+01 -0.26000666691E+02 -0.20366772344E+02  0.33528975532E+02  0.51100000000E-03 0. -1.
        -11    1    3    3    0    0 -0.55472432495E+00 -0.84754435792E+01 -0.50182903872E+01  0.98652978471E+01  0.51100000000E-03 0.  1.
         12    1    3    3    0    0 -0.65358881963E+01  0.48501445226E+01  0.13667958691E+02  0.15907697231E+02  0.00000000000E+00 0. -1.
</event>
<event>
 7    1  0.3755162E-013  0.5930196E+02  0.7816164E-02  0.1266605E+00
        -11   -1    0    0    0    0  0.00000000000E+00  0.00000000000E+00  0.45593999997E+02  0.45594000000E+02  0.51100000000E-03 0. -1.
         11   -1    0    0    0    0 -0.00000000000E+00 -0.00000000000E+00 -0.45593999997E+02  0.45594000000E+02  0.51100000000E-03 0.  1.
    9900012    2    1    2    0    0  0.20359123998E+02  0.22516013223E+02 -0.97598680912E+01  0.59301955928E+02  0.50000021703E+02 0.  0.
        -12    1    1    2    0    0 -0.20359123998E+02 -0.22516013223E+02  0.97598680912E+01  0.31886044072E+02  0.00000000000E+00 0.  1.
         11    1    3    3    0    0  0.91725080133E+01  0.23553436881E+02  0.58059329789E+01  0.25934690092E+02  0.51100000000E-03 0. -1.
        -11    1    3    3    0    0  0.10191288055E+02 -0.28791174050E+01 -0.23172495507E+02  0.25477759272E+02  0.51100000000E-03 0.  1.
        -12    1    3    3    0    0  0.99532793005E+00  0.18416937469E+01  0.76066944372E+01  0.78895065629E+01  0.00000000000E+00 0.  1.
</event>
<event>
 7    1  0.3755162E-013  0.5930196E+02  0.7816164E-02  0.1266605E+00
        -11   -1    0    0    0    0  0.00000000000E+00  0.00000000000E+00  0.45593999997E+02  0.45594000000E+02  0.51100000000E-03 0. -1.
         11   -1    0    0    0    0 -0.00000000000E+00 -0.00000000000E+00 -0.45593999997E+02  0.45594000000E+02  0.51100000000E-03 0.  1.
    9900012    2    1    2    0    0 -0.19336804904E+02  0.21405824420E+02  0.13586683287E+02  0.59301963782E+02  0.50000036026E+02 0.  0.
        -12    1    1    2    0    0  0.19336804904E+02 -0.21405824420E+02 -0.13586683287E+02  0.31886036218E+02  0.00000000000E+00 0.  1.
         11    1    3    3    0    0 -0.47558687130E+01 -0.13988965716E+02  0.10176984799E+01  0.14810305854E+02  0.51100000000E-03 0. -1.
        -11    1    3    3    0    0 -0.73682971770E+01  0.20703256682E+01  0.61004587279E+01  0.97874229812E+01  0.51100000000E-03 0.  1.
         12    1    3    3    0    0 -0.72126390140E+01  0.33324464467E+02  0.64685260793E+01  0.34704234947E+02  0.00000000000E+00 0. -1.
</event>
<event>
 7    1  0.3755162E-013  0.5930198E+02  0.7816164E-02  0.1266605E+00
        -11   -1    0    0    0    0  0.00000000000E+00  0.00000000000E+00  0.45593999997E+02  0.45594000000E+02  0.51100000000E-03 0. -1.
         11   -1    0    0    0    0 -0.00000000000E+00 -0.00000000000E+00 -0.45593999997E+02  0.45594000000E+02  0.51100000000E-03 0.  1.
    9900012    2    1    2    0    0  0.20701974125E+02 -0.11839143031E+02  0.21165571788E+02  0.59301976895E+02  0.50000059942E+02 0.  0.
        -12    1    1    2    0    0 -0.20701974125E+02  0.11839143031E+02 -0.21165571788E+02  0.31886023105E+02  0.00000000000E+00 0.  1.
         11    1    3    3    0    0  0.14620899648E+02  0.36121701614E+01  0.30017872616E+02  0.33584090824E+02  0.51100000000E-03 0. -1.
        -11    1    3    3    0    0  0.78286985728E+01 -0.79673607233E+01  0.30238368754E+01  0.11571989801E+02  0.51100000000E-03 0.  1.
        -12    1    3    3    0    0 -0.17476240967E+01 -0.74839524688E+01 -0.11876137704E+02  0.14145896271E+02  0.00000000000E+00 0.  1.
</event>
<event>
 7    1  0.3755162E-013  0.5930193E+02  0.7816164E-02  0.1266605E+00
        -11   -1    0    0    0    0  0.00000000000E+00  0.00000000000E+00  0.45593999997E+02  0.45594000000E+02  0.51100000000E-03 0.  1.
         11   -1    0    0    0    0 -0.00000000000E+00 -0.00000000000E+00 -0.45593999997E+02  0.45594000000E+02  0.51100000000E-03 0. -1.
    9900012    2    1    2    0    0  0.72294614444E+01  0.18611807087E+02 -0.24860752387E+02  0.59301929608E+02  0.49999973701E+02 0.  0.
        -12    1    1    2    0    0 -0.72294614444E+01 -0.18611807087E+02  0.24860752387E+02  0.31886070392E+02  0.00000000000E+00 0.  1.
         11    1    3    3    0    0  0.60036241251E+01 -0.66658039312E+01  0.59298211415E+01  0.10753567953E+02  0.51100000000E-03 0. -1.
        -11    1    3    3    0    0  0.36921894077E+00 -0.32455114433E+01  0.29201699049E+01  0.43814449317E+01  0.51100000000E-03 0.  1.
         12    1    3    3    0    0  0.85661837851E+00  0.28523122462E+02 -0.33710743433E+02  0.44166916723E+02  0.00000000000E+00 0. -1.
</event>
<event>
 7    1  0.3755162E-013  0.5930192E+02  0.7816164E-02  0.1266605E+00
        -11   -1    0    0    0    0  0.00000000000E+00  0.00000000000E+00  0.45593999997E+02  0.45594000000E+02  0.51100000000E-03 0.  1.
         11   -1    0    0    0    0 -0.00000000000E+00 -0.00000000000E+00 -0.45593999997E+02  0.45594000000E+02  0.51100000000E-03 0. -1.
    9900012    2    1    2    0    0 -0.75203142196E+01  0.27046037216E+02  0.15122121849E+02  0.59301924289E+02  0.49999964001E+02 0.  0.
        -12    1    1    2    0    0  0.75203142196E+01 -0.27046037216E+02 -0.15122121849E+02  0.31886075711E+02  0.00000000000E+00 0.  1.
         11    1    3    3    0    0  0.20160347002E+01  0.43348014590E+01  0.57183579963E+01  0.74534903258E+01  0.51100000000E-03 0. -1.
        -11    1    3    3    0    0  0.40164876197E+01 -0.21630524471E+01  0.20815347571E+02  0.21309379706E+02  0.51100000000E-03 0.  1.
         12    1    3    3    0    0 -0.13552836539E+02  0.24874288204E+02 -0.11411583719E+02  0.30539054257E+02  0.00000000000E+00 0. -1.
</event>
<event>
 7    1  0.3755162E-013  0.5930195E+02  0.7816164E-02  0.1266605E+00
        -11   -1    0    0    0    0  0.00000000000E+00  0.00000000000E+00  0.45593999997E+02  0.45594000000E+02  0.51100000000E-03 0.  1.
         11   -1    0    0    0    0 -0.00000000000E+00 -0.00000000000E+00 -0.45593999997E+02  0.45594000000E+02  0.51100000000E-03 0. -1.
    9900012    2    1    2    0    0  0.18269971091E+02 -0.55623100664E+01 -0.25534077723E+02  0.59301948784E+02  0.50000008675E+02 0.  0.
        -12    1    1    2    0    0 -0.18269971091E+02  0.55623100664E+01  0.25534077723E+02  0.31886051216E+02  0.00000000000E+00 0.  1.
         11    1    3    3    0    0  0.40274632850E+01  0.35588652288E+01 -0.18937007542E+02  0.19684924108E+02  0.51100000000E-03 0. -1.
        -11    1    3    3    0    0  0.81435853358E+01  0.18058881855E+01 -0.19763948412E+02  0.21452106455E+02  0.51100000000E-03 0.  1.
        -12    1    3    3    0    0  0.60989224706E+01 -0.10927063481E+02  0.13166878231E+02  0.18164918221E+02  0.00000000000E+00 0.  1.
</event>
<event>
 7    1  0.3755162E-013  0.5930195E+02  0.7816164E-02  0.1266605E+00
        -11   -1    0    0    0    0  0.00000000000E+00  0.00000000000E+00  0.45593999997E+02  0.45594000000E+02  0.51100000000E-03 0.  1.
         11   -1    0    0    0    0 -0.00000000000E+00 -0.00000000000E+00 -0.45593999997E+02  0.45594000000E+02  0.51100000000E-03 0. -1.
    9900012    2    1    2    0    0 -0.65360625606E+01  0.30588529342E+02 -0.61921109290E+01  0.59301945386E+02  0.50000002477E+02 0.  0.
        -12    1    1    2    0    0  0.65360625606E+01 -0.30588529342E+02  0.61921109290E+01  0.31886054614E+02  0.00000000000E+00 0.  1.
         11    1    3    3    0    0 -0.50271297382E+01  0.79212978994E+00  0.85953902550E+01  0.99890058017E+01  0.51100000000E-03 0. -1.
        -11    1    3    3    0    0 -0.18894961760E+02  0.16199174404E+02 -0.93012341863E+01  0.26569640361E+02  0.51100000000E-03 0.  1.
         12    1    3    3    0    0  0.17386028938E+02  0.13597225148E+02 -0.54862669978E+01  0.22743299223E+02  0.00000000000E+00 0. -1.
</event>
<event>
 7    1  0.3755162E-013  0.5930193E+02  0.7816164E-02  0.1266605E+00
        -11   -1    0    0    0    0  0.00000000000E+00  0.00000000000E+00  0.45593999997E+02  0.45594000000E+02  0.51100000000E-03 0.  1.
         11   -1    0    0    0    0 -0.00000000000E+00 -0.00000000000E+00 -0.45593999997E+02  0.45594000000E+02  0.51100000000E-03 0. -1.
    9900012    2    1    2    0    0 -0.13521121940E+02 -0.18275004323E+01 -0.28819456851E+02  0.59301927969E+02  0.49999970714E+02 0.  0.
        -12    1    1    2    0    0  0.13521121940E+02  0.18275004323E+01  0.28819456851E+02  0.31886072031E+02  0.00000000000E+00 0.  1.
         11    1    3    3    0    0 -0.12918451897E+02 -0.68455279006E+01 -0.34572122498E+02  0.37536373106E+02  0.51100000000E-03 0. -1.
        -11    1    3    3    0    0 -0.32430570306E+01 -0.72409643770E+01  0.46036047199E+01  0.91729036129E+01  0.51100000000E-03 0.  1.
        -12    1    3    3    0    0  0.26403869883E+01  0.12258991845E+02  0.11490609269E+01  0.12592651251E+02  0.00000000000E+00 0.  1.
</event>
<event>
 7    1  0.3755162E-013  0.5930200E+02  0.7816164E-02  0.1266605E+00
        -11   -1    0    0    0    0  0.00000000000E+00  0.00000000000E+00  0.45593999997E+02  0.45594000000E+02  0.51100000000E-03 0.  1.
         11   -1    0    0    0    0 -0.00000000000E+00 -0.00000000000E+00 -0.45593999997E+02  0.45594000000E+02  0.51100000000E-03 0. -1.
    9900012    2    1    2    0    0  0.19226387208E+01 -0.27507556873E+02 -0.16011087083E+02  0.59301997830E+02  0.50000098123E+02 0.  0.
        -12    1    1    2    0    0 -0.19226387208E+01  0.27507556873E+02  0.16011087083E+02  0.31886002170E+02  0.00000000000E+00 0.  1.
         11    1    3    3    0    0  0.16913480750E+02 -0.98265625121E+01 -0.49516922125E+01  0.20177869509E+02  0.51100000000E-03 0. -1.
        -11    1    3    3    0    0  0.88480435693E+01 -0.63780764466E+01 -0.52700136616E+01  0.12113660818E+02  0.51100000000E-03 0.  1.
         12    1    3    3    0    0 -0.23838885599E+02 -0.11302917914E+02 -0.57893812088E+01  0.27010467503E+02  0.00000000000E+00 0. -1.
</event>
<event>
 7    1  0.3755162E-013  0.5930194E+02  0.7816164E-02  0.1266605E+00
        -11   -1    0    0    0    0  0.00000000000E+00  0.00000000000E+00  0.45593999997E+02  0.45594000000E+02  0.51100000000E-03 0. -1.
         11   -1    0    0    0    0 -0.00000000000E+00 -0.00000000000E+00 -0.45593999997E+02  0.45594000000E+02  0.51100000000E-03 0.  1.
    9900012    2    1    2    0    0  0.23690258740E+02 -0.18875595945E+02  0.99601312666E+01  0.59301941976E+02  0.49999996258E+02 0.  0.
        -12    1    1    2    0    0 -0.23690258740E+02  0.18875595945E+02 -0.99601312666E+01  0.31886058024E+02  0.00000000000E+00 0.  1.
         11    1    3    3    0    0 -0.26071254745E+01 -0.17172545718E+02 -0.34436989633E+01  0.17707413489E+02  0.51100000000E-03 0. -1.
        -11    1    3    3    0    0  0.29007324834E+02 -0.66752427243E+01  0.32160156483E+01  0.29938712670E+02  0.51100000000E-03 0.  1.
        -12    1    3    3    0    0 -0.27099406189E+01  0.49721924973E+01  0.10187814582E+02  0.11655815816E+02  0.00000000000E+00 0.  1.
</event>
<event>
 7    1  0.3755162E-013  0.5930173E+02  0.7816164E-02  0.1266606E+00
        -11   -1    0    0    0    0  0.00000000000E+00  0.00000000000E+00  0.45593999997E+02  0.45594000000E+02  0.51100000000E-03 0.  1.
         11   -1    0    0    0    0 -0.00000000000E+00 -0.00000000000E+00 -0.45593999997E+02  0.45594000000E+02  0.51100000000E-03 0. -1.
    9900012    2    1    2    0    0 -0.29034492583E+02  0.11859852624E+02 -0.57512006063E+01  0.59301730663E+02  0.49999610873E+02 0.  0.
        -12    1    1    2    0    0  0.29034492583E+02 -0.11859852624E+02  0.57512006063E+01  0.31886269337E+02  0.00000000000E+00 0.  1.
         11    1    3    3    0    0 -0.16340917333E+02  0.67006897905E+01  0.58164893384E+01  0.18594525308E+02  0.51100000000E-03 0. -1.
        -11    1    3    3    0    0  0.11016671966E+02 -0.26669200361E+01  0.30975030283E+01  0.11750491435E+02  0.51100000000E-03 0.  1.
         12    1    3    3    0    0 -0.23710247216E+02  0.78260828694E+01 -0.14665192973E+02  0.28956713920E+02  0.00000000000E+00 0. -1.
</event>
<event>
 7    1  0.3755162E-013  0.5930194E+02  0.7816164E-02  0.1266605E+00
        -11   -1    0    0    0    0  0.00000000000E+00  0.00000000000E+00  0.45593999997E+02  0.45594000000E+02  0.51100000000E-03 0. -1.
         11   -1    0    0    0    0 -0.00000000000E+00 -0.00000000000E+00 -0.45593999997E+02  0.45594000000E+02  0.51100000000E-03 0.  1.
    9900012    2    1    2    0    0  0.27735028879E+01 -0.14787346864E+02  0.28113388989E+02  0.59301943705E+02  0.49999999412E+02 0.  0.
        -12    1    1    2    0    0 -0.27735028879E+01  0.14787346864E+02 -0.28113388989E+02  0.31886056295E+02  0.00000000000E+00 0.  1.
         11    1    3    3    0    0 -0.36676481653E+01  0.49854980369E+01 -0.42232429911E-01  0.61893955746E+01  0.51100000000E-03 0. -1.
        -11    1    3    3    0    0 -0.16886028557E+00  0.78146291355E+01 -0.51518653362E+01  0.93615521697E+01  0.51100000000E-03 0.  1.
         12    1    3    3    0    0  0.66100113387E+01 -0.27587474037E+02  0.33307486755E+02  0.43750995961E+02  0.00000000000E+00 0. -1.
</event>
<event>
 7    1  0.3755162E-013  0.5930192E+02  0.7816164E-02  0.1266605E+00
        -11   -1    0    0    0    0  0.00000000000E+00  0.00000000000E+00  0.45593999997E+02  0.45594000000E+02  0.51100000000E-03 0.  1.
         11   -1    0    0    0    0 -0.00000000000E+00 -0.00000000000E+00 -0.45593999997E+02  0.45594000000E+02  0.51100000000E-03 0. -1.
    9900012    2    1    2    0    0  0.23673359982E+02 -0.57177197479E+01 -0.20581595503E+02  0.59301915803E+02  0.49999948526E+02 0.  0.
        -12    1    1    2    0    0 -0.23673359982E+02  0.57177197479E+01  0.20581595503E+02  0.31886084197E+02  0.00000000000E+00 0.  1.
         11    1    3    3    0    0  0.94652351089E+01 -0.12134252797E+02 -0.42537654812E+01  0.15966379916E+02  0.51100000000E-03 0. -1.
        -11    1    3    3    0    0  0.15290258994E+02  0.95820914906E+01  0.73049303710E+01  0.19467164802E+02  0.51100000000E-03 0.  1.
         12    1    3    3    0    0 -0.10821341207E+01 -0.31655584416E+01 -0.23632760392E+02  0.23868371085E+02  0.00000000000E+00 0. -1.
</event>
<event>
 7    1  0.3755162E-013  0.5930197E+02  0.7816164E-02  0.1266605E+00
        -11   -1    0    0    0    0  0.00000000000E+00  0.00000000000E+00  0.45593999997E+02  0.45594000000E+02  0.51100000000E-03 0. -1.
         11   -1    0    0    0    0 -0.00000000000E+00 -0.00000000000E+00 -0.45593999997E+02  0.45594000000E+02  0.51100000000E-03 0.  1.
    9900012    2    1    2    0    0  0.21264718262E+02 -0.50934247183E+01  0.23207490902E+02  0.59301970895E+02  0.50000049000E+02 0.  0.
        -12    1    1    2    0    0 -0.21264718262E+02  0.50934247183E+01 -0.23207490902E+02  0.31886029105E+02  0.00000000000E+00 0.  1.
         11    1    3    3    0    0  0.29957039090E+01  0.61474124348E+00 -0.19848081936E+01  0.36457663849E+01  0.51100000000E-03 0.  1.
        -11    1    3    3    0    0  0.19386039778E+02 -0.22299838341E+02  0.25491054350E+02  0.39024289622E+02  0.51100000000E-03 0. -1.
         12    1    3    3    0    0 -0.11170254251E+01  0.16591672380E+02 -0.29875525508E+00  0.16631914888E+02  0.00000000000E+00 0. -1.
</event>
<event>
 7    1  0.3755162E-013  0.5930189E+02  0.7816164E-02  0.1266605E+00
        -11   -1    0    0    0    0  0.00000000000E+00  0.00000000000E+00  0.45593999997E+02  0.45594000000E+02  0.51100000000E-03 0.  1.
         11   -1    0    0    0    0 -0.00000000000E+00 -0.00000000000E+00 -0.45593999997E+02  0.45594000000E+02  0.51100000000E-03 0. -1.
    9900012    2    1    2    0    0  0.18629716244E+02  0.57791560907E+01 -0.25224172222E+02  0.59301892731E+02  0.49999906447E+02 0.  0.
        -12    1    1    2    0    0 -0.18629716244E+02 -0.57791560907E+01  0.25224172222E+02  0.31886107269E+02  0.00000000000E+00 0.  1.
         11    1    3    3    0    0  0.68936089453E+01  0.49439202048E-01 -0.19557276867E+02  0.20736715440E+02  0.51100000000E-03 0. -1.
        -11    1    3    3    0    0  0.12672897415E+02 -0.97627909395E+01 -0.13724134530E+02  0.21077625214E+02  0.51100000000E-03 0.  1.
        -12    1    3    3    0    0 -0.93679011590E+00  0.15492507828E+02  0.80572391746E+01  0.17487552077E+02  0.00000000000E+00 0.  1.
</event>
<event>
 7    1  0.3755162E-013  0.5930193E+02  0.7816164E-02  0.1266605E+00
        -11   -1    0    0    0    0  0.00000000000E+00  0.00000000000E+00  0.45593999997E+02  0.45594000000E+02  0.51100000000E-03 0.  1.
         11   -1    0    0    0    0 -0.00000000000E+00 -0.00000000000E+00 -0.45593999997E+02  0.45594000000E+02  0.51100000000E-03 0. -1.
    9900012    2    1    2    0    0 -0.11054292191E+02 -0.49749928075E+01 -0.29491920332E+02  0.59301932601E+02  0.49999979161E+02 0.  0.
        -12    1    1    2    0    0  0.11054292191E+02  0.49749928075E+01  0.29491920332E+02  0.31886067399E+02  0.00000000000E+00 0.  1.
         11    1    3    3    0    0  0.26232514392E+01  0.59821986080E+01 -0.49213897004E+01  0.81785221858E+01  0.51100000000E-03 0. -1.
        -11    1    3    3    0    0 -0.24811042665E+00  0.10721180717E+02 -0.23231511158E+02  0.25587269994E+02  0.51100000000E-03 0.  1.
         12    1    3    3    0    0 -0.13429433204E+02 -0.21678372133E+02 -0.13390194733E+01  0.25536140422E+02  0.00000000000E+00 0. -1.
</event>
<event>
 7    1  0.3755162E-013  0.5930193E+02  0.7816164E-02  0.1266605E+00
        -11   -1    0    0    0    0  0.00000000000E+00  0.00000000000E+00  0.45593999997E+02  0.45594000000E+02  0.51100000000E-03 0.  1.
         11   -1    0    0    0    0 -0.00000000000E+00 -0.00000000000E+00 -0.45593999997E+02  0.45594000000E+02  0.51100000000E-03 0. -1.
    9900012    2    1    2    0    0  0.25456032113E+02  0.18700797387E+01 -0.19110583278E+02  0.59301934668E+02  0.49999982929E+02 0.  0.
        -12    1    1    2    0    0 -0.25456032113E+02 -0.18700797387E+01  0.19110583278E+02  0.31886065332E+02  0.00000000000E+00 0.  1.
         11    1    3    3    0    0  0.19715610594E+02 -0.15225493363E+02 -0.82751931865E+01  0.26248805149E+02  0.51100000000E-03 0. -1.
        -11    1    3    3    0    0  0.11938105121E+02  0.43183041154E+00  0.52002841297E+00  0.11957226317E+02  0.51100000000E-03 0.  1.
         12    1    3    3    0    0 -0.61976836021E+01  0.16663742690E+02 -0.11355418504E+02  0.21095903201E+02  0.00000000000E+00 0. -1.
</event>
<event>
 7    1  0.3755162E-013  0.5930192E+02  0.7816164E-02  0.1266605E+00
        -11   -1    0    0    0    0  0.00000000000E+00  0.00000000000E+00  0.45593999997E+02  0.45594000000E+02  0.51100000000E-03 0.  1.
         11   -1    0    0    0    0 -0.00000000000E+00 -0.00000000000E+00 -0.45593999997E+02  0.45594000000E+02  0.51100000000E-03 0. -1.
    9900012    2    1    2    0    0 -0.46796478991E+01 -0.29178675051E+02 -0.11976137093E+02  0.59301920876E+02  0.49999957777E+02 0.  0.
        -12    1    1    2    0    0  0.46796478991E+01  0.29178675051E+02  0.11976137093E+02  0.31886079124E+02  0.00000000000E+00 0.  1.
         11    1    3    3    0    0 -0.85865335552E+01  0.24619046808E+01 -0.53112629313E+01  0.10392259010E+02  0.51100000000E-03 0. -1.
        -11    1    3    3    0    0 -0.13911493570E+02 -0.19255631381E+02 -0.11926570325E+02  0.26581047256E+02  0.51100000000E-03 0.  1.
         12    1    3    3    0    0  0.17818379226E+02 -0.12384948351E+02  0.52616961635E+01  0.22328614610E+02  0.00000000000E+00 0. -1.
</event>
<event>
 7    1  0.3755162E-013  0.5930187E+02  0.7816164E-02  0.1266605E+00
        -11   -1    0    0    0    0  0.00000000000E+00  0.00000000000E+00  0.45593999997E+02  0.45594000000E+02  0.51100000000E-03 0.  1.
         11   -1    0    0    0    0 -0.00000000000E+00 -0.00000000000E+00 -0.45593999997E+02  0.45594000000E+02  0.51100000000E-03 0. -1.
    9900012    2    1    2    0    0  0.27939159629E+02 -0.23165203566E+01 -0.15190866040E+02  0.59301869499E+02  0.49999864077E+02 0.  0.
        -12    1    1    2    0    0 -0.27939159629E+02  0.23165203566E+01  0.15190866040E+02  0.31886130501E+02  0.00000000000E+00 0.  1.
         11    1    3    3    0    0  0.33338803029E+01  0.14696997008E+02 -0.11681454151E+02  0.19067586378E+02  0.51100000000E-03 0.  1.
        -11    1    3    3    0    0  0.23469587176E+02 -0.46213152149E+00 -0.26245101764E+01  0.23620396730E+02  0.51100000000E-03 0. -1.
         12    1    3    3    0    0  0.11356921501E+01 -0.16551385843E+02 -0.88490171195E+00  0.16613886391E+02  0.00000000000E+00 0. -1.
</event>
<event>
 7    1  0.3755162E-013  0.5930193E+02  0.7816164E-02  0.1266605E+00
        -11   -1    0    0    0    0  0.00000000000E+00  0.00000000000E+00  0.45593999997E+02  0.45594000000E+02  0.51100000000E-03 0.  1.
         11   -1    0    0    0    0 -0.00000000000E+00 -0.00000000000E+00 -0.45593999997E+02  0.45594000000E+02  0.51100000000E-03 0. -1.
    9900012    2    1    2    0    0 -0.29115881578E+02  0.47491240798E+01 -0.12100930016E+02  0.59301933343E+02  0.49999980514E+02 0.  0.
        -12    1    1    2    0    0  0.29115881578E+02 -0.47491240798E+01  0.12100930016E+02  0.31886066657E+02  0.00000000000E+00 0.  1.
         11    1    3    3    0    0  0.10974433971E+01 -0.11380077375E+02 -0.36514267345E+01  0.12001810719E+02  0.51100000000E-03 0. -1.
        -11    1    3    3    0    0 -0.13932952819E+02  0.99868580642E+01  0.11641285935E+02  0.20721584079E+02  0.51100000000E-03 0.  1.
         12    1    3    3    0    0 -0.16280372156E+02  0.61423433908E+01 -0.20090789217E+02  0.26578538545E+02  0.00000000000E+00 0. -1.
</event>
<event>
 7    1  0.3755162E-013  0.5930194E+02  0.7816164E-02  0.1266605E+00
        -11   -1    0    0    0    0  0.00000000000E+00  0.00000000000E+00  0.45593999997E+02  0.45594000000E+02  0.51100000000E-03 0.  1.
         11   -1    0    0    0    0 -0.00000000000E+00 -0.00000000000E+00 -0.45593999997E+02  0.45594000000E+02  0.51100000000E-03 0. -1.
    9900012    2    1    2    0    0 -0.20587658133E+02 -0.21996565189E+02 -0.10441278284E+02  0.59301939727E+02  0.49999992157E+02 0.  0.
        -12    1    1    2    0    0  0.20587658133E+02  0.21996565189E+02  0.10441278284E+02  0.31886060273E+02  0.00000000000E+00 0.  1.
         11    1    3    3    0    0 -0.89885494631E+01  0.50726795308E+01 -0.22085963162E+02  0.24378594465E+02  0.51100000000E-03 0.  1.
        -11    1    3    3    0    0  0.14843639652E+01 -0.15158432985E+02  0.52672678483E+01  0.16116002537E+02  0.51100000000E-03 0. -1.
        -12    1    3    3    0    0 -0.13083472635E+02 -0.11910811735E+02  0.63774170291E+01  0.18807342724E+02  0.00000000000E+00 0.  1.
</event>
<event>
 7    1  0.3755162E-013  0.5930185E+02  0.7816164E-02  0.1266605E+00
        -11   -1    0    0    0    0  0.00000000000E+00  0.00000000000E+00  0.45593999997E+02  0.45594000000E+02  0.51100000000E-03 0.  1.
         11   -1    0    0    0    0 -0.00000000000E+00 -0.00000000000E+00 -0.45593999997E+02  0.45594000000E+02  0.51100000000E-03 0. -1.
    9900012    2    1    2    0    0  0.14875999784E+00  0.28932876210E+02  0.13401246507E+02  0.59301845273E+02  0.49999819895E+02 0.  0.
        -12    1    1    2    0    0 -0.14875999784E+00 -0.28932876210E+02 -0.13401246507E+02  0.31886154727E+02  0.00000000000E+00 0.  1.
         11    1    3    3    0    0  0.12801522757E+02  0.42500580118E+01 -0.29637850792E+01  0.13810358441E+02  0.51100000000E-03 0. -1.
        -11    1    3    3    0    0 -0.12234381625E+02 -0.16559087929E+01 -0.31105136996E+01  0.12731748639E+02  0.51100000000E-03 0.  1.
        -12    1    3    3    0    0 -0.41838113412E+00  0.26338726991E+02  0.19475545285E+02  0.32759738193E+02  0.00000000000E+00 0.  1.
</event>
<event>
 7    1  0.3755162E-013  0.5930193E+02  0.7816164E-02  0.1266605E+00
        -11   -1    0    0    0    0  0.00000000000E+00  0.00000000000E+00  0.45593999997E+02  0.45594000000E+02  0.51100000000E-03 0. -1.
         11   -1    0    0    0    0 -0.00000000000E+00 -0.00000000000E+00 -0.45593999997E+02  0.45594000000E+02  0.51100000000E-03 0.  1.
    9900012    2    1    2    0    0  0.27067962290E+02  0.15982195195E+02  0.53494310145E+01  0.59301928465E+02  0.49999971617E+02 0.  0.
        -12    1    1    2    0    0 -0.27067962290E+02 -0.15982195195E+02 -0.53494310145E+01  0.31886071535E+02  0.00000000000E+00 0.  1.
         11    1    3    3    0    0  0.56871239237E+01  0.23157596608E+01  0.13037979789E+02  0.14411628589E+02  0.51100000000E-03 0. -1.
        -11    1    3    3    0    0  0.15342729893E+02 -0.10286094849E+02  0.15054004631E+01  0.18532925797E+02  0.51100000000E-03 0.  1.
         12    1    3    3    0    0  0.60381084735E+01  0.23952530384E+02 -0.91939492379E+01  0.26357374078E+02  0.00000000000E+00 0. -1.
</event>
<event>
 7    1  0.3755162E-013  0.5930193E+02  0.7816164E-02  0.1266605E+00
        -11   -1    0    0    0    0  0.00000000000E+00  0.00000000000E+00  0.45593999997E+02  0.45594000000E+02  0.51100000000E-03 0.  1.
         11   -1    0    0    0    0 -0.00000000000E+00 -0.00000000000E+00 -0.45593999997E+02  0.45594000000E+02  0.51100000000E-03 0. -1.
    9900012    2    1    2    0    0  0.14464550470E+02  0.27880362294E+02 -0.54939757842E+01  0.59301927934E+02  0.49999970648E+02 0.  0.
        -12    1    1    2    0    0 -0.14464550470E+02 -0.27880362294E+02  0.54939757842E+01  0.31886072066E+02  0.00000000000E+00 0.  1.
         11    1    3    3    0    0 -0.89488113855E+00 -0.99634530689E+00  0.22130148883E+00  0.13573838193E+01  0.51100000000E-03 0. -1.
        -11    1    3    3    0    0 -0.48310640675E+01  0.10568004789E+02  0.18260669017E+02  0.21644258788E+02  0.51100000000E-03 0.  1.
         12    1    3    3    0    0  0.20190495676E+02  0.18308702812E+02 -0.23975946290E+02  0.36300285327E+02  0.00000000000E+00 0. -1.
</event>
<event>
 7    1  0.3755162E-013  0.5930192E+02  0.7816164E-02  0.1266605E+00
        -11   -1    0    0    0    0  0.00000000000E+00  0.00000000000E+00  0.45593999997E+02  0.45594000000E+02  0.51100000000E-03 0. -1.
         11   -1    0    0    0    0 -0.00000000000E+00 -0.00000000000E+00 -0.45593999997E+02  0.45594000000E+02  0.51100000000E-03 0.  1.
    9900012    2    1    2    0    0 -0.22563245717E+02  0.53673446029E+01  0.21881810849E+02  0.59301920100E+02  0.49999956361E+02 0.  0.
        -12    1    1    2    0    0  0.22563245717E+02 -0.53673446029E+01 -0.21881810849E+02  0.31886079900E+02  0.00000000000E+00 0.  1.
         11    1    3    3    0    0 -0.10590151797E+02  0.97714674067E+01 -0.28460732526E+01  0.14687852926E+02  0.51100000000E-03 0. -1.
        -11    1    3    3    0    0 -0.13569791009E+02  0.34451464904E+01 -0.41847890257E+01  0.14612348265E+02  0.51100000000E-03 0.  1.
        -12    1    3    3    0    0  0.15966970892E+01 -0.78492692943E+01  0.28912673128E+02  0.30001718908E+02  0.00000000000E+00 0.  1.
</event>
<event>
 7    1  0.3755162E-013  0.5930202E+02  0.7816164E-02  0.1266605E+00
        -11   -1    0    0    0    0  0.00000000000E+00  0.00000000000E+00  0.45593999997E+02  0.45594000000E+02  0.51100000000E-03 0. -1.
         11   -1    0    0    0    0 -0.00000000000E+00 -0.00000000000E+00 -0.45593999997E+02  0.45594000000E+02  0.51100000000E-03 0.  1.
    9900012    2    1    2    0    0 -0.49625262224E+00  0.14627292790E+02  0.28328642924E+02  0.59302016074E+02  0.50000131394E+02 0.  0.
        -12    1    1    2    0    0  0.49625262224E+00 -0.14627292790E+02 -0.28328642924E+02  0.31885983926E+02  0.00000000000E+00 0.  1.
         11    1    3    3    0    0  0.40619692019E+01 -0.54017929690E+01  0.70325130979E+01  0.97537275855E+01  0.51100000000E-03 0. -1.
        -11    1    3    3    0    0 -0.44077759997E+00 -0.25782146421E+00 -0.11095388682E+02  0.11107133161E+02  0.51100000000E-03 0.  1.
         12    1    3    3    0    0 -0.41174442242E+01  0.20286907223E+02  0.32391518508E+02  0.38441155327E+02  0.00000000000E+00 0. -1.
</event>
<event>
 7    1  0.3755162E-013  0.5930232E+02  0.7816164E-02  0.1266603E+00
        -11   -1    0    0    0    0  0.00000000000E+00  0.00000000000E+00  0.45593999997E+02  0.45594000000E+02  0.51100000000E-03 0.  1.
         11   -1    0    0    0    0 -0.00000000000E+00 -0.00000000000E+00 -0.45593999997E+02  0.45594000000E+02  0.51100000000E-03 0. -1.
    9900012    2    1    2    0    0 -0.45651872018E+01  0.25251320042E+02 -0.18926878634E+02  0.59302316177E+02  0.50000678706E+02 0.  0.
        -12    1    1    2    0    0  0.45651872018E+01 -0.25251320042E+02  0.18926878634E+02  0.31885683823E+02  0.00000000000E+00 0.  1.
         11    1    3    3    0    0 -0.30318603192E+01  0.21339911255E+02  0.61235011189E+01  0.22407169737E+02  0.51100000000E-03 0.  1.
        -11    1    3    3    0    0 -0.82887678073E+01  0.12757990861E+02 -0.18601771664E+02  0.24031144623E+02  0.51100000000E-03 0. -1.
        -12    1    3    3    0    0  0.67554409246E+01 -0.88465820740E+01 -0.64486080885E+01  0.12864001817E+02  0.00000000000E+00 0.  1.
</event>
<event>
 7    1  0.3755162E-013  0.5930193E+02  0.7816164E-02  0.1266605E+00
        -11   -1    0    0    0    0  0.00000000000E+00  0.00000000000E+00  0.45593999997E+02  0.45594000000E+02  0.51100000000E-03 0.  1.
         11   -1    0    0    0    0 -0.00000000000E+00 -0.00000000000E+00 -0.45593999997E+02  0.45594000000E+02  0.51100000000E-03 0. -1.
    9900012    2    1    2    0    0 -0.14259451274E+02 -0.24913405477E+02 -0.13882058112E+02  0.59301933129E+02  0.49999980123E+02 0.  0.
        -12    1    1    2    0    0  0.14259451274E+02  0.24913405477E+02  0.13882058112E+02  0.31886066871E+02  0.00000000000E+00 0.  1.
         11    1    3    3    0    0 -0.10086883127E+01 -0.24447430562E+02 -0.14677271606E+02  0.28532728843E+02  0.51100000000E-03 0. -1.
        -11    1    3    3    0    0  0.81717539931E+01  0.15978467146E+01 -0.31245670209E+01  0.88934580888E+01  0.51100000000E-03 0.  1.
         12    1    3    3    0    0 -0.21422516954E+02 -0.20638216298E+01  0.39197805153E+01  0.21875746197E+02  0.00000000000E+00 0. -1.
</event>
<event>
 7    1  0.3755162E-013  0.5930183E+02  0.7816164E-02  0.1266605E+00
        -11   -1    0    0    0    0  0.00000000000E+00  0.00000000000E+00  0.45593999997E+02  0.45594000000E+02  0.51100000000E-03 0. -1.
         11   -1    0    0    0    0 -0.00000000000E+00 -0.00000000000E+00 -0.45593999997E+02  0.45594000000E+02  0.51100000000E-03 0.  1.
    9900012    2    1    2    0    0  0.13948379743E+02 -0.13639914860E+02 -0.25221483599E+02  0.59301830431E+02  0.49999792826E+02 0.  0.
        -12    1    1    2    0    0 -0.13948379743E+02  0.13639914860E+02  0.25221483599E+02  0.31886169569E+02  0.00000000000E+00 0.  1.
         11    1    3    3    0    0  0.66105671405E+01 -0.10049160920E+02  0.11741347792E+00  0.12029090543E+02  0.51100000000E-03 0. -1.
        -11    1    3    3    0    0  0.20259729787E+02 -0.12863975603E+02 -0.15580063577E+02  0.28612530484E+02  0.51100000000E-03 0.  1.
         12    1    3    3    0    0 -0.12921917185E+02  0.92732216622E+01 -0.97588335001E+01  0.18660209404E+02  0.00000000000E+00 0. -1.
</event>
<event>
 7    1  0.3755162E-013  0.5930180E+02  0.7816164E-02  0.1266605E+00
        -11   -1    0    0    0    0  0.00000000000E+00  0.00000000000E+00  0.45593999997E+02  0.45594000000E+02  0.51100000000E-03 0.  1.
         11   -1    0    0    0    0 -0.00000000000E+00 -0.00000000000E+00 -0.45593999997E+02  0.45594000000E+02  0.51100000000E-03 0. -1.
    9900012    2    1    2    0    0  0.23129862282E+01  0.31714496165E+02  0.23601525183E+01  0.59301804050E+02  0.49999744713E+02 0.  0.
        -12    1    1    2    0    0 -0.23129862282E+01 -0.31714496165E+02 -0.23601525183E+01  0.31886195950E+02  0.00000000000E+00 0.  1.
         11    1    3    3    0    0  0.69263720768E+01  0.26557357024E+02 -0.65156667633E+01  0.28208540477E+02  0.51100000000E-03 0. -1.
        -11    1    3    3    0    0 -0.12588554163E+02  0.42984666277E+01 -0.56874847093E+01  0.14467065834E+02  0.51100000000E-03 0.  1.
        -12    1    3    3    0    0  0.79751683141E+01  0.85867251332E+00  0.14563303991E+02  0.16626197739E+02  0.00000000000E+00 0.  1.
</event>
<event>
 7    1  0.3755162E-013  0.5930196E+02  0.7816164E-02  0.1266605E+00
        -11   -1    0    0    0    0  0.00000000000E+00  0.00000000000E+00  0.45593999997E+02  0.45594000000E+02  0.51100000000E-03 0.  1.
         11   -1    0    0    0    0 -0.00000000000E+00 -0.00000000000E+00 -0.45593999997E+02  0.45594000000E+02  0.51100000000E-03 0. -1.
    9900012    2    1    2    0    0  0.19551638656E+02  0.18197447233E+02 -0.17415681456E+02  0.59301958846E+02  0.50000027024E+02 0.  0.
        -12    1    1    2    0    0 -0.19551638656E+02 -0.18197447233E+02  0.17415681456E+02  0.31886041154E+02  0.00000000000E+00 0.  1.
         11    1    3    3    0    0  0.17595158614E+02 -0.47406286791E+01 -0.13094558938E+02  0.22439488429E+02  0.51100000000E-03 0. -1.
        -11    1    3    3    0    0  0.12073629525E+02  0.31937319525E+01 -0.73187613155E+01  0.14475383281E+02  0.51100000000E-03 0.  1.
        -12    1    3    3    0    0 -0.10117149483E+02  0.19744343960E+02  0.29976387976E+01  0.22387087135E+02  0.00000000000E+00 0.  1.
</event>
<event>
 7    1  0.3755162E-013  0.5930197E+02  0.7816164E-02  0.1266605E+00
        -11   -1    0    0    0    0  0.00000000000E+00  0.00000000000E+00  0.45593999997E+02  0.45594000000E+02  0.51100000000E-03 0.  1.
         11   -1    0    0    0    0 -0.00000000000E+00 -0.00000000000E+00 -0.45593999997E+02  0.45594000000E+02  0.51100000000E-03 0. -1.
    9900012    2    1    2    0    0  0.16269374026E+02  0.71399637672E+01 -0.26477299364E+02  0.59301968648E+02  0.50000044901E+02 0.  0.
        -12    1    1    2    0    0 -0.16269374026E+02 -0.71399637672E+01  0.26477299364E+02  0.31886031352E+02  0.00000000000E+00 0.  1.
         11    1    3    3    0    0  0.14742219138E+02 -0.13397578823E+02 -0.14242315335E+02  0.24488194907E+02  0.51100000000E-03 0. -1.
        -11    1    3    3    0    0  0.31098510087E+01 -0.91023616637E+00  0.58676861441E+01  0.67029429448E+01  0.51100000000E-03 0.  1.
         12    1    3    3    0    0 -0.15826961209E+01  0.21447778757E+02 -0.18102670174E+02  0.28110830796E+02  0.00000000000E+00 0. -1.
</event>
<event>
 7    1  0.3755162E-013  0.5930194E+02  0.7816164E-02  0.1266605E+00
        -11   -1    0    0    0    0  0.00000000000E+00  0.00000000000E+00  0.45593999997E+02  0.45594000000E+02  0.51100000000E-03 0.  1.
         11   -1    0    0    0    0 -0.00000000000E+00 -0.00000000000E+00 -0.45593999997E+02  0.45594000000E+02  0.51100000000E-03 0. -1.
    9900012    2    1    2    0    0  0.16435411667E+02 -0.13736398843E+02 -0.23620101270E+02  0.59301943583E+02  0.49999999188E+02 0.  0.
        -12    1    1    2    0    0 -0.16435411667E+02  0.13736398843E+02  0.23620101270E+02  0.31886056417E+02  0.00000000000E+00 0.  1.
         11    1    3    3    0    0 -0.65028985392E+01 -0.64765905246E+01  0.22325443113E+01  0.94455369671E+01  0.51100000000E-03 0.  1.
        -11    1    3    3    0    0  0.28376394539E+01 -0.16488049221E+02 -0.21619773873E+02  0.27337201528E+02  0.51100000000E-03 0. -1.
         12    1    3    3    0    0  0.20100670752E+02  0.92282409034E+01 -0.42328717085E+01  0.22519205087E+02  0.00000000000E+00 0. -1.
</event>
<event>
 7    1  0.3755162E-013  0.5930194E+02  0.7816164E-02  0.1266605E+00
        -11   -1    0    0    0    0  0.00000000000E+00  0.00000000000E+00  0.45593999997E+02  0.45594000000E+02  0.51100000000E-03 0.  1.
         11   -1    0    0    0    0 -0.00000000000E+00 -0.00000000000E+00 -0.45593999997E+02  0.45594000000E+02  0.51100000000E-03 0. -1.
    9900012    2    1    2    0    0 -0.22074163131E+02 -0.18631266389E+02 -0.13502898699E+02  0.59301936611E+02  0.49999986473E+02 0.  0.
        -12    1    1    2    0    0  0.22074163131E+02  0.18631266389E+02  0.13502898699E+02  0.31886063389E+02  0.00000000000E+00 0.  1.
         11    1    3    3    0    0  0.33615108697E+00  0.72252509466E+01 -0.46246773440E+01  0.85851551874E+01  0.51100000000E-03 0. -1.
        -11    1    3    3    0    0 -0.58703302009E+01 -0.88238931271E+01  0.14124924993E+02  0.17658861031E+02  0.51100000000E-03 0.  1.
         12    1    3    3    0    0 -0.16539984017E+02 -0.17032624209E+02 -0.23003146349E+02  0.33057920392E+02  0.00000000000E+00 0. -1.
</event>
<event>
 7    1  0.3755162E-013  0.5930198E+02  0.7816164E-02  0.1266605E+00
        -11   -1    0    0    0    0  0.00000000000E+00  0.00000000000E+00  0.45593999997E+02  0.45594000000E+02  0.51100000000E-03 0. -1.
         11   -1    0    0    0    0 -0.00000000000E+00 -0.00000000000E+00 -0.45593999997E+02  0.45594000000E+02  0.51100000000E-03 0.  1.
    9900012    2    1    2    0    0  0.12691085664E+01  0.31385722201E+02  0.54812756022E+01  0.59301975211E+02  0.50000056870E+02 0.  0.
        -12    1    1    2    0    0 -0.12691085664E+01 -0.31385722201E+02 -0.54812756022E+01  0.31886024789E+02  0.00000000000E+00 0.  1.
         11    1    3    3    0    0  0.21774674864E+01  0.25514819824E+00 -0.25485782214E+01  0.33618025625E+01  0.51100000000E-03 0. -1.
        -11    1    3    3    0    0  0.11115785221E+02  0.24174300903E+02 -0.13870443935E+02  0.30005778117E+02  0.51100000000E-03 0.  1.
         12    1    3    3    0    0 -0.12024144141E+02  0.69562731000E+01  0.21900297758E+02  0.25934394531E+02  0.00000000000E+00 0. -1.
</event>
<event>
 7    1  0.3755162E-013  0.5930195E+02  0.7816164E-02  0.1266605E+00
        -11   -1    0    0    0    0  0.00000000000E+00  0.00000000000E+00  0.45593999997E+02  0.45594000000E+02  0.51100000000E-03 0.  1.
         11   -1    0    0    0    0 -0.00000000000E+00 -0.00000000000E+00 -0.45593999997E+02  0.45594000000E+02  0.51100000000E-03 0. -1.
    9900012    2    1    2    0    0 -0.46491851132E+01  0.11478396245E+02 -0.29382851491E+02  0.59301945614E+02  0.50000002893E+02 0.  0.
        -12    1    1    2    0    0  0.46491851132E+01 -0.11478396245E+02  0.29382851491E+02  0.31886054386E+02  0.00000000000E+00 0.  1.
         11    1    3    3    0    0 -0.32052070791E+01  0.15603579808E+02 -0.37026031585E+01  0.16354030869E+02  0.51100000000E-03 0. -1.
        -11    1    3    3    0    0 -0.17413680077E+02 -0.49794680700E+01 -0.10705928003E+02  0.21039207465E+02  0.51100000000E-03 0.  1.
         12    1    3    3    0    0  0.15969702043E+02  0.85428450605E+00 -0.14974320330E+02  0.21908707280E+02  0.00000000000E+00 0. -1.
</event>
<event>
 7    1  0.3755162E-013  0.5930194E+02  0.7816164E-02  0.1266605E+00
        -11   -1    0    0    0    0  0.00000000000E+00  0.00000000000E+00  0.45593999997E+02  0.45594000000E+02  0.51100000000E-03 0.  1.
         11   -1    0    0    0    0 -0.00000000000E+00 -0.00000000000E+00 -0.45593999997E+02  0.45594000000E+02  0.51100000000E-03 0. -1.
    9900012    2    1    2    0    0 -0.27332175141E+01 -0.92277905337E+01 -0.30398983946E+02  0.59301940020E+02  0.49999992691E+02 0.  0.
        -12    1    1    2    0    0  0.27332175141E+01  0.92277905337E+01  0.30398983946E+02  0.31886059980E+02  0.00000000000E+00 0.  1.
         11    1    3    3    0    0 -0.31658022719E+01  0.18829584555E+01  0.36773566485E+01  0.52048812428E+01  0.51100000000E-03 0. -1.
        -11    1    3    3    0    0 -0.35240492475E+01  0.15059806475E+02 -0.10967093531E+02  0.18960322649E+02  0.51100000000E-03 0.  1.
         12    1    3    3    0    0  0.39566340053E+01 -0.26170555464E+02 -0.23109247063E+02  0.35136736128E+02  0.00000000000E+00 0. -1.
</event>
<event>
 7    1  0.3755162E-013  0.5930192E+02  0.7816164E-02  0.1266605E+00
        -11   -1    0    0    0    0  0.00000000000E+00  0.00000000000E+00  0.45593999997E+02  0.45594000000E+02  0.51100000000E-03 0.  1.
         11   -1    0    0    0    0 -0.00000000000E+00 -0.00000000000E+00 -0.45593999997E+02  0.45594000000E+02  0.51100000000E-03 0. -1.
    9900012    2    1    2    0    0 -0.70300615285E+01 -0.30718020201E+02  0.48686479947E+01  0.59301917402E+02  0.49999951441E+02 0.  0.
        -12    1    1    2    0    0  0.70300615285E+01  0.30718020201E+02 -0.48686479947E+01  0.31886082598E+02  0.00000000000E+00 0.  1.
         11    1    3    3    0    0 -0.80460841533E+01 -0.42948053423E+01 -0.72935894989E+01  0.11678239215E+02  0.51100000000E-03 0. -1.
        -11    1    3    3    0    0 -0.98742490791E+01 -0.78188537529E+01 -0.10462030145E+02  0.16373434090E+02  0.51100000000E-03 0.  1.
        -12    1    3    3    0    0  0.10890271704E+02 -0.18604361106E+02  0.22624267638E+02  0.31250244097E+02  0.00000000000E+00 0.  1.
</event>
<event>
 7    1  0.3755162E-013  0.5930192E+02  0.7816164E-02  0.1266605E+00
        -11   -1    0    0    0    0  0.00000000000E+00  0.00000000000E+00  0.45593999997E+02  0.45594000000E+02  0.51100000000E-03 0.  1.
         11   -1    0    0    0    0 -0.00000000000E+00 -0.00000000000E+00 -0.45593999997E+02  0.45594000000E+02  0.51100000000E-03 0. -1.
    9900012    2    1    2    0    0  0.11053486998E+02  0.18228224662E+02 -0.23712326803E+02  0.59301918530E+02  0.49999953498E+02 0.  0.
        -12    1    1    2    0    0 -0.11053486998E+02 -0.18228224662E+02  0.23712326803E+02  0.31886081470E+02  0.00000000000E+00 0.  1.
         11    1    3    3    0    0 -0.13015765732E+01  0.54338984863E+01 -0.66854470076E+01  0.87130107476E+01  0.51100000000E-03 0. -1.
        -11    1    3    3    0    0 -0.78141496176E+01  0.12828668404E+02  0.91152976166E+01  0.17570552585E+02  0.51100000000E-03 0.  1.
        -12    1    3    3    0    0  0.20169213189E+02 -0.34342228496E-01 -0.26142177412E+02  0.33018355197E+02  0.00000000000E+00 0.  1.
</event>
<event>
 7    1  0.3755162E-013  0.5930194E+02  0.7816164E-02  0.1266605E+00
        -11   -1    0    0    0    0  0.00000000000E+00  0.00000000000E+00  0.45593999997E+02  0.45594000000E+02  0.51100000000E-03 0.  1.
         11   -1    0    0    0    0 -0.00000000000E+00 -0.00000000000E+00 -0.45593999997E+02  0.45594000000E+02  0.51100000000E-03 0. -1.
    9900012    2    1    2    0    0  0.28083391099E+02  0.94602029199E+01 -0.11770654595E+02  0.59301943416E+02  0.49999998884E+02 0.  0.
        -12    1    1    2    0    0 -0.28083391099E+02 -0.94602029199E+01  0.11770654595E+02  0.31886056584E+02  0.00000000000E+00 0.  1.
         11    1    3    3    0    0  0.16598699789E+01 -0.11638163932E+01  0.25061889875E+00  0.20426568575E+01  0.51100000000E-03 0. -1.
        -11    1    3    3    0    0  0.94666532453E+01 -0.79667501330E+01 -0.25769464702E+02  0.28585869632E+02  0.51100000000E-03 0.  1.
         12    1    3    3    0    0  0.16956867875E+02  0.18590769446E+02  0.13748191208E+02  0.28673416926E+02  0.00000000000E+00 0. -1.
</event>
<event>
 7    1  0.3755162E-013  0.5930194E+02  0.7816164E-02  0.1266605E+00
        -11   -1    0    0    0    0  0.00000000000E+00  0.00000000000E+00  0.45593999997E+02  0.45594000000E+02  0.51100000000E-03 0. -1.
         11   -1    0    0    0    0 -0.00000000000E+00 -0.00000000000E+00 -0.45593999997E+02  0.45594000000E+02  0.51100000000E-03 0.  1.
    9900012    2    1    2    0    0 -0.30155749161E+00 -0.19014197459E+02  0.25594723638E+02  0.59301944740E+02  0.50000001299E+02 0.  0.
        -12    1    1    2    0    0  0.30155749161E+00  0.19014197459E+02 -0.25594723638E+02  0.31886055260E+02  0.00000000000E+00 0.  1.
         11    1    3    3    0    0 -0.16113238637E+02  0.16559437711E+01  0.56979224148E+01  0.17171049160E+02  0.51100000000E-03 0. -1.
        -11    1    3    3    0    0  0.45890680117E+01 -0.19201152799E+02  0.58963491161E+00  0.19750733749E+02  0.51100000000E-03 0.  1.
         12    1    3    3    0    0  0.11222613134E+02 -0.14689884305E+01  0.19307166312E+02  0.22380161831E+02  0.00000000000E+00 0. -1.
</event>
<event>
 7    1  0.3755162E-013  0.5930196E+02  0.7816164E-02  0.1266605E+00
        -11   -1    0    0    0    0  0.00000000000E+00  0.00000000000E+00  0.45593999997E+02  0.45594000000E+02  0.51100000000E-03 0. -1.
         11   -1    0    0    0    0 -0.00000000000E+00 -0.00000000000E+00 -0.45593999997E+02  0.45594000000E+02  0.51100000000E-03 0.  1.
    9900012    2    1    2    0    0  0.73733091022E+01 -0.44004348060E+01  0.30708142481E+02  0.59301960292E+02  0.50000029663E+02 0.  0.
        -12    1    1    2    0    0 -0.73733091022E+01  0.44004348060E+01 -0.30708142481E+02  0.31886039708E+02  0.00000000000E+00 0.  1.
         11    1    3    3    0    0 -0.50599134151E+01 -0.21633731096E+00  0.48341146396E+01  0.70012991802E+01  0.51100000000E-03 0.  1.
        -11    1    3    3    0    0 -0.86149494401E+01 -0.15296872732E+02  0.22063476045E+02  0.28195897657E+02  0.51100000000E-03 0. -1.
         12    1    3    3    0    0  0.21048171957E+02  0.11112775237E+02  0.38105517961E+01  0.24104763455E+02  0.00000000000E+00 0. -1.
</event>
<event>
 7    1  0.3755162E-013  0.5930195E+02  0.7816164E-02  0.1266605E+00
        -11   -1    0    0    0    0  0.00000000000E+00  0.00000000000E+00  0.45593999997E+02  0.45594000000E+02  0.51100000000E-03 0.  1.
         11   -1    0    0    0    0 -0.00000000000E+00 -0.00000000000E+00 -0.45593999997E+02  0.45594000000E+02  0.51100000000E-03 0. -1.
    9900012    2    1    2    0    0  0.29553345598E+01 -0.31467167996E+02 -0.42194402235E+01  0.59301947566E+02  0.50000006452E+02 0.  0.
        -12    1    1    2    0    0 -0.29553345598E+01  0.31467167996E+02  0.42194402235E+01  0.31886052434E+02  0.00000000000E+00 0.  1.
         11    1    3    3    0    0 -0.79730529190E+01 -0.19432209493E+01 -0.86215955375E+01  0.11902839593E+02  0.51100000000E-03 0. -1.
        -11    1    3    3    0    0  0.63719400462E+01  0.19095708019E+01 -0.10409401906E+02  0.12353288182E+02  0.51100000000E-03 0.  1.
         12    1    3    3    0    0  0.45564474327E+01 -0.31433517849E+02  0.14811557220E+02  0.35045819791E+02  0.00000000000E+00 0. -1.
</event>
<event>
 7    1  0.3755162E-013  0.5930194E+02  0.7816164E-02  0.1266605E+00
        -11   -1    0    0    0    0  0.00000000000E+00  0.00000000000E+00  0.45593999997E+02  0.45594000000E+02  0.51100000000E-03 0. -1.
         11   -1    0    0    0    0 -0.00000000000E+00 -0.00000000000E+00 -0.45593999997E+02  0.45594000000E+02  0.51100000000E-03 0.  1.
    9900012    2    1    2    0    0 -0.18876498783E+02 -0.90572225323E+01  0.24049224884E+02  0.59301941858E+02  0.49999996042E+02 0.  0.
        -12    1    1    2    0    0  0.18876498783E+02  0.90572225323E+01 -0.24049224884E+02  0.31886058142E+02  0.00000000000E+00 0.  1.
         11    1    3    3    0    0 -0.51852038583E+00 -0.84337465773E+01  0.35132867694E+01  0.91509632775E+01  0.51100000000E-03 0. -1.
        -11    1    3    3    0    0 -0.96222845975E+01 -0.75453637545E+01 -0.11158486925E+02  0.16553933242E+02  0.51100000000E-03 0.  1.
        -12    1    3    3    0    0 -0.87356938001E+01  0.69218877995E+01  0.31694425040E+02  0.33597045338E+02  0.00000000000E+00 0.  1.
</event>
<event>
 7    1  0.3755162E-013  0.5930207E+02  0.7816164E-02  0.1266604E+00
        -11   -1    0    0    0    0  0.00000000000E+00  0.00000000000E+00  0.45593999997E+02  0.45594000000E+02  0.51100000000E-03 0.  1.
         11   -1    0    0    0    0 -0.00000000000E+00 -0.00000000000E+00 -0.45593999997E+02  0.45594000000E+02  0.51100000000E-03 0. -1.
    9900012    2    1    2    0    0  0.72877727334E+01 -0.92275645641E+00 -0.31028203564E+02  0.59302070074E+02  0.50000229877E+02 0.  0.
        -12    1    1    2    0    0 -0.72877727334E+01  0.92275645641E+00  0.31028203564E+02  0.31885929926E+02  0.00000000000E+00 0.  1.
         11    1    3    3    0    0  0.12858876259E+02 -0.95041365459E+00 -0.21285294459E+02  0.24886095420E+02  0.51100000000E-03 0. -1.
        -11    1    3    3    0    0 -0.11017926518E+02  0.76423784473E+01 -0.17646958666E+02  0.22163388809E+02  0.51100000000E-03 0.  1.
         12    1    3    3    0    0  0.54468229917E+01 -0.76147212491E+01  0.79040495618E+01  0.12252585845E+02  0.00000000000E+00 0. -1.
</event>
<event>
 7    1  0.3755162E-013  0.5930194E+02  0.7816164E-02  0.1266605E+00
        -11   -1    0    0    0    0  0.00000000000E+00  0.00000000000E+00  0.45593999997E+02  0.45594000000E+02  0.51100000000E-03 0. -1.
         11   -1    0    0    0    0 -0.00000000000E+00 -0.00000000000E+00 -0.45593999997E+02  0.45594000000E+02  0.51100000000E-03 0.  1.
    9900012    2    1    2    0    0  0.22477515824E+02 -0.18127403494E+02  0.13523287942E+02  0.59301940478E+02  0.49999993527E+02 0.  0.
        -12    1    1    2    0    0 -0.22477515824E+02  0.18127403494E+02 -0.13523287942E+02  0.31886059522E+02  0.00000000000E+00 0.  1.
         11    1    3    3    0    0  0.28077521330E+01  0.10992256096E+02  0.37768728827E+01  0.11957338129E+02  0.51100000000E-03 0. -1.
        -11    1    3    3    0    0  0.37501197494E+01  0.22410333268E+01 -0.71090834317E+01  0.83441414182E+01  0.51100000000E-03 0.  1.
         12    1    3    3    0    0  0.15919643941E+02 -0.31360692917E+02  0.16855498491E+02  0.39000460931E+02  0.00000000000E+00 0. -1.
</event>
<event>
 7    1  0.3755162E-013  0.5930197E+02  0.7816164E-02  0.1266605E+00
        -11   -1    0    0    0    0  0.00000000000E+00  0.00000000000E+00  0.45593999997E+02  0.45594000000E+02  0.51100000000E-03 0. -1.
         11   -1    0    0    0    0 -0.00000000000E+00 -0.00000000000E+00 -0.45593999997E+02  0.45594000000E+02  0.51100000000E-03 0.  1.
    9900012    2    1    2    0    0  0.29869215405E+02 -0.84721141751E+01 -0.72644503861E+01  0.59301968780E+02  0.50000045143E+02 0.  0.
        -12    1    1    2    0    0 -0.29869215405E+02  0.84721141751E+01  0.72644503861E+01  0.31886031220E+02  0.00000000000E+00 0.  1.
         11    1    3    3    0    0  0.32308321341E+02 -0.47543216588E+01  0.60662903148E+01  0.33214922562E+02  0.51100000000E-03 0. -1.
        -11    1    3    3    0    0  0.42971062332E+00  0.83341918112E+01 -0.66804337381E+00  0.83719583477E+01  0.51100000000E-03 0.  1.
        -12    1    3    3    0    0 -0.28688165591E+01 -0.12051984328E+02 -0.12662697327E+02  0.17715087871E+02  0.00000000000E+00 0.  1.
</event>
<event>
 7    1  0.3755162E-013  0.5930201E+02  0.7816164E-02  0.1266605E+00
        -11   -1    0    0    0    0  0.00000000000E+00  0.00000000000E+00  0.45593999997E+02  0.45594000000E+02  0.51100000000E-03 0.  1.
         11   -1    0    0    0    0 -0.00000000000E+00 -0.00000000000E+00 -0.45593999997E+02  0.45594000000E+02  0.51100000000E-03 0. -1.
    9900012    2    1    2    0    0  0.18433959994E+02 -0.14676425373E+02 -0.21482741091E+02  0.59302007659E+02  0.50000116047E+02 0.  0.
        -12    1    1    2    0    0 -0.18433959994E+02  0.14676425373E+02  0.21482741091E+02  0.31885992341E+02  0.00000000000E+00 0.  1.
         11    1    3    3    0    0  0.22615934041E+01  0.18657946869E+01 -0.97489929044E+01  0.10180317159E+02  0.51100000000E-03 0. -1.
        -11    1    3    3    0    0 -0.33693930058E+01  0.11627890661E+02  0.18449519308E+01  0.12245999279E+02  0.51100000000E-03 0.  1.
         12    1    3    3    0    0  0.19541759596E+02 -0.28170110721E+02 -0.13578700117E+02  0.36875691221E+02  0.00000000000E+00 0. -1.
</event>
<event>
 7    1  0.3755162E-013  0.5930195E+02  0.7816164E-02  0.1266605E+00
        -11   -1    0    0    0    0  0.00000000000E+00  0.00000000000E+00  0.45593999997E+02  0.45594000000E+02  0.51100000000E-03 0. -1.
         11   -1    0    0    0    0 -0.00000000000E+00 -0.00000000000E+00 -0.45593999997E+02  0.45594000000E+02  0.51100000000E-03 0.  1.
    9900012    2    1    2    0    0 -0.19189621754E+02  0.48470567384E+01  0.24999695462E+02  0.59301947951E+02  0.50000007155E+02 0.  0.
        -12    1    1    2    0    0  0.19189621754E+02 -0.48470567384E+01 -0.24999695462E+02  0.31886052049E+02  0.00000000000E+00 0.  1.
         11    1    3    3    0    0 -0.25244446225E+02  0.60403464661E+01  0.91892711815E+01  0.27535623395E+02  0.51100000000E-03 0. -1.
        -11    1    3    3    0    0  0.86346093154E+01  0.86763569700E+01 -0.80721112681E+00  0.12267324010E+02  0.51100000000E-03 0.  1.
         12    1    3    3    0    0 -0.25797848443E+01 -0.98696466977E+01  0.16617635407E+02  0.19499000546E+02  0.00000000000E+00 0. -1.
</event>
<event>
 7    1  0.3755162E-013  0.5930195E+02  0.7816164E-02  0.1266605E+00
        -11   -1    0    0    0    0  0.00000000000E+00  0.00000000000E+00  0.45593999997E+02  0.45594000000E+02  0.51100000000E-03 0.  1.
         11   -1    0    0    0    0 -0.00000000000E+00 -0.00000000000E+00 -0.45593999997E+02  0.45594000000E+02  0.51100000000E-03 0. -1.
    9900012    2    1    2    0    0 -0.18706211668E+02 -0.13782735057E+02 -0.21836523576E+02  0.59301954424E+02  0.50000018960E+02 0.  0.
        -12    1    1    2    0    0  0.18706211668E+02  0.13782735057E+02  0.21836523576E+02  0.31886045576E+02  0.00000000000E+00 0.  1.
         11    1    3    3    0    0  0.37883702467E+01  0.12934368916E+01 -0.16482778864E+02  0.16961919922E+02  0.51100000000E-03 0. -1.
        -11    1    3    3    0    0  0.72954042929E+01  0.21263836322E+01 -0.10840748305E+01  0.76759136034E+01  0.51100000000E-03 0.  1.
         12    1    3    3    0    0 -0.29789986207E+02 -0.17202555581E+02 -0.42696698814E+01  0.34664120898E+02  0.00000000000E+00 0. -1.
</event>
<event>
 7    1  0.3755162E-013  0.5930202E+02  0.7816164E-02  0.1266605E+00
        -11   -1    0    0    0    0  0.00000000000E+00  0.00000000000E+00  0.45593999997E+02  0.45594000000E+02  0.51100000000E-03 0.  1.
         11   -1    0    0    0    0 -0.00000000000E+00 -0.00000000000E+00 -0.45593999997E+02  0.45594000000E+02  0.51100000000E-03 0. -1.
    9900012    2    1    2    0    0 -0.76093334032E+01  0.42389599704E+01 -0.30673200721E+02  0.59302015949E+02  0.50000131166E+02 0.  0.
        -12    1    1    2    0    0  0.76093334032E+01 -0.42389599704E+01  0.30673200721E+02  0.31885984051E+02  0.00000000000E+00 0.  1.
         11    1    3    3    0    0 -0.13264219905E+02  0.91823321552E+00 -0.67731036777E+01  0.14921716242E+02  0.51100000000E-03 0. -1.
        -11    1    3    3    0    0 -0.44501070660E+01  0.21680206637E+01  0.88209917880E+01  0.10115021645E+02  0.51100000000E-03 0.  1.
         12    1    3    3    0    0  0.10104993567E+02  0.11527060913E+01 -0.32721088831E+02  0.34265278061E+02  0.00000000000E+00 0. -1.
</event>
<event>
 7    1  0.3755162E-013  0.5930194E+02  0.7816164E-02  0.1266605E+00
        -11   -1    0    0    0    0  0.00000000000E+00  0.00000000000E+00  0.45593999997E+02  0.45594000000E+02  0.51100000000E-03 0.  1.
         11   -1    0    0    0    0 -0.00000000000E+00 -0.00000000000E+00 -0.45593999997E+02  0.45594000000E+02  0.51100000000E-03 0. -1.
    9900012    2    1    2    0    0 -0.81077732070E+01  0.28980023206E+02 -0.10542454405E+02  0.59301936018E+02  0.49999985391E+02 0.  0.
        -12    1    1    2    0    0  0.81077732070E+01 -0.28980023206E+02  0.10542454405E+02  0.31886063982E+02  0.00000000000E+00 0.  1.
         11    1    3    3    0    0 -0.27842335174E+01  0.14806070373E+02 -0.56285250894E+01  0.16082660573E+02  0.51100000000E-03 0. -1.
        -11    1    3    3    0    0  0.80231483000E+01  0.23932411818E+02 -0.78351458565E+01  0.26429543222E+02  0.51100000000E-03 0.  1.
        -12    1    3    3    0    0 -0.13346687990E+02 -0.97584589841E+01  0.29212165411E+01  0.16789732223E+02  0.00000000000E+00 0.  1.
</event>
<event>
 7    1  0.3755162E-013  0.5930197E+02  0.7816164E-02  0.1266605E+00
        -11   -1    0    0    0    0  0.00000000000E+00  0.00000000000E+00  0.45593999997E+02  0.45594000000E+02  0.51100000000E-03 0. -1.
         11   -1    0    0    0    0 -0.00000000000E+00 -0.00000000000E+00 -0.45593999997E+02  0.45594000000E+02  0.51100000000E-03 0.  1.
    9900012    2    1    2    0    0  0.79507062260E+01 -0.26031868754E+02  0.16608641256E+02  0.59301970384E+02  0.50000048067E+02 0.  0.
        -12    1    1    2    0    0 -0.79507062260E+01  0.26031868754E+02 -0.16608641256E+02  0.31886029616E+02  0.00000000000E+00 0.  1.
         11    1    3    3    0    0  0.64994901631E+00 -0.25918669552E+01  0.19392156901E+00  0.26791442427E+01  0.51100000000E-03 0.  1.
        -11    1    3    3    0    0  0.22885257486E+02  0.33678453169E+00 -0.16379334409E+01  0.22946268983E+02  0.51100000000E-03 0. -1.
        -12    1    3    3    0    0 -0.15584500276E+02 -0.23776786331E+02  0.18052653127E+02  0.33676557158E+02  0.00000000000E+00 0.  1.
</event>
<event>
 7    1  0.3755162E-013  0.5930185E+02  0.7816164E-02  0.1266605E+00
        -11   -1    0    0    0    0  0.00000000000E+00  0.00000000000E+00  0.45593999997E+02  0.45594000000E+02  0.51100000000E-03 0.  1.
         11   -1    0    0    0    0 -0.00000000000E+00 -0.00000000000E+00 -0.45593999997E+02  0.45594000000E+02  0.51100000000E-03 0. -1.
    9900012    2    1    2    0    0 -0.16447714300E+01 -0.28827719291E+02 -0.13527158533E+02  0.59301847981E+02  0.49999824834E+02 0.  0.
        -12    1    1    2    0    0  0.16447714300E+01  0.28827719291E+02  0.13527158533E+02  0.31886152019E+02  0.00000000000E+00 0.  1.
         11    1    3    3    0    0  0.23965470511E+01 -0.11705646556E+02  0.39831660575E+01  0.12594888295E+02  0.51100000000E-03 0. -1.
        -11    1    3    3    0    0  0.13014048121E+01 -0.27815801809E+01  0.12579602815E+02  0.12949025061E+02  0.51100000000E-03 0.  1.
         12    1    3    3    0    0 -0.53427232932E+01 -0.14340492554E+02 -0.30089927406E+02  0.33757934625E+02  0.00000000000E+00 0. -1.
</event>
<event>
 7    1  0.3755162E-013  0.5930196E+02  0.7816164E-02  0.1266605E+00
        -11   -1    0    0    0    0  0.00000000000E+00  0.00000000000E+00  0.45593999997E+02  0.45594000000E+02  0.51100000000E-03 0. -1.
         11   -1    0    0    0    0 -0.00000000000E+00 -0.00000000000E+00 -0.45593999997E+02  0.45594000000E+02  0.51100000000E-03 0.  1.
    9900012    2    1    2    0    0  0.67846168491E+01  0.15322770609E+01  0.31118176176E+02  0.59301956230E+02  0.50000022254E+02 0.  0.
        -12    1    1    2    0    0 -0.67846168491E+01 -0.15322770609E+01 -0.31118176176E+02  0.31886043770E+02  0.00000000000E+00 0.  1.
         11    1    3    3    0    0 -0.11406893774E+02 -0.35386412414E+01  0.57084218905E+00  0.11956800093E+02  0.51100000000E-03 0.  1.
        -11    1    3    3    0    0  0.41035415134E+01 -0.10925107688E+02  0.21964887359E+01  0.11875251322E+02  0.51100000000E-03 0. -1.
         12    1    3    3    0    0  0.14087969110E+02  0.15996025990E+02  0.28350845251E+02  0.35469904815E+02  0.00000000000E+00 0. -1.
</event>
<event>
 7    1  0.3755162E-013  0.5930193E+02  0.7816164E-02  0.1266605E+00
        -11   -1    0    0    0    0  0.00000000000E+00  0.00000000000E+00  0.45593999997E+02  0.45594000000E+02  0.51100000000E-03 0.  1.
         11   -1    0    0    0    0 -0.00000000000E+00 -0.00000000000E+00 -0.45593999997E+02  0.45594000000E+02  0.51100000000E-03 0. -1.
    9900012    2    1    2    0    0  0.16629096399E+02  0.23161953501E+02 -0.14272992697E+02  0.59301933175E+02  0.49999980207E+02 0.  0.
        -12    1    1    2    0    0 -0.16629096399E+02 -0.23161953501E+02  0.14272992697E+02  0.31886066825E+02  0.00000000000E+00 0.  1.
         11    1    3    3    0    0  0.12146065368E+02  0.15626114104E+02 -0.34523508621E+01  0.20090322860E+02  0.51100000000E-03 0. -1.
        -11    1    3    3    0    0  0.15089460543E+02 -0.66369609453E+01  0.29974713651E+01  0.16754877049E+02  0.51100000000E-03 0.  1.
         12    1    3    3    0    0 -0.10606429512E+02  0.14172800343E+02 -0.13818113200E+02  0.22456733266E+02  0.00000000000E+00 0. -1.
</event>
<event>
 7    1  0.3755162E-013  0.5930195E+02  0.7816164E-02  0.1266605E+00
        -11   -1    0    0    0    0  0.00000000000E+00  0.00000000000E+00  0.45593999997E+02  0.45594000000E+02  0.51100000000E-03 0.  1.
         11   -1    0    0    0    0 -0.00000000000E+00 -0.00000000000E+00 -0.45593999997E+02  0.45594000000E+02  0.51100000000E-03 0. -1.
    9900012    2    1    2    0    0 -0.28926142185E+02  0.58149426619E+01 -0.12090708903E+02  0.59301945028E+02  0.50000001824E+02 0.  0.
        -12    1    1    2    0    0  0.28926142185E+02 -0.58149426619E+01  0.12090708903E+02  0.31886054972E+02  0.00000000000E+00 0.  1.
         11    1    3    3    0    0 -0.14547094581E+02  0.14176250856E+02  0.38311418938E+01  0.20670309565E+02  0.51100000000E-03 0. -1.
        -11    1    3    3    0    0 -0.50223215714E+01  0.10047724948E+02  0.18530646631E+01  0.11384829358E+02  0.51100000000E-03 0.  1.
        -12    1    3    3    0    0 -0.93567260332E+01 -0.18409033142E+02 -0.17774915460E+02  0.27246806105E+02  0.00000000000E+00 0.  1.
</event>
<event>
 7    1  0.3755162E-013  0.5930192E+02  0.7816164E-02  0.1266605E+00
        -11   -1    0    0    0    0  0.00000000000E+00  0.00000000000E+00  0.45593999997E+02  0.45594000000E+02  0.51100000000E-03 0. -1.
         11   -1    0    0    0    0 -0.00000000000E+00 -0.00000000000E+00 -0.45593999997E+02  0.45594000000E+02  0.51100000000E-03 0.  1.
    9900012    2    1    2    0    0 -0.20547731702E+02  0.20103740666E+02  0.13796824768E+02  0.59301920897E+02  0.49999957815E+02 0.  0.
        -12    1    1    2    0    0  0.20547731702E+02 -0.20103740666E+02 -0.13796824768E+02  0.31886079103E+02  0.00000000000E+00 0.  1.
         11    1    3    3    0    0 -0.15016534954E+02  0.22638707685E+02 -0.41792366089E+01  0.27485876857E+02  0.51100000000E-03 0. -1.
        -11    1    3    3    0    0  0.84328045026E+01  0.81770006030E+00 -0.41471226241E+00  0.84825003206E+01  0.51100000000E-03 0.  1.
        -12    1    3    3    0    0 -0.13964001251E+02 -0.33526670795E+01  0.18390773639E+02  0.23333543720E+02  0.00000000000E+00 0.  1.
</event>
<event>
 7    1  0.3755162E-013  0.5930194E+02  0.7816164E-02  0.1266605E+00
        -11   -1    0    0    0    0  0.00000000000E+00  0.00000000000E+00  0.45593999997E+02  0.45594000000E+02  0.51100000000E-03 0.  1.
         11   -1    0    0    0    0 -0.00000000000E+00 -0.00000000000E+00 -0.45593999997E+02  0.45594000000E+02  0.51100000000E-03 0. -1.
    9900012    2    1    2    0    0 -0.10636322124E+02 -0.28322077393E+02  0.10072203523E+02  0.59301941918E+02  0.49999996152E+02 0.  0.
        -12    1    1    2    0    0  0.10636322124E+02  0.28322077393E+02 -0.10072203523E+02  0.31886058082E+02  0.00000000000E+00 0.  1.
         11    1    3    3    0    0  0.88271812227E+01 -0.29723643688E+02 -0.55268181217E+01  0.31495393969E+02  0.51100000000E-03 0. -1.
        -11    1    3    3    0    0 -0.10379030451E+02  0.16306356126E+01  0.92555028439E+00  0.10547032246E+02  0.51100000000E-03 0.  1.
        -12    1    3    3    0    0 -0.90844728956E+01 -0.22906931784E+00  0.14673471361E+02  0.17259515703E+02  0.00000000000E+00 0.  1.
</event>
<event>
 7    1  0.3755162E-013  0.5930194E+02  0.7816164E-02  0.1266605E+00
        -11   -1    0    0    0    0  0.00000000000E+00  0.00000000000E+00  0.45593999997E+02  0.45594000000E+02  0.51100000000E-03 0. -1.
         11   -1    0    0    0    0 -0.00000000000E+00 -0.00000000000E+00 -0.45593999997E+02  0.45594000000E+02  0.51100000000E-03 0.  1.
    9900012    2    1    2    0    0 -0.11061687166E+02  0.96989516207E+01  0.28289396085E+02  0.59301944798E+02  0.50000001404E+02 0.  0.
        -12    1    1    2    0    0  0.11061687166E+02 -0.96989516207E+01 -0.28289396085E+02  0.31886055202E+02  0.00000000000E+00 0.  1.
         11    1    3    3    0    0  0.67053837673E+01  0.22529282864E+01  0.10382345563E+02  0.12563079121E+02  0.51100000000E-03 0. -1.
        -11    1    3    3    0    0 -0.38590909687E+01  0.19536475618E+02  0.19961409907E+02  0.28196176131E+02  0.51100000000E-03 0.  1.
         12    1    3    3    0    0 -0.13907979965E+02 -0.12090452284E+02 -0.20543593851E+01  0.18542689546E+02  0.00000000000E+00 0. -1.
</event>
<event>
 7    1  0.3755162E-013  0.5930194E+02  0.7816164E-02  0.1266605E+00
        -11   -1    0    0    0    0  0.00000000000E+00  0.00000000000E+00  0.45593999997E+02  0.45594000000E+02  0.51100000000E-03 0. -1.
         11   -1    0    0    0    0 -0.00000000000E+00 -0.00000000000E+00 -0.45593999997E+02  0.45594000000E+02  0.51100000000E-03 0.  1.
    9900012    2    1    2    0    0 -0.16127724506E+02 -0.26169811631E+02 -0.84710296445E+01  0.59301939068E+02  0.49999990954E+02 0.  0.
        -12    1    1    2    0    0  0.16127724506E+02  0.26169811631E+02  0.84710296445E+01  0.31886060932E+02  0.00000000000E+00 0.  1.
         11    1    3    3    0    0  0.48530037510E+01  0.35744820989E+01 -0.28745473423E+01  0.66776934916E+01  0.51100000000E-03 0. -1.
        -11    1    3    3    0    0 -0.25925334884E+01 -0.16778972679E+02 -0.19749035913E+02  0.26043801063E+02  0.51100000000E-03 0.  1.
         12    1    3    3    0    0 -0.18388194769E+02 -0.12965321051E+02  0.14152553611E+02  0.26580444513E+02  0.00000000000E+00 0. -1.
</event>
<event>
 7    1  0.3755162E-013  0.5930193E+02  0.7816164E-02  0.1266605E+00
        -11   -1    0    0    0    0  0.00000000000E+00  0.00000000000E+00  0.45593999997E+02  0.45594000000E+02  0.51100000000E-03 0.  1.
         11   -1    0    0    0    0 -0.00000000000E+00 -0.00000000000E+00 -0.45593999997E+02  0.45594000000E+02  0.51100000000E-03 0. -1.
    9900012    2    1    2    0    0 -0.30240077303E+02  0.29059153278E+01  0.96858010191E+01  0.59301931560E+02  0.49999977261E+02 0.  0.
        -12    1    1    2    0    0  0.30240077303E+02 -0.29059153278E+01 -0.96858010191E+01  0.31886068440E+02  0.00000000000E+00 0.  1.
         11    1    3    3    0    0 -0.18327873408E+02  0.90591618361E+00  0.12635664547E+02  0.22279848442E+02  0.51100000000E-03 0. -1.
        -11    1    3    3    0    0 -0.12302217503E+02 -0.53799437860E+01  0.13467889776E+02  0.19017686660E+02  0.51100000000E-03 0.  1.
        -12    1    3    3    0    0  0.39001360771E+00  0.73799429302E+01 -0.16417753303E+02  0.18004396458E+02  0.00000000000E+00 0.  1.
</event>
<event>
 7    1  0.3755162E-013  0.5930194E+02  0.7816164E-02  0.1266605E+00
        -11   -1    0    0    0    0  0.00000000000E+00  0.00000000000E+00  0.45593999997E+02  0.45594000000E+02  0.51100000000E-03 0.  1.
         11   -1    0    0    0    0 -0.00000000000E+00 -0.00000000000E+00 -0.45593999997E+02  0.45594000000E+02  0.51100000000E-03 0. -1.
    9900012    2    1    2    0    0 -0.65226148823E+01  0.80461947544E+01 -0.30156839258E+02  0.59301941777E+02  0.49999995896E+02 0.  0.
        -12    1    1    2    0    0  0.65226148823E+01 -0.80461947544E+01  0.30156839258E+02  0.31886058223E+02  0.00000000000E+00 0.  1.
         11    1    3    3    0    0 -0.59593796826E+01 -0.96886682765E+01 -0.23806521293E+01  0.11621187719E+02  0.51100000000E-03 0. -1.
        -11    1    3    3    0    0 -0.26886996833E+01 -0.48539454047E+01  0.52322468381E+01  0.76266833693E+01  0.51100000000E-03 0.  1.
         12    1    3    3    0    0  0.21254644836E+01  0.22588808436E+02 -0.33008433967E+02  0.40054070689E+02  0.00000000000E+00 0. -1.
</event>
<event>
 7    1  0.3755162E-013  0.5930192E+02  0.7816164E-02  0.1266605E+00
        -11   -1    0    0    0    0  0.00000000000E+00  0.00000000000E+00  0.45593999997E+02  0.45594000000E+02  0.51100000000E-03 0.  1.
         11   -1    0    0    0    0 -0.00000000000E+00 -0.00000000000E+00 -0.45593999997E+02  0.45594000000E+02  0.51100000000E-03 0. -1.
    9900012    2    1    2    0    0 -0.31586014904E+02 -0.41881092052E+01 -0.12269106032E+01  0.59301923009E+02  0.49999961667E+02 0.  0.
        -12    1    1    2    0    0  0.31586014904E+02  0.41881092052E+01  0.12269106032E+01  0.31886076991E+02  0.00000000000E+00 0.  1.
         11    1    3    3    0    0 -0.62299154938E+01 -0.87491186658E+01  0.59221631813E+01  0.12265029209E+02  0.51100000000E-03 0. -1.
        -11    1    3    3    0    0 -0.21417999392E+02  0.68845902496E+01  0.13265116694E+02  0.26116883467E+02  0.51100000000E-03 0.  1.
         12    1    3    3    0    0 -0.39381000190E+01 -0.23235807889E+01 -0.20414190479E+02  0.20920010333E+02  0.00000000000E+00 0. -1.
</event>
<event>
 7    1  0.3755162E-013  0.5930201E+02  0.7816164E-02  0.1266605E+00
        -11   -1    0    0    0    0  0.00000000000E+00  0.00000000000E+00  0.45593999997E+02  0.45594000000E+02  0.51100000000E-03 0.  1.
         11   -1    0    0    0    0 -0.00000000000E+00 -0.00000000000E+00 -0.45593999997E+02  0.45594000000E+02  0.51100000000E-03 0. -1.
    9900012    2    1    2    0    0 -0.13602513360E+02 -0.15329443309E+02 -0.24427360635E+02  0.59302013274E+02  0.50000126289E+02 0.  0.
        -12    1    1    2    0    0  0.13602513360E+02  0.15329443309E+02  0.24427360635E+02  0.31885986726E+02  0.00000000000E+00 0.  1.
         11    1    3    3    0    0 -0.31643448329E+01 -0.43671353897E+01  0.81281801897E+01  0.97546021544E+01  0.51100000000E-03 0. -1.
        -11    1    3    3    0    0 -0.11651727066E+02 -0.36564063081E+01  0.35282521364E+01  0.12711436351E+02  0.51100000000E-03 0.  1.
         12    1    3    3    0    0  0.12135585393E+01 -0.73059016109E+01 -0.36083792961E+02  0.36835974769E+02  0.00000000000E+00 0. -1.
</event>
<event>
 7    1  0.3755162E-013  0.5930190E+02  0.7816164E-02  0.1266605E+00
        -11   -1    0    0    0    0  0.00000000000E+00  0.00000000000E+00  0.45593999997E+02  0.45594000000E+02  0.51100000000E-03 0.  1.
         11   -1    0    0    0    0 -0.00000000000E+00 -0.00000000000E+00 -0.45593999997E+02  0.45594000000E+02  0.51100000000E-03 0. -1.
    9900012    2    1    2    0    0 -0.60652673264E+01 -0.29617657542E+02  0.10135578871E+02  0.59301904832E+02  0.49999928516E+02 0.  0.
        -12    1    1    2    0    0  0.60652673264E+01  0.29617657542E+02 -0.10135578871E+02  0.31886095168E+02  0.00000000000E+00 0.  1.
         11    1    3    3    0    0  0.23892030178E+01 -0.77994337473E+01 -0.72336648325E+01  0.10902539383E+02  0.51100000000E-03 0. -1.
        -11    1    3    3    0    0  0.46374845112E+01 -0.29560029819E+02  0.12519899053E+02  0.32435312517E+02  0.51100000000E-03 0.  1.
        -12    1    3    3    0    0 -0.13091954855E+02  0.77418060242E+01  0.48493446505E+01  0.15964052931E+02  0.00000000000E+00 0.  1.
</event>
<event>
 7    1  0.3755162E-013  0.5930211E+02  0.7816164E-02  0.1266604E+00
        -11   -1    0    0    0    0  0.00000000000E+00  0.00000000000E+00  0.45593999997E+02  0.45594000000E+02  0.51100000000E-03 0.  1.
         11   -1    0    0    0    0 -0.00000000000E+00 -0.00000000000E+00 -0.45593999997E+02  0.45594000000E+02  0.51100000000E-03 0. -1.
    9900012    2    1    2    0    0 -0.57746443754E+01  0.31195877871E+02  0.31907295307E+01  0.59302108625E+02  0.50000300186E+02 0.  0.
        -12    1    1    2    0    0  0.57746443754E+01 -0.31195877871E+02 -0.31907295307E+01  0.31885891375E+02  0.00000000000E+00 0.  1.
         11    1    3    3    0    0 -0.18525516852E+02  0.21764993003E+02 -0.14442087847E+02  0.32023172808E+02  0.51100000000E-03 0. -1.
        -11    1    3    3    0    0 -0.20166131972E+01  0.47965831076E+01  0.31524578442E+01  0.60837430103E+01  0.51100000000E-03 0.  1.
        -12    1    3    3    0    0  0.14767485674E+02  0.46343017603E+01  0.14480359533E+02  0.21195192807E+02  0.00000000000E+00 0.  1.
</event>
<event>
 7    1  0.3755162E-013  0.5930195E+02  0.7816164E-02  0.1266605E+00
        -11   -1    0    0    0    0  0.00000000000E+00  0.00000000000E+00  0.45593999997E+02  0.45594000000E+02  0.51100000000E-03 0.  1.
         11   -1    0    0    0    0 -0.00000000000E+00 -0.00000000000E+00 -0.45593999997E+02  0.45594000000E+02  0.51100000000E-03 0. -1.
    9900012    2    1    2    0    0  0.29203684649E+02 -0.12796809667E+02 -0.32701823766E+00  0.59301945436E+02  0.50000002568E+02 0.  0.
        -12    1    1    2    0    0 -0.29203684649E+02  0.12796809667E+02  0.32701823766E+00  0.31886054564E+02  0.00000000000E+00 0.  1.
         11    1    3    3    0    0  0.75115737748E+01 -0.10865850888E+02  0.61366438605E+01  0.14565330556E+02  0.51100000000E-03 0. -1.
        -11    1    3    3    0    0  0.19573548017E+02 -0.18755061130E+02 -0.60453391558E+01  0.27774488757E+02  0.51100000000E-03 0.  1.
        -12    1    3    3    0    0  0.21185628580E+01  0.16824102351E+02 -0.41832294232E+00  0.16962126122E+02  0.00000000000E+00 0.  1.
</event>
<event>
 7    1  0.3755162E-013  0.5930191E+02  0.7816164E-02  0.1266605E+00
        -11   -1    0    0    0    0  0.00000000000E+00  0.00000000000E+00  0.45593999997E+02  0.45594000000E+02  0.51100000000E-03 0. -1.
         11   -1    0    0    0    0 -0.00000000000E+00 -0.00000000000E+00 -0.45593999997E+02  0.45594000000E+02  0.51100000000E-03 0.  1.
    9900012    2    1    2    0    0  0.11092151558E+02  0.28674167423E+02  0.84545100057E+01  0.59301914586E+02  0.49999946306E+02 0.  0.
        -12    1    1    2    0    0 -0.11092151558E+02 -0.28674167423E+02 -0.84545100057E+01  0.31886085414E+02  0.00000000000E+00 0.  1.
         11    1    3    3    0    0  0.80517664894E+01 -0.39001333232E+01  0.49507224562E+01  0.10225049469E+02  0.51100000000E-03 0. -1.
        -11    1    3    3    0    0  0.41811748426E+01  0.20898957283E+02  0.19737255902E+02  0.29048371888E+02  0.51100000000E-03 0.  1.
        -12    1    3    3    0    0 -0.11407897738E+01  0.11675343463E+02 -0.16233468352E+02  0.20028493229E+02  0.00000000000E+00 0.  1.
</event>
<event>
 7    1  0.3755162E-013  0.5930198E+02  0.7816164E-02  0.1266605E+00
        -11   -1    0    0    0    0  0.00000000000E+00  0.00000000000E+00  0.45593999997E+02  0.45594000000E+02  0.51100000000E-03 0.  1.
         11   -1    0    0    0    0 -0.00000000000E+00 -0.00000000000E+00 -0.45593999997E+02  0.45594000000E+02  0.51100000000E-03 0. -1.
    9900012    2    1    2    0    0 -0.16782183809E+02  0.24505413124E+02  0.11600050976E+02  0.59301981929E+02  0.50000069122E+02 0.  0.
        -12    1    1    2    0    0  0.16782183809E+02 -0.24505413124E+02 -0.11600050976E+02  0.31886018071E+02  0.00000000000E+00 0.  1.
         11    1    3    3    0    0 -0.23000771533E+02  0.28690067992E+02 -0.26008469608E+01  0.36863530727E+02  0.51100000000E-03 0. -1.
        -11    1    3    3    0    0  0.64140826049E+01 -0.23456442444E+01 -0.11937859481E+01  0.69330821238E+01  0.51100000000E-03 0.  1.
        -12    1    3    3    0    0 -0.19549488155E+00 -0.18390106235E+01  0.15394683885E+02  0.15505369078E+02  0.00000000000E+00 0.  1.
</event>
<event>
 7    1  0.3755162E-013  0.5930196E+02  0.7816164E-02  0.1266605E+00
        -11   -1    0    0    0    0  0.00000000000E+00  0.00000000000E+00  0.45593999997E+02  0.45594000000E+02  0.51100000000E-03 0. -1.
         11   -1    0    0    0    0 -0.00000000000E+00 -0.00000000000E+00 -0.45593999997E+02  0.45594000000E+02  0.51100000000E-03 0.  1.
    9900012    2    1    2    0    0 -0.10612879059E+02  0.11982793953E+02  0.27577148602E+02  0.59301957946E+02  0.50000025383E+02 0.  0.
        -12    1    1    2    0    0  0.10612879059E+02 -0.11982793953E+02 -0.27577148602E+02  0.31886042054E+02  0.00000000000E+00 0.  1.
         11    1    3    3    0    0  0.20025253277E+01  0.84957704195E+01  0.54239249781E+01  0.10276535658E+02  0.51100000000E-03 0.  1.
        -11    1    3    3    0    0  0.42869184531E+00  0.21455300709E+02  0.12288135992E+02  0.24728768503E+02  0.51100000000E-03 0. -1.
        -12    1    3    3    0    0 -0.13044096232E+02 -0.17968277175E+02  0.98650876314E+01  0.24296653785E+02  0.00000000000E+00 0.  1.
</event>
<event>
 7    1  0.3755162E-013  0.5930195E+02  0.7816164E-02  0.1266605E+00
        -11   -1    0    0    0    0  0.00000000000E+00  0.00000000000E+00  0.45593999997E+02  0.45594000000E+02  0.51100000000E-03 0. -1.
         11   -1    0    0    0    0 -0.00000000000E+00 -0.00000000000E+00 -0.45593999997E+02  0.45594000000E+02  0.51100000000E-03 0.  1.
    9900012    2    1    2    0    0  0.18366697749E+02 -0.12774391968E+02  0.22720024949E+02  0.59301949601E+02  0.50000010164E+02 0.  0.
        -12    1    1    2    0    0 -0.18366697749E+02  0.12774391968E+02 -0.22720024949E+02  0.31886050399E+02  0.00000000000E+00 0.  1.
         11    1    3    3    0    0  0.16722312557E+02 -0.12977327272E+01  0.89724090588E+01  0.19021671117E+02  0.51100000000E-03 0. -1.
        -11    1    3    3    0    0  0.13712409623E+01 -0.41020640563E+01 -0.12388751501E+02  0.13122057587E+02  0.51100000000E-03 0.  1.
         12    1    3    3    0    0  0.27314422960E+00 -0.73745951845E+01  0.26136367391E+02  0.27158220897E+02  0.00000000000E+00 0. -1.
</event>
<event>
 7    1  0.3755162E-013  0.5930195E+02  0.7816164E-02  0.1266605E+00
        -11   -1    0    0    0    0  0.00000000000E+00  0.00000000000E+00  0.45593999997E+02  0.45594000000E+02  0.51100000000E-03 0.  1.
         11   -1    0    0    0    0 -0.00000000000E+00 -0.00000000000E+00 -0.45593999997E+02  0.45594000000E+02  0.51100000000E-03 0. -1.
    9900012    2    1    2    0    0 -0.16869994472E+02 -0.26073243906E+02 -0.72325150969E+01  0.59301952332E+02  0.50000015145E+02 0.  0.
        -12    1    1    2    0    0  0.16869994472E+02  0.26073243906E+02  0.72325150969E+01  0.31886047668E+02  0.00000000000E+00 0.  1.
         11    1    3    3    0    0 -0.64693646192E+01 -0.80747294711E+01  0.19405000891E+01  0.10527082951E+02  0.51100000000E-03 0. -1.
        -11    1    3    3    0    0 -0.64575217667E+01  0.53360201606E+01  0.13573487205E+02  0.15950305756E+02  0.51100000000E-03 0.  1.
        -12    1    3    3    0    0 -0.39431080859E+01 -0.23334534595E+02 -0.22746502391E+02  0.32824563625E+02  0.00000000000E+00 0.  1.
</event>
<event>
 7    1  0.3755162E-013  0.5930196E+02  0.7816164E-02  0.1266605E+00
        -11   -1    0    0    0    0  0.00000000000E+00  0.00000000000E+00  0.45593999997E+02  0.45594000000E+02  0.51100000000E-03 0.  1.
         11   -1    0    0    0    0 -0.00000000000E+00 -0.00000000000E+00 -0.45593999997E+02  0.45594000000E+02  0.51100000000E-03 0. -1.
    9900012    2    1    2    0    0 -0.41649050479E+01 -0.11671771373E+01 -0.31591304690E+02  0.59301964365E+02  0.50000037090E+02 0.  0.
        -12    1    1    2    0    0  0.41649050479E+01  0.11671771373E+01  0.31591304690E+02  0.31886035635E+02  0.00000000000E+00 0.  1.
         11    1    3    3    0    0 -0.51208158655E+01 -0.12387955126E+02 -0.10364588636E+02  0.16944287686E+02  0.51100000000E-03 0. -1.
        -11    1    3    3    0    0  0.14212881438E+02 -0.54373511257E+01 -0.69858122342E+01  0.16744323184E+02  0.51100000000E-03 0.  1.
         12    1    3    3    0    0 -0.13256970621E+02  0.16658129115E+02 -0.14240903820E+02  0.25613353495E+02  0.00000000000E+00 0. -1.
</event>
<event>
 7    1  0.3755162E-013  0.5930194E+02  0.7816164E-02  0.1266605E+00
        -11   -1    0    0    0    0  0.00000000000E+00  0.00000000000E+00  0.45593999997E+02  0.45594000000E+02  0.51100000000E-03 0.  1.
         11   -1    0    0    0    0 -0.00000000000E+00 -0.00000000000E+00 -0.45593999997E+02  0.45594000000E+02  0.51100000000E-03 0. -1.
    9900012    2    1    2    0    0 -0.19134015327E+02 -0.21252086889E+01 -0.25418370414E+02  0.59301943344E+02  0.49999998754E+02 0.  0.
        -12    1    1    2    0    0  0.19134015327E+02  0.21252086889E+01  0.25418370414E+02  0.31886056656E+02  0.00000000000E+00 0.  1.
         11    1    3    3    0    0 -0.11971688223E+01 -0.83018675070E+01 -0.24472419604E+02  0.25869935037E+02  0.51100000000E-03 0. -1.
        -11    1    3    3    0    0 -0.24997205995E+02  0.21570167735E+01 -0.23008908341E+01  0.25195379096E+02  0.51100000000E-03 0.  1.
         12    1    3    3    0    0  0.70603594897E+01  0.40196420446E+01  0.13549400238E+01  0.82366292109E+01  0.00000000000E+00 0. -1.
</event>
<event>
 7    1  0.3755162E-013  0.5930195E+02  0.7816164E-02  0.1266605E+00
        -11   -1    0    0    0    0  0.00000000000E+00  0.00000000000E+00  0.45593999997E+02  0.45594000000E+02  0.51100000000E-03 0. -1.
         11   -1    0    0    0    0 -0.00000000000E+00 -0.00000000000E+00 -0.45593999997E+02  0.45594000000E+02  0.51100000000E-03 0.  1.
    9900012    2    1    2    0    0 -0.13232298226E+02 -0.13213174864E+02 -0.25827083108E+02  0.59301954021E+02  0.50000018225E+02 0.  0.
        -12    1    1    2    0    0  0.13232298226E+02  0.13213174864E+02  0.25827083108E+02  0.31886045979E+02  0.00000000000E+00 0.  1.
         11    1    3    3    0    0 -0.57297106706E+01 -0.15489956567E+01  0.37537891681E+01  0.70228132037E+01  0.51100000000E-03 0.  1.
        -11    1    3    3    0    0 -0.16834879245E+02 -0.58532927181E+01 -0.35551325593E+02  0.39768969644E+02  0.51100000000E-03 0. -1.
         12    1    3    3    0    0  0.93322916906E+01 -0.58108864893E+01  0.59704533167E+01  0.12510171174E+02  0.00000000000E+00 0. -1.
</event>
<event>
 7    1  0.3755162E-013  0.5930195E+02  0.7816164E-02  0.1266605E+00
        -11   -1    0    0    0    0  0.00000000000E+00  0.00000000000E+00  0.45593999997E+02  0.45594000000E+02  0.51100000000E-03 0.  1.
         11   -1    0    0    0    0 -0.00000000000E+00 -0.00000000000E+00 -0.45593999997E+02  0.45594000000E+02  0.51100000000E-03 0. -1.
    9900012    2    1    2    0    0 -0.21475846863E+02  0.22196938547E+02 -0.79249222136E+01  0.59301945502E+02  0.50000002688E+02 0.  0.
        -12    1    1    2    0    0  0.21475846863E+02 -0.22196938547E+02  0.79249222136E+01  0.31886054498E+02  0.00000000000E+00 0.  1.
         11    1    3    3    0    0  0.87618652244E+01 -0.20443300692E+01 -0.22363879743E+01  0.92709761663E+01  0.51100000000E-03 0. -1.
        -11    1    3    3    0    0 -0.24534869423E+01  0.19111791061E+02  0.48603356361E+01  0.19872166930E+02  0.51100000000E-03 0.  1.
        -12    1    3    3    0    0 -0.27784225145E+02  0.51294775560E+01 -0.10548869875E+02  0.30158802406E+02  0.00000000000E+00 0.  1.
</event>
<event>
 7    1  0.3755162E-013  0.5930195E+02  0.7816164E-02  0.1266605E+00
        -11   -1    0    0    0    0  0.00000000000E+00  0.00000000000E+00  0.45593999997E+02  0.45594000000E+02  0.51100000000E-03 0.  1.
         11   -1    0    0    0    0 -0.00000000000E+00 -0.00000000000E+00 -0.45593999997E+02  0.45594000000E+02  0.51100000000E-03 0. -1.
    9900012    2    1    2    0    0 -0.60619530976E+01 -0.48280786836E+01 -0.30929966014E+02  0.59301946359E+02  0.50000004253E+02 0.  0.
        -12    1    1    2    0    0  0.60619530976E+01  0.48280786836E+01  0.30929966014E+02  0.31886053641E+02  0.00000000000E+00 0.  1.
         11    1    3    3    0    0 -0.47286278089E+01  0.14016385685E+02 -0.14699474320E+02  0.20854101135E+02  0.51100000000E-03 0.  1.
        -11    1    3    3    0    0  0.16420213723E+01 -0.19201443301E+02 -0.23613811153E+02  0.30479562602E+02  0.51100000000E-03 0. -1.
        -12    1    3    3    0    0 -0.29753466611E+01  0.35697893239E+00  0.73833194586E+01  0.79682826217E+01  0.00000000000E+00 0.  1.
</event>
<event>
 7    1  0.3755162E-013  0.5930193E+02  0.7816164E-02  0.1266605E+00
        -11   -1    0    0    0    0  0.00000000000E+00  0.00000000000E+00  0.45593999997E+02  0.45594000000E+02  0.51100000000E-03 0.  1.
         11   -1    0    0    0    0 -0.00000000000E+00 -0.00000000000E+00 -0.45593999997E+02  0.45594000000E+02  0.51100000000E-03 0. -1.
    9900012    2    1    2    0    0 -0.19053464752E+02  0.25257997312E+02 -0.39649220698E+01  0.59301928522E+02  0.49999971722E+02 0.  0.
        -12    1    1    2    0    0  0.19053464752E+02 -0.25257997312E+02  0.39649220698E+01  0.31886071478E+02  0.00000000000E+00 0.  1.
         11    1    3    3    0    0 -0.22056621127E+02  0.19886990005E+02  0.11455732310E+00  0.29698485326E+02  0.51100000000E-03 0. -1.
        -11    1    3    3    0    0  0.12409069323E+02  0.12426910755E+02 -0.23209963508E+01  0.17714404780E+02  0.51100000000E-03 0.  1.
         12    1    3    3    0    0 -0.94059129483E+01 -0.70559034482E+01 -0.17584830421E+01  0.11889038417E+02  0.00000000000E+00 0. -1.
</event>
<event>
 7    1  0.3755162E-013  0.5930196E+02  0.7816164E-02  0.1266605E+00
        -11   -1    0    0    0    0  0.00000000000E+00  0.00000000000E+00  0.45593999997E+02  0.45594000000E+02  0.51100000000E-03 0.  1.
         11   -1    0    0    0    0 -0.00000000000E+00 -0.00000000000E+00 -0.45593999997E+02  0.45594000000E+02  0.51100000000E-03 0. -1.
    9900012    2    1    2    0    0 -0.28853766772E+02  0.12452281321E+02 -0.53963214596E+01  0.59301961483E+02  0.50000031834E+02 0.  0.
        -12    1    1    2    0    0  0.28853766772E+02 -0.12452281321E+02  0.53963214596E+01  0.31886038517E+02  0.00000000000E+00 0.  1.
         11    1    3    3    0    0 -0.51898219993E+01  0.45936992656E+00  0.23065966581E+01  0.56978646455E+01  0.51100000000E-03 0. -1.
        -11    1    3    3    0    0 -0.10702269433E+02  0.17909503022E+02  0.15764643843E+02  0.26149815778E+02  0.51100000000E-03 0.  1.
         12    1    3    3    0    0 -0.12961675340E+02 -0.59165916274E+01 -0.23467561960E+02  0.27454281059E+02  0.00000000000E+00 0. -1.
</event>
<event>
 7    1  0.3755162E-013  0.5930197E+02  0.7816164E-02  0.1266605E+00
        -11   -1    0    0    0    0  0.00000000000E+00  0.00000000000E+00  0.45593999997E+02  0.45594000000E+02  0.51100000000E-03 0.  1.
         11   -1    0    0    0    0 -0.00000000000E+00 -0.00000000000E+00 -0.45593999997E+02  0.45594000000E+02  0.51100000000E-03 0. -1.
    9900012    2    1    2    0    0  0.16002550393E+01 -0.11764865135E+02 -0.29593008561E+02  0.59301968207E+02  0.50000044096E+02 0.  0.
        -12    1    1    2    0    0 -0.16002550393E+01  0.11764865135E+02  0.29593008561E+02  0.31886031793E+02  0.00000000000E+00 0.  1.
         11    1    3    3    0    0  0.10511458391E+02 -0.18150768146E+01 -0.18091687351E+02  0.21002247804E+02  0.51100000000E-03 0. -1.
        -11    1    3    3    0    0  0.19591035850E+01 -0.20007301351E+02 -0.12126322034E+02  0.23477177865E+02  0.51100000000E-03 0.  1.
        -12    1    3    3    0    0 -0.10870306937E+02  0.10057513030E+02  0.62500082337E+00  0.14822542538E+02  0.00000000000E+00 0.  1.
</event>
<event>
 7    1  0.3755162E-013  0.5930194E+02  0.7816164E-02  0.1266605E+00
        -11   -1    0    0    0    0  0.00000000000E+00  0.00000000000E+00  0.45593999997E+02  0.45594000000E+02  0.51100000000E-03 0. -1.
         11   -1    0    0    0    0 -0.00000000000E+00 -0.00000000000E+00 -0.45593999997E+02  0.45594000000E+02  0.51100000000E-03 0.  1.
    9900012    2    1    2    0    0 -0.20844453800E+01  0.30880816857E+02  0.76649118094E+01  0.59301942932E+02  0.49999998001E+02 0.  0.
        -12    1    1    2    0    0  0.20844453800E+01 -0.30880816857E+02 -0.76649118094E+01  0.31886057068E+02  0.00000000000E+00 0.  1.
         11    1    3    3    0    0  0.56339711838E+01  0.95406146983E+01  0.12480869992E+02  0.16689430073E+02  0.51100000000E-03 0. -1.
        -11    1    3    3    0    0  0.10806189949E+02  0.35922231407E+01 -0.11413967420E+02  0.16123165348E+02  0.51100000000E-03 0.  1.
         12    1    3    3    0    0 -0.18524606512E+02  0.17747979018E+02  0.65980092377E+01  0.26489347511E+02  0.00000000000E+00 0. -1.
</event>
<event>
 7    1  0.3755162E-013  0.5930194E+02  0.7816164E-02  0.1266605E+00
        -11   -1    0    0    0    0  0.00000000000E+00  0.00000000000E+00  0.45593999997E+02  0.45594000000E+02  0.51100000000E-03 0. -1.
         11   -1    0    0    0    0 -0.00000000000E+00 -0.00000000000E+00 -0.45593999997E+02  0.45594000000E+02  0.51100000000E-03 0.  1.
    9900012    2    1    2    0    0  0.14544323875E+02  0.25694945302E+02  0.12039662516E+02  0.59301936516E+02  0.49999986300E+02 0.  0.
        -12    1    1    2    0    0 -0.14544323875E+02 -0.25694945302E+02 -0.12039662516E+02  0.31886063484E+02  0.00000000000E+00 0.  1.
         11    1    3    3    0    0  0.42061325093E+01 -0.41390655766E+01  0.11957321671E+01  0.60210622161E+01  0.51100000000E-03 0. -1.
        -11    1    3    3    0    0 -0.78644652964E+01  0.17821894588E+02 -0.11035391065E+02  0.22388604184E+02  0.51100000000E-03 0.  1.
         12    1    3    3    0    0  0.18202656662E+02  0.12012116291E+02  0.21879321414E+02  0.30892270115E+02  0.00000000000E+00 0. -1.
</event>
<event>
 7    1  0.3755162E-013  0.5930220E+02  0.7816164E-02  0.1266604E+00
        -11   -1    0    0    0    0  0.00000000000E+00  0.00000000000E+00  0.45593999997E+02  0.45594000000E+02  0.51100000000E-03 0. -1.
         11   -1    0    0    0    0 -0.00000000000E+00 -0.00000000000E+00 -0.45593999997E+02  0.45594000000E+02  0.51100000000E-03 0.  1.
    9900012    2    1    2    0    0  0.87680616078E+01 -0.17196117265E+02  0.25379494671E+02  0.59302202172E+02  0.50000470792E+02 0.  0.
        -12    1    1    2    0    0 -0.87680616078E+01  0.17196117265E+02 -0.25379494671E+02  0.31885797828E+02  0.00000000000E+00 0.  1.
         11    1    3    3    0    0  0.37430845164E+01  0.22539034589E+01  0.54049388020E+01  0.69501169928E+01  0.51100000000E-03 0. -1.
        -11    1    3    3    0    0  0.14920040050E+02  0.84736505138E+01  0.10334699284E+01  0.17189485404E+02  0.51100000000E-03 0.  1.
         12    1    3    3    0    0 -0.98950629583E+01 -0.27923671238E+02  0.18941085940E+02  0.35162599775E+02  0.00000000000E+00 0. -1.
</event>
<event>
 7    1  0.3755162E-013  0.5930194E+02  0.7816164E-02  0.1266605E+00
        -11   -1    0    0    0    0  0.00000000000E+00  0.00000000000E+00  0.45593999997E+02  0.45594000000E+02  0.51100000000E-03 0. -1.
         11   -1    0    0    0    0 -0.00000000000E+00 -0.00000000000E+00 -0.45593999997E+02  0.45594000000E+02  0.51100000000E-03 0.  1.
    9900012    2    1    2    0    0 -0.23977698099E+02  0.80984998150E+01  0.19396009862E+02  0.59301938720E+02  0.49999990320E+02 0.  0.
        -12    1    1    2    0    0  0.23977698099E+02 -0.80984998150E+01 -0.19396009862E+02  0.31886061280E+02  0.00000000000E+00 0.  1.
         11    1    3    3    0    0 -0.24148539412E+02  0.11864025439E+02  0.85083258430E+01  0.28218764400E+02  0.51100000000E-03 0. -1.
        -11    1    3    3    0    0  0.10126859338E+02  0.83244041718E+01  0.73420973281E+01  0.15025158179E+02  0.51100000000E-03 0.  1.
         12    1    3    3    0    0 -0.99560180251E+01 -0.12089929796E+02  0.35455866912E+01  0.16058016140E+02  0.00000000000E+00 0. -1.
</event>
<event>
 7    1  0.3755162E-013  0.5930197E+02  0.7816164E-02  0.1266605E+00
        -11   -1    0    0    0    0  0.00000000000E+00  0.00000000000E+00  0.45593999997E+02  0.45594000000E+02  0.51100000000E-03 0. -1.
         11   -1    0    0    0    0 -0.00000000000E+00 -0.00000000000E+00 -0.45593999997E+02  0.45594000000E+02  0.51100000000E-03 0.  1.
    9900012    2    1    2    0    0  0.13242470167E+02  0.67485045570E+01  0.28210164920E+02  0.59301972736E+02  0.50000052356E+02 0.  0.
        -12    1    1    2    0    0 -0.13242470167E+02 -0.67485045570E+01 -0.28210164920E+02  0.31886027264E+02  0.00000000000E+00 0.  1.
         11    1    3    3    0    0 -0.83819399352E+01 -0.21048618261E+01 -0.17250790040E+01  0.88126759963E+01  0.51100000000E-03 0. -1.
        -11    1    3    3    0    0  0.10944872592E+02  0.97361253618E+01 -0.37663413047E+01  0.15125068602E+02  0.51100000000E-03 0.  1.
         12    1    3    3    0    0  0.10679537510E+02 -0.88275897866E+00  0.33701585229E+02  0.35364228138E+02  0.00000000000E+00 0. -1.
</event>
<event>
 7    1  0.3755162E-013  0.5930195E+02  0.7816164E-02  0.1266605E+00
        -11   -1    0    0    0    0  0.00000000000E+00  0.00000000000E+00  0.45593999997E+02  0.45594000000E+02  0.51100000000E-03 0. -1.
         11   -1    0    0    0    0 -0.00000000000E+00 -0.00000000000E+00 -0.45593999997E+02  0.45594000000E+02  0.51100000000E-03 0.  1.
    9900012    2    1    2    0    0 -0.25874757976E+02  0.13687372135E+02 -0.12644075449E+02  0.59301954459E+02  0.50000019024E+02 0.  0.
        -12    1    1    2    0    0  0.25874757976E+02 -0.13687372135E+02  0.12644075449E+02  0.31886045541E+02  0.00000000000E+00 0.  1.
         11    1    3    3    0    0  0.28758331605E+01  0.49576736392E+00  0.14972588022E+02  0.15254330336E+02  0.51100000000E-03 0.  1.
        -11    1    3    3    0    0  0.11461631696E+01 -0.55732676226E+00 -0.37612812176E+00  0.13288249533E+01  0.51100000000E-03 0. -1.
         12    1    3    3    0    0 -0.29896754307E+02  0.13748931533E+02 -0.27240535350E+02  0.42718799170E+02  0.00000000000E+00 0. -1.
</event>
<event>
 7    1  0.3755162E-013  0.5930191E+02  0.7816164E-02  0.1266605E+00
        -11   -1    0    0    0    0  0.00000000000E+00  0.00000000000E+00  0.45593999997E+02  0.45594000000E+02  0.51100000000E-03 0. -1.
         11   -1    0    0    0    0 -0.00000000000E+00 -0.00000000000E+00 -0.45593999997E+02  0.45594000000E+02  0.51100000000E-03 0.  1.
    9900012    2    1    2    0    0  0.37452146939E+01 -0.33509075858E+01  0.31487581182E+02  0.59301906112E+02  0.49999930850E+02 0.  0.
        -12    1    1    2    0    0 -0.37452146939E+01  0.33509075858E+01 -0.31487581182E+02  0.31886093888E+02  0.00000000000E+00 0.  1.
         11    1    3    3    0    0  0.13991728835E+02 -0.15996991856E+02  0.11511901256E+02  0.24170148842E+02  0.51100000000E-03 0. -1.
        -11    1    3    3    0    0 -0.49427364613E+01  0.91116568432E+01  0.24968927969E+02  0.27035167807E+02  0.51100000000E-03 0.  1.
        -12    1    3    3    0    0 -0.53037776802E+01  0.35344274269E+01 -0.49932480431E+01  0.80965894633E+01  0.00000000000E+00 0.  1.
</event>
<event>
 7    1  0.3755162E-013  0.5930197E+02  0.7816164E-02  0.1266605E+00
        -11   -1    0    0    0    0  0.00000000000E+00  0.00000000000E+00  0.45593999997E+02  0.45594000000E+02  0.51100000000E-03 0. -1.
         11   -1    0    0    0    0 -0.00000000000E+00 -0.00000000000E+00 -0.45593999997E+02  0.45594000000E+02  0.51100000000E-03 0.  1.
    9900012    2    1    2    0    0 -0.31505086811E+02  0.29878096881E+01 -0.39014952581E+01  0.59301965958E+02  0.50000039996E+02 0.  0.
        -12    1    1    2    0    0  0.31505086811E+02 -0.29878096881E+01  0.39014952581E+01  0.31886034042E+02  0.00000000000E+00 0.  1.
         11    1    3    3    0    0  0.39183613610E+01 -0.24931600721E+01  0.60937794066E+01  0.76618242356E+01  0.51100000000E-03 0. -1.
        -11    1    3    3    0    0 -0.15981786686E+01  0.14847920202E+02  0.69528693722E+00  0.14949860654E+02  0.51100000000E-03 0.  1.
        -12    1    3    3    0    0 -0.33825269503E+02 -0.93669504419E+01 -0.10690561602E+02  0.36690281069E+02  0.00000000000E+00 0.  1.
</event>
<event>
 7    1  0.3755162E-013  0.5930196E+02  0.7816164E-02  0.1266605E+00
        -11   -1    0    0    0    0  0.00000000000E+00  0.00000000000E+00  0.45593999997E+02  0.45594000000E+02  0.51100000000E-03 0.  1.
         11   -1    0    0    0    0 -0.00000000000E+00 -0.00000000000E+00 -0.45593999997E+02  0.45594000000E+02  0.51100000000E-03 0. -1.
    9900012    2    1    2    0    0  0.20013804638E+02  0.18394988570E+02 -0.16667080660E+02  0.59301959821E+02  0.50000028803E+02 0.  0.
        -12    1    1    2    0    0 -0.20013804638E+02 -0.18394988570E+02  0.16667080660E+02  0.31886040179E+02  0.00000000000E+00 0.  1.
         11    1    3    3    0    0  0.52032338137E+01 -0.12577086543E+02 -0.32963973915E+01  0.14004391599E+02  0.51100000000E-03 0. -1.
        -11    1    3    3    0    0 -0.73704494219E+01  0.11532566912E+02 -0.28259991226E+01  0.13975331679E+02  0.51100000000E-03 0.  1.
         12    1    3    3    0    0  0.22181020247E+02  0.19439508201E+02 -0.10544684146E+02  0.31322236542E+02  0.00000000000E+00 0. -1.
</event>
<event>
 7    1  0.3755162E-013  0.5930196E+02  0.7816164E-02  0.1266605E+00
        -11   -1    0    0    0    0  0.00000000000E+00  0.00000000000E+00  0.45593999997E+02  0.45594000000E+02  0.51100000000E-03 0. -1.
         11   -1    0    0    0    0 -0.00000000000E+00 -0.00000000000E+00 -0.45593999997E+02  0.45594000000E+02  0.51100000000E-03 0.  1.
    9900012    2    1    2    0    0  0.44110203273E+01  0.31296341174E+02 -0.42191496613E+01  0.59301963948E+02  0.50000036330E+02 0.  0.
        -12    1    1    2    0    0 -0.44110203273E+01 -0.31296341174E+02  0.42191496613E+01  0.31886036052E+02  0.00000000000E+00 0.  1.
         11    1    3    3    0    0  0.20017440124E+01  0.31815215352E+02 -0.13597901921E+02  0.34657147083E+02  0.51100000000E-03 0.  1.
        -11    1    3    3    0    0 -0.26269889087E+01  0.53768148467E+01 -0.53323677033E+01  0.80153199690E+01  0.51100000000E-03 0. -1.
         12    1    3    3    0    0  0.50362652236E+01 -0.58956890247E+01  0.14711119963E+02  0.16629496896E+02  0.00000000000E+00 0. -1.
</event>
<event>
 7    1  0.3755162E-013  0.5930187E+02  0.7816164E-02  0.1266605E+00
        -11   -1    0    0    0    0  0.00000000000E+00  0.00000000000E+00  0.45593999997E+02  0.45594000000E+02  0.51100000000E-03 0.  1.
         11   -1    0    0    0    0 -0.00000000000E+00 -0.00000000000E+00 -0.45593999997E+02  0.45594000000E+02  0.51100000000E-03 0. -1.
    9900012    2    1    2    0    0  0.22981892650E+02  0.13285909616E+02 -0.17664716538E+02  0.59301874577E+02  0.49999873339E+02 0.  0.
        -12    1    1    2    0    0 -0.22981892650E+02 -0.13285909616E+02  0.17664716538E+02  0.31886125423E+02  0.00000000000E+00 0.  1.
         11    1    3    3    0    0  0.26813054283E+02 -0.70204686246E+01 -0.67351314128E+01  0.28523479015E+02  0.51100000000E-03 0. -1.
        -11    1    3    3    0    0  0.76053602987E+01  0.13065650779E+02 -0.43707068637E+01  0.15737084047E+02  0.51100000000E-03 0.  1.
        -12    1    3    3    0    0 -0.11436521932E+02  0.72407274614E+01 -0.65588782617E+01  0.15041311516E+02  0.00000000000E+00 0.  1.
</event>
<event>
 7    1  0.3755162E-013  0.5930194E+02  0.7816164E-02  0.1266605E+00
        -11   -1    0    0    0    0  0.00000000000E+00  0.00000000000E+00  0.45593999997E+02  0.45594000000E+02  0.51100000000E-03 0. -1.
         11   -1    0    0    0    0 -0.00000000000E+00 -0.00000000000E+00 -0.45593999997E+02  0.45594000000E+02  0.51100000000E-03 0.  1.
    9900012    2    1    2    0    0  0.24510325458E+02 -0.19512076256E+02  0.59366253168E+01  0.59301942012E+02  0.49999996324E+02 0.  0.
        -12    1    1    2    0    0 -0.24510325458E+02  0.19512076256E+02 -0.59366253168E+01  0.31886057988E+02  0.00000000000E+00 0.  1.
         11    1    3    3    0    0  0.10156045108E+02 -0.22496745066E+01  0.53847515688E+01  0.11713318801E+02  0.51100000000E-03 0. -1.
        -11    1    3    3    0    0  0.84120992697E+01 -0.31122793901E+02  0.27154787528E+01  0.32353756188E+02  0.51100000000E-03 0.  1.
        -12    1    3    3    0    0  0.59421810802E+01  0.13860392152E+02 -0.21636050048E+01  0.15234867023E+02  0.00000000000E+00 0.  1.
</event>
<event>
 7    1  0.3755162E-013  0.5930193E+02  0.7816164E-02  0.1266605E+00
        -11   -1    0    0    0    0  0.00000000000E+00  0.00000000000E+00  0.45593999997E+02  0.45594000000E+02  0.51100000000E-03 0. -1.
         11   -1    0    0    0    0 -0.00000000000E+00 -0.00000000000E+00 -0.45593999997E+02  0.45594000000E+02  0.51100000000E-03 0.  1.
    9900012    2    1    2    0    0 -0.25965153645E+02 -0.11393052996E+02  0.14585276352E+02  0.59301934915E+02  0.49999983380E+02 0.  0.
        -12    1    1    2    0    0  0.25965153645E+02  0.11393052996E+02 -0.14585276352E+02  0.31886065085E+02  0.00000000000E+00 0.  1.
         11    1    3    3    0    0  0.10105228949E+02 -0.33690480881E+01  0.10915477306E+02  0.15251681291E+02  0.51100000000E-03 0.  1.
        -11    1    3    3    0    0 -0.77391371182E+01 -0.91438929261E+01 -0.68602825848E+01  0.13804654961E+02  0.51100000000E-03 0. -1.
         12    1    3    3    0    0 -0.28331245475E+02  0.11198880186E+01  0.10530081630E+02  0.30245598663E+02  0.00000000000E+00 0. -1.
</event>
<event>
 7    1  0.3755162E-013  0.5930194E+02  0.7816164E-02  0.1266605E+00
        -11   -1    0    0    0    0  0.00000000000E+00  0.00000000000E+00  0.45593999997E+02  0.45594000000E+02  0.51100000000E-03 0.  1.
         11   -1    0    0    0    0 -0.00000000000E+00 -0.00000000000E+00 -0.45593999997E+02  0.45594000000E+02  0.51100000000E-03 0. -1.
    9900012    2    1    2    0    0 -0.93735793067E+00 -0.31578604416E+02 -0.43166910043E+01  0.59301941636E+02  0.49999995639E+02 0.  0.
        -12    1    1    2    0    0  0.93735793067E+00  0.31578604416E+02  0.43166910043E+01  0.31886058364E+02  0.00000000000E+00 0.  1.
         11    1    3    3    0    0 -0.24641728996E+01 -0.55727181575E+01  0.64986158358E+01  0.89083861493E+01  0.51100000000E-03 0. -1.
        -11    1    3    3    0    0 -0.16346945845E+02 -0.18976877703E+02  0.49672024700E+01  0.25534635820E+02  0.51100000000E-03 0.  1.
         12    1    3    3    0    0  0.17873760814E+02 -0.70290085557E+01 -0.15782509310E+02  0.24858919668E+02  0.00000000000E+00 0. -1.
</event>
<event>
 7    1  0.3755162E-013  0.5930162E+02  0.7816164E-02  0.1266606E+00
        -11   -1    0    0    0    0  0.00000000000E+00  0.00000000000E+00  0.45593999997E+02  0.45594000000E+02  0.51100000000E-03 0. -1.
         11   -1    0    0    0    0 -0.00000000000E+00 -0.00000000000E+00 -0.45593999997E+02  0.45594000000E+02  0.51100000000E-03 0.  1.
    9900012    2    1    2    0    0  0.20730179632E+02  0.41541365318E+01 -0.23869314102E+02  0.59301618054E+02  0.49999405499E+02 0.  0.
        -12    1    1    2    0    0 -0.20730179632E+02 -0.41541365318E+01  0.23869314102E+02  0.31886381946E+02  0.00000000000E+00 0.  1.
         11    1    3    3    0    0  0.24839506064E+02 -0.13912711449E+02 -0.32401451718E+01  0.28654199384E+02  0.51100000000E-03 0. -1.
        -11    1    3    3    0    0  0.15632146592E+01 -0.14855285147E+01 -0.31341193525E+01  0.38043579505E+01  0.51100000000E-03 0.  1.
        -12    1    3    3    0    0 -0.56725410916E+01  0.19552376496E+02 -0.17495049578E+02  0.26843060719E+02  0.00000000000E+00 0.  1.
</event>
<event>
 7    1  0.3755162E-013  0.5930195E+02  0.7816164E-02  0.1266605E+00
        -11   -1    0    0    0    0  0.00000000000E+00  0.00000000000E+00  0.45593999997E+02  0.45594000000E+02  0.51100000000E-03 0. -1.
         11   -1    0    0    0    0 -0.00000000000E+00 -0.00000000000E+00 -0.45593999997E+02  0.45594000000E+02  0.51100000000E-03 0.  1.
    9900012    2    1    2    0    0 -0.45306893110E+01  0.65154613947E-01  0.31562462533E+02  0.59301946122E+02  0.50000003820E+02 0.  0.
        -12    1    1    2    0    0  0.45306893110E+01 -0.65154613947E-01 -0.31562462533E+02  0.31886053878E+02  0.00000000000E+00 0.  1.
         11    1    3    3    0    0  0.15890027629E+01  0.46632839924E+01  0.89420278049E+01  0.10209358888E+02  0.51100000000E-03 0. -1.
        -11    1    3    3    0    0 -0.11174204878E+02  0.17574044350E+02  0.11141206570E+02  0.23618559939E+02  0.51100000000E-03 0.  1.
         12    1    3    3    0    0  0.50545128046E+01 -0.22172173729E+02  0.11479228158E+02  0.25474027296E+02  0.00000000000E+00 0. -1.
</event>
<event>
 7    1  0.3755162E-013  0.5930194E+02  0.7816164E-02  0.1266605E+00
        -11   -1    0    0    0    0  0.00000000000E+00  0.00000000000E+00  0.45593999997E+02  0.45594000000E+02  0.51100000000E-03 0.  1.
         11   -1    0    0    0    0 -0.00000000000E+00 -0.00000000000E+00 -0.45593999997E+02  0.45594000000E+02  0.51100000000E-03 0. -1.
    9900012    2    1    2    0    0 -0.20189208883E+02  0.24435244111E+02 -0.34692426353E+01  0.59301937926E+02  0.49999988873E+02 0.  0.
        -12    1    1    2    0    0  0.20189208883E+02 -0.24435244111E+02  0.34692426353E+01  0.31886062074E+02  0.00000000000E+00 0.  1.
         11    1    3    3    0    0  0.38627650799E+01  0.79487066751E+01  0.88723170348E+01  0.12522815246E+02  0.51100000000E-03 0. -1.
        -11    1    3    3    0    0 -0.96519442881E+01  0.16590568264E+02  0.88674847265E+01  0.21143303183E+02  0.51100000000E-03 0.  1.
         12    1    3    3    0    0 -0.14400029675E+02 -0.10403082771E+00 -0.21209044397E+02  0.25635819497E+02  0.00000000000E+00 0. -1.
</event>
<event>
 7    1  0.3755162E-013  0.5930196E+02  0.7816164E-02  0.1266605E+00
        -11   -1    0    0    0    0  0.00000000000E+00  0.00000000000E+00  0.45593999997E+02  0.45594000000E+02  0.51100000000E-03 0. -1.
         11   -1    0    0    0    0 -0.00000000000E+00 -0.00000000000E+00 -0.45593999997E+02  0.45594000000E+02  0.51100000000E-03 0.  1.
    9900012    2    1    2    0    0 -0.10467293407E+02 -0.26483804143E+02  0.14344454301E+02  0.59301961012E+02  0.50000030974E+02 0.  0.
        -12    1    1    2    0    0  0.10467293407E+02  0.26483804143E+02 -0.14344454301E+02  0.31886038988E+02  0.00000000000E+00 0.  1.
         11    1    3    3    0    0 -0.17716309128E+02 -0.61712871842E+01  0.67260204991E+00  0.18772447587E+02  0.51100000000E-03 0. -1.
        -11    1    3    3    0    0 -0.10067492595E+02 -0.18065839205E+02  0.69351480898E+01  0.21813418636E+02  0.51100000000E-03 0.  1.
        -12    1    3    3    0    0  0.17316508316E+02 -0.22466777545E+01  0.67367041617E+01  0.18716094789E+02  0.00000000000E+00 0.  1.
</event>
<event>
 7    1  0.3755162E-013  0.5930195E+02  0.7816164E-02  0.1266605E+00
        -11   -1    0    0    0    0  0.00000000000E+00  0.00000000000E+00  0.45593999997E+02  0.45594000000E+02  0.51100000000E-03 0. -1.
         11   -1    0    0    0    0 -0.00000000000E+00 -0.00000000000E+00 -0.45593999997E+02  0.45594000000E+02  0.51100000000E-03 0.  1.
    9900012    2    1    2    0    0 -0.10228832402E+02 -0.27840886262E+02  0.11703679733E+02  0.59301951649E+02  0.50000013899E+02 0.  0.
        -12    1    1    2    0    0  0.10228832402E+02  0.27840886262E+02 -0.11703679733E+02  0.31886048351E+02  0.00000000000E+00 0.  1.
         11    1    3    3    0    0 -0.18477661776E+02 -0.76878257269E+01 -0.98187883442E+01  0.22292044633E+02  0.51100000000E-03 0.  1.
        -11    1    3    3    0    0 -0.60875575255E+01 -0.71488622908E+01  0.12555199106E+02  0.15677933969E+02  0.51100000000E-03 0. -1.
        -12    1    3    3    0    0  0.14336386899E+02 -0.13004198245E+02  0.89672689711E+01  0.21331973047E+02  0.00000000000E+00 0.  1.
</event>
<event>
 7    1  0.3755162E-013  0.5930197E+02  0.7816164E-02  0.1266605E+00
        -11   -1    0    0    0    0  0.00000000000E+00  0.00000000000E+00  0.45593999997E+02  0.45594000000E+02  0.51100000000E-03 0.  1.
         11   -1    0    0    0    0 -0.00000000000E+00 -0.00000000000E+00 -0.45593999997E+02  0.45594000000E+02  0.51100000000E-03 0. -1.
    9900012    2    1    2    0    0  0.94287181978E+01  0.83113886440E+01 -0.29304246134E+02  0.59301972503E+02  0.50000051932E+02 0.  0.
        -12    1    1    2    0    0 -0.94287181978E+01 -0.83113886440E+01  0.29304246134E+02  0.31886027497E+02  0.00000000000E+00 0.  1.
         11    1    3    3    0    0  0.21600211090E+02  0.12382929820E+01 -0.77276325541E+01  0.22974307254E+02  0.51100000000E-03 0. -1.
        -11    1    3    3    0    0  0.57884189041E+01  0.22053239666E+01  0.17988005791E+01  0.64501884462E+01  0.51100000000E-03 0.  1.
        -12    1    3    3    0    0 -0.17959911796E+02  0.48677716955E+01 -0.23375414159E+02  0.29877476803E+02  0.00000000000E+00 0.  1.
</event>
<event>
 7    1  0.3755162E-013  0.5930194E+02  0.7816164E-02  0.1266605E+00
        -11   -1    0    0    0    0  0.00000000000E+00  0.00000000000E+00  0.45593999997E+02  0.45594000000E+02  0.51100000000E-03 0.  1.
         11   -1    0    0    0    0 -0.00000000000E+00 -0.00000000000E+00 -0.45593999997E+02  0.45594000000E+02  0.51100000000E-03 0. -1.
    9900012    2    1    2    0    0  0.95881135571E+01 -0.62169446439E+01 -0.29768074522E+02  0.59301943752E+02  0.49999999497E+02 0.  0.
        -12    1    1    2    0    0 -0.95881135571E+01  0.62169446439E+01  0.29768074522E+02  0.31886056248E+02  0.00000000000E+00 0.  1.
         11    1    3    3    0    0  0.21694634970E+01  0.40388491736E+01  0.10192747463E+02  0.11176357887E+02  0.51100000000E-03 0. -1.
        -11    1    3    3    0    0  0.32871169875E+01 -0.64504875730E+01  0.51862050646E+00  0.72582983894E+01  0.51100000000E-03 0.  1.
         12    1    3    3    0    0  0.41315330726E+01 -0.38053062445E+01 -0.40479442492E+02  0.40867287475E+02  0.00000000000E+00 0. -1.
</event>
<event>
 7    1  0.3755162E-013  0.5930197E+02  0.7816164E-02  0.1266605E+00
        -11   -1    0    0    0    0  0.00000000000E+00  0.00000000000E+00  0.45593999997E+02  0.45594000000E+02  0.51100000000E-03 0.  1.
         11   -1    0    0    0    0 -0.00000000000E+00 -0.00000000000E+00 -0.45593999997E+02  0.45594000000E+02  0.51100000000E-03 0. -1.
    9900012    2    1    2    0    0 -0.73963942763E+01 -0.14220603166E+02 -0.27564225387E+02  0.59301972906E+02  0.50000052666E+02 0.  0.
        -12    1    1    2    0    0  0.73963942763E+01  0.14220603166E+02  0.27564225387E+02  0.31886027094E+02  0.00000000000E+00 0.  1.
         11    1    3    3    0    0 -0.35404247789E+01 -0.14253413724E+02 -0.90122982868E+01  0.17231248680E+02  0.51100000000E-03 0. -1.
        -11    1    3    3    0    0  0.26896417694E+01 -0.81629410781E+01  0.90875048996E+01  0.12508018446E+02  0.51100000000E-03 0.  1.
        -12    1    3    3    0    0 -0.65456112667E+01  0.81957516362E+01 -0.27639432000E+02  0.29562705779E+02  0.00000000000E+00 0.  1.
</event>
<event>
 7    1  0.3755162E-013  0.5930193E+02  0.7816164E-02  0.1266605E+00
        -11   -1    0    0    0    0  0.00000000000E+00  0.00000000000E+00  0.45593999997E+02  0.45594000000E+02  0.51100000000E-03 0.  1.
         11   -1    0    0    0    0 -0.00000000000E+00 -0.00000000000E+00 -0.45593999997E+02  0.45594000000E+02  0.51100000000E-03 0. -1.
    9900012    2    1    2    0    0  0.22908132540E+02  0.97133597308E+01 -0.19939646592E+02  0.59301930943E+02  0.49999976136E+02 0.  0.
        -12    1    1    2    0    0 -0.22908132540E+02 -0.97133597308E+01  0.19939646592E+02  0.31886069057E+02  0.00000000000E+00 0.  1.
         11    1    3    3    0    0  0.93396590126E+01  0.11462397692E+02  0.31737142954E+01  0.15122442065E+02  0.51100000000E-03 0.  1.
        -11    1    3    3    0    0 -0.91569055171E+01  0.63326927049E+01 -0.54316419438E+00  0.11146611285E+02  0.51100000000E-03 0. -1.
        -12    1    3    3    0    0  0.22725379044E+02 -0.80817306664E+01 -0.22570196693E+02  0.33032877592E+02  0.00000000000E+00 0.  1.
</event>
<event>
 7    1  0.3755162E-013  0.5930198E+02  0.7816164E-02  0.1266605E+00
        -11   -1    0    0    0    0  0.00000000000E+00  0.00000000000E+00  0.45593999997E+02  0.45594000000E+02  0.51100000000E-03 0.  1.
         11   -1    0    0    0    0 -0.00000000000E+00 -0.00000000000E+00 -0.45593999997E+02  0.45594000000E+02  0.51100000000E-03 0. -1.
    9900012    2    1    2    0    0  0.86220594778E+01 -0.22913816346E+02 -0.20428794212E+02  0.59301976069E+02  0.50000058436E+02 0.  0.
        -12    1    1    2    0    0 -0.86220594778E+01  0.22913816346E+02  0.20428794212E+02  0.31886023931E+02  0.00000000000E+00 0.  1.
         11    1    3    3    0    0 -0.47416289917E+01  0.60557938211E+01 -0.55683702877E+01  0.94953900510E+01  0.51100000000E-03 0. -1.
        -11    1    3    3    0    0  0.14999348017E+02  0.23361139905E+01 -0.15639575644E+00  0.15180985785E+02  0.51100000000E-03 0.  1.
        -12    1    3    3    0    0 -0.16356595471E+01 -0.31305724157E+02 -0.14704028168E+02  0.34625600233E+02  0.00000000000E+00 0.  1.
</event>
<event>
 7    1  0.3755162E-013  0.5930194E+02  0.7816164E-02  0.1266605E+00
        -11   -1    0    0    0    0  0.00000000000E+00  0.00000000000E+00  0.45593999997E+02  0.45594000000E+02  0.51100000000E-03 0.  1.
         11   -1    0    0    0    0 -0.00000000000E+00 -0.00000000000E+00 -0.45593999997E+02  0.45594000000E+02  0.51100000000E-03 0. -1.
    9900012    2    1    2    0    0 -0.11332273864E+02 -0.28193753756E+02  0.96650247495E+01  0.59301939015E+02  0.49999990857E+02 0.  0.
        -12    1    1    2    0    0  0.11332273864E+02  0.28193753756E+02 -0.96650247495E+01  0.31886060985E+02  0.00000000000E+00 0.  1.
         11    1    3    3    0    0  0.42018040911E+01 -0.75810753733E+01 -0.58100088250E+01  0.10434752716E+02  0.51100000000E-03 0. -1.
        -11    1    3    3    0    0  0.53840042378E+01 -0.18447654116E+02  0.19586026856E+02  0.27439312898E+02  0.51100000000E-03 0.  1.
         12    1    3    3    0    0 -0.20918082193E+02 -0.21650242659E+01 -0.41109932820E+01  0.21427873401E+02  0.00000000000E+00 0. -1.
</event>
<event>
 7    1  0.3755162E-013  0.5930193E+02  0.7816164E-02  0.1266605E+00
        -11   -1    0    0    0    0  0.00000000000E+00  0.00000000000E+00  0.45593999997E+02  0.45594000000E+02  0.51100000000E-03 0. -1.
         11   -1    0    0    0    0 -0.00000000000E+00 -0.00000000000E+00 -0.45593999997E+02  0.45594000000E+02  0.51100000000E-03 0.  1.
    9900012    2    1    2    0    0  0.29550633323E+02  0.37275126844E+01  0.11383627562E+02  0.59301933183E+02  0.49999980222E+02 0.  0.
        -12    1    1    2    0    0 -0.29550633323E+02 -0.37275126844E+01 -0.11383627562E+02  0.31886066817E+02  0.00000000000E+00 0.  1.
         11    1    3    3    0    0  0.26311621987E+02  0.74901978205E+01  0.17645967989E+02  0.32554334604E+02  0.51100000000E-03 0. -1.
        -11    1    3    3    0    0  0.10854450346E+02 -0.68534622778E+01  0.41420036628E+01  0.13488707577E+02  0.51100000000E-03 0.  1.
        -12    1    3    3    0    0 -0.76154390103E+01  0.30907771418E+01 -0.10404344090E+02  0.13258891002E+02  0.00000000000E+00 0.  1.
</event>
<event>
 7    1  0.3755162E-013  0.5930195E+02  0.7816164E-02  0.1266605E+00
        -11   -1    0    0    0    0  0.00000000000E+00  0.00000000000E+00  0.45593999997E+02  0.45594000000E+02  0.51100000000E-03 0. -1.
         11   -1    0    0    0    0 -0.00000000000E+00 -0.00000000000E+00 -0.45593999997E+02  0.45594000000E+02  0.51100000000E-03 0.  1.
    9900012    2    1    2    0    0  0.12682578486E+02  0.12831538159E+02  0.26291142252E+02  0.59301947728E+02  0.50000006748E+02 0.  0.
        -12    1    1    2    0    0 -0.12682578486E+02 -0.12831538159E+02 -0.26291142252E+02  0.31886052272E+02  0.00000000000E+00 0.  1.
         11    1    3    3    0    0  0.93730124491E+01  0.12634836166E+01  0.73132256123E+01  0.11955459938E+02  0.51100000000E-03 0. -1.
        -11    1    3    3    0    0  0.18754068900E+02 -0.61835365467E+01  0.10260644591E+02  0.22253809836E+02  0.51100000000E-03 0.  1.
         12    1    3    3    0    0 -0.15444502864E+02  0.17751591089E+02  0.87172720483E+01  0.25092677953E+02  0.00000000000E+00 0. -1.
</event>
<event>
 7    1  0.3755162E-013  0.5930195E+02  0.7816164E-02  0.1266605E+00
        -11   -1    0    0    0    0  0.00000000000E+00  0.00000000000E+00  0.45593999997E+02  0.45594000000E+02  0.51100000000E-03 0.  1.
         11   -1    0    0    0    0 -0.00000000000E+00 -0.00000000000E+00 -0.45593999997E+02  0.45594000000E+02  0.51100000000E-03 0. -1.
    9900012    2    1    2    0    0 -0.14167612543E+02  0.27218684321E+02 -0.86684663875E+01  0.59301947707E+02  0.50000006710E+02 0.  0.
        -12    1    1    2    0    0  0.14167612543E+02 -0.27218684321E+02  0.86684663875E+01  0.31886052293E+02  0.00000000000E+00 0.  1.
         11    1    3    3    0    0 -0.27390176234E+01  0.42725779843E+01 -0.14768696842E+02  0.15616387126E+02  0.51100000000E-03 0. -1.
        -11    1    3    3    0    0  0.67767581238E+01 -0.10240637555E+01  0.11225548231E+02  0.13152417671E+02  0.51100000000E-03 0.  1.
         12    1    3    3    0    0 -0.18205353043E+02  0.23970170092E+02 -0.51253177764E+01  0.30533142910E+02  0.00000000000E+00 0. -1.
</event>
<event>
 7    1  0.3755162E-013  0.5930218E+02  0.7816164E-02  0.1266604E+00
        -11   -1    0    0    0    0  0.00000000000E+00  0.00000000000E+00  0.45593999997E+02  0.45594000000E+02  0.51100000000E-03 0.  1.
         11   -1    0    0    0    0 -0.00000000000E+00 -0.00000000000E+00 -0.45593999997E+02  0.45594000000E+02  0.51100000000E-03 0. -1.
    9900012    2    1    2    0    0 -0.75494298433E+01 -0.77358435777E+01 -0.29997802430E+02  0.59302183130E+02  0.50000436063E+02 0.  0.
        -12    1    1    2    0    0  0.75494298433E+01  0.77358435777E+01  0.29997802430E+02  0.31885816870E+02  0.00000000000E+00 0.  1.
         11    1    3    3    0    0 -0.12449951774E+02 -0.90830080273E+01 -0.33147016200E+02  0.36554439090E+02  0.51100000000E-03 0. -1.
        -11    1    3    3    0    0 -0.62667471214E+01 -0.91828257218E+00 -0.55425908107E+01  0.84163932609E+01  0.51100000000E-03 0.  1.
        -12    1    3    3    0    0  0.11167269052E+02  0.22654470218E+01  0.86918045803E+01  0.14331350779E+02  0.00000000000E+00 0.  1.
</event>
<event>
 7    1  0.3755162E-013  0.5930194E+02  0.7816164E-02  0.1266605E+00
        -11   -1    0    0    0    0  0.00000000000E+00  0.00000000000E+00  0.45593999997E+02  0.45594000000E+02  0.51100000000E-03 0. -1.
         11   -1    0    0    0    0 -0.00000000000E+00 -0.00000000000E+00 -0.45593999997E+02  0.45594000000E+02  0.51100000000E-03 0.  1.
    9900012    2    1    2    0    0  0.77540161857E+01 -0.28998957936E+02 -0.10754380697E+02  0.59301936703E+02  0.49999986642E+02 0.  0.
        -12    1    1    2    0    0 -0.77540161857E+01  0.28998957936E+02  0.10754380697E+02  0.31886063297E+02  0.00000000000E+00 0.  1.
         11    1    3    3    0    0 -0.25624268490E+01  0.35440529524E+01 -0.11160839152E+02  0.11987104468E+02  0.51100000000E-03 0. -1.
        -11    1    3    3    0    0  0.26693216623E+01  0.58661406279E+01 -0.44787344390E+01  0.78483085082E+01  0.51100000000E-03 0.  1.
        -12    1    3    3    0    0  0.76471213724E+01 -0.38409151516E+02  0.48851928939E+01  0.39466523727E+02  0.00000000000E+00 0.  1.
</event>
<event>
 7    1  0.3755162E-013  0.5930194E+02  0.7816164E-02  0.1266605E+00
        -11   -1    0    0    0    0  0.00000000000E+00  0.00000000000E+00  0.45593999997E+02  0.45594000000E+02  0.51100000000E-03 0. -1.
         11   -1    0    0    0    0 -0.00000000000E+00 -0.00000000000E+00 -0.45593999997E+02  0.45594000000E+02  0.51100000000E-03 0.  1.
    9900012    2    1    2    0    0  0.20067562046E+02  0.22270528768E+02  0.10864492703E+02  0.59301941922E+02  0.49999996159E+02 0.  0.
        -12    1    1    2    0    0 -0.20067562046E+02 -0.22270528768E+02 -0.10864492703E+02  0.31886058078E+02  0.00000000000E+00 0.  1.
         11    1    3    3    0    0 -0.46601510693E+00  0.49108280764E+01 -0.35231983964E+01  0.60618750958E+01  0.51100000000E-03 0. -1.
        -11    1    3    3    0    0  0.28466381078E+02  0.26172487083E+02  0.14724379532E+02  0.41378029008E+02  0.51100000000E-03 0.  1.
         12    1    3    3    0    0 -0.79328039249E+01 -0.88127863908E+01 -0.33668843299E+00  0.11862037817E+02  0.00000000000E+00 0. -1.
</event>
<event>
 7    1  0.3755162E-013  0.5930195E+02  0.7816164E-02  0.1266605E+00
        -11   -1    0    0    0    0  0.00000000000E+00  0.00000000000E+00  0.45593999997E+02  0.45594000000E+02  0.51100000000E-03 0.  1.
         11   -1    0    0    0    0 -0.00000000000E+00 -0.00000000000E+00 -0.45593999997E+02  0.45594000000E+02  0.51100000000E-03 0. -1.
    9900012    2    1    2    0    0  0.12880763080E+02 -0.25704957251E+02 -0.13786266324E+02  0.59301952520E+02  0.50000015487E+02 0.  0.
        -12    1    1    2    0    0 -0.12880763080E+02  0.25704957251E+02  0.13786266324E+02  0.31886047480E+02  0.00000000000E+00 0.  1.
         11    1    3    3    0    0 -0.33651202663E+01 -0.65382662679E+01 -0.85852302821E+01  0.11303943536E+02  0.51100000000E-03 0. -1.
        -11    1    3    3    0    0  0.16841562738E+02  0.18547037959E+00 -0.18107166875E+02  0.24729377817E+02  0.51100000000E-03 0.  1.
        -12    1    3    3    0    0 -0.59567939218E+00 -0.19352161362E+02  0.12906130833E+02  0.23268631167E+02  0.00000000000E+00 0.  1.
</event>
<event>
 7    1  0.3755162E-013  0.5930195E+02  0.7816164E-02  0.1266605E+00
        -11   -1    0    0    0    0  0.00000000000E+00  0.00000000000E+00  0.45593999997E+02  0.45594000000E+02  0.51100000000E-03 0. -1.
         11   -1    0    0    0    0 -0.00000000000E+00 -0.00000000000E+00 -0.45593999997E+02  0.45594000000E+02  0.51100000000E-03 0.  1.
    9900012    2    1    2    0    0  0.22585690708E+02 -0.21689527459E+02 -0.60142324696E+01  0.59301952607E+02  0.50000015646E+02 0.  0.
        -12    1    1    2    0    0 -0.22585690708E+02  0.21689527459E+02  0.60142324696E+01  0.31886047393E+02  0.00000000000E+00 0.  1.
         11    1    3    3    0    0 -0.75072376263E+01 -0.44845613694E+01  0.54614948145E+01  0.10310084060E+02  0.51100000000E-03 0. -1.
        -11    1    3    3    0    0 -0.42842147657E+00  0.29414026201E+01 -0.12055354926E+02  0.12416399518E+02  0.51100000000E-03 0.  1.
         12    1    3    3    0    0  0.30521349811E+02 -0.20146368710E+02  0.57962764173E+00  0.36575469029E+02  0.00000000000E+00 0. -1.
</event>
<event>
 7    1  0.3755162E-013  0.5930188E+02  0.7816164E-02  0.1266605E+00
        -11   -1    0    0    0    0  0.00000000000E+00  0.00000000000E+00  0.45593999997E+02  0.45594000000E+02  0.51100000000E-03 0. -1.
         11   -1    0    0    0    0 -0.00000000000E+00 -0.00000000000E+00 -0.45593999997E+02  0.45594000000E+02  0.51100000000E-03 0.  1.
    9900012    2    1    2    0    0 -0.14559371345E+02 -0.50069122210E+01  0.27922759370E+02  0.59301875199E+02  0.49999874473E+02 0.  0.
        -12    1    1    2    0    0  0.14559371345E+02  0.50069122210E+01 -0.27922759370E+02  0.31886124801E+02  0.00000000000E+00 0.  1.
         11    1    3    3    0    0 -0.12181794123E+02  0.23862724656E+01  0.27906702243E+02  0.30542993218E+02  0.51100000000E-03 0. -1.
        -11    1    3    3    0    0 -0.46258420644E+01  0.81103431511E+01  0.69377142506E+01  0.11632194983E+02  0.51100000000E-03 0.  1.
        -12    1    3    3    0    0  0.22482648420E+01 -0.15503527838E+02 -0.69216571236E+01  0.17126686999E+02  0.00000000000E+00 0.  1.
</event>
<event>
 7    1  0.3755162E-013  0.5930195E+02  0.7816164E-02  0.1266605E+00
        -11   -1    0    0    0    0  0.00000000000E+00  0.00000000000E+00  0.45593999997E+02  0.45594000000E+02  0.51100000000E-03 0.  1.
         11   -1    0    0    0    0 -0.00000000000E+00 -0.00000000000E+00 -0.45593999997E+02  0.45594000000E+02  0.51100000000E-03 0. -1.
    9900012    2    1    2    0    0 -0.28244703031E+02 -0.13543952037E+02  0.59597316401E+01  0.59301948389E+02  0.50000007954E+02 0.  0.
        -12    1    1    2    0    0  0.28244703031E+02  0.13543952037E+02 -0.59597316401E+01  0.31886051611E+02  0.00000000000E+00 0.  1.
         11    1    3    3    0    0 -0.84196660692E+01  0.25942933398E+01 -0.87776050621E+01  0.12436538326E+02  0.51100000000E-03 0. -1.
        -11    1    3    3    0    0 -0.26109264797E+02 -0.36171551555E-01  0.37329263232E+01  0.26374793949E+02  0.51100000000E-03 0.  1.
        -12    1    3    3    0    0  0.62842278350E+01 -0.16102073825E+02  0.11004410379E+02  0.20490616114E+02  0.00000000000E+00 0.  1.
</event>
<event>
 7    1  0.3755162E-013  0.5930206E+02  0.7816164E-02  0.1266604E+00
        -11   -1    0    0    0    0  0.00000000000E+00  0.00000000000E+00  0.45593999997E+02  0.45594000000E+02  0.51100000000E-03 0.  1.
         11   -1    0    0    0    0 -0.00000000000E+00 -0.00000000000E+00 -0.45593999997E+02  0.45594000000E+02  0.51100000000E-03 0. -1.
    9900012    2    1    2    0    0 -0.15012626936E+02  0.38075294527E+01 -0.27871797586E+02  0.59302057193E+02  0.50000206386E+02 0.  0.
        -12    1    1    2    0    0  0.15012626936E+02 -0.38075294527E+01  0.27871797586E+02  0.31885942807E+02  0.00000000000E+00 0.  1.
         11    1    3    3    0    0 -0.85354242890E+01  0.82768523971E+01 -0.12700079935E+02  0.17396890067E+02  0.51100000000E-03 0. -1.
        -11    1    3    3    0    0  0.47740416610E+01  0.10278218629E+02 -0.19775831796E+02  0.22792910640E+02  0.51100000000E-03 0.  1.
        -12    1    3    3    0    0 -0.11251244308E+02 -0.14747541573E+02  0.46041141451E+01  0.19112256486E+02  0.00000000000E+00 0.  1.
</event>
<event>
 7    1  0.3755162E-013  0.5930196E+02  0.7816164E-02  0.1266605E+00
        -11   -1    0    0    0    0  0.00000000000E+00  0.00000000000E+00  0.45593999997E+02  0.45594000000E+02  0.51100000000E-03 0. -1.
         11   -1    0    0    0    0 -0.00000000000E+00 -0.00000000000E+00 -0.45593999997E+02  0.45594000000E+02  0.51100000000E-03 0.  1.
    9900012    2    1    2    0    0  0.53799433707E+01 -0.13955490290E+01  0.31397902782E+02  0.59301958432E+02  0.50000026269E+02 0.  0.
        -12    1    1    2    0    0 -0.53799433707E+01  0.13955490290E+01 -0.31397902782E+02  0.31886041568E+02  0.00000000000E+00 0.  1.
         11    1    3    3    0    0 -0.98986890253E+01 -0.10516301981E+02 -0.47921327122E+01  0.15216477515E+02  0.51100000000E-03 0. -1.
        -11    1    3    3    0    0 -0.31268704323E+01 -0.51120870355E+00  0.11892464164E+01  0.33842222651E+01  0.51100000000E-03 0.  1.
         12    1    3    3    0    0  0.18405502828E+02  0.96319616559E+01  0.35000789078E+02  0.40701258651E+02  0.00000000000E+00 0. -1.
</event>
<event>
 7    1  0.3755162E-013  0.5930193E+02  0.7816164E-02  0.1266605E+00
        -11   -1    0    0    0    0  0.00000000000E+00  0.00000000000E+00  0.45593999997E+02  0.45594000000E+02  0.51100000000E-03 0.  1.
         11   -1    0    0    0    0 -0.00000000000E+00 -0.00000000000E+00 -0.45593999997E+02  0.45594000000E+02  0.51100000000E-03 0. -1.
    9900012    2    1    2    0    0 -0.38131965468E+01  0.28728644325E+02 -0.13298348454E+02  0.59301928679E+02  0.49999972009E+02 0.  0.
        -12    1    1    2    0    0  0.38131965468E+01 -0.28728644325E+02  0.13298348454E+02  0.31886071321E+02  0.00000000000E+00 0.  1.
         11    1    3    3    0    0 -0.10225283868E+01 -0.33997231536E+01  0.51588291293E+00  0.35874527542E+01  0.51100000000E-03 0. -1.
        -11    1    3    3    0    0 -0.11335817886E+02 -0.55148627141E+01 -0.11468503075E+02  0.17042330854E+02  0.51100000000E-03 0.  1.
         12    1    3    3    0    0  0.85451497262E+01  0.37643230193E+02 -0.23457282919E+01  0.38672145071E+02  0.00000000000E+00 0. -1.
</event>
<event>
 7    1  0.3755162E-013  0.5930195E+02  0.7816164E-02  0.1266605E+00
        -11   -1    0    0    0    0  0.00000000000E+00  0.00000000000E+00  0.45593999997E+02  0.45594000000E+02  0.51100000000E-03 0. -1.
         11   -1    0    0    0    0 -0.00000000000E+00 -0.00000000000E+00 -0.45593999997E+02  0.45594000000E+02  0.51100000000E-03 0.  1.
    9900012    2    1    2    0    0  0.24836603697E+02  0.77545760057E+01  0.18431760539E+02  0.59301950875E+02  0.50000012488E+02 0.  0.
        -12    1    1    2    0    0 -0.24836603697E+02 -0.77545760057E+01 -0.18431760539E+02  0.31886049125E+02  0.00000000000E+00 0.  1.
         11    1    3    3    0    0  0.95607324510E+00 -0.90464052368E+01  0.78734494386E+01  0.12030907284E+02  0.51100000000E-03 0. -1.
        -11    1    3    3    0    0  0.19836516584E+01  0.14942907458E+02 -0.92498745643E+01  0.17685743889E+02  0.51100000000E-03 0.  1.
         12    1    3    3    0    0  0.21896878793E+02  0.18580737844E+01  0.19808185665E+02  0.29585299701E+02  0.00000000000E+00 0. -1.
</event>
<event>
 7    1  0.3755162E-013  0.5930191E+02  0.7816164E-02  0.1266605E+00
        -11   -1    0    0    0    0  0.00000000000E+00  0.00000000000E+00  0.45593999997E+02  0.45594000000E+02  0.51100000000E-03 0. -1.
         11   -1    0    0    0    0 -0.00000000000E+00 -0.00000000000E+00 -0.45593999997E+02  0.45594000000E+02  0.51100000000E-03 0.  1.
    9900012    2    1    2    0    0  0.17998456813E+02  0.24628005796E+02  0.92865342034E+01  0.59301908445E+02  0.49999935106E+02 0.  0.
        -12    1    1    2    0    0 -0.17998456813E+02 -0.24628005796E+02 -0.92865342034E+01  0.31886091555E+02  0.00000000000E+00 0.  1.
         11    1    3    3    0    0  0.16027516943E+01 -0.38033206545E+00  0.76307932263E+01  0.78065658902E+01  0.51100000000E-03 0. -1.
        -11    1    3    3    0    0  0.79634575886E+00  0.33633920075E+02  0.10368257659E+01  0.33659318979E+02  0.51100000000E-03 0.  1.
         12    1    3    3    0    0  0.15599359360E+02 -0.86255822143E+01  0.61891521120E+00  0.17836023576E+02  0.00000000000E+00 0. -1.
</event>
<event>
 7    1  0.3755162E-013  0.5930184E+02  0.7816164E-02  0.1266605E+00
        -11   -1    0    0    0    0  0.00000000000E+00  0.00000000000E+00  0.45593999997E+02  0.45594000000E+02  0.51100000000E-03 0.  1.
         11   -1    0    0    0    0 -0.00000000000E+00 -0.00000000000E+00 -0.45593999997E+02  0.45594000000E+02  0.51100000000E-03 0. -1.
    9900012    2    1    2    0    0 -0.13387964933E+02  0.11773804369E+02 -0.26436099327E+02  0.59301836512E+02  0.49999803917E+02 0.  0.
        -12    1    1    2    0    0  0.13387964933E+02 -0.11773804369E+02  0.26436099327E+02  0.31886163488E+02  0.00000000000E+00 0.  1.
         11    1    3    3    0    0 -0.37915715166E+01 -0.47769413416E+01 -0.32973955836E+01  0.69331090459E+01  0.51100000000E-03 0. -1.
        -11    1    3    3    0    0 -0.20307603926E+02 -0.66882991660E+01 -0.11077537136E+02  0.24079949174E+02  0.51100000000E-03 0.  1.
        -12    1    3    3    0    0  0.10711210510E+02  0.23239044877E+02 -0.12061166607E+02  0.28288778292E+02  0.00000000000E+00 0.  1.
</event>
<event>
 7    1  0.3755162E-013  0.5930195E+02  0.7816164E-02  0.1266605E+00
        -11   -1    0    0    0    0  0.00000000000E+00  0.00000000000E+00  0.45593999997E+02  0.45594000000E+02  0.51100000000E-03 0. -1.
         11   -1    0    0    0    0 -0.00000000000E+00 -0.00000000000E+00 -0.45593999997E+02  0.45594000000E+02  0.51100000000E-03 0.  1.
    9900012    2    1    2    0    0  0.21042623818E+02 -0.19330961019E+02  0.14150698618E+02  0.59301947525E+02  0.50000006378E+02 0.  0.
        -12    1    1    2    0    0 -0.21042623818E+02  0.19330961019E+02 -0.14150698618E+02  0.31886052475E+02  0.00000000000E+00 0.  1.
         11    1    3    3    0    0 -0.51111167540E+01  0.98249762505E+01 -0.85603514558E+00  0.11107946220E+02  0.51100000000E-03 0. -1.
        -11    1    3    3    0    0 -0.18351497863E+01  0.11657947862E+01 -0.25487268925E+01  0.33500539183E+01  0.51100000000E-03 0.  1.
        -12    1    3    3    0    0  0.27988890359E+02 -0.30321732055E+02  0.17555460656E+02  0.44843947386E+02  0.00000000000E+00 0.  1.
</event>
<event>
 7    1  0.3755162E-013  0.5930200E+02  0.7816164E-02  0.1266605E+00
        -11   -1    0    0    0    0  0.00000000000E+00  0.00000000000E+00  0.45593999997E+02  0.45594000000E+02  0.51100000000E-03 0. -1.
         11   -1    0    0    0    0 -0.00000000000E+00 -0.00000000000E+00 -0.45593999997E+02  0.45594000000E+02  0.51100000000E-03 0.  1.
    9900012    2    1    2    0    0 -0.32793254612E+00  0.90525099411E+01  0.30572229399E+02  0.59302004855E+02  0.50000110934E+02 0.  0.
        -12    1    1    2    0    0  0.32793254612E+00 -0.90525099411E+01 -0.30572229399E+02  0.31885995145E+02  0.00000000000E+00 0.  1.
         11    1    3    3    0    0 -0.74612057012E+00  0.67666656680E+01  0.79735416163E+01  0.10484361036E+02  0.51100000000E-03 0. -1.
        -11    1    3    3    0    0 -0.17192838524E+02  0.93591500371E+01  0.22520727029E+02  0.29839077266E+02  0.51100000000E-03 0.  1.
        -12    1    3    3    0    0  0.17611026548E+02 -0.70733057640E+01  0.77960753574E-01  0.18978566553E+02  0.00000000000E+00 0.  1.
</event>
<event>
 7    1  0.3755162E-013  0.5930192E+02  0.7816164E-02  0.1266605E+00
        -11   -1    0    0    0    0  0.00000000000E+00  0.00000000000E+00  0.45593999997E+02  0.45594000000E+02  0.51100000000E-03 0.  1.
         11   -1    0    0    0    0 -0.00000000000E+00 -0.00000000000E+00 -0.45593999997E+02  0.45594000000E+02  0.51100000000E-03 0. -1.
    9900012    2    1    2    0    0  0.21673228621E+02  0.19068329456E+02  0.13542230457E+02  0.59301921018E+02  0.49999958036E+02 0.  0.
        -12    1    1    2    0    0 -0.21673228621E+02 -0.19068329456E+02 -0.13542230457E+02  0.31886078982E+02  0.00000000000E+00 0.  1.
         11    1    3    3    0    0  0.16895608105E+02  0.74464406272E+01  0.60177345052E+01  0.19419685375E+02  0.51100000000E-03 0. -1.
        -11    1    3    3    0    0  0.83321444723E+01  0.78696683337E+01 -0.13800937295E+02  0.17939403046E+02  0.51100000000E-03 0.  1.
        -12    1    3    3    0    0 -0.35545239564E+01  0.37522204953E+01  0.21325433246E+02  0.21942832596E+02  0.00000000000E+00 0.  1.
</event>
<event>
 7    1  0.3755162E-013  0.5930195E+02  0.7816164E-02  0.1266605E+00
        -11   -1    0    0    0    0  0.00000000000E+00  0.00000000000E+00  0.45593999997E+02  0.45594000000E+02  0.51100000000E-03 0. -1.
         11   -1    0    0    0    0 -0.00000000000E+00 -0.00000000000E+00 -0.45593999997E+02  0.45594000000E+02  0.51100000000E-03 0.  1.
    9900012    2    1    2    0    0 -0.27862493392E+02 -0.13379267500E+02 -0.78356230062E+01  0.59301947803E+02  0.50000006884E+02 0.  0.
        -12    1    1    2    0    0  0.27862493392E+02  0.13379267500E+02  0.78356230062E+01  0.31886052197E+02  0.00000000000E+00 0.  1.
         11    1    3    3    0    0  0.39487807574E+01  0.45389575179E+01 -0.54027096152E+01  0.80860544313E+01  0.51100000000E-03 0. -1.
        -11    1    3    3    0    0 -0.16352954328E+02 -0.11795594762E+01 -0.17437146173E+02  0.23934588836E+02  0.51100000000E-03 0.  1.
         12    1    3    3    0    0 -0.15458319821E+02 -0.16738665541E+02  0.15004232782E+02  0.27281304536E+02  0.00000000000E+00 0. -1.
</event>
<event>
 7    1  0.3755162E-013  0.5930192E+02  0.7816164E-02  0.1266605E+00
        -11   -1    0    0    0    0  0.00000000000E+00  0.00000000000E+00  0.45593999997E+02  0.45594000000E+02  0.51100000000E-03 0.  1.
         11   -1    0    0    0    0 -0.00000000000E+00 -0.00000000000E+00 -0.45593999997E+02  0.45594000000E+02  0.51100000000E-03 0. -1.
    9900012    2    1    2    0    0  0.68717533972E+01 -0.14097178742E+02 -0.27762754396E+02  0.59301921927E+02  0.49999959694E+02 0.  0.
        -12    1    1    2    0    0 -0.68717533972E+01  0.14097178742E+02  0.27762754396E+02  0.31886078073E+02  0.00000000000E+00 0.  1.
         11    1    3    3    0    0  0.66238147522E+01 -0.64837366252E+01 -0.26047165719E+02  0.27647216944E+02  0.51100000000E-03 0. -1.
        -11    1    3    3    0    0 -0.13166643270E+02  0.21491118168E+01 -0.58332864197E+01  0.14560439805E+02  0.51100000000E-03 0.  1.
         12    1    3    3    0    0  0.13414581915E+02 -0.97625539338E+01  0.41176977432E+01  0.17094265178E+02  0.00000000000E+00 0. -1.
</event>
<event>
 7    1  0.3755162E-013  0.5930191E+02  0.7816164E-02  0.1266605E+00
        -11   -1    0    0    0    0  0.00000000000E+00  0.00000000000E+00  0.45593999997E+02  0.45594000000E+02  0.51100000000E-03 0. -1.
         11   -1    0    0    0    0 -0.00000000000E+00 -0.00000000000E+00 -0.45593999997E+02  0.45594000000E+02  0.51100000000E-03 0.  1.
    9900012    2    1    2    0    0 -0.20408905736E+02  0.13944602726E+02  0.20143170455E+02  0.59301910642E+02  0.49999939113E+02 0.  0.
        -12    1    1    2    0    0  0.20408905736E+02 -0.13944602726E+02 -0.20143170455E+02  0.31886089358E+02  0.00000000000E+00 0.  1.
         11    1    3    3    0    0  0.73716613859E+01 -0.23138530443E+01  0.17382583510E+02  0.19022342580E+02  0.51100000000E-03 0.  1.
        -11    1    3    3    0    0  0.42518557411E+01  0.35038131072E+01  0.17704088345E+01  0.57869967372E+01  0.51100000000E-03 0. -1.
        -12    1    3    3    0    0 -0.32032422863E+02  0.12754642663E+02  0.99017811123E+00  0.34492571325E+02  0.00000000000E+00 0.  1.
</event>
<event>
 7    1  0.3755162E-013  0.5930195E+02  0.7816164E-02  0.1266605E+00
        -11   -1    0    0    0    0  0.00000000000E+00  0.00000000000E+00  0.45593999997E+02  0.45594000000E+02  0.51100000000E-03 0.  1.
         11   -1    0    0    0    0 -0.00000000000E+00 -0.00000000000E+00 -0.45593999997E+02  0.45594000000E+02  0.51100000000E-03 0. -1.
    9900012    2    1    2    0    0 -0.12729613940E+02 -0.14952323475E+02 -0.25121801093E+02  0.59301953859E+02  0.50000017930E+02 0.  0.
        -12    1    1    2    0    0  0.12729613940E+02  0.14952323475E+02  0.25121801093E+02  0.31886046141E+02  0.00000000000E+00 0.  1.
         11    1    3    3    0    0  0.14476541759E+01 -0.11056989010E+02 -0.69833880862E+01  0.13157523247E+02  0.51100000000E-03 0. -1.
        -11    1    3    3    0    0 -0.24314204624E+01 -0.18695385479E+02  0.14749457970E+01  0.18910439155E+02  0.51100000000E-03 0.  1.
        -12    1    3    3    0    0 -0.11745847653E+02  0.14800051014E+02 -0.19613358804E+02  0.27233991457E+02  0.00000000000E+00 0.  1.
</event>
<event>
 7    1  0.3755162E-013  0.5930194E+02  0.7816164E-02  0.1266605E+00
        -11   -1    0    0    0    0  0.00000000000E+00  0.00000000000E+00  0.45593999997E+02  0.45594000000E+02  0.51100000000E-03 0. -1.
         11   -1    0    0    0    0 -0.00000000000E+00 -0.00000000000E+00 -0.45593999997E+02  0.45594000000E+02  0.51100000000E-03 0.  1.
    9900012    2    1    2    0    0 -0.52296049350E+01 -0.15119825902E+02 -0.27581930291E+02  0.59301940637E+02  0.49999993817E+02 0.  0.
        -12    1    1    2    0    0  0.52296049350E+01  0.15119825902E+02  0.27581930291E+02  0.31886059363E+02  0.00000000000E+00 0.  1.
         11    1    3    3    0    0  0.69279839127E+01 -0.54439754248E+01 -0.14604505388E+02  0.17056535621E+02  0.51100000000E-03 0. -1.
        -11    1    3    3    0    0  0.10105477283E+02 -0.14094766918E+02 -0.37490197722E+01  0.17743682682E+02  0.51100000000E-03 0.  1.
         12    1    3    3    0    0 -0.22263066131E+02  0.44189164406E+01 -0.92284051313E+01  0.24501722334E+02  0.00000000000E+00 0. -1.
</event>
<event>
 7    1  0.3755162E-013  0.5930195E+02  0.7816164E-02  0.1266605E+00
        -11   -1    0    0    0    0  0.00000000000E+00  0.00000000000E+00  0.45593999997E+02  0.45594000000E+02  0.51100000000E-03 0.  1.
         11   -1    0    0    0    0 -0.00000000000E+00 -0.00000000000E+00 -0.45593999997E+02  0.45594000000E+02  0.51100000000E-03 0. -1.
    9900012    2    1    2    0    0  0.30569741013E+02  0.86649293863E+01 -0.26702824426E+01  0.59301945444E+02  0.50000002582E+02 0.  0.
        -12    1    1    2    0    0 -0.30569741013E+02 -0.86649293863E+01  0.26702824426E+01  0.31886054556E+02  0.00000000000E+00 0.  1.
         11    1    3    3    0    0  0.24013068778E+02 -0.35788577125E+01 -0.19560631176E+02  0.31177780340E+02  0.51100000000E-03 0. -1.
        -11    1    3    3    0    0  0.62248345945E+01  0.10321231854E+01 -0.15892432910E+01  0.65068839315E+01  0.51100000000E-03 0.  1.
        -12    1    3    3    0    0  0.33183764023E+00  0.11211663913E+02  0.18479592024E+02  0.21617281173E+02  0.00000000000E+00 0.  1.
</event>
<event>
 7    1  0.3755162E-013  0.5930194E+02  0.7816164E-02  0.1266605E+00
        -11   -1    0    0    0    0  0.00000000000E+00  0.00000000000E+00  0.45593999997E+02  0.45594000000E+02  0.51100000000E-03 0.  1.
         11   -1    0    0    0    0 -0.00000000000E+00 -0.00000000000E+00 -0.45593999997E+02  0.45594000000E+02  0.51100000000E-03 0. -1.
    9900012    2    1    2    0    0  0.21036176515E+02  0.17716692679E+02 -0.16134394190E+02  0.59301943522E+02  0.49999999078E+02 0.  0.
        -12    1    1    2    0    0 -0.21036176515E+02 -0.17716692679E+02  0.16134394190E+02  0.31886056478E+02  0.00000000000E+00 0.  1.
         11    1    3    3    0    0  0.43756213726E+01  0.35114810199E+00 -0.99630089829E+01  0.10887190438E+02  0.51100000000E-03 0. -1.
        -11    1    3    3    0    0 -0.46506615626E+01 -0.47794653879E+01 -0.15018804688E+02  0.16432785427E+02  0.51100000000E-03 0.  1.
        -12    1    3    3    0    0  0.21311216705E+02  0.22145009965E+02  0.88474194803E+01  0.31981967657E+02  0.00000000000E+00 0.  1.
</event>
<event>
 7    1  0.3755162E-013  0.5930194E+02  0.7816164E-02  0.1266605E+00
        -11   -1    0    0    0    0  0.00000000000E+00  0.00000000000E+00  0.45593999997E+02  0.45594000000E+02  0.51100000000E-03 0. -1.
         11   -1    0    0    0    0 -0.00000000000E+00 -0.00000000000E+00 -0.45593999997E+02  0.45594000000E+02  0.51100000000E-03 0.  1.
    9900012    2    1    2    0    0 -0.58937680115E+01 -0.63801255208E+01  0.30680262554E+02  0.59301937003E+02  0.49999987189E+02 0.  0.
        -12    1    1    2    0    0  0.58937680115E+01  0.63801255208E+01 -0.30680262554E+02  0.31886062997E+02  0.00000000000E+00 0.  1.
         11    1    3    3    0    0  0.10504425506E+02  0.56802651641E+01  0.46971492725E+01  0.12832442445E+02  0.51100000000E-03 0. -1.
        -11    1    3    3    0    0  0.40669726309E+01 -0.12484726548E+02  0.21993296507E+02  0.25614717545E+02  0.51100000000E-03 0.  1.
         12    1    3    3    0    0 -0.20465166149E+02  0.42433586338E+00  0.39898167741E+01  0.20854777014E+02  0.00000000000E+00 0. -1.
</event>
<event>
 7    1  0.3755162E-013  0.5930194E+02  0.7816164E-02  0.1266605E+00
        -11   -1    0    0    0    0  0.00000000000E+00  0.00000000000E+00  0.45593999997E+02  0.45594000000E+02  0.51100000000E-03 0. -1.
         11   -1    0    0    0    0 -0.00000000000E+00 -0.00000000000E+00 -0.45593999997E+02  0.45594000000E+02  0.51100000000E-03 0.  1.
    9900012    2    1    2    0    0  0.35552236889E+01 -0.31493612963E+02  0.34976679330E+01  0.59301937937E+02  0.49999988892E+02 0.  0.
        -12    1    1    2    0    0 -0.35552236889E+01  0.31493612963E+02 -0.34976679330E+01  0.31886062063E+02  0.00000000000E+00 0.  1.
         11    1    3    3    0    0  0.34613194771E+01 -0.20493100353E+02 -0.37892715848E+01  0.21125966818E+02  0.51100000000E-03 0.  1.
        -11    1    3    3    0    0 -0.12223839644E+02 -0.17230258083E+02  0.11087689684E+02  0.23858770129E+02  0.51100000000E-03 0. -1.
        -12    1    3    3    0    0  0.12317743856E+02  0.62297454733E+01 -0.38007501664E+01  0.14317200990E+02  0.00000000000E+00 0.  1.
</event>
<event>
 7    1  0.3755162E-013  0.5930196E+02  0.7816164E-02  0.1266605E+00
        -11   -1    0    0    0    0  0.00000000000E+00  0.00000000000E+00  0.45593999997E+02  0.45594000000E+02  0.51100000000E-03 0.  1.
         11   -1    0    0    0    0 -0.00000000000E+00 -0.00000000000E+00 -0.45593999997E+02  0.45594000000E+02  0.51100000000E-03 0. -1.
    9900012    2    1    2    0    0  0.16450488051E+02  0.31238238508E+01 -0.27135630199E+02  0.59301964516E+02  0.50000037366E+02 0.  0.
        -12    1    1    2    0    0 -0.16450488051E+02 -0.31238238508E+01  0.27135630199E+02  0.31886035484E+02  0.00000000000E+00 0.  1.
         11    1    3    3    0    0  0.13458573439E+02 -0.57894576357E+01 -0.28344539181E+02  0.31907113946E+02  0.51100000000E-03 0. -1.
        -11    1    3    3    0    0  0.89067511034E+01  0.25446000909E+01 -0.97227364007E+01  0.13428954100E+02  0.51100000000E-03 0.  1.
        -12    1    3    3    0    0 -0.59148364911E+01  0.63686813956E+01  0.10931645382E+02  0.13965896470E+02  0.00000000000E+00 0.  1.
</event>
<event>
 7    1  0.3755162E-013  0.5930195E+02  0.7816164E-02  0.1266605E+00
        -11   -1    0    0    0    0  0.00000000000E+00  0.00000000000E+00  0.45593999997E+02  0.45594000000E+02  0.51100000000E-03 0.  1.
         11   -1    0    0    0    0 -0.00000000000E+00 -0.00000000000E+00 -0.45593999997E+02  0.45594000000E+02  0.51100000000E-03 0. -1.
    9900012    2    1    2    0    0  0.63020181297E+01 -0.71868669173E+01 -0.30419629060E+02  0.59301947865E+02  0.50000006998E+02 0.  0.
        -12    1    1    2    0    0 -0.63020181297E+01  0.71868669173E+01  0.30419629060E+02  0.31886052135E+02  0.00000000000E+00 0.  1.
         11    1    3    3    0    0  0.12933587431E+02  0.82633299328E+01 -0.10874270560E+01  0.15386448690E+02  0.51100000000E-03 0. -1.
        -11    1    3    3    0    0  0.86071912981E+01 -0.12529349749E+02 -0.70325802205E+01  0.16748896441E+02  0.51100000000E-03 0.  1.
         12    1    3    3    0    0 -0.15238760600E+02 -0.29208471015E+01 -0.22299621784E+02  0.27166602734E+02  0.00000000000E+00 0. -1.
</event>
<event>
 7    1  0.3755162E-013  0.5930193E+02  0.7816164E-02  0.1266605E+00
        -11   -1    0    0    0    0  0.00000000000E+00  0.00000000000E+00  0.45593999997E+02  0.45594000000E+02  0.51100000000E-03 0.  1.
         11   -1    0    0    0    0 -0.00000000000E+00 -0.00000000000E+00 -0.45593999997E+02  0.45594000000E+02  0.51100000000E-03 0. -1.
    9900012    2    1    2    0    0  0.17601206101E+02 -0.20160499539E+02 -0.17334155515E+02  0.59301934936E+02  0.49999983418E+02 0.  0.
        -12    1    1    2    0    0 -0.17601206101E+02  0.20160499539E+02  0.17334155515E+02  0.31886065064E+02  0.00000000000E+00 0.  1.
         11    1    3    3    0    0  0.16121367145E+02  0.69421850801E+00 -0.15262946412E+02  0.22211212290E+02  0.51100000000E-03 0.  1.
        -11    1    3    3    0    0 -0.79781482867E+01 -0.19208675871E+02 -0.11387856844E+02  0.23713020950E+02  0.51100000000E-03 0. -1.
         12    1    3    3    0    0  0.94579872431E+01 -0.16460421754E+01  0.93166477408E+01  0.13377701696E+02  0.00000000000E+00 0. -1.
</event>
<event>
 7    1  0.3755162E-013  0.5930194E+02  0.7816164E-02  0.1266605E+00
        -11   -1    0    0    0    0  0.00000000000E+00  0.00000000000E+00  0.45593999997E+02  0.45594000000E+02  0.51100000000E-03 0.  1.
         11   -1    0    0    0    0 -0.00000000000E+00 -0.00000000000E+00 -0.45593999997E+02  0.45594000000E+02  0.51100000000E-03 0. -1.
    9900012    2    1    2    0    0 -0.63046810444E+01 -0.62304037801E+01 -0.30629301347E+02  0.59301936659E+02  0.49999986562E+02 0.  0.
        -12    1    1    2    0    0  0.63046810444E+01  0.62304037801E+01  0.30629301347E+02  0.31886063341E+02  0.00000000000E+00 0.  1.
         11    1    3    3    0    0  0.85508809115E+01  0.96632184728E+01 -0.44619912788E+01  0.13653011465E+02  0.51100000000E-03 0. -1.
        -11    1    3    3    0    0 -0.14325968830E+01  0.42463474002E+01  0.46535939927E+01  0.64606297976E+01  0.51100000000E-03 0.  1.
         12    1    3    3    0    0 -0.13422965073E+02 -0.20139969653E+02 -0.30820904061E+02  0.39188295397E+02  0.00000000000E+00 0. -1.
</event>
<event>
 7    1  0.3755162E-013  0.5930198E+02  0.7816164E-02  0.1266605E+00
        -11   -1    0    0    0    0  0.00000000000E+00  0.00000000000E+00  0.45593999997E+02  0.45594000000E+02  0.51100000000E-03 0. -1.
         11   -1    0    0    0    0 -0.00000000000E+00 -0.00000000000E+00 -0.45593999997E+02  0.45594000000E+02  0.51100000000E-03 0.  1.
    9900012    2    1    2    0    0  0.16321461998E+02  0.23427275380E+02  0.14194753442E+02  0.59301978317E+02  0.50000062536E+02 0.  0.
        -12    1    1    2    0    0 -0.16321461998E+02 -0.23427275380E+02 -0.14194753442E+02  0.31886021683E+02  0.00000000000E+00 0.  1.
         11    1    3    3    0    0  0.13110576264E+02 -0.34207324299E+01  0.30982377610E+01  0.13899197740E+02  0.51100000000E-03 0. -1.
        -11    1    3    3    0    0  0.15211396337E+02  0.70191171839E+00  0.46368800349E+01  0.15917911776E+02  0.51100000000E-03 0.  1.
        -12    1    3    3    0    0 -0.12000510604E+02  0.26146096091E+02  0.64596356462E+01  0.29484868801E+02  0.00000000000E+00 0.  1.
</event>
<event>
 7    1  0.3755162E-013  0.5930195E+02  0.7816164E-02  0.1266605E+00
        -11   -1    0    0    0    0  0.00000000000E+00  0.00000000000E+00  0.45593999997E+02  0.45594000000E+02  0.51100000000E-03 0.  1.
         11   -1    0    0    0    0 -0.00000000000E+00 -0.00000000000E+00 -0.45593999997E+02  0.45594000000E+02  0.51100000000E-03 0. -1.
    9900012    2    1    2    0    0 -0.17700283350E+02  0.59939810913E+01 -0.25835874862E+02  0.59301948663E+02  0.50000008453E+02 0.  0.
        -12    1    1    2    0    0  0.17700283350E+02 -0.59939810913E+01  0.25835874862E+02  0.31886051337E+02  0.00000000000E+00 0.  1.
         11    1    3    3    0    0  0.56859590939E+01 -0.12703533304E+02 -0.12901220537E+02  0.18977654777E+02  0.51100000000E-03 0. -1.
        -11    1    3    3    0    0 -0.76330827698E+00  0.37094568663E+01  0.60977294881E+01  0.71780927091E+01  0.51100000000E-03 0.  1.
        -12    1    3    3    0    0 -0.22622934167E+02  0.14988057529E+02 -0.19032383814E+02  0.33146201177E+02  0.00000000000E+00 0.  1.
</event>
<event>
 7    1  0.3755162E-013  0.5930200E+02  0.7816164E-02  0.1266605E+00
        -11   -1    0    0    0    0  0.00000000000E+00  0.00000000000E+00  0.45593999997E+02  0.45594000000E+02  0.51100000000E-03 0.  1.
         11   -1    0    0    0    0 -0.00000000000E+00 -0.00000000000E+00 -0.45593999997E+02  0.45594000000E+02  0.51100000000E-03 0. -1.
    9900012    2    1    2    0    0 -0.32736048607E+01 -0.31637024814E+02 -0.22581718119E+01  0.59301997306E+02  0.50000097167E+02 0.  0.
        -12    1    1    2    0    0  0.32736048607E+01  0.31637024814E+02  0.22581718119E+01  0.31886002694E+02  0.00000000000E+00 0.  1.
         11    1    3    3    0    0  0.46864327473E+01 -0.33188805603E+02  0.11885955953E+02  0.35563118795E+02  0.51100000000E-03 0. -1.
        -11    1    3    3    0    0 -0.70797514973E+01 -0.59568642144E+01 -0.20508607694E+01  0.94769796185E+01  0.51100000000E-03 0.  1.
        -12    1    3    3    0    0 -0.88028611069E+00  0.75086450033E+01 -0.12093266995E+02  0.14261898893E+02  0.00000000000E+00 0.  1.
</event>
<event>
 7    1  0.3755162E-013  0.5930197E+02  0.7816164E-02  0.1266605E+00
        -11   -1    0    0    0    0  0.00000000000E+00  0.00000000000E+00  0.45593999997E+02  0.45594000000E+02  0.51100000000E-03 0.  1.
         11   -1    0    0    0    0 -0.00000000000E+00 -0.00000000000E+00 -0.45593999997E+02  0.45594000000E+02  0.51100000000E-03 0. -1.
    9900012    2    1    2    0    0  0.11087359982E+02 -0.29605595372E+02  0.41591077493E+01  0.59301968482E+02  0.50000044598E+02 0.  0.
        -12    1    1    2    0    0 -0.11087359982E+02  0.29605595372E+02 -0.41591077493E+01  0.31886031518E+02  0.00000000000E+00 0.  1.
         11    1    3    3    0    0 -0.45325389288E+01  0.12143181988E+01  0.63202818267E+01  0.78717495171E+01  0.51100000000E-03 0. -1.
        -11    1    3    3    0    0 -0.24166575131E+01  0.60970094267E+01  0.67242071078E+01  0.93930143711E+01  0.51100000000E-03 0.  1.
        -12    1    3    3    0    0  0.18036556424E+02 -0.36916922998E+02 -0.88853811853E+01  0.42037204594E+02  0.00000000000E+00 0.  1.
</event>
<event>
 7    1  0.3755162E-013  0.5930195E+02  0.7816164E-02  0.1266605E+00
        -11   -1    0    0    0    0  0.00000000000E+00  0.00000000000E+00  0.45593999997E+02  0.45594000000E+02  0.51100000000E-03 0.  1.
         11   -1    0    0    0    0 -0.00000000000E+00 -0.00000000000E+00 -0.45593999997E+02  0.45594000000E+02  0.51100000000E-03 0. -1.
    9900012    2    1    2    0    0  0.27089177006E+02  0.11625402276E+02 -0.12155102029E+02  0.59301952985E+02  0.50000016336E+02 0.  0.
        -12    1    1    2    0    0 -0.27089177006E+02 -0.11625402276E+02  0.12155102029E+02  0.31886047015E+02  0.00000000000E+00 0.  1.
         11    1    3    3    0    0  0.11251267085E+02 -0.32565808417E+01 -0.19775319348E+02  0.22983898394E+02  0.51100000000E-03 0. -1.
        -11    1    3    3    0    0 -0.70677043066E+01 -0.63725901482E+00 -0.13675033057E+01  0.72269363336E+01  0.51100000000E-03 0.  1.
         12    1    3    3    0    0  0.22905614227E+02  0.15519242132E+02  0.89877206247E+01  0.29091118258E+02  0.00000000000E+00 0. -1.
</event>
<event>
 7    1  0.3755162E-013  0.5930194E+02  0.7816164E-02  0.1266605E+00
        -11   -1    0    0    0    0  0.00000000000E+00  0.00000000000E+00  0.45593999997E+02  0.45594000000E+02  0.51100000000E-03 0.  1.
         11   -1    0    0    0    0 -0.00000000000E+00 -0.00000000000E+00 -0.45593999997E+02  0.45594000000E+02  0.51100000000E-03 0. -1.
    9900012    2    1    2    0    0  0.79012638957E+01 -0.28013266203E+02  0.13021045932E+02  0.59301942049E+02  0.49999996391E+02 0.  0.
        -12    1    1    2    0    0 -0.79012638957E+01  0.28013266203E+02 -0.13021045932E+02  0.31886057951E+02  0.00000000000E+00 0.  1.
         11    1    3    3    0    0 -0.12536135787E+02 -0.72107725847E+01 -0.65161989479E+01  0.15862244189E+02  0.51100000000E-03 0. -1.
        -11    1    3    3    0    0 -0.44388674959E+01  0.20071944703E+01  0.11506569308E+01  0.50056354163E+01  0.51100000000E-03 0.  1.
        -12    1    3    3    0    0  0.24876267179E+02 -0.22809688089E+02  0.18386587949E+02  0.38434062443E+02  0.00000000000E+00 0.  1.
</event>
<event>
 7    1  0.3755162E-013  0.5930190E+02  0.7816164E-02  0.1266605E+00
        -11   -1    0    0    0    0  0.00000000000E+00  0.00000000000E+00  0.45593999997E+02  0.45594000000E+02  0.51100000000E-03 0.  1.
         11   -1    0    0    0    0 -0.00000000000E+00 -0.00000000000E+00 -0.45593999997E+02  0.45594000000E+02  0.51100000000E-03 0. -1.
    9900012    2    1    2    0    0 -0.20383152052E+02  0.11868143146E+02 -0.21456881376E+02  0.59301898518E+02  0.49999917001E+02 0.  0.
        -12    1    1    2    0    0  0.20383152052E+02 -0.11868143146E+02  0.21456881376E+02  0.31886101482E+02  0.00000000000E+00 0.  1.
         11    1    3    3    0    0 -0.66024850125E+01  0.14701074506E+02 -0.43462494363E+01  0.16691443449E+02  0.51100000000E-03 0.  1.
        -11    1    3    3    0    0  0.18688794375E+01 -0.46938937704E+01 -0.24634167561E+02  0.25146919509E+02  0.51100000000E-03 0. -1.
         12    1    3    3    0    0 -0.15649546477E+02  0.18609624103E+01  0.75235356210E+01  0.17463535560E+02  0.00000000000E+00 0. -1.
</event>
<event>
 7    1  0.3755162E-013  0.5930195E+02  0.7816164E-02  0.1266605E+00
        -11   -1    0    0    0    0  0.00000000000E+00  0.00000000000E+00  0.45593999997E+02  0.45594000000E+02  0.51100000000E-03 0. -1.
         11   -1    0    0    0    0 -0.00000000000E+00 -0.00000000000E+00 -0.45593999997E+02  0.45594000000E+02  0.51100000000E-03 0.  1.
    9900012    2    1    2    0    0  0.57409221312E+01 -0.66374134580E+01  0.30654637962E+02  0.59301948615E+02  0.50000008367E+02 0.  0.
        -12    1    1    2    0    0 -0.57409221312E+01  0.66374134580E+01 -0.30654637962E+02  0.31886051385E+02  0.00000000000E+00 0.  1.
         11    1    3    3    0    0  0.14466965478E+02 -0.10200863851E+00  0.28747360468E+02  0.32182514352E+02  0.51100000000E-03 0. -1.
        -11    1    3    3    0    0  0.18182043669E+01  0.41032878504E+01  0.93664237040E+01  0.10386179835E+02  0.51100000000E-03 0.  1.
        -12    1    3    3    0    0 -0.10544247713E+02 -0.10638692670E+02 -0.74591462101E+01  0.16733254428E+02  0.00000000000E+00 0.  1.
</event>
<event>
 7    1  0.3755162E-013  0.5930195E+02  0.7816164E-02  0.1266605E+00
        -11   -1    0    0    0    0  0.00000000000E+00  0.00000000000E+00  0.45593999997E+02  0.45594000000E+02  0.51100000000E-03 0.  1.
         11   -1    0    0    0    0 -0.00000000000E+00 -0.00000000000E+00 -0.45593999997E+02  0.45594000000E+02  0.51100000000E-03 0. -1.
    9900012    2    1    2    0    0  0.14204426420E+02  0.12907737104E+02 -0.25462611796E+02  0.59301952792E+02  0.50000015985E+02 0.  0.
        -12    1    1    2    0    0 -0.14204426420E+02 -0.12907737104E+02  0.25462611796E+02  0.31886047208E+02  0.00000000000E+00 0.  1.
         11    1    3    3    0    0  0.17021040187E+02 -0.10041595918E+02 -0.71457156435E+01  0.21014535683E+02  0.51100000000E-03 0. -1.
        -11    1    3    3    0    0  0.47560955849E+01 -0.98531130027E+00  0.26912058798E+01  0.55528256699E+01  0.51100000000E-03 0.  1.
         12    1    3    3    0    0 -0.75727093523E+01  0.23934644322E+02 -0.21008102032E+02  0.32734591440E+02  0.00000000000E+00 0. -1.
</event>
<event>
 7    1  0.3755162E-013  0.5930202E+02  0.7816164E-02  0.1266604E+00
        -11   -1    0    0    0    0  0.00000000000E+00  0.00000000000E+00  0.45593999997E+02  0.45594000000E+02  0.51100000000E-03 0.  1.
         11   -1    0    0    0    0 -0.00000000000E+00 -0.00000000000E+00 -0.45593999997E+02  0.45594000000E+02  0.51100000000E-03 0. -1.
    9900012    2    1    2    0    0  0.15253013732E+02 -0.26815996459E+02 -0.80599893073E+01  0.59302023119E+02  0.50000144244E+02 0.  0.
        -12    1    1    2    0    0 -0.15253013732E+02  0.26815996459E+02  0.80599893073E+01  0.31885976881E+02  0.00000000000E+00 0.  1.
         11    1    3    3    0    0  0.67237508509E+01 -0.11313156876E+02 -0.14052730971E+02  0.19252937231E+02  0.51100000000E-03 0. -1.
        -11    1    3    3    0    0  0.13035895033E+02 -0.19286281479E+02 -0.82033750733E+01  0.24681786310E+02  0.51100000000E-03 0.  1.
        -12    1    3    3    0    0 -0.45066321515E+01  0.37834418958E+01  0.14196116737E+02  0.15367299579E+02  0.00000000000E+00 0.  1.
</event>
<event>
 7    1  0.3755162E-013  0.5930195E+02  0.7816164E-02  0.1266605E+00
        -11   -1    0    0    0    0  0.00000000000E+00  0.00000000000E+00  0.45593999997E+02  0.45594000000E+02  0.51100000000E-03 0.  1.
         11   -1    0    0    0    0 -0.00000000000E+00 -0.00000000000E+00 -0.45593999997E+02  0.45594000000E+02  0.51100000000E-03 0. -1.
    9900012    2    1    2    0    0 -0.34331105657E+01  0.29526363668E+02  0.11538088112E+02  0.59301954825E+02  0.50000019692E+02 0.  0.
        -12    1    1    2    0    0  0.34331105657E+01 -0.29526363668E+02 -0.11538088112E+02  0.31886045175E+02  0.00000000000E+00 0.  1.
         11    1    3    3    0    0 -0.88484965416E+01  0.11285658025E+02  0.11305685743E+02  0.18261448422E+02  0.51100000000E-03 0. -1.
        -11    1    3    3    0    0 -0.17391950453E+01  0.84202677078E+01  0.17749319287E+02  0.19722171358E+02  0.51100000000E-03 0.  1.
         12    1    3    3    0    0  0.71545810212E+01  0.98204379353E+01 -0.17516916917E+02  0.21318335045E+02  0.00000000000E+00 0. -1.
</event>
<event>
 7    1  0.3755162E-013  0.5930205E+02  0.7816164E-02  0.1266604E+00
        -11   -1    0    0    0    0  0.00000000000E+00  0.00000000000E+00  0.45593999997E+02  0.45594000000E+02  0.51100000000E-03 0. -1.
         11   -1    0    0    0    0 -0.00000000000E+00 -0.00000000000E+00 -0.45593999997E+02  0.45594000000E+02  0.51100000000E-03 0.  1.
    9900012    2    1    2    0    0  0.27681359361E+02 -0.53094192650E+01  0.14908595244E+02  0.59302050098E+02  0.50000193446E+02 0.  0.
        -12    1    1    2    0    0 -0.27681359361E+02  0.53094192650E+01 -0.14908595244E+02  0.31885949902E+02  0.00000000000E+00 0.  1.
         11    1    3    3    0    0 -0.69330363034E+01  0.22516904294E+01  0.13755791239E+02  0.15567880236E+02  0.51100000000E-03 0. -1.
        -11    1    3    3    0    0 -0.62378278491E+00  0.58090846482E+01  0.15427939870E+01  0.60427463094E+01  0.51100000000E-03 0.  1.
         12    1    3    3    0    0  0.35238178450E+02 -0.13370194343E+02 -0.38998998233E+00  0.37691423552E+02  0.00000000000E+00 0. -1.
</event>
<event>
 7    1  0.3755162E-013  0.5930182E+02  0.7816164E-02  0.1266605E+00
        -11   -1    0    0    0    0  0.00000000000E+00  0.00000000000E+00  0.45593999997E+02  0.45594000000E+02  0.51100000000E-03 0.  1.
         11   -1    0    0    0    0 -0.00000000000E+00 -0.00000000000E+00 -0.45593999997E+02  0.45594000000E+02  0.51100000000E-03 0. -1.
    9900012    2    1    2    0    0 -0.16031923189E+02  0.25626191020E+02 -0.10149094440E+02  0.59301822033E+02  0.49999777511E+02 0.  0.
        -12    1    1    2    0    0  0.16031923189E+02 -0.25626191020E+02  0.10149094440E+02  0.31886177967E+02  0.00000000000E+00 0.  1.
         11    1    3    3    0    0  0.92406967026E+00 -0.39757894815E+01 -0.83008705628E+01  0.92501491403E+01  0.51100000000E-03 0. -1.
        -11    1    3    3    0    0 -0.14570467387E+02  0.10927269678E+02 -0.17732555382E+02  0.25419426884E+02  0.51100000000E-03 0.  1.
        -12    1    3    3    0    0 -0.23855254731E+01  0.18674710824E+02  0.15884331504E+02  0.24632246009E+02  0.00000000000E+00 0.  1.
</event>
<event>
 7    1  0.3755162E-013  0.5930191E+02  0.7816164E-02  0.1266605E+00
        -11   -1    0    0    0    0  0.00000000000E+00  0.00000000000E+00  0.45593999997E+02  0.45594000000E+02  0.51100000000E-03 0. -1.
         11   -1    0    0    0    0 -0.00000000000E+00 -0.00000000000E+00 -0.45593999997E+02  0.45594000000E+02  0.51100000000E-03 0.  1.
    9900012    2    1    2    0    0  0.18928093878E+02  0.14524043844E+02  0.21154251436E+02  0.59301906774E+02  0.49999932057E+02 0.  0.
        -12    1    1    2    0    0 -0.18928093878E+02 -0.14524043844E+02 -0.21154251436E+02  0.31886093226E+02  0.00000000000E+00 0.  1.
         11    1    3    3    0    0  0.24658748495E+02 -0.46053499586E+01  0.34530864855E+01  0.25321669221E+02  0.51100000000E-03 0. -1.
        -11    1    3    3    0    0 -0.11193799885E+01  0.10106087202E+02 -0.32769604052E+01  0.10682905964E+02  0.51100000000E-03 0.  1.
        -12    1    3    3    0    0 -0.46112746289E+01  0.90233066011E+01  0.20978125356E+02  0.23297331589E+02  0.00000000000E+00 0.  1.
</event>
<event>
 7    1  0.3755162E-013  0.5930193E+02  0.7816164E-02  0.1266605E+00
        -11   -1    0    0    0    0  0.00000000000E+00  0.00000000000E+00  0.45593999997E+02  0.45594000000E+02  0.51100000000E-03 0.  1.
         11   -1    0    0    0    0 -0.00000000000E+00 -0.00000000000E+00 -0.45593999997E+02  0.45594000000E+02  0.51100000000E-03 0. -1.
    9900012    2    1    2    0    0  0.62611345701E+00 -0.16928052426E+00 -0.31879474550E+02  0.59301928252E+02  0.49999971228E+02 0.  0.
        -12    1    1    2    0    0 -0.62611345701E+00  0.16928052426E+00  0.31879474550E+02  0.31886071748E+02  0.00000000000E+00 0.  1.
         11    1    3    3    0    0  0.40068154901E+01 -0.19571478412E+02 -0.21134021809E+02  0.29081681789E+02  0.51100000000E-03 0. -1.
        -11    1    3    3    0    0 -0.91306084955E+01  0.82148122764E+01 -0.12494890725E+02  0.17520657714E+02  0.51100000000E-03 0.  1.
        -12    1    3    3    0    0  0.57499064624E+01  0.11187385611E+02  0.17494379837E+01  0.12699588749E+02  0.00000000000E+00 0.  1.
</event>
<event>
 7    1  0.3755162E-013  0.5930191E+02  0.7816164E-02  0.1266605E+00
        -11   -1    0    0    0    0  0.00000000000E+00  0.00000000000E+00  0.45593999997E+02  0.45594000000E+02  0.51100000000E-03 0.  1.
         11   -1    0    0    0    0 -0.00000000000E+00 -0.00000000000E+00 -0.45593999997E+02  0.45594000000E+02  0.51100000000E-03 0. -1.
    9900012    2    1    2    0    0 -0.40059993143E+01 -0.29950010462E+01 -0.31491344918E+02  0.59301907945E+02  0.49999934194E+02 0.  0.
        -12    1    1    2    0    0  0.40059993143E+01  0.29950010462E+01  0.31491344918E+02  0.31886092055E+02  0.00000000000E+00 0.  1.
         11    1    3    3    0    0 -0.14438449294E+02  0.72458311147E+01 -0.29353283625E+02  0.33505016735E+02  0.51100000000E-03 0. -1.
        -11    1    3    3    0    0 -0.33278549781E+01 -0.10112083247E+02 -0.49683966929E+01  0.11747928001E+02  0.51100000000E-03 0.  1.
         12    1    3    3    0    0  0.13760304957E+02 -0.12874891385E+00  0.28303353998E+01  0.14048963210E+02  0.00000000000E+00 0. -1.
</event>
<event>
 7    1  0.3755162E-013  0.5930194E+02  0.7816164E-02  0.1266605E+00
        -11   -1    0    0    0    0  0.00000000000E+00  0.00000000000E+00  0.45593999997E+02  0.45594000000E+02  0.51100000000E-03 0.  1.
         11   -1    0    0    0    0 -0.00000000000E+00 -0.00000000000E+00 -0.45593999997E+02  0.45594000000E+02  0.51100000000E-03 0. -1.
    9900012    2    1    2    0    0 -0.26078191800E+01 -0.27635576708E+02 -0.15690594135E+02  0.59301944033E+02  0.50000000009E+02 0.  0.
        -12    1    1    2    0    0  0.26078191800E+01  0.27635576708E+02  0.15690594135E+02  0.31886055967E+02  0.00000000000E+00 0.  1.
         11    1    3    3    0    0 -0.16725528801E+02 -0.15566009887E+02 -0.69404154002E+01  0.23879140346E+02  0.51100000000E-03 0. -1.
        -11    1    3    3    0    0  0.21814406652E+02 -0.69861327781E+01 -0.11723397973E+02  0.25731545797E+02  0.51100000000E-03 0.  1.
         12    1    3    3    0    0 -0.76966970315E+01 -0.50834340429E+01  0.29732192382E+01  0.96912578906E+01  0.00000000000E+00 0. -1.
</event>
<event>
 7    1  0.3755162E-013  0.5930207E+02  0.7816164E-02  0.1266604E+00
        -11   -1    0    0    0    0  0.00000000000E+00  0.00000000000E+00  0.45593999997E+02  0.45594000000E+02  0.51100000000E-03 0.  1.
         11   -1    0    0    0    0 -0.00000000000E+00 -0.00000000000E+00 -0.45593999997E+02  0.45594000000E+02  0.51100000000E-03 0. -1.
    9900012    2    1    2    0    0  0.24599051254E+02  0.90629065215E+01 -0.18151115743E+02  0.59302068934E+02  0.50000227799E+02 0.  0.
        -12    1    1    2    0    0 -0.24599051254E+02 -0.90629065215E+01  0.18151115743E+02  0.31885931066E+02  0.00000000000E+00 0.  1.
         11    1    3    3    0    0 -0.17015169580E+01  0.34203305609E+01 -0.11540419743E+02  0.12156278592E+02  0.51100000000E-03 0. -1.
        -11    1    3    3    0    0  0.21810463429E+02 -0.13269675540E+02 -0.99924211882E+01  0.27415854635E+02  0.51100000000E-03 0.  1.
        -12    1    3    3    0    0  0.44901047825E+01  0.18912251500E+02  0.33817251874E+01  0.19729935707E+02  0.00000000000E+00 0.  1.
</event>
<event>
 7    1  0.3755162E-013  0.5930194E+02  0.7816164E-02  0.1266605E+00
        -11   -1    0    0    0    0  0.00000000000E+00  0.00000000000E+00  0.45593999997E+02  0.45594000000E+02  0.51100000000E-03 0. -1.
         11   -1    0    0    0    0 -0.00000000000E+00 -0.00000000000E+00 -0.45593999997E+02  0.45594000000E+02  0.51100000000E-03 0.  1.
    9900012    2    1    2    0    0  0.97878671793E+01  0.19591814706E+02  0.23174970390E+02  0.59301940351E+02  0.49999993294E+02 0.  0.
        -12    1    1    2    0    0 -0.97878671793E+01 -0.19591814706E+02 -0.23174970390E+02  0.31886059649E+02  0.00000000000E+00 0.  1.
         11    1    3    3    0    0 -0.75824250697E+01  0.31790318633E+01  0.59657322550E+01  0.10158217123E+02  0.51100000000E-03 0. -1.
        -11    1    3    3    0    0  0.15897814256E+02  0.25512879843E+02  0.50539041766E+00  0.30064978891E+02  0.51100000000E-03 0.  1.
         12    1    3    3    0    0  0.14724779931E+01 -0.91000970010E+01  0.16703847717E+02  0.19078744336E+02  0.00000000000E+00 0. -1.
</event>
<event>
 7    1  0.3755162E-013  0.5930196E+02  0.7816164E-02  0.1266605E+00
        -11   -1    0    0    0    0  0.00000000000E+00  0.00000000000E+00  0.45593999997E+02  0.45594000000E+02  0.51100000000E-03 0.  1.
         11   -1    0    0    0    0 -0.00000000000E+00 -0.00000000000E+00 -0.45593999997E+02  0.45594000000E+02  0.51100000000E-03 0. -1.
    9900012    2    1    2    0    0  0.69371991067E+01  0.29644262899E+02 -0.94769490353E+01  0.59301958896E+02  0.50000027115E+02 0.  0.
        -12    1    1    2    0    0 -0.69371991067E+01 -0.29644262899E+02  0.94769490353E+01  0.31886041104E+02  0.00000000000E+00 0.  1.
         11    1    3    3    0    0  0.13390064807E+02  0.77110046423E+01  0.28172792899E+00  0.15454216221E+02  0.51100000000E-03 0. -1.
        -11    1    3    3    0    0 -0.10247086346E+02  0.14580826901E+02 -0.22470986643E+02  0.28680106915E+02  0.51100000000E-03 0.  1.
         12    1    3    3    0    0  0.37942206467E+01  0.73524313561E+01  0.12712309679E+02  0.15167635759E+02  0.00000000000E+00 0. -1.
</event>
<event>
 7    1  0.3755162E-013  0.5930196E+02  0.7816164E-02  0.1266605E+00
        -11   -1    0    0    0    0  0.00000000000E+00  0.00000000000E+00  0.45593999997E+02  0.45594000000E+02  0.51100000000E-03 0. -1.
         11   -1    0    0    0    0 -0.00000000000E+00 -0.00000000000E+00 -0.45593999997E+02  0.45594000000E+02  0.51100000000E-03 0.  1.
    9900012    2    1    2    0    0 -0.90787819869E+01  0.30058982976E+02  0.55455349701E+01  0.59301957630E+02  0.50000024807E+02 0.  0.
        -12    1    1    2    0    0  0.90787819869E+01 -0.30058982976E+02 -0.55455349701E+01  0.31886042370E+02  0.00000000000E+00 0.  1.
         11    1    3    3    0    0 -0.12033108258E+01  0.26006264060E+02 -0.29169448027E+00  0.26035721869E+02  0.51100000000E-03 0. -1.
        -11    1    3    3    0    0  0.66922847132E+01  0.79919244561E+01 -0.77267673430E+01  0.12975379186E+02  0.51100000000E-03 0.  1.
         12    1    3    3    0    0 -0.14567755874E+02 -0.39392055400E+01  0.13563996793E+02  0.20290856574E+02  0.00000000000E+00 0. -1.
</event>
<event>
 7    1  0.3755162E-013  0.5930200E+02  0.7816164E-02  0.1266605E+00
        -11   -1    0    0    0    0  0.00000000000E+00  0.00000000000E+00  0.45593999997E+02  0.45594000000E+02  0.51100000000E-03 0.  1.
         11   -1    0    0    0    0 -0.00000000000E+00 -0.00000000000E+00 -0.45593999997E+02  0.45594000000E+02  0.51100000000E-03 0. -1.
    9900012    2    1    2    0    0 -0.12475873786E+02 -0.24651221473E+01 -0.29240262864E+02  0.59301996389E+02  0.50000095494E+02 0.  0.
        -12    1    1    2    0    0  0.12475873786E+02  0.24651221473E+01  0.29240262864E+02  0.31886003611E+02  0.00000000000E+00 0.  1.
         11    1    3    3    0    0 -0.75841329516E+01 -0.79393437640E+01  0.27118606764E+01  0.11309572964E+02  0.51100000000E-03 0. -1.
        -11    1    3    3    0    0 -0.30025018021E+01 -0.57441834472E+01  0.57171799076E+01  0.86427314493E+01  0.51100000000E-03 0.  1.
        -12    1    3    3    0    0 -0.18892390319E+01  0.11218405064E+02 -0.37669303448E+02  0.39349691976E+02  0.00000000000E+00 0.  1.
</event>
<event>
 7    1  0.3755162E-013  0.5930194E+02  0.7816164E-02  0.1266605E+00
        -11   -1    0    0    0    0  0.00000000000E+00  0.00000000000E+00  0.45593999997E+02  0.45594000000E+02  0.51100000000E-03 0.  1.
         11   -1    0    0    0    0 -0.00000000000E+00 -0.00000000000E+00 -0.45593999997E+02  0.45594000000E+02  0.51100000000E-03 0. -1.
    9900012    2    1    2    0    0  0.19120838552E+01 -0.22366145940E+02 -0.22645539409E+02  0.59301937151E+02  0.49999987458E+02 0.  0.
        -12    1    1    2    0    0 -0.19120838552E+01  0.22366145940E+02  0.22645539409E+02  0.31886062849E+02  0.00000000000E+00 0.  1.
         11    1    3    3    0    0  0.10931757300E+02  0.17175669641E+01 -0.13874983959E+02  0.17747352875E+02  0.51100000000E-03 0. -1.
        -11    1    3    3    0    0  0.47727394529E+01 -0.26181683207E+02 -0.47302982866E+01  0.27030266361E+02  0.51100000000E-03 0.  1.
        -12    1    3    3    0    0 -0.13792412898E+02  0.20979703026E+01 -0.40402571633E+01  0.14524317914E+02  0.00000000000E+00 0.  1.
</event>
<event>
 7    1  0.3755162E-013  0.5930196E+02  0.7816164E-02  0.1266605E+00
        -11   -1    0    0    0    0  0.00000000000E+00  0.00000000000E+00  0.45593999997E+02  0.45594000000E+02  0.51100000000E-03 0.  1.
         11   -1    0    0    0    0 -0.00000000000E+00 -0.00000000000E+00 -0.45593999997E+02  0.45594000000E+02  0.51100000000E-03 0. -1.
    9900012    2    1    2    0    0  0.11233016450E+02  0.29776290720E+02  0.19776510179E+01  0.59301964637E+02  0.50000037587E+02 0.  0.
        -12    1    1    2    0    0 -0.11233016450E+02 -0.29776290720E+02 -0.19776510179E+01  0.31886035363E+02  0.00000000000E+00 0.  1.
         11    1    3    3    0    0 -0.10533913762E+02  0.15913514166E+02  0.17428634130E+01  0.19163529043E+02  0.51100000000E-03 0. -1.
        -11    1    3    3    0    0  0.17866803229E+02  0.13881718595E+02  0.13475909800E+02  0.26334861192E+02  0.51100000000E-03 0.  1.
         12    1    3    3    0    0  0.39001269833E+01 -0.18942041565E-01 -0.13241122195E+02  0.13803574402E+02  0.00000000000E+00 0. -1.
</event>
<event>
 7    1  0.3755162E-013  0.5930200E+02  0.7816164E-02  0.1266605E+00
        -11   -1    0    0    0    0  0.00000000000E+00  0.00000000000E+00  0.45593999997E+02  0.45594000000E+02  0.51100000000E-03 0.  1.
         11   -1    0    0    0    0 -0.00000000000E+00 -0.00000000000E+00 -0.45593999997E+02  0.45594000000E+02  0.51100000000E-03 0. -1.
    9900012    2    1    2    0    0  0.12280925534E+02 -0.29181671021E+02  0.37849850331E+01  0.59301997314E+02  0.50000097182E+02 0.  0.
        -12    1    1    2    0    0 -0.12280925534E+02  0.29181671021E+02 -0.37849850331E+01  0.31886002686E+02  0.00000000000E+00 0.  1.
         11    1    3    3    0    0 -0.29429016282E+01 -0.12583981850E+02 -0.97624592082E+01  0.16196384759E+02  0.51100000000E-03 0. -1.
        -11    1    3    3    0    0  0.22165272020E+02 -0.61423561258E+01  0.18596717530E+02  0.29578129177E+02  0.51100000000E-03 0.  1.
         12    1    3    3    0    0 -0.69414448576E+01 -0.10455333046E+02 -0.50492732887E+01  0.13527483378E+02  0.00000000000E+00 0. -1.
</event>
<event>
 7    1  0.3755162E-013  0.5930197E+02  0.7816164E-02  0.1266605E+00
        -11   -1    0    0    0    0  0.00000000000E+00  0.00000000000E+00  0.45593999997E+02  0.45594000000E+02  0.51100000000E-03 0. -1.
         11   -1    0    0    0    0 -0.00000000000E+00 -0.00000000000E+00 -0.45593999997E+02  0.45594000000E+02  0.51100000000E-03 0.  1.
    9900012    2    1    2    0    0 -0.59646217669E+01 -0.27300067528E+02 -0.15357356602E+02  0.59301971686E+02  0.50000050443E+02 0.  0.
        -12    1    1    2    0    0  0.59646217669E+01  0.27300067528E+02  0.15357356602E+02  0.31886028314E+02  0.00000000000E+00 0.  1.
         11    1    3    3    0    0 -0.57966807592E+01 -0.51938984357E+01 -0.13356543688E+02  0.15458827522E+02  0.51100000000E-03 0. -1.
        -11    1    3    3    0    0  0.17561530104E+02 -0.13743529906E+02 -0.74251881151E+01  0.23503731037E+02  0.51100000000E-03 0.  1.
         12    1    3    3    0    0 -0.17729471111E+02 -0.83626391855E+01  0.54243752018E+01  0.20339413127E+02  0.00000000000E+00 0. -1.
</event>
<event>
 7    1  0.3755162E-013  0.5930196E+02  0.7816164E-02  0.1266605E+00
        -11   -1    0    0    0    0  0.00000000000E+00  0.00000000000E+00  0.45593999997E+02  0.45594000000E+02  0.51100000000E-03 0.  1.
         11   -1    0    0    0    0 -0.00000000000E+00 -0.00000000000E+00 -0.45593999997E+02  0.45594000000E+02  0.51100000000E-03 0. -1.
    9900012    2    1    2    0    0  0.89554227734E+01 -0.22078462926E+02 -0.21191069997E+02  0.59301959641E+02  0.50000028474E+02 0.  0.
        -12    1    1    2    0    0 -0.89554227734E+01  0.22078462926E+02  0.21191069997E+02  0.31886040359E+02  0.00000000000E+00 0.  1.
         11    1    3    3    0    0  0.63342275229E+01 -0.18873391530E+01  0.11652316465E+02  0.13396304217E+02  0.51100000000E-03 0.  1.
        -11    1    3    3    0    0  0.12361608147E+02 -0.46726958803E+01 -0.17972629266E+02  0.22308268551E+02  0.51100000000E-03 0. -1.
         12    1    3    3    0    0 -0.97404128962E+01 -0.15518427892E+02 -0.14870757196E+02  0.23597386873E+02  0.00000000000E+00 0. -1.
</event>
<event>
 7    1  0.3755162E-013  0.5930193E+02  0.7816164E-02  0.1266605E+00
        -11   -1    0    0    0    0  0.00000000000E+00  0.00000000000E+00  0.45593999997E+02  0.45594000000E+02  0.51100000000E-03 0.  1.
         11   -1    0    0    0    0 -0.00000000000E+00 -0.00000000000E+00 -0.45593999997E+02  0.45594000000E+02  0.51100000000E-03 0. -1.
    9900012    2    1    2    0    0  0.33615074882E+01 -0.26793510336E+02  0.16956693698E+02  0.59301931100E+02  0.49999976422E+02 0.  0.
        -12    1    1    2    0    0 -0.33615074882E+01  0.26793510336E+02 -0.16956693698E+02  0.31886068900E+02  0.00000000000E+00 0.  1.
         11    1    3    3    0    0 -0.78992416997E+01  0.29283016200E+01  0.63058132815E+01  0.10523129345E+02  0.51100000000E-03 0. -1.
        -11    1    3    3    0    0 -0.21017616784E+01  0.44423770739E+01  0.11048494529E+02  0.12092201943E+02  0.51100000000E-03 0.  1.
         12    1    3    3    0    0  0.13362510866E+02 -0.34164189030E+02 -0.39761411209E+00  0.36686599812E+02  0.00000000000E+00 0. -1.
</event>
<event>
 7    1  0.3755162E-013  0.5930193E+02  0.7816164E-02  0.1266605E+00
        -11   -1    0    0    0    0  0.00000000000E+00  0.00000000000E+00  0.45593999997E+02  0.45594000000E+02  0.51100000000E-03 0.  1.
         11   -1    0    0    0    0 -0.00000000000E+00 -0.00000000000E+00 -0.45593999997E+02  0.45594000000E+02  0.51100000000E-03 0. -1.
    9900012    2    1    2    0    0 -0.29367414747E+02 -0.83361247462E+01 -0.92079143988E+01  0.59301926044E+02  0.49999967203E+02 0.  0.
        -12    1    1    2    0    0  0.29367414747E+02  0.83361247462E+01  0.92079143988E+01  0.31886073956E+02  0.00000000000E+00 0.  1.
         11    1    3    3    0    0 -0.21193277335E+02 -0.57827252680E+01  0.47363985140E+01  0.22472836645E+02  0.51100000000E-03 0. -1.
        -11    1    3    3    0    0  0.69281338927E+01 -0.21788509504E+01  0.76024913064E+01  0.10514005185E+02  0.51100000000E-03 0.  1.
         12    1    3    3    0    0 -0.15102271305E+02 -0.37454852778E+00 -0.21546804219E+02  0.26315084215E+02  0.00000000000E+00 0. -1.
</event>
<event>
 7    1  0.3755162E-013  0.5930191E+02  0.7816164E-02  0.1266605E+00
        -11   -1    0    0    0    0  0.00000000000E+00  0.00000000000E+00  0.45593999997E+02  0.45594000000E+02  0.51100000000E-03 0. -1.
         11   -1    0    0    0    0 -0.00000000000E+00 -0.00000000000E+00 -0.45593999997E+02  0.45594000000E+02  0.51100000000E-03 0.  1.
    9900012    2    1    2    0    0  0.10046940498E+02  0.86134860484E+01 -0.29010158523E+02  0.59301914432E+02  0.49999946025E+02 0.  0.
        -12    1    1    2    0    0 -0.10046940498E+02 -0.86134860484E+01  0.29010158523E+02  0.31886085568E+02  0.00000000000E+00 0.  1.
         11    1    3    3    0    0  0.16636682176E+02  0.10279953373E+02 -0.31338833455E+01  0.19806005662E+02  0.51100000000E-03 0. -1.
        -11    1    3    3    0    0  0.11568053615E+01 -0.60817964411E-01  0.62773464715E+01  0.63833358406E+01  0.51100000000E-03 0.  1.
        -12    1    3    3    0    0 -0.77465470396E+01 -0.16056493597E+01 -0.32153621649E+02  0.33112572930E+02  0.00000000000E+00 0.  1.
</event>
<event>
 7    1  0.3755162E-013  0.5930194E+02  0.7816164E-02  0.1266605E+00
        -11   -1    0    0    0    0  0.00000000000E+00  0.00000000000E+00  0.45593999997E+02  0.45594000000E+02  0.51100000000E-03 0. -1.
         11   -1    0    0    0    0 -0.00000000000E+00 -0.00000000000E+00 -0.45593999997E+02  0.45594000000E+02  0.51100000000E-03 0.  1.
    9900012    2    1    2    0    0 -0.24289224439E+02  0.17086017211E+02  0.11611296697E+02  0.59301943189E+02  0.49999998470E+02 0.  0.
        -12    1    1    2    0    0  0.24289224439E+02 -0.17086017211E+02 -0.11611296697E+02  0.31886056811E+02  0.00000000000E+00 0.  1.
         11    1    3    3    0    0 -0.30457091789E+01  0.11293997561E+02  0.98252380196E+01  0.15276322454E+02  0.51100000000E-03 0. -1.
        -11    1    3    3    0    0 -0.10454671602E+02  0.18080368177E+02  0.12627246907E+02  0.24405885283E+02  0.51100000000E-03 0.  1.
        -12    1    3    3    0    0 -0.10788843658E+02 -0.12288348527E+02 -0.10841188230E+02  0.19619735453E+02  0.00000000000E+00 0.  1.
</event>
<event>
 7    1  0.3755162E-013  0.5930194E+02  0.7816164E-02  0.1266605E+00
        -11   -1    0    0    0    0  0.00000000000E+00  0.00000000000E+00  0.45593999997E+02  0.45594000000E+02  0.51100000000E-03 0. -1.
         11   -1    0    0    0    0 -0.00000000000E+00 -0.00000000000E+00 -0.45593999997E+02  0.45594000000E+02  0.51100000000E-03 0.  1.
    9900012    2    1    2    0    0  0.13209607395E+02  0.55705999957E+01  0.28481497757E+02  0.59301936801E+02  0.49999986820E+02 0.  0.
        -12    1    1    2    0    0 -0.13209607395E+02 -0.55705999957E+01 -0.28481497757E+02  0.31886063199E+02  0.00000000000E+00 0.  1.
         11    1    3    3    0    0  0.92086040896E+01  0.25581634245E+00  0.10744697531E+02  0.14153174788E+02  0.51100000000E-03 0. -1.
        -11    1    3    3    0    0 -0.16181120714E+02  0.12123381052E+02  0.85528969977E+01  0.21953520971E+02  0.51100000000E-03 0.  1.
         12    1    3    3    0    0  0.20182124020E+02 -0.68085973990E+01  0.91839032282E+01  0.23195241042E+02  0.00000000000E+00 0. -1.
</event>
<event>
 7    1  0.3755162E-013  0.5930194E+02  0.7816164E-02  0.1266605E+00
        -11   -1    0    0    0    0  0.00000000000E+00  0.00000000000E+00  0.45593999997E+02  0.45594000000E+02  0.51100000000E-03 0. -1.
         11   -1    0    0    0    0 -0.00000000000E+00 -0.00000000000E+00 -0.45593999997E+02  0.45594000000E+02  0.51100000000E-03 0.  1.
    9900012    2    1    2    0    0 -0.25265720229E+02  0.41695369656E+01  0.18999449137E+02  0.59301941530E+02  0.49999995446E+02 0.  0.
        -12    1    1    2    0    0  0.25265720229E+02 -0.41695369656E+01 -0.18999449137E+02  0.31886058470E+02  0.00000000000E+00 0.  1.
         11    1    3    3    0    0 -0.84201172499E+01  0.99987412265E+01  0.21738515498E+02  0.25366045355E+02  0.51100000000E-03 0. -1.
        -11    1    3    3    0    0 -0.86341004568E+01  0.10588007691E+02  0.42288000003E+01  0.14301620442E+02  0.51100000000E-03 0.  1.
         12    1    3    3    0    0 -0.82115025227E+01 -0.16417211952E+02 -0.69678663616E+01  0.19634275734E+02  0.00000000000E+00 0. -1.
</event>
<event>
 7    1  0.3755162E-013  0.5930193E+02  0.7816164E-02  0.1266605E+00
        -11   -1    0    0    0    0  0.00000000000E+00  0.00000000000E+00  0.45593999997E+02  0.45594000000E+02  0.51100000000E-03 0.  1.
         11   -1    0    0    0    0 -0.00000000000E+00 -0.00000000000E+00 -0.45593999997E+02  0.45594000000E+02  0.51100000000E-03 0. -1.
    9900012    2    1    2    0    0 -0.18020547994E+01  0.30944561299E+02 -0.74771652154E+01  0.59301932900E+02  0.49999979705E+02 0.  0.
        -12    1    1    2    0    0  0.18020547994E+01 -0.30944561299E+02  0.74771652154E+01  0.31886067100E+02  0.00000000000E+00 0.  1.
         11    1    3    3    0    0  0.74704185386E+01  0.24052066019E+02 -0.80946722170E+01  0.26454352222E+02  0.51100000000E-03 0. -1.
        -11    1    3    3    0    0  0.10371480778E+01  0.15665716697E+02 -0.71375936355E+01  0.17246321316E+02  0.51100000000E-03 0.  1.
         12    1    3    3    0    0 -0.10309621416E+02 -0.87732214175E+01  0.77551006371E+01  0.15601259362E+02  0.00000000000E+00 0. -1.
</event>
<event>
 7    1  0.3755162E-013  0.5930195E+02  0.7816164E-02  0.1266605E+00
        -11   -1    0    0    0    0  0.00000000000E+00  0.00000000000E+00  0.45593999997E+02  0.45594000000E+02  0.51100000000E-03 0.  1.
         11   -1    0    0    0    0 -0.00000000000E+00 -0.00000000000E+00 -0.45593999997E+02  0.45594000000E+02  0.51100000000E-03 0. -1.
    9900012    2    1    2    0    0 -0.72012278238E+01 -0.25005591959E+02 -0.18427777158E+02  0.59301948467E+02  0.50000008096E+02 0.  0.
        -12    1    1    2    0    0  0.72012278238E+01  0.25005591959E+02  0.18427777158E+02  0.31886051533E+02  0.00000000000E+00 0.  1.
         11    1    3    3    0    0  0.18805275018E+01 -0.16605236285E+02 -0.20941972140E+02  0.26792470083E+02  0.51100000000E-03 0. -1.
        -11    1    3    3    0    0  0.46194953271E+01 -0.15988659045E+02  0.26154424077E+01  0.16846883818E+02  0.51100000000E-03 0.  1.
        -12    1    3    3    0    0 -0.13701250653E+02  0.75883033712E+01 -0.10124742601E+00  0.15662594566E+02  0.00000000000E+00 0.  1.
</event>
<event>
 7    1  0.3755162E-013  0.5930194E+02  0.7816164E-02  0.1266605E+00
        -11   -1    0    0    0    0  0.00000000000E+00  0.00000000000E+00  0.45593999997E+02  0.45594000000E+02  0.51100000000E-03 0. -1.
         11   -1    0    0    0    0 -0.00000000000E+00 -0.00000000000E+00 -0.45593999997E+02  0.45594000000E+02  0.51100000000E-03 0.  1.
    9900012    2    1    2    0    0 -0.13187933446E+02 -0.26810023256E+02  0.11136506104E+02  0.59301941859E+02  0.49999996046E+02 0.  0.
        -12    1    1    2    0    0  0.13187933446E+02  0.26810023256E+02 -0.11136506104E+02  0.31886058141E+02  0.00000000000E+00 0.  1.
         11    1    3    3    0    0  0.32184553259E+01 -0.12232734946E+02  0.17731025295E+02  0.21780438866E+02  0.51100000000E-03 0. -1.
        -11    1    3    3    0    0 -0.84676486876E+00 -0.14186815768E+02  0.78939425595E+01  0.16257216298E+02  0.51100000000E-03 0.  1.
        -12    1    3    3    0    0 -0.15559623903E+02 -0.39047254214E+00 -0.14488461750E+02  0.21264286696E+02  0.00000000000E+00 0.  1.
</event>
<event>
 7    1  0.3755162E-013  0.5930194E+02  0.7816164E-02  0.1266605E+00
        -11   -1    0    0    0    0  0.00000000000E+00  0.00000000000E+00  0.45593999997E+02  0.45594000000E+02  0.51100000000E-03 0. -1.
         11   -1    0    0    0    0 -0.00000000000E+00 -0.00000000000E+00 -0.45593999997E+02  0.45594000000E+02  0.51100000000E-03 0.  1.
    9900012    2    1    2    0    0 -0.80575463717E+01  0.21919735283E+02  0.21709953913E+02  0.59301938040E+02  0.49999989080E+02 0.  0.
        -12    1    1    2    0    0  0.80575463717E+01 -0.21919735283E+02 -0.21709953913E+02  0.31886061960E+02  0.00000000000E+00 0.  1.
         11    1    3    3    0    0  0.39295954450E+01  0.53832705128E+01  0.68409699350E+00  0.66999485619E+01  0.51100000000E-03 0. -1.
        -11    1    3    3    0    0  0.16290545277E+02  0.94356859726E+01  0.10808008670E+02  0.21707765589E+02  0.51100000000E-03 0.  1.
         12    1    3    3    0    0 -0.28277687093E+02  0.71007787971E+01  0.10217848249E+02  0.30894223889E+02  0.00000000000E+00 0. -1.
</event>
<event>
 7    1  0.3755162E-013  0.5930196E+02  0.7816164E-02  0.1266605E+00
        -11   -1    0    0    0    0  0.00000000000E+00  0.00000000000E+00  0.45593999997E+02  0.45594000000E+02  0.51100000000E-03 0.  1.
         11   -1    0    0    0    0 -0.00000000000E+00 -0.00000000000E+00 -0.45593999997E+02  0.45594000000E+02  0.51100000000E-03 0. -1.
    9900012    2    1    2    0    0 -0.22443933355E+02 -0.14676354718E+02 -0.17250920301E+02  0.59301956289E+02  0.50000022362E+02 0.  0.
        -12    1    1    2    0    0  0.22443933355E+02  0.14676354718E+02  0.17250920301E+02  0.31886043711E+02  0.00000000000E+00 0.  1.
         11    1    3    3    0    0 -0.78129843406E+01  0.10606360622E+01 -0.85175467475E+01  0.11606734081E+02  0.51100000000E-03 0. -1.
        -11    1    3    3    0    0 -0.13752556602E+02  0.11177090574E+02 -0.10689207750E+02  0.20695877110E+02  0.51100000000E-03 0.  1.
        -12    1    3    3    0    0 -0.87839241311E+00 -0.26914081354E+02  0.19558341963E+01  0.26999345099E+02  0.00000000000E+00 0.  1.
</event>
<event>
 7    1  0.3755162E-013  0.5930194E+02  0.7816164E-02  0.1266605E+00
        -11   -1    0    0    0    0  0.00000000000E+00  0.00000000000E+00  0.45593999997E+02  0.45594000000E+02  0.51100000000E-03 0.  1.
         11   -1    0    0    0    0 -0.00000000000E+00 -0.00000000000E+00 -0.45593999997E+02  0.45594000000E+02  0.51100000000E-03 0. -1.
    9900012    2    1    2    0    0 -0.27569624819E+01 -0.25819040732E+02 -0.18506675719E+02  0.59301941093E+02  0.49999994648E+02 0.  0.
        -12    1    1    2    0    0  0.27569624819E+01  0.25819040732E+02  0.18506675719E+02  0.31886058907E+02  0.00000000000E+00 0.  1.
         11    1    3    3    0    0 -0.11606341286E+02 -0.10286869370E+01 -0.67168034015E+01  0.13449193398E+02  0.51100000000E-03 0. -1.
        -11    1    3    3    0    0 -0.12151658202E+01 -0.24432970466E+02 -0.20973579590E+02  0.32223248050E+02  0.51100000000E-03 0.  1.
        -12    1    3    3    0    0  0.10064544624E+02 -0.35738332847E+00  0.91837072727E+01  0.13629499646E+02  0.00000000000E+00 0.  1.
</event>
<event>
 7    1  0.3755162E-013  0.5930194E+02  0.7816164E-02  0.1266605E+00
        -11   -1    0    0    0    0  0.00000000000E+00  0.00000000000E+00  0.45593999997E+02  0.45594000000E+02  0.51100000000E-03 0. -1.
         11   -1    0    0    0    0 -0.00000000000E+00 -0.00000000000E+00 -0.45593999997E+02  0.45594000000E+02  0.51100000000E-03 0.  1.
    9900012    2    1    2    0    0 -0.22182844150E+02 -0.22778372266E+02  0.24058205474E+01  0.59301940504E+02  0.49999993573E+02 0.  0.
        -12    1    1    2    0    0  0.22182844150E+02  0.22778372266E+02 -0.24058205474E+01  0.31886059496E+02  0.00000000000E+00 0.  1.
         11    1    3    3    0    0 -0.83771888358E+01 -0.61211643834E+01  0.22357470383E+01  0.10613411859E+02  0.51100000000E-03 0. -1.
        -11    1    3    3    0    0 -0.93039697302E+01 -0.32478563884E+01  0.21180283857E+02  0.23360583220E+02  0.51100000000E-03 0.  1.
         12    1    3    3    0    0 -0.45016855842E+01 -0.13409351494E+02 -0.21010210348E+02  0.25327945425E+02  0.00000000000E+00 0. -1.
</event>
<event>
 7    1  0.3755162E-013  0.5930193E+02  0.7816164E-02  0.1266605E+00
        -11   -1    0    0    0    0  0.00000000000E+00  0.00000000000E+00  0.45593999997E+02  0.45594000000E+02  0.51100000000E-03 0. -1.
         11   -1    0    0    0    0 -0.00000000000E+00 -0.00000000000E+00 -0.45593999997E+02  0.45594000000E+02  0.51100000000E-03 0.  1.
    9900012    2    1    2    0    0  0.24656682594E+02  0.16652785051E+02  0.11465341585E+02  0.59301932444E+02  0.49999978875E+02 0.  0.
        -12    1    1    2    0    0 -0.24656682594E+02 -0.16652785051E+02 -0.11465341585E+02  0.31886067556E+02  0.00000000000E+00 0.  1.
         11    1    3    3    0    0  0.19540753862E+01 -0.50632418669E+01  0.20707812934E+02  0.21407203124E+02  0.51100000000E-03 0. -1.
        -11    1    3    3    0    0 -0.25213223246E+01  0.16876266348E+01  0.21634473093E+01  0.37263459909E+01  0.51100000000E-03 0.  1.
         12    1    3    3    0    0  0.25223929533E+02  0.20028400283E+02 -0.11405918657E+02  0.34168383330E+02  0.00000000000E+00 0. -1.
</event>
<event>
 7    1  0.3755162E-013  0.5930197E+02  0.7816164E-02  0.1266605E+00
        -11   -1    0    0    0    0  0.00000000000E+00  0.00000000000E+00  0.45593999997E+02  0.45594000000E+02  0.51100000000E-03 0.  1.
         11   -1    0    0    0    0 -0.00000000000E+00 -0.00000000000E+00 -0.45593999997E+02  0.45594000000E+02  0.51100000000E-03 0. -1.
    9900012    2    1    2    0    0  0.29547020707E+02 -0.14073450303E+01 -0.11904288518E+02  0.59301966414E+02  0.50000040828E+02 0.  0.
        -12    1    1    2    0    0 -0.29547020707E+02  0.14073450303E+01  0.11904288518E+02  0.31886033586E+02  0.00000000000E+00 0.  1.
         11    1    3    3    0    0 -0.36492516079E+01 -0.50990386344E+01 -0.83236785395E+01  0.10421173494E+02  0.51100000000E-03 0.  1.
        -11    1    3    3    0    0 -0.47304767714E+00 -0.11630817877E+02 -0.23076741082E+01  0.11866973440E+02  0.51100000000E-03 0. -1.
         12    1    3    3    0    0  0.33669319992E+02  0.15322511481E+02 -0.12729358707E+01  0.37013819480E+02  0.00000000000E+00 0. -1.
</event>
<event>
 7    1  0.3755162E-013  0.5930194E+02  0.7816164E-02  0.1266605E+00
        -11   -1    0    0    0    0  0.00000000000E+00  0.00000000000E+00  0.45593999997E+02  0.45594000000E+02  0.51100000000E-03 0. -1.
         11   -1    0    0    0    0 -0.00000000000E+00 -0.00000000000E+00 -0.45593999997E+02  0.45594000000E+02  0.51100000000E-03 0.  1.
    9900012    2    1    2    0    0  0.30424438478E+01 -0.18975168069E+02  0.25444197205E+02  0.59301942872E+02  0.49999997891E+02 0.  0.
        -12    1    1    2    0    0 -0.30424438478E+01  0.18975168069E+02 -0.25444197205E+02  0.31886057128E+02  0.00000000000E+00 0.  1.
         11    1    3    3    0    0 -0.16615091053E+02 -0.48586882118E+01  0.10917739149E+02  0.20466194815E+02  0.51100000000E-03 0. -1.
        -11    1    3    3    0    0  0.47031124499E+00 -0.16631897401E+02  0.59714705171E+01  0.17677660032E+02  0.51100000000E-03 0.  1.
        -12    1    3    3    0    0  0.19187223656E+02  0.25154175436E+01  0.85549875387E+01  0.21158088024E+02  0.00000000000E+00 0.  1.
</event>
<event>
 7    1  0.3755162E-013  0.5930189E+02  0.7816164E-02  0.1266605E+00
        -11   -1    0    0    0    0  0.00000000000E+00  0.00000000000E+00  0.45593999997E+02  0.45594000000E+02  0.51100000000E-03 0.  1.
         11   -1    0    0    0    0 -0.00000000000E+00 -0.00000000000E+00 -0.45593999997E+02  0.45594000000E+02  0.51100000000E-03 0. -1.
    9900012    2    1    2    0    0 -0.29406232161E+01 -0.30475410749E+02 -0.89065039673E+01  0.59301894278E+02  0.49999909268E+02 0.  0.
        -12    1    1    2    0    0  0.29406232161E+01  0.30475410749E+02  0.89065039673E+01  0.31886105722E+02  0.00000000000E+00 0.  1.
         11    1    3    3    0    0  0.16279281163E+02 -0.93139156207E+01 -0.17339166627E+02  0.25542331901E+02  0.51100000000E-03 0. -1.
        -11    1    3    3    0    0  0.25710718631E+01 -0.42809928345E+01  0.22369154013E+00  0.49987346739E+01  0.51100000000E-03 0.  1.
         12    1    3    3    0    0 -0.21790976242E+02 -0.16880502294E+02  0.82089711197E+01  0.28760827702E+02  0.00000000000E+00 0. -1.
</event>
<event>
 7    1  0.3755162E-013  0.5930188E+02  0.7816164E-02  0.1266605E+00
        -11   -1    0    0    0    0  0.00000000000E+00  0.00000000000E+00  0.45593999997E+02  0.45594000000E+02  0.51100000000E-03 0.  1.
         11   -1    0    0    0    0 -0.00000000000E+00 -0.00000000000E+00 -0.45593999997E+02  0.45594000000E+02  0.51100000000E-03 0. -1.
    9900012    2    1    2    0    0  0.54619505137E+01  0.18639869301E+02 -0.25287292058E+02  0.59301878088E+02  0.49999879741E+02 0.  0.
        -12    1    1    2    0    0 -0.54619505137E+01 -0.18639869301E+02  0.25287292058E+02  0.31886121912E+02  0.00000000000E+00 0.  1.
         11    1    3    3    0    0  0.18154739915E+02  0.19217894153E+02 -0.28945052820E+02  0.39201251512E+02  0.51100000000E-03 0. -1.
        -11    1    3    3    0    0 -0.20883923826E+01 -0.70411612356E+01  0.14950546352E+01  0.74949665051E+01  0.51100000000E-03 0.  1.
        -12    1    3    3    0    0 -0.10604397019E+02  0.64631363832E+01  0.21627061267E+01  0.12605660071E+02  0.00000000000E+00 0.  1.
</event>
<event>
 7    1  0.3755162E-013  0.5930195E+02  0.7816164E-02  0.1266605E+00
        -11   -1    0    0    0    0  0.00000000000E+00  0.00000000000E+00  0.45593999997E+02  0.45594000000E+02  0.51100000000E-03 0.  1.
         11   -1    0    0    0    0 -0.00000000000E+00 -0.00000000000E+00 -0.45593999997E+02  0.45594000000E+02  0.51100000000E-03 0. -1.
    9900012    2    1    2    0    0  0.20340923422E+02  0.24552738002E+02 -0.36081770548E+00  0.59301948215E+02  0.50000007636E+02 0.  0.
        -12    1    1    2    0    0 -0.20340923422E+02 -0.24552738002E+02  0.36081770548E+00  0.31886051785E+02  0.00000000000E+00 0.  1.
         11    1    3    3    0    0  0.13519678327E+02  0.17627484694E+02  0.11521416346E+02  0.25025046525E+02  0.51100000000E-03 0. -1.
        -11    1    3    3    0    0 -0.89274092225E+01  0.29788004929E+01  0.51649797822E+01  0.10735404241E+02  0.51100000000E-03 0.  1.
         12    1    3    3    0    0  0.15748654317E+02  0.39464528151E+01 -0.17047213834E+02  0.23541497449E+02  0.00000000000E+00 0. -1.
</event>
<event>
 7    1  0.3755162E-013  0.5930196E+02  0.7816164E-02  0.1266605E+00
        -11   -1    0    0    0    0  0.00000000000E+00  0.00000000000E+00  0.45593999997E+02  0.45594000000E+02  0.51100000000E-03 0.  1.
         11   -1    0    0    0    0 -0.00000000000E+00 -0.00000000000E+00 -0.45593999997E+02  0.45594000000E+02  0.51100000000E-03 0. -1.
    9900012    2    1    2    0    0  0.38646628320E+01 -0.31091427087E+02  0.59251317369E+01  0.59301958490E+02  0.50000026375E+02 0.  0.
        -12    1    1    2    0    0 -0.38646628320E+01  0.31091427087E+02 -0.59251317369E+01  0.31886041510E+02  0.00000000000E+00 0.  1.
         11    1    3    3    0    0 -0.84352149480E+01 -0.18084230528E+02 -0.47200998636E+01  0.20505403873E+02  0.51100000000E-03 0. -1.
        -11    1    3    3    0    0 -0.50537867218E+01  0.77181447650E+00 -0.82298471502E+01  0.96884901916E+01  0.51100000000E-03 0.  1.
        -12    1    3    3    0    0  0.17353664502E+02 -0.13779011035E+02  0.18875078751E+02  0.29108064426E+02  0.00000000000E+00 0.  1.
</event>
<event>
 7    1  0.3755162E-013  0.5930198E+02  0.7816164E-02  0.1266605E+00
        -11   -1    0    0    0    0  0.00000000000E+00  0.00000000000E+00  0.45593999997E+02  0.45594000000E+02  0.51100000000E-03 0.  1.
         11   -1    0    0    0    0 -0.00000000000E+00 -0.00000000000E+00 -0.45593999997E+02  0.45594000000E+02  0.51100000000E-03 0. -1.
    9900012    2    1    2    0    0 -0.22501777114E+02 -0.20287664535E+02 -0.99397629697E+01  0.59301981223E+02  0.50000067834E+02 0.  0.
        -12    1    1    2    0    0  0.22501777114E+02  0.20287664535E+02  0.99397629697E+01  0.31886018777E+02  0.00000000000E+00 0.  1.
         11    1    3    3    0    0 -0.10135845130E+02 -0.10915369037E+02 -0.15082064472E+02  0.21197860900E+02  0.51100000000E-03 0. -1.
        -11    1    3    3    0    0 -0.18883365460E+02  0.68385125480E+01  0.47024977448E+01  0.20626687332E+02  0.51100000000E-03 0.  1.
         12    1    3    3    0    0  0.65174334762E+01 -0.16210808046E+02  0.43980375789E+00  0.17477432991E+02  0.00000000000E+00 0. -1.
</event>
<event>
 7    1  0.3755162E-013  0.5930192E+02  0.7816164E-02  0.1266605E+00
        -11   -1    0    0    0    0  0.00000000000E+00  0.00000000000E+00  0.45593999997E+02  0.45594000000E+02  0.51100000000E-03 0. -1.
         11   -1    0    0    0    0 -0.00000000000E+00 -0.00000000000E+00 -0.45593999997E+02  0.45594000000E+02  0.51100000000E-03 0.  1.
    9900012    2    1    2    0    0  0.54772036591E+01 -0.21179476106E+01  0.31340656891E+02  0.59301917827E+02  0.49999952215E+02 0.  0.
        -12    1    1    2    0    0 -0.54772036591E+01  0.21179476106E+01 -0.31340656891E+02  0.31886082173E+02  0.00000000000E+00 0.  1.
         11    1    3    3    0    0  0.22752058474E+02  0.23310853887E+01  0.11825373838E+02  0.25747419105E+02  0.51100000000E-03 0. -1.
        -11    1    3    3    0    0  0.45645677302E+01 -0.20256271286E+01  0.17291589691E+01  0.52847360227E+01  0.51100000000E-03 0.  1.
         12    1    3    3    0    0 -0.21839422545E+02 -0.24234058707E+01  0.17786124084E+02  0.28269762699E+02  0.00000000000E+00 0. -1.
</event>
<event>
 7    1  0.3755162E-013  0.5930191E+02  0.7816164E-02  0.1266605E+00
        -11   -1    0    0    0    0  0.00000000000E+00  0.00000000000E+00  0.45593999997E+02  0.45594000000E+02  0.51100000000E-03 0.  1.
         11   -1    0    0    0    0 -0.00000000000E+00 -0.00000000000E+00 -0.45593999997E+02  0.45594000000E+02  0.51100000000E-03 0. -1.
    9900012    2    1    2    0    0 -0.19576644914E+02 -0.22683458835E+02  0.10905880757E+02  0.59301912659E+02  0.49999942792E+02 0.  0.
        -12    1    1    2    0    0  0.19576644914E+02  0.22683458835E+02 -0.10905880757E+02  0.31886087341E+02  0.00000000000E+00 0.  1.
         11    1    3    3    0    0 -0.14446595054E+02  0.62734958459E+01 -0.85294138500E+01  0.17911218821E+02  0.51100000000E-03 0. -1.
        -11    1    3    3    0    0 -0.30195205461E+01  0.27261619265E+01 -0.17162887348E+00  0.40717219833E+01  0.51100000000E-03 0.  1.
        -12    1    3    3    0    0 -0.21105293143E+01 -0.31683116608E+02  0.19606923480E+02  0.37318971855E+02  0.00000000000E+00 0.  1.
</event>
<event>
 7    1  0.3755162E-013  0.5930197E+02  0.7816164E-02  0.1266605E+00
        -11   -1    0    0    0    0  0.00000000000E+00  0.00000000000E+00  0.45593999997E+02  0.45594000000E+02  0.51100000000E-03 0. -1.
         11   -1    0    0    0    0 -0.00000000000E+00 -0.00000000000E+00 -0.45593999997E+02  0.45594000000E+02  0.51100000000E-03 0.  1.
    9900012    2    1    2    0    0  0.28214020220E+02  0.87944487039E+01  0.11972707932E+02  0.59301968572E+02  0.50000044763E+02 0.  0.
        -12    1    1    2    0    0 -0.28214020220E+02 -0.87944487039E+01 -0.11972707932E+02  0.31886031428E+02  0.00000000000E+00 0.  1.
         11    1    3    3    0    0  0.36134887148E+01  0.13490979249E+02  0.22259383516E+02  0.26278203450E+02  0.51100000000E-03 0. -1.
        -11    1    3    3    0    0  0.13131393788E+02 -0.10400756887E+02 -0.25433436563E+00  0.16753326024E+02  0.51100000000E-03 0.  1.
        -12    1    3    3    0    0  0.11469137717E+02  0.57042263412E+01 -0.10032341218E+02  0.16270439098E+02  0.00000000000E+00 0.  1.
</event>
<event>
 7    1  0.3755162E-013  0.5930196E+02  0.7816164E-02  0.1266605E+00
        -11   -1    0    0    0    0  0.00000000000E+00  0.00000000000E+00  0.45593999997E+02  0.45594000000E+02  0.51100000000E-03 0. -1.
         11   -1    0    0    0    0 -0.00000000000E+00 -0.00000000000E+00 -0.45593999997E+02  0.45594000000E+02  0.51100000000E-03 0.  1.
    9900012    2    1    2    0    0 -0.94113252603E+01 -0.30195360448E+02  0.40480531749E+01  0.59301959634E+02  0.50000028462E+02 0.  0.
        -12    1    1    2    0    0  0.94113252603E+01  0.30195360448E+02 -0.40480531749E+01  0.31886040366E+02  0.00000000000E+00 0.  1.
         11    1    3    3    0    0 -0.13725220410E+01  0.56129254596E+01 -0.77505847407E+01  0.96674874219E+01  0.51100000000E-03 0.  1.
        -11    1    3    3    0    0 -0.15219684609E+02 -0.11460627993E+02  0.14728560447E+02  0.24081430329E+02  0.51100000000E-03 0. -1.
        -12    1    3    3    0    0  0.71808813893E+01 -0.24347657914E+02 -0.29299225314E+01  0.25553041883E+02  0.00000000000E+00 0.  1.
</event>
<event>
 7    1  0.3755162E-013  0.5930193E+02  0.7816164E-02  0.1266605E+00
        -11   -1    0    0    0    0  0.00000000000E+00  0.00000000000E+00  0.45593999997E+02  0.45594000000E+02  0.51100000000E-03 0. -1.
         11   -1    0    0    0    0 -0.00000000000E+00 -0.00000000000E+00 -0.45593999997E+02  0.45594000000E+02  0.51100000000E-03 0.  1.
    9900012    2    1    2    0    0 -0.16058594432E+00  0.31840243725E+02  0.17013753158E+01  0.59301928021E+02  0.49999970807E+02 0.  0.
        -12    1    1    2    0    0  0.16058594432E+00 -0.31840243725E+02 -0.17013753158E+01  0.31886071979E+02  0.00000000000E+00 0.  1.
         11    1    3    3    0    0 -0.23041205407E+01 -0.34520811626E+00 -0.24452610464E+01  0.33774904820E+01  0.51100000000E-03 0. -1.
        -11    1    3    3    0    0  0.11184465086E+02  0.27399507294E+01 -0.15560129535E+02  0.19357614023E+02  0.51100000000E-03 0.  1.
         12    1    3    3    0    0 -0.90409304895E+01  0.29445501112E+02  0.19706765898E+02  0.36566823515E+02  0.00000000000E+00 0. -1.
</event>
<event>
 7    1  0.3755162E-013  0.5930198E+02  0.7816164E-02  0.1266605E+00
        -11   -1    0    0    0    0  0.00000000000E+00  0.00000000000E+00  0.45593999997E+02  0.45594000000E+02  0.51100000000E-03 0.  1.
         11   -1    0    0    0    0 -0.00000000000E+00 -0.00000000000E+00 -0.45593999997E+02  0.45594000000E+02  0.51100000000E-03 0. -1.
    9900012    2    1    2    0    0 -0.14209867060E+02 -0.12313658182E+02 -0.25752123602E+02  0.59301978460E+02  0.50000062795E+02 0.  0.
        -12    1    1    2    0    0  0.14209867060E+02  0.12313658182E+02  0.25752123602E+02  0.31886021540E+02  0.00000000000E+00 0.  1.
         11    1    3    3    0    0 -0.30932405798E+01 -0.11477636907E+02 -0.22724214732E+02  0.25645549745E+02  0.51100000000E-03 0. -1.
        -11    1    3    3    0    0  0.66447935646E+01  0.57652201855E+01  0.78647331253E+01  0.11800214943E+02  0.51100000000E-03 0.  1.
         12    1    3    3    0    0 -0.17761420045E+02 -0.66012414599E+01 -0.10892641995E+02  0.21856213772E+02  0.00000000000E+00 0. -1.
</event>
<event>
 7    1  0.3755162E-013  0.5930194E+02  0.7816164E-02  0.1266605E+00
        -11   -1    0    0    0    0  0.00000000000E+00  0.00000000000E+00  0.45593999997E+02  0.45594000000E+02  0.51100000000E-03 0. -1.
         11   -1    0    0    0    0 -0.00000000000E+00 -0.00000000000E+00 -0.45593999997E+02  0.45594000000E+02  0.51100000000E-03 0.  1.
    9900012    2    1    2    0    0  0.45521293617E+01 -0.46097699699E+01  0.31220974777E+02  0.59301935224E+02  0.49999983943E+02 0.  0.
        -12    1    1    2    0    0 -0.45521293617E+01  0.46097699699E+01 -0.31220974777E+02  0.31886064776E+02  0.00000000000E+00 0.  1.
         11    1    3    3    0    0 -0.28324374482E+01 -0.20542660646E+02  0.17691260322E+02  0.27258105224E+02  0.51100000000E-03 0. -1.
        -11    1    3    3    0    0  0.31197998355E+01  0.10511352577E+02  0.19857267848E+02  0.22683314808E+02  0.51100000000E-03 0.  1.
        -12    1    3    3    0    0  0.42647669743E+01  0.54215380996E+01 -0.63275533939E+01  0.93605151922E+01  0.00000000000E+00 0.  1.
</event>
<event>
 7    1  0.3755162E-013  0.5930193E+02  0.7816164E-02  0.1266605E+00
        -11   -1    0    0    0    0  0.00000000000E+00  0.00000000000E+00  0.45593999997E+02  0.45594000000E+02  0.51100000000E-03 0. -1.
         11   -1    0    0    0    0 -0.00000000000E+00 -0.00000000000E+00 -0.45593999997E+02  0.45594000000E+02  0.51100000000E-03 0.  1.
    9900012    2    1    2    0    0  0.31884796907E+02  0.23303054293E+00  0.16362395808E+00  0.59301931729E+02  0.49999977569E+02 0.  0.
        -12    1    1    2    0    0 -0.31884796907E+02 -0.23303054293E+00 -0.16362395808E+00  0.31886068271E+02  0.00000000000E+00 0.  1.
         11    1    3    3    0    0  0.88425455542E+01 -0.11075713730E+01  0.10423393870E+02  0.13713659842E+02  0.51100000000E-03 0. -1.
        -11    1    3    3    0    0  0.32473099999E+02  0.68112539252E+01 -0.52610065034E+01  0.33594249408E+02  0.51100000000E-03 0.  1.
         12    1    3    3    0    0 -0.94308486469E+01 -0.54706520093E+01 -0.49987634084E+01  0.11994022479E+02  0.00000000000E+00 0. -1.
</event>
<event>
 7    1  0.3755162E-013  0.5930194E+02  0.7816164E-02  0.1266605E+00
        -11   -1    0    0    0    0  0.00000000000E+00  0.00000000000E+00  0.45593999997E+02  0.45594000000E+02  0.51100000000E-03 0.  1.
         11   -1    0    0    0    0 -0.00000000000E+00 -0.00000000000E+00 -0.45593999997E+02  0.45594000000E+02  0.51100000000E-03 0. -1.
    9900012    2    1    2    0    0  0.24826361417E+02  0.18476531146E+01 -0.19923819506E+02  0.59301943064E+02  0.49999998243E+02 0.  0.
        -12    1    1    2    0    0 -0.24826361417E+02 -0.18476531146E+01  0.19923819506E+02  0.31886056936E+02  0.00000000000E+00 0.  1.
         11    1    3    3    0    0  0.15502007196E+02  0.10229646657E+02 -0.34491141766E+02  0.39173929576E+02  0.51100000000E-03 0. -1.
        -11    1    3    3    0    0  0.11142393564E+01 -0.45298983432E+01  0.64272913764E+01  0.79417619608E+01  0.51100000000E-03 0.  1.
        -12    1    3    3    0    0  0.82101148638E+01 -0.38520951996E+01  0.81400308835E+01  0.12186251527E+02  0.00000000000E+00 0.  1.
</event>
<event>
 7    1  0.3755162E-013  0.5930196E+02  0.7816164E-02  0.1266605E+00
        -11   -1    0    0    0    0  0.00000000000E+00  0.00000000000E+00  0.45593999997E+02  0.45594000000E+02  0.51100000000E-03 0.  1.
         11   -1    0    0    0    0 -0.00000000000E+00 -0.00000000000E+00 -0.45593999997E+02  0.45594000000E+02  0.51100000000E-03 0. -1.
    9900012    2    1    2    0    0  0.17269882736E+02 -0.24988184483E+02 -0.96985198370E+01  0.59301960727E+02  0.50000030456E+02 0.  0.
        -12    1    1    2    0    0 -0.17269882736E+02  0.24988184483E+02  0.96985198370E+01  0.31886039273E+02  0.00000000000E+00 0.  1.
         11    1    3    3    0    0  0.57733530823E+01  0.40668279689E+01  0.10042866147E+02  0.12277208814E+02  0.51100000000E-03 0.  1.
        -11    1    3    3    0    0 -0.81710268480E+01 -0.13725097261E+02 -0.13309692103E+01  0.16028582404E+02  0.51100000000E-03 0. -1.
         12    1    3    3    0    0  0.19667556502E+02 -0.15329915191E+02 -0.18410416774E+02  0.30996169510E+02  0.00000000000E+00 0. -1.
</event>
<event>
 7    1  0.3755162E-013  0.5930197E+02  0.7816164E-02  0.1266605E+00
        -11   -1    0    0    0    0  0.00000000000E+00  0.00000000000E+00  0.45593999997E+02  0.45594000000E+02  0.51100000000E-03 0.  1.
         11   -1    0    0    0    0 -0.00000000000E+00 -0.00000000000E+00 -0.45593999997E+02  0.45594000000E+02  0.51100000000E-03 0. -1.
    9900012    2    1    2    0    0 -0.28410239040E+02  0.14475012913E+02 -0.22673161153E+00  0.59301967190E+02  0.50000042242E+02 0.  0.
        -12    1    1    2    0    0  0.28410239040E+02 -0.14475012913E+02  0.22673161153E+00  0.31886032810E+02  0.00000000000E+00 0.  1.
         11    1    3    3    0    0 -0.29787585157E+02 -0.40025850229E+01  0.11437341873E+02  0.32157949340E+02  0.51100000000E-03 0. -1.
        -11    1    3    3    0    0 -0.21083261866E+01  0.10456655792E+02  0.20658769846E+01  0.10865290499E+02  0.51100000000E-03 0.  1.
        -12    1    3    3    0    0  0.34856723030E+01  0.80209421435E+01 -0.13729950469E+02  0.16278727351E+02  0.00000000000E+00 0.  1.
</event>
<event>
 7    1  0.3755162E-013  0.5930193E+02  0.7816164E-02  0.1266605E+00
        -11   -1    0    0    0    0  0.00000000000E+00  0.00000000000E+00  0.45593999997E+02  0.45594000000E+02  0.51100000000E-03 0. -1.
         11   -1    0    0    0    0 -0.00000000000E+00 -0.00000000000E+00 -0.45593999997E+02  0.45594000000E+02  0.51100000000E-03 0.  1.
    9900012    2    1    2    0    0 -0.10868380355E+02  0.29802944678E+02  0.32224658455E+01  0.59301929543E+02  0.49999973584E+02 0.  0.
        -12    1    1    2    0    0  0.10868380355E+02 -0.29802944678E+02 -0.32224658455E+01  0.31886070457E+02  0.00000000000E+00 0.  1.
         11    1    3    3    0    0 -0.11545973076E+02  0.26914981702E+01  0.55747305785E+01  0.13100812111E+02  0.51100000000E-03 0. -1.
        -11    1    3    3    0    0  0.29056681052E+01  0.10734821899E+02  0.17273043773E+02  0.20543547644E+02  0.51100000000E-03 0.  1.
        -12    1    3    3    0    0 -0.22280753846E+01  0.16376624609E+02 -0.19625308506E+02  0.25657569789E+02  0.00000000000E+00 0.  1.
</event>
<event>
 7    1  0.3755162E-013  0.5930198E+02  0.7816164E-02  0.1266605E+00
        -11   -1    0    0    0    0  0.00000000000E+00  0.00000000000E+00  0.45593999997E+02  0.45594000000E+02  0.51100000000E-03 0. -1.
         11   -1    0    0    0    0 -0.00000000000E+00 -0.00000000000E+00 -0.45593999997E+02  0.45594000000E+02  0.51100000000E-03 0.  1.
    9900012    2    1    2    0    0 -0.21032797700E+02 -0.18125305545E+02  0.15678416210E+02  0.59301984020E+02  0.50000072936E+02 0.  0.
        -12    1    1    2    0    0  0.21032797700E+02  0.18125305545E+02 -0.15678416210E+02  0.31886015980E+02  0.00000000000E+00 0.  1.
         11    1    3    3    0    0 -0.12194066796E+02 -0.32518379150E+01  0.62483003394E+01  0.14082292862E+02  0.51100000000E-03 0. -1.
        -11    1    3    3    0    0 -0.24048202099E+02 -0.49526016587E+01 -0.42939740179E+00  0.24556642070E+02  0.51100000000E-03 0.  1.
         12    1    3    3    0    0  0.15209471195E+02 -0.99208659718E+01  0.98595132725E+01  0.20663049088E+02  0.00000000000E+00 0. -1.
</event>
<event>
 7    1  0.3755162E-013  0.5930193E+02  0.7816164E-02  0.1266605E+00
        -11   -1    0    0    0    0  0.00000000000E+00  0.00000000000E+00  0.45593999997E+02  0.45594000000E+02  0.51100000000E-03 0.  1.
         11   -1    0    0    0    0 -0.00000000000E+00 -0.00000000000E+00 -0.45593999997E+02  0.45594000000E+02  0.51100000000E-03 0. -1.
    9900012    2    1    2    0    0  0.21856946970E+02 -0.11650998452E+02 -0.20081067205E+02  0.59301934770E+02  0.49999983116E+02 0.  0.
        -12    1    1    2    0    0 -0.21856946970E+02  0.11650998452E+02  0.20081067205E+02  0.31886065230E+02  0.00000000000E+00 0.  1.
         11    1    3    3    0    0  0.27386518259E+02 -0.62669064004E+01 -0.43215131832E+01  0.28424830248E+02  0.51100000000E-03 0. -1.
        -11    1    3    3    0    0  0.34335609336E+01  0.46546495479E+01 -0.16414048973E+02  0.17403336089E+02  0.51100000000E-03 0.  1.
        -12    1    3    3    0    0 -0.89631322226E+01 -0.10038741599E+02  0.65449495043E+00  0.13473768432E+02  0.00000000000E+00 0.  1.
</event>
<event>
 7    1  0.3755162E-013  0.5930196E+02  0.7816164E-02  0.1266605E+00
        -11   -1    0    0    0    0  0.00000000000E+00  0.00000000000E+00  0.45593999997E+02  0.45594000000E+02  0.51100000000E-03 0.  1.
         11   -1    0    0    0    0 -0.00000000000E+00 -0.00000000000E+00 -0.45593999997E+02  0.45594000000E+02  0.51100000000E-03 0. -1.
    9900012    2    1    2    0    0 -0.30733021176E+02  0.84912658190E+01  0.31526960066E+00  0.59301959469E+02  0.50000028162E+02 0.  0.
        -12    1    1    2    0    0  0.30733021176E+02 -0.84912658190E+01 -0.31526960066E+00  0.31886040531E+02  0.00000000000E+00 0.  1.
         11    1    3    3    0    0 -0.10627448721E+02  0.81086278611E+01 -0.88698602294E+01  0.16042659781E+02  0.51100000000E-03 0. -1.
        -11    1    3    3    0    0 -0.12886109891E+02 -0.17701522203E+02  0.40377568682E+00  0.21898829912E+02  0.51100000000E-03 0.  1.
         12    1    3    3    0    0 -0.72194625634E+01  0.18084160161E+02  0.87813541433E+01  0.21360469776E+02  0.00000000000E+00 0. -1.
</event>
<event>
 7    1  0.3755162E-013  0.5930220E+02  0.7816164E-02  0.1266604E+00
        -11   -1    0    0    0    0  0.00000000000E+00  0.00000000000E+00  0.45593999997E+02  0.45594000000E+02  0.51100000000E-03 0.  1.
         11   -1    0    0    0    0 -0.00000000000E+00 -0.00000000000E+00 -0.45593999997E+02  0.45594000000E+02  0.51100000000E-03 0. -1.
    9900012    2    1    2    0    0 -0.28117806871E+02 -0.29459128146E+01 -0.14744985848E+02  0.59302202641E+02  0.50000471646E+02 0.  0.
        -12    1    1    2    0    0  0.28117806871E+02  0.29459128146E+01  0.14744985848E+02  0.31885797359E+02  0.00000000000E+00 0.  1.
         11    1    3    3    0    0  0.22720796390E+01  0.20101255876E+01 -0.23067989219E+01  0.38110723282E+01  0.51100000000E-03 0. -1.
        -11    1    3    3    0    0  0.83613742387E+01  0.77794575874E+01 -0.90287555073E+01  0.14558535839E+02  0.51100000000E-03 0.  1.
         12    1    3    3    0    0 -0.38751260749E+02 -0.12735495990E+02 -0.34094314189E+01  0.40932594473E+02  0.00000000000E+00 0. -1.
</event>
<event>
 7    1  0.3755162E-013  0.5930195E+02  0.7816164E-02  0.1266605E+00
        -11   -1    0    0    0    0  0.00000000000E+00  0.00000000000E+00  0.45593999997E+02  0.45594000000E+02  0.51100000000E-03 0. -1.
         11   -1    0    0    0    0 -0.00000000000E+00 -0.00000000000E+00 -0.45593999997E+02  0.45594000000E+02  0.51100000000E-03 0.  1.
    9900012    2    1    2    0    0  0.10731063766E+02 -0.28297006152E+02 -0.10042119662E+02  0.59301945775E+02  0.50000003187E+02 0.  0.
        -12    1    1    2    0    0 -0.10731063766E+02  0.28297006152E+02  0.10042119662E+02  0.31886054225E+02  0.00000000000E+00 0.  1.
         11    1    3    3    0    0 -0.46947291506E+01 -0.93532795055E+01  0.40832463138E+00  0.10473349444E+02  0.51100000000E-03 0. -1.
        -11    1    3    3    0    0 -0.11165878797E+02 -0.16177052702E+00 -0.11798087779E+02  0.16244934426E+02  0.51100000000E-03 0.  1.
        -12    1    3    3    0    0  0.26591671713E+02 -0.18781956120E+02  0.13476434861E+01  0.32583661905E+02  0.00000000000E+00 0.  1.
</event>
<event>
 7    1  0.3755162E-013  0.5930193E+02  0.7816164E-02  0.1266605E+00
        -11   -1    0    0    0    0  0.00000000000E+00  0.00000000000E+00  0.45593999997E+02  0.45594000000E+02  0.51100000000E-03 0. -1.
         11   -1    0    0    0    0 -0.00000000000E+00 -0.00000000000E+00 -0.45593999997E+02  0.45594000000E+02  0.51100000000E-03 0.  1.
    9900012    2    1    2    0    0  0.11645100015E+02  0.42024712099E+01  0.29384556299E+02  0.59301933019E+02  0.49999979923E+02 0.  0.
        -12    1    1    2    0    0 -0.11645100015E+02 -0.42024712099E+01 -0.29384556299E+02  0.31886066981E+02  0.00000000000E+00 0.  1.
         11    1    3    3    0    0  0.20233321080E+02  0.22285011073E+02  0.21160643121E+02  0.36793774175E+02  0.51100000000E-03 0.  1.
        -11    1    3    3    0    0 -0.44290124076E+01 -0.48814789431E+01  0.50621132028E+01  0.83108349712E+01  0.51100000000E-03 0. -1.
        -12    1    3    3    0    0 -0.41592086576E+01 -0.13201060920E+02  0.31617999746E+01  0.14197323873E+02  0.00000000000E+00 0.  1.
</event>
<event>
 7    1  0.3755162E-013  0.5930201E+02  0.7816164E-02  0.1266605E+00
        -11   -1    0    0    0    0  0.00000000000E+00  0.00000000000E+00  0.45593999997E+02  0.45594000000E+02  0.51100000000E-03 0. -1.
         11   -1    0    0    0    0 -0.00000000000E+00 -0.00000000000E+00 -0.45593999997E+02  0.45594000000E+02  0.51100000000E-03 0.  1.
    9900012    2    1    2    0    0  0.23166085482E+02  0.13183680196E+02  0.17499695772E+02  0.59302011037E+02  0.50000122208E+02 0.  0.
        -12    1    1    2    0    0 -0.23166085482E+02 -0.13183680196E+02 -0.17499695772E+02  0.31885988963E+02  0.00000000000E+00 0.  1.
         11    1    3    3    0    0  0.66494280735E+01 -0.34406583920E+01  0.70294494770E+01  0.10269673027E+02  0.51100000000E-03 0.  1.
        -11    1    3    3    0    0 -0.56132040195E+00  0.10683151202E+02  0.24113993612E+02  0.26380475515E+02  0.51100000000E-03 0. -1.
         12    1    3    3    0    0  0.17077977810E+02  0.59411873857E+01 -0.13643747317E+02  0.22651862495E+02  0.00000000000E+00 0. -1.
</event>
<event>
 7    1  0.3755162E-013  0.5930194E+02  0.7816164E-02  0.1266605E+00
        -11   -1    0    0    0    0  0.00000000000E+00  0.00000000000E+00  0.45593999997E+02  0.45594000000E+02  0.51100000000E-03 0.  1.
         11   -1    0    0    0    0 -0.00000000000E+00 -0.00000000000E+00 -0.45593999997E+02  0.45594000000E+02  0.51100000000E-03 0. -1.
    9900012    2    1    2    0    0  0.78646635451E-01  0.31657458389E+02 -0.38105413015E+01  0.59301935929E+02  0.49999985230E+02 0.  0.
        -12    1    1    2    0    0 -0.78646635451E-01 -0.31657458389E+02  0.38105413015E+01  0.31886064071E+02  0.00000000000E+00 0.  1.
         11    1    3    3    0    0  0.78981607210E+01  0.12247366990E+02 -0.23791081813E+01  0.14766146991E+02  0.51100000000E-03 0. -1.
        -11    1    3    3    0    0  0.14709164532E+02  0.14449786377E+02 -0.49384095779E+01  0.21202446485E+02  0.51100000000E-03 0.  1.
        -12    1    3    3    0    0 -0.22528678617E+02  0.49603050220E+01  0.35069764577E+01  0.23333342453E+02  0.00000000000E+00 0.  1.
</event>
<event>
 7    1  0.3755162E-013  0.5930195E+02  0.7816164E-02  0.1266605E+00
        -11   -1    0    0    0    0  0.00000000000E+00  0.00000000000E+00  0.45593999997E+02  0.45594000000E+02  0.51100000000E-03 0.  1.
         11   -1    0    0    0    0 -0.00000000000E+00 -0.00000000000E+00 -0.45593999997E+02  0.45594000000E+02  0.51100000000E-03 0. -1.
    9900012    2    1    2    0    0 -0.15214725662E+02  0.26008625751E+01 -0.27901036029E+02  0.59301950157E+02  0.50000011178E+02 0.  0.
        -12    1    1    2    0    0  0.15214725662E+02 -0.26008625751E+01  0.27901036029E+02  0.31886049843E+02  0.00000000000E+00 0.  1.
         11    1    3    3    0    0  0.78780606277E+01  0.83323378053E+00 -0.46124111734E+01  0.91669217778E+01  0.51100000000E-03 0. -1.
        -11    1    3    3    0    0  0.78685746991E+01  0.48334632924E+01  0.26726379084E+01  0.96135232275E+01  0.51100000000E-03 0.  1.
         12    1    3    3    0    0 -0.30961360989E+02 -0.30658344979E+01 -0.25961262764E+02  0.40521505152E+02  0.00000000000E+00 0. -1.
</event>
<event>
 7    1  0.3755162E-013  0.5930192E+02  0.7816164E-02  0.1266605E+00
        -11   -1    0    0    0    0  0.00000000000E+00  0.00000000000E+00  0.45593999997E+02  0.45594000000E+02  0.51100000000E-03 0.  1.
         11   -1    0    0    0    0 -0.00000000000E+00 -0.00000000000E+00 -0.45593999997E+02  0.45594000000E+02  0.51100000000E-03 0. -1.
    9900012    2    1    2    0    0  0.23648136660E+02  0.19282560959E+02 -0.92558407207E+01  0.59301919776E+02  0.49999955770E+02 0.  0.
        -12    1    1    2    0    0 -0.23648136660E+02 -0.19282560959E+02  0.92558407207E+01  0.31886080224E+02  0.00000000000E+00 0.  1.
         11    1    3    3    0    0 -0.28614223708E+01  0.55462487561E+00 -0.84558238358E+00  0.30348569267E+01  0.51100000000E-03 0. -1.
        -11    1    3    3    0    0 -0.45216908917E+01 -0.28521075894E-01  0.13270817546E+02  0.14020024984E+02  0.51100000000E-03 0.  1.
        -12    1    3    3    0    0  0.31031249922E+02  0.18756457159E+02 -0.21681075883E+02  0.42247037865E+02  0.00000000000E+00 0.  1.
</event>
<event>
 7    1  0.3755162E-013  0.5930196E+02  0.7816164E-02  0.1266605E+00
        -11   -1    0    0    0    0  0.00000000000E+00  0.00000000000E+00  0.45593999997E+02  0.45594000000E+02  0.51100000000E-03 0. -1.
         11   -1    0    0    0    0 -0.00000000000E+00 -0.00000000000E+00 -0.45593999997E+02  0.45594000000E+02  0.51100000000E-03 0.  1.
    9900012    2    1    2    0    0 -0.30801055642E+02 -0.50293034199E+01 -0.65360891381E+01  0.59301962573E+02  0.50000033823E+02 0.  0.
        -12    1    1    2    0    0  0.30801055642E+02  0.50293034199E+01  0.65360891381E+01  0.31886037427E+02  0.00000000000E+00 0.  1.
         11    1    3    3    0    0 -0.33350673492E+02 -0.66932832294E+01  0.51822483398E+01  0.34408184504E+02  0.51100000000E-03 0. -1.
        -11    1    3    3    0    0 -0.36254473525E+01 -0.24223440631E+01 -0.15833170077E+02  0.16422572703E+02  0.51100000000E-03 0.  1.
        -12    1    3    3    0    0  0.61750652020E+01  0.40863238726E+01  0.41148325986E+01  0.84712053662E+01  0.00000000000E+00 0.  1.
</event>
<event>
 7    1  0.3755162E-013  0.5930192E+02  0.7816164E-02  0.1266605E+00
        -11   -1    0    0    0    0  0.00000000000E+00  0.00000000000E+00  0.45593999997E+02  0.45594000000E+02  0.51100000000E-03 0. -1.
         11   -1    0    0    0    0 -0.00000000000E+00 -0.00000000000E+00 -0.45593999997E+02  0.45594000000E+02  0.51100000000E-03 0.  1.
    9900012    2    1    2    0    0 -0.10183595059E+02  0.29461217658E+02 -0.67121851763E+01  0.59301915511E+02  0.49999947993E+02 0.  0.
        -12    1    1    2    0    0  0.10183595059E+02 -0.29461217658E+02  0.67121851763E+01  0.31886084489E+02  0.00000000000E+00 0.  1.
         11    1    3    3    0    0 -0.91882140826E+00 -0.84937753517E+01 -0.72181366634E+01  0.11184361835E+02  0.51100000000E-03 0. -1.
        -11    1    3    3    0    0 -0.13875816664E+02  0.95433180668E+01  0.75946613410E+01  0.18474092372E+02  0.51100000000E-03 0.  1.
        -12    1    3    3    0    0  0.46110430131E+01  0.28411674943E+02 -0.70887098539E+01  0.29643461304E+02  0.00000000000E+00 0.  1.
</event>
<event>
 7    1  0.3755162E-013  0.5930195E+02  0.7816164E-02  0.1266605E+00
        -11   -1    0    0    0    0  0.00000000000E+00  0.00000000000E+00  0.45593999997E+02  0.45594000000E+02  0.51100000000E-03 0. -1.
         11   -1    0    0    0    0 -0.00000000000E+00 -0.00000000000E+00 -0.45593999997E+02  0.45594000000E+02  0.51100000000E-03 0.  1.
    9900012    2    1    2    0    0  0.16594656630E+02  0.14800579282E+02  0.22853460094E+02  0.59301946403E+02  0.50000004331E+02 0.  0.
        -12    1    1    2    0    0 -0.16594656630E+02 -0.14800579282E+02 -0.22853460094E+02  0.31886053597E+02  0.00000000000E+00 0.  1.
         11    1    3    3    0    0  0.43344179108E+01 -0.23562993100E+01 -0.66307361405E+00  0.49778501326E+01  0.51100000000E-03 0. -1.
        -11    1    3    3    0    0  0.61135336691E+01  0.59095924473E+01 -0.13050338716E+02  0.15575940347E+02  0.51100000000E-03 0.  1.
        -12    1    3    3    0    0  0.61467050496E+01  0.11247286145E+02  0.36566872424E+02  0.38748155924E+02  0.00000000000E+00 0.  1.
</event>
<event>
 7    1  0.3755162E-013  0.5930195E+02  0.7816164E-02  0.1266605E+00
        -11   -1    0    0    0    0  0.00000000000E+00  0.00000000000E+00  0.45593999997E+02  0.45594000000E+02  0.51100000000E-03 0.  1.
         11   -1    0    0    0    0 -0.00000000000E+00 -0.00000000000E+00 -0.45593999997E+02  0.45594000000E+02  0.51100000000E-03 0. -1.
    9900012    2    1    2    0    0 -0.53479054626E+01  0.93264252775E+01 -0.30018962486E+02  0.59301946465E+02  0.50000004445E+02 0.  0.
        -12    1    1    2    0    0  0.53479054626E+01 -0.93264252775E+01  0.30018962486E+02  0.31886053535E+02  0.00000000000E+00 0.  1.
         11    1    3    3    0    0 -0.68053041625E+01  0.24557728437E+02 -0.82280853344E+01  0.26778640355E+02  0.51100000000E-03 0. -1.
        -11    1    3    3    0    0  0.39250972131E+00 -0.59738336049E+01  0.25141081693E+01  0.64931881205E+01  0.51100000000E-03 0.  1.
        -12    1    3    3    0    0  0.10648889786E+01 -0.92574695547E+01 -0.24304985321E+02  0.26030117989E+02  0.00000000000E+00 0.  1.
</event>
<event>
 7    1  0.3755162E-013  0.5930190E+02  0.7816164E-02  0.1266605E+00
        -11   -1    0    0    0    0  0.00000000000E+00  0.00000000000E+00  0.45593999997E+02  0.45594000000E+02  0.51100000000E-03 0.  1.
         11   -1    0    0    0    0 -0.00000000000E+00 -0.00000000000E+00 -0.45593999997E+02  0.45594000000E+02  0.51100000000E-03 0. -1.
    9900012    2    1    2    0    0 -0.22040048754E+01 -0.16353743868E+02 -0.27284076781E+02  0.59301899239E+02  0.49999918316E+02 0.  0.
        -12    1    1    2    0    0  0.22040048754E+01  0.16353743868E+02  0.27284076781E+02  0.31886100761E+02  0.00000000000E+00 0.  1.
         11    1    3    3    0    0  0.15151065659E+02  0.16804908507E+01 -0.76861219313E-01  0.15244170952E+02  0.51100000000E-03 0. -1.
        -11    1    3    3    0    0  0.29028457265E+01  0.35043921895E+01 -0.12675905275E+01  0.47237764486E+01  0.51100000000E-03 0.  1.
         12    1    3    3    0    0 -0.20257916261E+02 -0.21538626908E+02 -0.25939625034E+02  0.39333951838E+02  0.00000000000E+00 0. -1.
</event>
<event>
 7    1  0.3755162E-013  0.5930195E+02  0.7816164E-02  0.1266605E+00
        -11   -1    0    0    0    0  0.00000000000E+00  0.00000000000E+00  0.45593999997E+02  0.45594000000E+02  0.51100000000E-03 0.  1.
         11   -1    0    0    0    0 -0.00000000000E+00 -0.00000000000E+00 -0.45593999997E+02  0.45594000000E+02  0.51100000000E-03 0. -1.
    9900012    2    1    2    0    0  0.13688077393E+02  0.47152828754E+01 -0.28409907647E+02  0.59301949636E+02  0.50000010229E+02 0.  0.
        -12    1    1    2    0    0 -0.13688077393E+02 -0.47152828754E+01  0.28409907647E+02  0.31886050364E+02  0.00000000000E+00 0.  1.
         11    1    3    3    0    0  0.76141109511E+01  0.17407943496E+02  0.48519442218E+00  0.19006488266E+02  0.51100000000E-03 0. -1.
        -11    1    3    3    0    0  0.60990706973E+01  0.52049550151E+01 -0.24891022660E+01  0.83955851751E+01  0.51100000000E-03 0.  1.
        -12    1    3    3    0    0 -0.25104255600E-01 -0.17897615636E+02 -0.26405999803E+02  0.31899876195E+02  0.00000000000E+00 0.  1.
</event>
<event>
 7    1  0.3755162E-013  0.5930193E+02  0.7816164E-02  0.1266605E+00
        -11   -1    0    0    0    0  0.00000000000E+00  0.00000000000E+00  0.45593999997E+02  0.45594000000E+02  0.51100000000E-03 0.  1.
         11   -1    0    0    0    0 -0.00000000000E+00 -0.00000000000E+00 -0.45593999997E+02  0.45594000000E+02  0.51100000000E-03 0. -1.
    9900012    2    1    2    0    0  0.12366126462E+02  0.29237830827E+02  0.29916094767E+01  0.59301928395E+02  0.49999971489E+02 0.  0.
        -12    1    1    2    0    0 -0.12366126462E+02 -0.29237830827E+02 -0.29916094767E+01  0.31886071605E+02  0.00000000000E+00 0.  1.
         11    1    3    3    0    0  0.12328376523E+02 -0.14298181083E+00 -0.77842371577E+01  0.14580934809E+02  0.51100000000E-03 0. -1.
        -11    1    3    3    0    0  0.13752302238E+02  0.16346822761E+02 -0.26433150720E+01  0.21525137539E+02  0.51100000000E-03 0.  1.
        -12    1    3    3    0    0 -0.13714552299E+02  0.13033989877E+02  0.13419161706E+02  0.23195856048E+02  0.00000000000E+00 0.  1.
</event>
<event>
 7    1  0.3755162E-013  0.5930192E+02  0.7816164E-02  0.1266605E+00
        -11   -1    0    0    0    0  0.00000000000E+00  0.00000000000E+00  0.45593999997E+02  0.45594000000E+02  0.51100000000E-03 0. -1.
         11   -1    0    0    0    0 -0.00000000000E+00 -0.00000000000E+00 -0.45593999997E+02  0.45594000000E+02  0.51100000000E-03 0.  1.
    9900012    2    1    2    0    0  0.42531283203E+01 -0.20719413694E+02  0.23860819420E+02  0.59301922980E+02  0.49999961614E+02 0.  0.
        -12    1    1    2    0    0 -0.42531283203E+01  0.20719413694E+02 -0.23860819420E+02  0.31886077020E+02  0.00000000000E+00 0.  1.
         11    1    3    3    0    0 -0.33990992078E+01  0.85438135107E+01  0.12210042134E+02  0.15285148148E+02  0.51100000000E-03 0. -1.
        -11    1    3    3    0    0  0.17425511416E+02 -0.17806029555E+02 -0.10196047982E+00  0.24914123160E+02  0.51100000000E-03 0.  1.
         12    1    3    3    0    0 -0.97732838878E+01 -0.11457197649E+02  0.11752737766E+02  0.19102651673E+02  0.00000000000E+00 0. -1.
</event>
<event>
 7    1  0.3755162E-013  0.5930194E+02  0.7816164E-02  0.1266605E+00
        -11   -1    0    0    0    0  0.00000000000E+00  0.00000000000E+00  0.45593999997E+02  0.45594000000E+02  0.51100000000E-03 0. -1.
         11   -1    0    0    0    0 -0.00000000000E+00 -0.00000000000E+00 -0.45593999997E+02  0.45594000000E+02  0.51100000000E-03 0.  1.
    9900012    2    1    2    0    0 -0.14190670942E+02  0.28087509738E+02  0.51417501191E+01  0.59301938165E+02  0.49999989307E+02 0.  0.
        -12    1    1    2    0    0  0.14190670942E+02 -0.28087509738E+02 -0.51417501191E+01  0.31886061835E+02  0.00000000000E+00 0.  1.
         11    1    3    3    0    0 -0.52385375197E+01 -0.84949401426E+00  0.41337342667E+00  0.53230436102E+01  0.51100000000E-03 0. -1.
        -11    1    3    3    0    0 -0.18792963818E+02  0.40480483593E+01  0.15928982093E+02  0.24965869810E+02  0.51100000000E-03 0.  1.
         12    1    3    3    0    0  0.98408303962E+01  0.24888955393E+02 -0.11200605401E+02  0.29013024744E+02  0.00000000000E+00 0. -1.
</event>
<event>
 7    1  0.3755162E-013  0.5930193E+02  0.7816164E-02  0.1266605E+00
        -11   -1    0    0    0    0  0.00000000000E+00  0.00000000000E+00  0.45593999997E+02  0.45594000000E+02  0.51100000000E-03 0. -1.
         11   -1    0    0    0    0 -0.00000000000E+00 -0.00000000000E+00 -0.45593999997E+02  0.45594000000E+02  0.51100000000E-03 0.  1.
    9900012    2    1    2    0    0  0.56097966954E+01  0.47108678323E+01  0.31033196060E+02  0.59301931688E+02  0.49999977495E+02 0.  0.
        -12    1    1    2    0    0 -0.56097966954E+01 -0.47108678323E+01 -0.31033196060E+02  0.31886068312E+02  0.00000000000E+00 0.  1.
         11    1    3    3    0    0  0.93270261912E+01 -0.42818464711E+00 -0.66638057674E+01  0.11470966273E+02  0.51100000000E-03 0. -1.
        -11    1    3    3    0    0  0.35847863668E+01  0.11149727177E+02  0.33150855521E+01  0.12171971981E+02  0.51100000000E-03 0.  1.
         12    1    3    3    0    0 -0.73020158625E+01 -0.60106746981E+01  0.34381916275E+02  0.35658993434E+02  0.00000000000E+00 0. -1.
</event>
<event>
 7    1  0.3755162E-013  0.5930194E+02  0.7816164E-02  0.1266605E+00
        -11   -1    0    0    0    0  0.00000000000E+00  0.00000000000E+00  0.45593999997E+02  0.45594000000E+02  0.51100000000E-03 0. -1.
         11   -1    0    0    0    0 -0.00000000000E+00 -0.00000000000E+00 -0.45593999997E+02  0.45594000000E+02  0.51100000000E-03 0.  1.
    9900012    2    1    2    0    0 -0.28269413691E+02 -0.14727115018E+02 -0.82050741039E+00  0.59301938789E+02  0.49999990446E+02 0.  0.
        -12    1    1    2    0    0  0.28269413691E+02  0.14727115018E+02  0.82050741039E+00  0.31886061211E+02  0.00000000000E+00 0.  1.
         11    1    3    3    0    0 -0.12192801305E+02  0.67300578678E+01  0.18846881554E+01  0.14053829808E+02  0.51100000000E-03 0. -1.
        -11    1    3    3    0    0 -0.21747147423E+02  0.11341674608E+01  0.18389817420E+00  0.21777478634E+02  0.51100000000E-03 0.  1.
        -12    1    3    3    0    0  0.56705350372E+01 -0.22591340346E+02 -0.28890937400E+01  0.23470630347E+02  0.00000000000E+00 0.  1.
</event>
<event>
 7    1  0.3755162E-013  0.5930192E+02  0.7816164E-02  0.1266605E+00
        -11   -1    0    0    0    0  0.00000000000E+00  0.00000000000E+00  0.45593999997E+02  0.45594000000E+02  0.51100000000E-03 0. -1.
         11   -1    0    0    0    0 -0.00000000000E+00 -0.00000000000E+00 -0.45593999997E+02  0.45594000000E+02  0.51100000000E-03 0.  1.
    9900012    2    1    2    0    0 -0.18248537615E+02 -0.76522333879E+01  0.25003120786E+02  0.59301923886E+02  0.49999963266E+02 0.  0.
        -12    1    1    2    0    0  0.18248537615E+02  0.76522333879E+01 -0.25003120786E+02  0.31886076114E+02  0.00000000000E+00 0.  1.
         11    1    3    3    0    0  0.11157987835E+02  0.79470562341E+01  0.51495294107E+01  0.14634686492E+02  0.51100000000E-03 0. -1.
        -11    1    3    3    0    0 -0.57381116058E+01 -0.14964302690E+02  0.10761707246E+02  0.19304678782E+02  0.51100000000E-03 0.  1.
        -12    1    3    3    0    0 -0.23668413844E+02 -0.63498693241E+00  0.90918841295E+01  0.25362558612E+02  0.00000000000E+00 0.  1.
</event>
<event>
 7    1  0.3755162E-013  0.5930195E+02  0.7816164E-02  0.1266605E+00
        -11   -1    0    0    0    0  0.00000000000E+00  0.00000000000E+00  0.45593999997E+02  0.45594000000E+02  0.51100000000E-03 0. -1.
         11   -1    0    0    0    0 -0.00000000000E+00 -0.00000000000E+00 -0.45593999997E+02  0.45594000000E+02  0.51100000000E-03 0.  1.
    9900012    2    1    2    0    0  0.23735436905E+02  0.19607187603E+02  0.83010585461E+01  0.59301947505E+02  0.50000006341E+02 0.  0.
        -12    1    1    2    0    0 -0.23735436905E+02 -0.19607187603E+02 -0.83010585461E+01  0.31886052495E+02  0.00000000000E+00 0.  1.
         11    1    3    3    0    0  0.83097867150E+01  0.35159341937E+01 -0.30387853974E+01  0.95209540202E+01  0.51100000000E-03 0. -1.
        -11    1    3    3    0    0 -0.11153082625E+02 -0.11849470613E+01 -0.69386616964E+01  0.13188645798E+02  0.51100000000E-03 0.  1.
         12    1    3    3    0    0  0.26578732815E+02  0.17276200471E+02  0.18278505640E+02  0.36592347686E+02  0.00000000000E+00 0. -1.
</event>
<event>
 7    1  0.3755162E-013  0.5930197E+02  0.7816164E-02  0.1266605E+00
        -11   -1    0    0    0    0  0.00000000000E+00  0.00000000000E+00  0.45593999997E+02  0.45594000000E+02  0.51100000000E-03 0.  1.
         11   -1    0    0    0    0 -0.00000000000E+00 -0.00000000000E+00 -0.45593999997E+02  0.45594000000E+02  0.51100000000E-03 0. -1.
    9900012    2    1    2    0    0 -0.13048521481E+02 -0.28834005074E+02  0.38801047952E+01  0.59301968973E+02  0.50000045494E+02 0.  0.
        -12    1    1    2    0    0  0.13048521481E+02  0.28834005074E+02 -0.38801047952E+01  0.31886031027E+02  0.00000000000E+00 0.  1.
         11    1    3    3    0    0 -0.55337326726E+01  0.99943414932E+00  0.28900364592E+01  0.63224502297E+01  0.51100000000E-03 0. -1.
        -11    1    3    3    0    0 -0.60718221501E+01  0.75020914772E+01  0.10665123419E+02  0.14383784570E+02  0.51100000000E-03 0.  1.
        -12    1    3    3    0    0 -0.14429666579E+01 -0.37335530701E+02 -0.96750550835E+01  0.38595734173E+02  0.00000000000E+00 0.  1.
</event>
<event>
 7    1  0.3755162E-013  0.5930197E+02  0.7816164E-02  0.1266605E+00
        -11   -1    0    0    0    0  0.00000000000E+00  0.00000000000E+00  0.45593999997E+02  0.45594000000E+02  0.51100000000E-03 0.  1.
         11   -1    0    0    0    0 -0.00000000000E+00 -0.00000000000E+00 -0.45593999997E+02  0.45594000000E+02  0.51100000000E-03 0. -1.
    9900012    2    1    2    0    0  0.26233281278E+02 -0.15708987668E+02  0.90422191655E+01  0.59301967516E+02  0.50000042837E+02 0.  0.
        -12    1    1    2    0    0 -0.26233281278E+02  0.15708987668E+02 -0.90422191655E+01  0.31886032484E+02  0.00000000000E+00 0.  1.
         11    1    3    3    0    0  0.42375201197E+01 -0.67739287829E+01  0.15597122497E+01  0.81409698736E+01  0.51100000000E-03 0. -1.
        -11    1    3    3    0    0  0.11107136881E+01 -0.23172869635E+02 -0.37508970927E+01  0.23500740442E+02  0.51100000000E-03 0.  1.
         12    1    3    3    0    0  0.20885047470E+02  0.14237810751E+02  0.11233404008E+02  0.27660257201E+02  0.00000000000E+00 0. -1.
</event>
<event>
 7    1  0.3755162E-013  0.5930198E+02  0.7816164E-02  0.1266605E+00
        -11   -1    0    0    0    0  0.00000000000E+00  0.00000000000E+00  0.45593999997E+02  0.45594000000E+02  0.51100000000E-03 0.  1.
         11   -1    0    0    0    0 -0.00000000000E+00 -0.00000000000E+00 -0.45593999997E+02  0.45594000000E+02  0.51100000000E-03 0. -1.
    9900012    2    1    2    0    0  0.18394936950E+02 -0.49302900167E+01 -0.25574142209E+02  0.59301980889E+02  0.50000067226E+02 0.  0.
        -12    1    1    2    0    0 -0.18394936950E+02  0.49302900167E+01  0.25574142209E+02  0.31886019111E+02  0.00000000000E+00 0.  1.
         11    1    3    3    0    0  0.67308503155E+01  0.71903612637E+01  0.22183315080E+01  0.10095872226E+02  0.51100000000E-03 0. -1.
        -11    1    3    3    0    0  0.64370475545E+01 -0.22143265705E+02 -0.47552935862E+01  0.23545118701E+02  0.51100000000E-03 0.  1.
         12    1    3    3    0    0  0.52270390798E+01  0.10022614425E+02 -0.23037180130E+02  0.25660989961E+02  0.00000000000E+00 0. -1.
</event>
<event>
 7    1  0.3755162E-013  0.5930199E+02  0.7816164E-02  0.1266605E+00
        -11   -1    0    0    0    0  0.00000000000E+00  0.00000000000E+00  0.45593999997E+02  0.45594000000E+02  0.51100000000E-03 0. -1.
         11   -1    0    0    0    0 -0.00000000000E+00 -0.00000000000E+00 -0.45593999997E+02  0.45594000000E+02  0.51100000000E-03 0.  1.
    9900012    2    1    2    0    0  0.70867412692E+01  0.30618417467E+02  0.53859456706E+01  0.59301987381E+02  0.50000079065E+02 0.  0.
        -12    1    1    2    0    0 -0.70867412692E+01 -0.30618417467E+02 -0.53859456706E+01  0.31886012619E+02  0.00000000000E+00 0.  1.
         11    1    3    3    0    0 -0.86652492212E+01  0.10580008757E+02  0.86250123641E+01  0.16168301330E+02  0.51100000000E-03 0. -1.
        -11    1    3    3    0    0 -0.90468994476E+01  0.76948457876E+01 -0.89233789336E+01  0.14855427734E+02  0.51100000000E-03 0.  1.
        -12    1    3    3    0    0  0.24798889938E+02  0.12343562922E+02  0.56843122402E+01  0.28278258317E+02  0.00000000000E+00 0.  1.
</event>
<event>
 7    1  0.3755162E-013  0.5930194E+02  0.7816164E-02  0.1266605E+00
        -11   -1    0    0    0    0  0.00000000000E+00  0.00000000000E+00  0.45593999997E+02  0.45594000000E+02  0.51100000000E-03 0.  1.
         11   -1    0    0    0    0 -0.00000000000E+00 -0.00000000000E+00 -0.45593999997E+02  0.45594000000E+02  0.51100000000E-03 0. -1.
    9900012    2    1    2    0    0 -0.25966705062E+02 -0.10446328112E+02 -0.15274995584E+02  0.59301936698E+02  0.49999986633E+02 0.  0.
        -12    1    1    2    0    0  0.25966705062E+02  0.10446328112E+02  0.15274995584E+02  0.31886063302E+02  0.00000000000E+00 0.  1.
         11    1    3    3    0    0 -0.21280571350E+02 -0.20933482938E+02  0.14073294482E+01  0.29884009124E+02  0.51100000000E-03 0. -1.
        -11    1    3    3    0    0  0.38790039937E+01  0.51652505225E+01  0.31368226838E+01  0.71809568829E+01  0.51100000000E-03 0.  1.
        -12    1    3    3    0    0 -0.85651377059E+01  0.53219043035E+01 -0.19819147716E+02  0.22236970691E+02  0.00000000000E+00 0.  1.
</event>
<event>
 7    1  0.3755162E-013  0.5930198E+02  0.7816164E-02  0.1266605E+00
        -11   -1    0    0    0    0  0.00000000000E+00  0.00000000000E+00  0.45593999997E+02  0.45594000000E+02  0.51100000000E-03 0.  1.
         11   -1    0    0    0    0 -0.00000000000E+00 -0.00000000000E+00 -0.45593999997E+02  0.45594000000E+02  0.51100000000E-03 0. -1.
    9900012    2    1    2    0    0 -0.44126195589E+01  0.18983215971E+02 -0.25236574039E+02  0.59301978467E+02  0.50000062808E+02 0.  0.
        -12    1    1    2    0    0  0.44126195589E+01 -0.18983215971E+02  0.25236574039E+02  0.31886021533E+02  0.00000000000E+00 0.  1.
         11    1    3    3    0    0 -0.64758671361E+01  0.75702669295E+01 -0.96573772071E+01  0.13874823650E+02  0.51100000000E-03 0. -1.
        -11    1    3    3    0    0 -0.94817988024E+01 -0.13800332798E+01  0.10470898860E+02  0.14193263317E+02  0.51100000000E-03 0.  1.
         12    1    3    3    0    0  0.11545046380E+02  0.12792982322E+02 -0.26050095693E+02  0.31233891499E+02  0.00000000000E+00 0. -1.
</event>
<event>
 7    1  0.3755162E-013  0.5930179E+02  0.7816164E-02  0.1266605E+00
        -11   -1    0    0    0    0  0.00000000000E+00  0.00000000000E+00  0.45593999997E+02  0.45594000000E+02  0.51100000000E-03 0.  1.
         11   -1    0    0    0    0 -0.00000000000E+00 -0.00000000000E+00 -0.45593999997E+02  0.45594000000E+02  0.51100000000E-03 0. -1.
    9900012    2    1    2    0    0  0.19739811965E+02 -0.12423127314E+02 -0.21742500882E+02  0.59301786470E+02  0.49999712653E+02 0.  0.
        -12    1    1    2    0    0 -0.19739811965E+02  0.12423127314E+02  0.21742500882E+02  0.31886213530E+02  0.00000000000E+00 0.  1.
         11    1    3    3    0    0 -0.47444650049E+01 -0.35739427924E+01  0.83742404364E+01  0.10266981953E+02  0.51100000000E-03 0. -1.
        -11    1    3    3    0    0 -0.35577791509E+01 -0.41419989469E+00  0.31115357272E+01  0.47445767864E+01  0.51100000000E-03 0.  1.
         12    1    3    3    0    0  0.28042056120E+02 -0.84349846266E+01 -0.33228277045E+02  0.44290227732E+02  0.00000000000E+00 0. -1.
</event>
<event>
 7    1  0.3755162E-013  0.5930193E+02  0.7816164E-02  0.1266605E+00
        -11   -1    0    0    0    0  0.00000000000E+00  0.00000000000E+00  0.45593999997E+02  0.45594000000E+02  0.51100000000E-03 0.  1.
         11   -1    0    0    0    0 -0.00000000000E+00 -0.00000000000E+00 -0.45593999997E+02  0.45594000000E+02  0.51100000000E-03 0. -1.
    9900012    2    1    2    0    0  0.21102479642E+02  0.41551094454E+01 -0.23540223794E+02  0.59301925958E+02  0.49999967046E+02 0.  0.
        -12    1    1    2    0    0 -0.21102479642E+02 -0.41551094454E+01  0.23540223794E+02  0.31886074042E+02  0.00000000000E+00 0.  1.
         11    1    3    3    0    0  0.41919990203E+01  0.33054114754E+01 -0.12584223841E+02  0.13669721677E+02  0.51100000000E-03 0. -1.
        -11    1    3    3    0    0  0.30360599832E+02  0.23404382398E+01 -0.10062747970E+02  0.32070275494E+02  0.51100000000E-03 0.  1.
         12    1    3    3    0    0 -0.13450119210E+02 -0.14907402698E+01 -0.89325198355E+00  0.13561928787E+02  0.00000000000E+00 0. -1.
</event>
<event>
 7    1  0.3755162E-013  0.5930195E+02  0.7816164E-02  0.1266605E+00
        -11   -1    0    0    0    0  0.00000000000E+00  0.00000000000E+00  0.45593999997E+02  0.45594000000E+02  0.51100000000E-03 0.  1.
         11   -1    0    0    0    0 -0.00000000000E+00 -0.00000000000E+00 -0.45593999997E+02  0.45594000000E+02  0.51100000000E-03 0. -1.
    9900012    2    1    2    0    0 -0.65188618888E+01  0.29262892025E+02 -0.10858543366E+02  0.59301947030E+02  0.50000005476E+02 0.  0.
        -12    1    1    2    0    0  0.65188618888E+01 -0.29262892025E+02  0.10858543366E+02  0.31886052970E+02  0.00000000000E+00 0.  1.
         11    1    3    3    0    0 -0.10664110507E+02  0.94880667490E+01  0.37449738493E+01  0.14757082806E+02  0.51100000000E-03 0. -1.
        -11    1    3    3    0    0 -0.31076565718E+01 -0.33336147767E+01  0.93992795090E+01  0.10445906969E+02  0.51100000000E-03 0.  1.
        -12    1    3    3    0    0  0.72529051904E+01  0.23108440052E+02 -0.24002796724E+02  0.34098957256E+02  0.00000000000E+00 0.  1.
</event>
<event>
 7    1  0.3755162E-013  0.5930188E+02  0.7816164E-02  0.1266605E+00
        -11   -1    0    0    0    0  0.00000000000E+00  0.00000000000E+00  0.45593999997E+02  0.45594000000E+02  0.51100000000E-03 0.  1.
         11   -1    0    0    0    0 -0.00000000000E+00 -0.00000000000E+00 -0.45593999997E+02  0.45594000000E+02  0.51100000000E-03 0. -1.
    9900012    2    1    2    0    0 -0.86810914936E+01 -0.17124923080E+02 -0.25457815885E+02  0.59301878730E+02  0.49999880912E+02 0.  0.
        -12    1    1    2    0    0  0.86810914936E+01  0.17124923080E+02  0.25457815885E+02  0.31886121270E+02  0.00000000000E+00 0.  1.
         11    1    3    3    0    0 -0.45302345222E+01  0.91343461846E+01 -0.20009473850E+02  0.22457478689E+02  0.51100000000E-03 0. -1.
        -11    1    3    3    0    0  0.85734207083E+01 -0.33408797694E+01  0.23473262323E+01  0.94960497565E+01  0.51100000000E-03 0.  1.
        -12    1    3    3    0    0 -0.12724277680E+02 -0.22918389496E+02 -0.77956682677E+01  0.27348350284E+02  0.00000000000E+00 0.  1.
</event>
<event>
 7    1  0.3755162E-013  0.5930193E+02  0.7816164E-02  0.1266605E+00
        -11   -1    0    0    0    0  0.00000000000E+00  0.00000000000E+00  0.45593999997E+02  0.45594000000E+02  0.51100000000E-03 0.  1.
         11   -1    0    0    0    0 -0.00000000000E+00 -0.00000000000E+00 -0.45593999997E+02  0.45594000000E+02  0.51100000000E-03 0. -1.
    9900012    2    1    2    0    0 -0.10331851152E+02 -0.29800629130E+02  0.46794322191E+01  0.59301925757E+02  0.49999966678E+02 0.  0.
        -12    1    1    2    0    0  0.10331851152E+02  0.29800629130E+02 -0.46794322191E+01  0.31886074243E+02  0.00000000000E+00 0.  1.
         11    1    3    3    0    0  0.30752019513E+01 -0.77769096537E+01  0.10167173676E+02  0.13164672864E+02  0.51100000000E-03 0. -1.
        -11    1    3    3    0    0  0.18365688927E+01 -0.12932834510E+02  0.14426494569E+02  0.19461627362E+02  0.51100000000E-03 0.  1.
         12    1    3    3    0    0 -0.15243621996E+02 -0.90908849659E+01 -0.19914236025E+02  0.26675625531E+02  0.00000000000E+00 0. -1.
</event>
<event>
 7    1  0.3755162E-013  0.5930196E+02  0.7816164E-02  0.1266605E+00
        -11   -1    0    0    0    0  0.00000000000E+00  0.00000000000E+00  0.45593999997E+02  0.45594000000E+02  0.51100000000E-03 0.  1.
         11   -1    0    0    0    0 -0.00000000000E+00 -0.00000000000E+00 -0.45593999997E+02  0.45594000000E+02  0.51100000000E-03 0. -1.
    9900012    2    1    2    0    0  0.31673521526E+02 -0.29322036499E+00 -0.36635888429E+01  0.59301955604E+02  0.50000021112E+02 0.  0.
        -12    1    1    2    0    0 -0.31673521526E+02  0.29322036499E+00  0.36635888429E+01  0.31886044396E+02  0.00000000000E+00 0.  1.
         11    1    3    3    0    0 -0.83351063407E+01 -0.14973684507E+01 -0.67362351190E+00  0.84952856859E+01  0.51100000000E-03 0. -1.
        -11    1    3    3    0    0  0.17249683557E+02  0.11105969742E+02 -0.12729963649E+02  0.24144277200E+02  0.51100000000E-03 0.  1.
        -12    1    3    3    0    0  0.22758944310E+02 -0.99018216566E+01  0.97399983181E+01  0.26662392718E+02  0.00000000000E+00 0.  1.
</event>
<event>
 7    1  0.3755162E-013  0.5930194E+02  0.7816164E-02  0.1266605E+00
        -11   -1    0    0    0    0  0.00000000000E+00  0.00000000000E+00  0.45593999997E+02  0.45594000000E+02  0.51100000000E-03 0. -1.
         11   -1    0    0    0    0 -0.00000000000E+00 -0.00000000000E+00 -0.45593999997E+02  0.45594000000E+02  0.51100000000E-03 0.  1.
    9900012    2    1    2    0    0  0.26549571393E+02 -0.91887982728E+01  0.15080015506E+02  0.59301943133E+02  0.49999998368E+02 0.  0.
        -12    1    1    2    0    0 -0.26549571393E+02  0.91887982728E+01 -0.15080015506E+02  0.31886056867E+02  0.00000000000E+00 0.  1.
         11    1    3    3    0    0  0.40205078401E+01  0.61627279740E+01 -0.85958628239E+00  0.74082783568E+01  0.51100000000E-03 0. -1.
        -11    1    3    3    0    0  0.25479034211E+02  0.81226791244E+00  0.22692772931E+02  0.34129209001E+02  0.51100000000E-03 0.  1.
        -12    1    3    3    0    0 -0.29499706579E+01 -0.16163794159E+02 -0.67531711426E+01  0.17764455775E+02  0.00000000000E+00 0.  1.
</event>
<event>
 7    1  0.3755162E-013  0.5930193E+02  0.7816164E-02  0.1266605E+00
        -11   -1    0    0    0    0  0.00000000000E+00  0.00000000000E+00  0.45593999997E+02  0.45594000000E+02  0.51100000000E-03 0.  1.
         11   -1    0    0    0    0 -0.00000000000E+00 -0.00000000000E+00 -0.45593999997E+02  0.45594000000E+02  0.51100000000E-03 0. -1.
    9900012    2    1    2    0    0 -0.11627712142E+02  0.25207702920E+02 -0.15687229854E+02  0.59301934757E+02  0.49999983093E+02 0.  0.
        -12    1    1    2    0    0  0.11627712142E+02 -0.25207702920E+02  0.15687229854E+02  0.31886065243E+02  0.00000000000E+00 0.  1.
         11    1    3    3    0    0 -0.78052007175E+01  0.38575245179E+01 -0.55943243779E+01  0.10348822114E+02  0.51100000000E-03 0. -1.
        -11    1    3    3    0    0 -0.91997337757E+01  0.27347212998E+02  0.73202291586E+01  0.29767279276E+02  0.51100000000E-03 0.  1.
         12    1    3    3    0    0  0.53772223516E+01 -0.59970345959E+01 -0.17413134635E+02  0.19185833367E+02  0.00000000000E+00 0. -1.
</event>
<event>
 7    1  0.3755162E-013  0.5930193E+02  0.7816164E-02  0.1266605E+00
        -11   -1    0    0    0    0  0.00000000000E+00  0.00000000000E+00  0.45593999997E+02  0.45594000000E+02  0.51100000000E-03 0.  1.
         11   -1    0    0    0    0 -0.00000000000E+00 -0.00000000000E+00 -0.45593999997E+02  0.45594000000E+02  0.51100000000E-03 0. -1.
    9900012    2    1    2    0    0  0.25328746363E+02  0.17205071699E+02 -0.88972785970E+01  0.59301930143E+02  0.49999974678E+02 0.  0.
        -12    1    1    2    0    0 -0.25328746363E+02 -0.17205071699E+02  0.88972785970E+01  0.31886069857E+02  0.00000000000E+00 0.  1.
         11    1    3    3    0    0  0.81389311872E+01 -0.93275354390E+01  0.21711333927E+00  0.12381125017E+02  0.51100000000E-03 0. -1.
        -11    1    3    3    0    0 -0.88770788443E+01  0.10606641003E+02 -0.87595995260E+01  0.16371742311E+02  0.51100000000E-03 0.  1.
        -12    1    3    3    0    0  0.26066894020E+02  0.15925966135E+02 -0.35479241026E+00  0.30549062814E+02  0.00000000000E+00 0.  1.
</event>
<event>
 7    1  0.3755162E-013  0.5930187E+02  0.7816164E-02  0.1266605E+00
        -11   -1    0    0    0    0  0.00000000000E+00  0.00000000000E+00  0.45593999997E+02  0.45594000000E+02  0.51100000000E-03 0.  1.
         11   -1    0    0    0    0 -0.00000000000E+00 -0.00000000000E+00 -0.45593999997E+02  0.45594000000E+02  0.51100000000E-03 0. -1.
    9900012    2    1    2    0    0  0.24278899103E+02  0.17990423881E+02  0.10178652932E+02  0.59301870279E+02  0.49999865501E+02 0.  0.
        -12    1    1    2    0    0 -0.24278899103E+02 -0.17990423881E+02 -0.10178652932E+02  0.31886129721E+02  0.00000000000E+00 0.  1.
         11    1    3    3    0    0  0.18995321347E+02  0.19256566470E+02  0.14277927587E+01  0.27086457459E+02  0.51100000000E-03 0. -1.
        -11    1    3    3    0    0  0.17676124054E+02  0.24884814218E+01  0.68879151860E+01  0.19133250566E+02  0.51100000000E-03 0.  1.
        -12    1    3    3    0    0 -0.12392546298E+02 -0.37546240105E+01  0.18629449870E+01  0.13082162254E+02  0.00000000000E+00 0.  1.
</event>
<event>
 7    1  0.3755162E-013  0.5930200E+02  0.7816164E-02  0.1266605E+00
        -11   -1    0    0    0    0  0.00000000000E+00  0.00000000000E+00  0.45593999997E+02  0.45594000000E+02  0.51100000000E-03 0.  1.
         11   -1    0    0    0    0 -0.00000000000E+00 -0.00000000000E+00 -0.45593999997E+02  0.45594000000E+02  0.51100000000E-03 0. -1.
    9900012    2    1    2    0    0 -0.31596069608E+02  0.99350366400E+00 -0.41735069671E+01  0.59302002687E+02  0.50000106981E+02 0.  0.
        -12    1    1    2    0    0  0.31596069608E+02 -0.99350366400E+00  0.41735069671E+01  0.31885997313E+02  0.00000000000E+00 0.  1.
         11    1    3    3    0    0 -0.28161776095E+02 -0.13355278423E+02  0.10884761193E+02  0.33014044300E+02  0.51100000000E-03 0. -1.
        -11    1    3    3    0    0 -0.90268944846E-02  0.95504946607E+01  0.58727438053E+00  0.95685380915E+01  0.51100000000E-03 0.  1.
        -12    1    3    3    0    0 -0.34252666191E+01  0.47982874260E+01 -0.15645542541E+02  0.16719420296E+02  0.00000000000E+00 0.  1.
</event>
<event>
 7    1  0.3755162E-013  0.5930194E+02  0.7816164E-02  0.1266605E+00
        -11   -1    0    0    0    0  0.00000000000E+00  0.00000000000E+00  0.45593999997E+02  0.45594000000E+02  0.51100000000E-03 0. -1.
         11   -1    0    0    0    0 -0.00000000000E+00 -0.00000000000E+00 -0.45593999997E+02  0.45594000000E+02  0.51100000000E-03 0.  1.
    9900012    2    1    2    0    0  0.29980338865E+02 -0.10834529908E+02  0.71622178366E+00  0.59301941441E+02  0.49999995282E+02 0.  0.
        -12    1    1    2    0    0 -0.29980338865E+02  0.10834529908E+02 -0.71622178366E+00  0.31886058559E+02  0.00000000000E+00 0.  1.
         11    1    3    3    0    0  0.10169741696E+02  0.20561075824E+00 -0.21892560726E+01  0.10404747203E+02  0.51100000000E-03 0. -1.
        -11    1    3    3    0    0  0.14356266383E+02  0.11643314089E+02 -0.11221050096E+02  0.21623623955E+02  0.51100000000E-03 0.  1.
         12    1    3    3    0    0  0.54543307866E+01 -0.22683454755E+02  0.14126527952E+02  0.27273570282E+02  0.00000000000E+00 0. -1.
</event>
<event>
 7    1  0.3755162E-013  0.5930188E+02  0.7816164E-02  0.1266605E+00
        -11   -1    0    0    0    0  0.00000000000E+00  0.00000000000E+00  0.45593999997E+02  0.45594000000E+02  0.51100000000E-03 0.  1.
         11   -1    0    0    0    0 -0.00000000000E+00 -0.00000000000E+00 -0.45593999997E+02  0.45594000000E+02  0.51100000000E-03 0. -1.
    9900012    2    1    2    0    0 -0.64138332908E+01 -0.25453329252E+02 -0.18102904126E+02  0.59301884443E+02  0.49999891332E+02 0.  0.
        -12    1    1    2    0    0  0.64138332908E+01  0.25453329252E+02  0.18102904126E+02  0.31886115557E+02  0.00000000000E+00 0.  1.
         11    1    3    3    0    0  0.13807918457E+02  0.24463733780E+01 -0.18316896577E+02  0.23068421170E+02  0.51100000000E-03 0. -1.
        -11    1    3    3    0    0 -0.14318927553E+02 -0.13586672562E+02 -0.41018827253E+01  0.20160724187E+02  0.51100000000E-03 0.  1.
        -12    1    3    3    0    0 -0.59028241942E+01 -0.14313030068E+02  0.43158751767E+01  0.16072739087E+02  0.00000000000E+00 0.  1.
</event>
<event>
 7    1  0.3755162E-013  0.5930195E+02  0.7816164E-02  0.1266605E+00
        -11   -1    0    0    0    0  0.00000000000E+00  0.00000000000E+00  0.45593999997E+02  0.45594000000E+02  0.51100000000E-03 0. -1.
         11   -1    0    0    0    0 -0.00000000000E+00 -0.00000000000E+00 -0.45593999997E+02  0.45594000000E+02  0.51100000000E-03 0.  1.
    9900012    2    1    2    0    0  0.29621590615E+00 -0.27337010302E+02  0.16410983271E+02  0.59301949006E+02  0.50000009079E+02 0.  0.
        -12    1    1    2    0    0 -0.29621590615E+00  0.27337010302E+02 -0.16410983271E+02  0.31886050994E+02  0.00000000000E+00 0.  1.
         11    1    3    3    0    0  0.30188841193E+01 -0.85566490290E+00 -0.15039013269E+01  0.34795895180E+01  0.51100000000E-03 0. -1.
        -11    1    3    3    0    0  0.20391953226E+02 -0.20519813653E+02  0.83898613702E+01  0.30121160051E+02  0.51100000000E-03 0.  1.
         12    1    3    3    0    0 -0.23114621439E+02 -0.59615317460E+01  0.95250232274E+01  0.25701199437E+02  0.00000000000E+00 0. -1.
</event>
<event>
 7    1  0.3755162E-013  0.5930185E+02  0.7816164E-02  0.1266605E+00
        -11   -1    0    0    0    0  0.00000000000E+00  0.00000000000E+00  0.45593999997E+02  0.45594000000E+02  0.51100000000E-03 0.  1.
         11   -1    0    0    0    0 -0.00000000000E+00 -0.00000000000E+00 -0.45593999997E+02  0.45594000000E+02  0.51100000000E-03 0. -1.
    9900012    2    1    2    0    0  0.30544144316E+02  0.50086804362E+01 -0.76612662047E+01  0.59301848906E+02  0.49999826521E+02 0.  0.
        -12    1    1    2    0    0 -0.30544144316E+02 -0.50086804362E+01  0.76612662047E+01  0.31886151094E+02  0.00000000000E+00 0.  1.
         11    1    3    3    0    0  0.43314519949E+01 -0.56262524434E+01  0.93484937721E+01  0.11739272934E+02  0.51100000000E-03 0. -1.
        -11    1    3    3    0    0 -0.65698857683E+01  0.30239394512E+00  0.35871512657E+01  0.74914948823E+01  0.51100000000E-03 0.  1.
         12    1    3    3    0    0  0.32782578089E+02  0.10332538934E+02 -0.20596911242E+02  0.40071081090E+02  0.00000000000E+00 0. -1.
</event>
<event>
 7    1  0.3755162E-013  0.5930194E+02  0.7816164E-02  0.1266605E+00
        -11   -1    0    0    0    0  0.00000000000E+00  0.00000000000E+00  0.45593999997E+02  0.45594000000E+02  0.51100000000E-03 0.  1.
         11   -1    0    0    0    0 -0.00000000000E+00 -0.00000000000E+00 -0.45593999997E+02  0.45594000000E+02  0.51100000000E-03 0. -1.
    9900012    2    1    2    0    0  0.12896274122E+02  0.76817698287E+01 -0.28131786210E+02  0.59301939263E+02  0.49999991311E+02 0.  0.
        -12    1    1    2    0    0 -0.12896274122E+02 -0.76817698287E+01  0.28131786210E+02  0.31886060737E+02  0.00000000000E+00 0.  1.
         11    1    3    3    0    0  0.13149781867E+02  0.61328359827E+01 -0.24667024844E+01  0.14717780463E+02  0.51100000000E-03 0. -1.
        -11    1    3    3    0    0 -0.44007445063E+01  0.11209748307E+02  0.43319744356E+01  0.12798086267E+02  0.51100000000E-03 0.  1.
        -12    1    3    3    0    0  0.41472367614E+01 -0.96608144612E+01 -0.29997058161E+02  0.31786072534E+02  0.00000000000E+00 0.  1.
</event>
<event>
 7    1  0.3755162E-013  0.5930196E+02  0.7816164E-02  0.1266605E+00
        -11   -1    0    0    0    0  0.00000000000E+00  0.00000000000E+00  0.45593999997E+02  0.45594000000E+02  0.51100000000E-03 0. -1.
         11   -1    0    0    0    0 -0.00000000000E+00 -0.00000000000E+00 -0.45593999997E+02  0.45594000000E+02  0.51100000000E-03 0.  1.
    9900012    2    1    2    0    0  0.16981926442E+02  0.92251507192E+01  0.25361983781E+02  0.59301961475E+02  0.50000031820E+02 0.  0.
        -12    1    1    2    0    0 -0.16981926442E+02 -0.92251507192E+01 -0.25361983781E+02  0.31886038525E+02  0.00000000000E+00 0.  1.
         11    1    3    3    0    0 -0.81136835264E+01  0.48871124753E+01  0.96651826952E+01  0.13532608230E+02  0.51100000000E-03 0. -1.
        -11    1    3    3    0    0 -0.86169788365E+01 -0.41057196177E+00  0.54955301324E+01  0.10228477174E+02  0.51100000000E-03 0.  1.
        -12    1    3    3    0    0  0.33712588805E+02  0.47486102056E+01  0.10201270953E+02  0.35540876071E+02  0.00000000000E+00 0.  1.
</event>
<event>
 7    1  0.3755162E-013  0.5930194E+02  0.7816164E-02  0.1266605E+00
        -11   -1    0    0    0    0  0.00000000000E+00  0.00000000000E+00  0.45593999997E+02  0.45594000000E+02  0.51100000000E-03 0. -1.
         11   -1    0    0    0    0 -0.00000000000E+00 -0.00000000000E+00 -0.45593999997E+02  0.45594000000E+02  0.51100000000E-03 0.  1.
    9900012    2    1    2    0    0 -0.45850636520E+01  0.10070538907E+00  0.31554525381E+02  0.59301936864E+02  0.49999986936E+02 0.  0.
        -12    1    1    2    0    0  0.45850636520E+01 -0.10070538907E+00 -0.31554525381E+02  0.31886063136E+02  0.00000000000E+00 0.  1.
         11    1    3    3    0    0  0.52258024730E+01 -0.70346122121E+01  0.47362988596E+01  0.99612904591E+01  0.51100000000E-03 0. -1.
        -11    1    3    3    0    0 -0.18456748728E+02 -0.73409541185E+01  0.25645735660E+02  0.32438325154E+02  0.51100000000E-03 0.  1.
         12    1    3    3    0    0  0.86458826026E+01  0.14476271720E+02  0.11724908614E+01  0.16902321252E+02  0.00000000000E+00 0. -1.
</event>
<event>
 7    1  0.3755162E-013  0.5930193E+02  0.7816164E-02  0.1266605E+00
        -11   -1    0    0    0    0  0.00000000000E+00  0.00000000000E+00  0.45593999997E+02  0.45594000000E+02  0.51100000000E-03 0. -1.
         11   -1    0    0    0    0 -0.00000000000E+00 -0.00000000000E+00 -0.45593999997E+02  0.45594000000E+02  0.51100000000E-03 0.  1.
    9900012    2    1    2    0    0 -0.21972529944E+02  0.22284206458E+02  0.61109259805E+01  0.59301931789E+02  0.49999977680E+02 0.  0.
        -12    1    1    2    0    0  0.21972529944E+02 -0.22284206458E+02 -0.61109259805E+01  0.31886068211E+02  0.00000000000E+00 0.  1.
         11    1    3    3    0    0 -0.17150017825E+02  0.25956922774E+02 -0.10012620161E+02  0.32682373140E+02  0.51100000000E-03 0. -1.
        -11    1    3    3    0    0 -0.10542802245E+02 -0.79268208639E+01  0.66741466084E+01  0.14782739983E+02  0.51100000000E-03 0.  1.
        -12    1    3    3    0    0  0.57202901256E+01  0.42541045478E+01  0.94493995330E+01  0.11836818667E+02  0.00000000000E+00 0.  1.
</event>
<event>
 7    1  0.3755162E-013  0.5930194E+02  0.7816164E-02  0.1266605E+00
        -11   -1    0    0    0    0  0.00000000000E+00  0.00000000000E+00  0.45593999997E+02  0.45594000000E+02  0.51100000000E-03 0.  1.
         11   -1    0    0    0    0 -0.00000000000E+00 -0.00000000000E+00 -0.45593999997E+02  0.45594000000E+02  0.51100000000E-03 0. -1.
    9900012    2    1    2    0    0  0.16406498905E+02  0.59242226877E+01 -0.26691783398E+02  0.59301938441E+02  0.49999989812E+02 0.  0.
        -12    1    1    2    0    0 -0.16406498905E+02 -0.59242226877E+01  0.26691783398E+02  0.31886061559E+02  0.00000000000E+00 0.  1.
         11    1    3    3    0    0 -0.14139429780E+02  0.82894550197E+01 -0.56264867843E+01  0.17329047661E+02  0.51100000000E-03 0. -1.
        -11    1    3    3    0    0 -0.24429078552E+01  0.17728499437E+01 -0.23045889685E+01  0.37976211352E+01  0.51100000000E-03 0.  1.
         12    1    3    3    0    0  0.32988836540E+02 -0.41380822757E+01 -0.18760707645E+02  0.38175269646E+02  0.00000000000E+00 0. -1.
</event>
<event>
 7    1  0.3755162E-013  0.5930190E+02  0.7816164E-02  0.1266605E+00
        -11   -1    0    0    0    0  0.00000000000E+00  0.00000000000E+00  0.45593999997E+02  0.45594000000E+02  0.51100000000E-03 0.  1.
         11   -1    0    0    0    0 -0.00000000000E+00 -0.00000000000E+00 -0.45593999997E+02  0.45594000000E+02  0.51100000000E-03 0. -1.
    9900012    2    1    2    0    0  0.28338084989E+02  0.51911153149E+01 -0.13664867507E+02  0.59301900473E+02  0.49999920567E+02 0.  0.
        -12    1    1    2    0    0 -0.28338084989E+02 -0.51911153149E+01  0.13664867507E+02  0.31886099527E+02  0.00000000000E+00 0.  1.
         11    1    3    3    0    0  0.10561323279E+02 -0.26870428618E+01 -0.11651792052E+02  0.15953871224E+02  0.51100000000E-03 0. -1.
        -11    1    3    3    0    0  0.15523077450E+02  0.14176891480E+01 -0.19269345700E+02  0.24784742484E+02  0.51100000000E-03 0.  1.
        -12    1    3    3    0    0  0.22536842592E+01  0.64604690288E+01  0.17256270244E+02  0.18563286766E+02  0.00000000000E+00 0.  1.
</event>
<event>
 7    1  0.3755162E-013  0.5930189E+02  0.7816164E-02  0.1266605E+00
        -11   -1    0    0    0    0  0.00000000000E+00  0.00000000000E+00  0.45593999997E+02  0.45594000000E+02  0.51100000000E-03 0.  1.
         11   -1    0    0    0    0 -0.00000000000E+00 -0.00000000000E+00 -0.45593999997E+02  0.45594000000E+02  0.51100000000E-03 0. -1.
    9900012    2    1    2    0    0 -0.23203431564E+02 -0.81564045431E+01 -0.20292808714E+02  0.59301886143E+02  0.49999894432E+02 0.  0.
        -12    1    1    2    0    0  0.23203431564E+02  0.81564045431E+01  0.20292808714E+02  0.31886113857E+02  0.00000000000E+00 0.  1.
         11    1    3    3    0    0 -0.11816032028E+01  0.42099245057E+01  0.11500125897E+01  0.45213028753E+01  0.51100000000E-03 0.  1.
        -11    1    3    3    0    0 -0.23045124355E+02  0.11647193172E+02 -0.70537294322E+01  0.26767330171E+02  0.51100000000E-03 0. -1.
         12    1    3    3    0    0  0.10232959937E+01 -0.24013522221E+02 -0.14389091871E+02  0.28013253096E+02  0.00000000000E+00 0. -1.
</event>
<event>
 7    1  0.3755162E-013  0.5930193E+02  0.7816164E-02  0.1266605E+00
        -11   -1    0    0    0    0  0.00000000000E+00  0.00000000000E+00  0.45593999997E+02  0.45594000000E+02  0.51100000000E-03 0.  1.
         11   -1    0    0    0    0 -0.00000000000E+00 -0.00000000000E+00 -0.45593999997E+02  0.45594000000E+02  0.51100000000E-03 0. -1.
    9900012    2    1    2    0    0 -0.13767123091E+02  0.21146942884E+02 -0.19493450119E+02  0.59301929858E+02  0.49999974159E+02 0.  0.
        -12    1    1    2    0    0  0.13767123091E+02 -0.21146942884E+02  0.19493450119E+02  0.31886070142E+02  0.00000000000E+00 0.  1.
         11    1    3    3    0    0  0.98500447154E+01  0.25643698221E+01  0.65298370251E-01  0.10178587211E+02  0.51100000000E-03 0. -1.
        -11    1    3    3    0    0 -0.73595676280E+01  0.16053758288E+02  0.60644260023E+01  0.18672537424E+02  0.51100000000E-03 0.  1.
        -12    1    3    3    0    0 -0.16257600178E+02  0.25288147734E+01 -0.25623174492E+02  0.30450805223E+02  0.00000000000E+00 0.  1.
</event>
<event>
 7    1  0.3755162E-013  0.5930200E+02  0.7816164E-02  0.1266605E+00
        -11   -1    0    0    0    0  0.00000000000E+00  0.00000000000E+00  0.45593999997E+02  0.45594000000E+02  0.51100000000E-03 0.  1.
         11   -1    0    0    0    0 -0.00000000000E+00 -0.00000000000E+00 -0.45593999997E+02  0.45594000000E+02  0.51100000000E-03 0. -1.
    9900012    2    1    2    0    0  0.16390120804E+02 -0.54761264286E+01 -0.26797255963E+02  0.59302000756E+02  0.50000103459E+02 0.  0.
        -12    1    1    2    0    0 -0.16390120804E+02  0.54761264286E+01  0.26797255963E+02  0.31885999244E+02  0.00000000000E+00 0.  1.
         11    1    3    3    0    0  0.59792408988E+01 -0.19034625313E+01 -0.27757393894E+02  0.28457818036E+02  0.51100000000E-03 0. -1.
        -11    1    3    3    0    0  0.30531890648E+01  0.12356504466E+02  0.32831351823E+01  0.13144738224E+02  0.51100000000E-03 0.  1.
        -12    1    3    3    0    0  0.73576908404E+01 -0.15929168363E+02 -0.23229972510E+01  0.17699444496E+02  0.00000000000E+00 0.  1.
</event>
<event>
 7    1  0.3755162E-013  0.5930196E+02  0.7816164E-02  0.1266605E+00
        -11   -1    0    0    0    0  0.00000000000E+00  0.00000000000E+00  0.45593999997E+02  0.45594000000E+02  0.51100000000E-03 0. -1.
         11   -1    0    0    0    0 -0.00000000000E+00 -0.00000000000E+00 -0.45593999997E+02  0.45594000000E+02  0.51100000000E-03 0.  1.
    9900012    2    1    2    0    0  0.11561944165E+01  0.25951224292E+02 -0.18490991496E+02  0.59301959257E+02  0.50000027774E+02 0.  0.
        -12    1    1    2    0    0 -0.11561944165E+01 -0.25951224292E+02  0.18490991496E+02  0.31886040743E+02  0.00000000000E+00 0.  1.
         11    1    3    3    0    0 -0.11329826891E+02  0.10794748164E+02 -0.14304555205E+02  0.21201694865E+02  0.51100000000E-03 0. -1.
        -11    1    3    3    0    0  0.11535160590E+02  0.18833607152E+02 -0.14961076609E+02  0.26675803676E+02  0.51100000000E-03 0.  1.
         12    1    3    3    0    0  0.95086071674E+00 -0.36771310240E+01  0.10774640318E+02  0.11424460716E+02  0.00000000000E+00 0. -1.
</event>
<event>
 7    1  0.3755162E-013  0.5930192E+02  0.7816164E-02  0.1266605E+00
        -11   -1    0    0    0    0  0.00000000000E+00  0.00000000000E+00  0.45593999997E+02  0.45594000000E+02  0.51100000000E-03 0.  1.
         11   -1    0    0    0    0 -0.00000000000E+00 -0.00000000000E+00 -0.45593999997E+02  0.45594000000E+02  0.51100000000E-03 0. -1.
    9900012    2    1    2    0    0 -0.13620891448E+02  0.11028987259E+02 -0.26637466617E+02  0.59301923547E+02  0.49999962649E+02 0.  0.
        -12    1    1    2    0    0  0.13620891448E+02 -0.11028987259E+02  0.26637466617E+02  0.31886076453E+02  0.00000000000E+00 0.  1.
         11    1    3    3    0    0 -0.19542505261E+01  0.12589417171E+01  0.93683878479E-01  0.23265438522E+01  0.51100000000E-03 0. -1.
        -11    1    3    3    0    0  0.11244842476E+02  0.15543184560E+02  0.25469417498E+01  0.19352622073E+02  0.51100000000E-03 0.  1.
         12    1    3    3    0    0 -0.22911483397E+02 -0.57731390178E+01 -0.29278092245E+02  0.37622757622E+02  0.00000000000E+00 0. -1.
</event>
<event>
 7    1  0.3755162E-013  0.5930200E+02  0.7816164E-02  0.1266605E+00
        -11   -1    0    0    0    0  0.00000000000E+00  0.00000000000E+00  0.45593999997E+02  0.45594000000E+02  0.51100000000E-03 0.  1.
         11   -1    0    0    0    0 -0.00000000000E+00 -0.00000000000E+00 -0.45593999997E+02  0.45594000000E+02  0.51100000000E-03 0. -1.
    9900012    2    1    2    0    0  0.14346327841E+01  0.11648042852E+02 -0.29647624155E+02  0.59302004775E+02  0.50000110788E+02 0.  0.
        -12    1    1    2    0    0 -0.14346327841E+01 -0.11648042852E+02  0.29647624155E+02  0.31885995225E+02  0.00000000000E+00 0.  1.
         11    1    3    3    0    0  0.14597072084E+02  0.93294481879E+01 -0.15775686020E+02  0.23430437183E+02  0.51100000000E-03 0. -1.
        -11    1    3    3    0    0  0.82405254070E+01 -0.48957694410E+01 -0.44429391799E+00  0.95954267623E+01  0.51100000000E-03 0.  1.
         12    1    3    3    0    0 -0.21402964707E+02  0.72143641048E+01 -0.13427644217E+02  0.26276140830E+02  0.00000000000E+00 0. -1.
</event>
<event>
 7    1  0.3755162E-013  0.5930194E+02  0.7816164E-02  0.1266605E+00
        -11   -1    0    0    0    0  0.00000000000E+00  0.00000000000E+00  0.45593999997E+02  0.45594000000E+02  0.51100000000E-03 0. -1.
         11   -1    0    0    0    0 -0.00000000000E+00 -0.00000000000E+00 -0.45593999997E+02  0.45594000000E+02  0.51100000000E-03 0.  1.
    9900012    2    1    2    0    0 -0.18215364279E+01 -0.14481198920E+01  0.31801031940E+02  0.59301942254E+02  0.49999996765E+02 0.  0.
        -12    1    1    2    0    0  0.18215364279E+01  0.14481198920E+01 -0.31801031940E+02  0.31886057746E+02  0.00000000000E+00 0.  1.
         11    1    3    3    0    0 -0.12901964035E+02  0.30272315711E+01  0.81403852030E+01  0.15552835062E+02  0.51100000000E-03 0. -1.
        -11    1    3    3    0    0 -0.61140352369E+01 -0.10253022161E+02 -0.22224376589E+01  0.12142698206E+02  0.51100000000E-03 0.  1.
        -12    1    3    3    0    0  0.17194462844E+02  0.57776706978E+01  0.25883084395E+02  0.31606408986E+02  0.00000000000E+00 0.  1.
</event>
<event>
 7    1  0.3755162E-013  0.5930201E+02  0.7816164E-02  0.1266605E+00
        -11   -1    0    0    0    0  0.00000000000E+00  0.00000000000E+00  0.45593999997E+02  0.45594000000E+02  0.51100000000E-03 0. -1.
         11   -1    0    0    0    0 -0.00000000000E+00 -0.00000000000E+00 -0.45593999997E+02  0.45594000000E+02  0.51100000000E-03 0.  1.
    9900012    2    1    2    0    0  0.14275067620E+01 -0.31422492673E+02  0.52254426884E+01  0.59302014480E+02  0.50000128487E+02 0.  0.
        -12    1    1    2    0    0 -0.14275067620E+01  0.31422492673E+02 -0.52254426884E+01  0.31885985520E+02  0.00000000000E+00 0.  1.
         11    1    3    3    0    0  0.11208016473E+02 -0.13086872463E+02  0.99122600306E+01  0.19878097577E+02  0.51100000000E-03 0. -1.
        -11    1    3    3    0    0  0.90567890307E+01 -0.21422039874E+01 -0.10377621591E+02  0.13939494095E+02  0.51100000000E-03 0.  1.
        -12    1    3    3    0    0 -0.18837298742E+02 -0.16193416223E+02  0.56908042491E+01  0.25484422808E+02  0.00000000000E+00 0.  1.
</event>
<event>
 7    1  0.3755162E-013  0.5930197E+02  0.7816164E-02  0.1266605E+00
        -11   -1    0    0    0    0  0.00000000000E+00  0.00000000000E+00  0.45593999997E+02  0.45594000000E+02  0.51100000000E-03 0. -1.
         11   -1    0    0    0    0 -0.00000000000E+00 -0.00000000000E+00 -0.45593999997E+02  0.45594000000E+02  0.51100000000E-03 0.  1.
    9900012    2    1    2    0    0  0.12897431826E+01 -0.30595838728E+02 -0.88853823704E+01  0.59301971636E+02  0.50000050351E+02 0.  0.
        -12    1    1    2    0    0 -0.12897431826E+01  0.30595838728E+02  0.88853823704E+01  0.31886028364E+02  0.00000000000E+00 0.  1.
         11    1    3    3    0    0  0.12931689549E+02 -0.33435866615E+01  0.16504681815E+01  0.13458536764E+02  0.51100000000E-03 0. -1.
        -11    1    3    3    0    0 -0.18271683473E+02 -0.37331555779E+01  0.12956635536E+01  0.18694106339E+02  0.51100000000E-03 0.  1.
        -12    1    3    3    0    0  0.66297371060E+01 -0.23519096489E+02 -0.11831514106E+02  0.27149328533E+02  0.00000000000E+00 0.  1.
</event>
<event>
 7    1  0.3755162E-013  0.5930211E+02  0.7816164E-02  0.1266604E+00
        -11   -1    0    0    0    0  0.00000000000E+00  0.00000000000E+00  0.45593999997E+02  0.45594000000E+02  0.51100000000E-03 0.  1.
         11   -1    0    0    0    0 -0.00000000000E+00 -0.00000000000E+00 -0.45593999997E+02  0.45594000000E+02  0.51100000000E-03 0. -1.
    9900012    2    1    2    0    0  0.25664696318E+01 -0.12058667922E+02 -0.29405986007E+02  0.59302105760E+02  0.50000294961E+02 0.  0.
        -12    1    1    2    0    0 -0.25664696318E+01  0.12058667922E+02  0.29405986007E+02  0.31885894240E+02  0.00000000000E+00 0.  1.
         11    1    3    3    0    0  0.10281097464E+02  0.98735249049E+00 -0.19070969564E+01  0.10502992386E+02  0.51100000000E-03 0. -1.
        -11    1    3    3    0    0 -0.21737366310E+01 -0.20598072316E+02 -0.32225188668E+02  0.38307551462E+02  0.51100000000E-03 0.  1.
         12    1    3    3    0    0 -0.55408912013E+01  0.75520519039E+01  0.47262996178E+01  0.10491561911E+02  0.00000000000E+00 0. -1.
</event>
<event>
 7    1  0.3755162E-013  0.5930200E+02  0.7816164E-02  0.1266605E+00
        -11   -1    0    0    0    0  0.00000000000E+00  0.00000000000E+00  0.45593999997E+02  0.45594000000E+02  0.51100000000E-03 0.  1.
         11   -1    0    0    0    0 -0.00000000000E+00 -0.00000000000E+00 -0.45593999997E+02  0.45594000000E+02  0.51100000000E-03 0. -1.
    9900012    2    1    2    0    0  0.29051055567E+02 -0.13117542714E+02 -0.82667934462E+00  0.59301997504E+02  0.50000097528E+02 0.  0.
        -12    1    1    2    0    0 -0.29051055567E+02  0.13117542714E+02  0.82667934462E+00  0.31886002496E+02  0.00000000000E+00 0.  1.
         11    1    3    3    0    0  0.20009355681E+01 -0.11212327665E+02 -0.12166317769E+02  0.16665512987E+02  0.51100000000E-03 0. -1.
        -11    1    3    3    0    0  0.56939070274E+01 -0.12279031450E+02  0.13090366602E+02  0.18829574839E+02  0.51100000000E-03 0.  1.
        -12    1    3    3    0    0  0.21356212972E+02  0.10373816401E+02 -0.17507281777E+01  0.23806909677E+02  0.00000000000E+00 0.  1.
</event>
<event>
 7    1  0.3755162E-013  0.5930192E+02  0.7816164E-02  0.1266605E+00
        -11   -1    0    0    0    0  0.00000000000E+00  0.00000000000E+00  0.45593999997E+02  0.45594000000E+02  0.51100000000E-03 0. -1.
         11   -1    0    0    0    0 -0.00000000000E+00 -0.00000000000E+00 -0.45593999997E+02  0.45594000000E+02  0.51100000000E-03 0.  1.
    9900012    2    1    2    0    0 -0.17184251044E+02  0.12285315900E+02  0.23885023355E+02  0.59301924491E+02  0.49999964370E+02 0.  0.
        -12    1    1    2    0    0  0.17184251044E+02 -0.12285315900E+02 -0.23885023355E+02  0.31886075509E+02  0.00000000000E+00 0.  1.
         11    1    3    3    0    0 -0.11674271185E+02  0.28082550564E+02  0.25581755317E+02  0.39740967015E+02  0.51100000000E-03 0. -1.
        -11    1    3    3    0    0 -0.65869258790E+01 -0.85643729129E+01  0.25546165532E+01  0.11102348487E+02  0.51100000000E-03 0.  1.
        -12    1    3    3    0    0  0.10769460206E+01 -0.72328617512E+01 -0.42513485152E+01  0.84586089897E+01  0.00000000000E+00 0.  1.
</event>
<event>
 7    1  0.3755162E-013  0.5930195E+02  0.7816164E-02  0.1266605E+00
        -11   -1    0    0    0    0  0.00000000000E+00  0.00000000000E+00  0.45593999997E+02  0.45594000000E+02  0.51100000000E-03 0.  1.
         11   -1    0    0    0    0 -0.00000000000E+00 -0.00000000000E+00 -0.45593999997E+02  0.45594000000E+02  0.51100000000E-03 0. -1.
    9900012    2    1    2    0    0  0.28567579524E+02  0.92356113772E+01 -0.10738579324E+02  0.59301949707E+02  0.50000010358E+02 0.  0.
        -12    1    1    2    0    0 -0.28567579524E+02 -0.92356113772E+01  0.10738579324E+02  0.31886050293E+02  0.00000000000E+00 0.  1.
         11    1    3    3    0    0  0.17206997178E+02  0.20948712255E+02 -0.32162374371E+01  0.27299697444E+02  0.51100000000E-03 0. -1.
        -11    1    3    3    0    0  0.66638586555E+01  0.27689331297E+01  0.76443115668E+01  0.10512349997E+02  0.51100000000E-03 0.  1.
         12    1    3    3    0    0  0.46967236901E+01 -0.14482034008E+02 -0.15166653454E+02  0.21489902266E+02  0.00000000000E+00 0. -1.
</event>
<event>
 7    1  0.3755162E-013  0.5930196E+02  0.7816164E-02  0.1266605E+00
        -11   -1    0    0    0    0  0.00000000000E+00  0.00000000000E+00  0.45593999997E+02  0.45594000000E+02  0.51100000000E-03 0.  1.
         11   -1    0    0    0    0 -0.00000000000E+00 -0.00000000000E+00 -0.45593999997E+02  0.45594000000E+02  0.51100000000E-03 0. -1.
    9900012    2    1    2    0    0 -0.19982707378E+02  0.10572796135E+02 -0.22486148012E+02  0.59301961289E+02  0.50000031480E+02 0.  0.
        -12    1    1    2    0    0  0.19982707378E+02 -0.10572796135E+02  0.22486148012E+02  0.31886038711E+02  0.00000000000E+00 0.  1.
         11    1    3    3    0    0  0.16319240660E+01  0.23714934565E+01 -0.72267289564E+01  0.77789953749E+01  0.51100000000E-03 0. -1.
        -11    1    3    3    0    0  0.34404871648E+01 -0.63297960010E+01 -0.20818950976E+02  0.22030251686E+02  0.51100000000E-03 0.  1.
         12    1    3    3    0    0 -0.25055118609E+02  0.14531098679E+02  0.55595319208E+01  0.29492714228E+02  0.00000000000E+00 0. -1.
</event>
<event>
 7    1  0.3755162E-013  0.5930198E+02  0.7816164E-02  0.1266605E+00
        -11   -1    0    0    0    0  0.00000000000E+00  0.00000000000E+00  0.45593999997E+02  0.45594000000E+02  0.51100000000E-03 0.  1.
         11   -1    0    0    0    0 -0.00000000000E+00 -0.00000000000E+00 -0.45593999997E+02  0.45594000000E+02  0.51100000000E-03 0. -1.
    9900012    2    1    2    0    0 -0.24145847744E+02  0.90426843740E+01 -0.18759694872E+02  0.59301980247E+02  0.50000066056E+02 0.  0.
        -12    1    1    2    0    0  0.24145847744E+02 -0.90426843740E+01  0.18759694872E+02  0.31886019753E+02  0.00000000000E+00 0.  1.
         11    1    3    3    0    0 -0.12379557574E+01 -0.11449123075E+02  0.23781328336E+01  0.11758846444E+02  0.51100000000E-03 0. -1.
        -11    1    3    3    0    0 -0.29101287308E+01  0.45774271645E+01  0.74380023728E+01  0.92057356162E+01  0.51100000000E-03 0.  1.
         12    1    3    3    0    0 -0.19997763256E+02  0.15914380285E+02 -0.28575830079E+02  0.38337398187E+02  0.00000000000E+00 0. -1.
</event>
<event>
 7    1  0.3755162E-013  0.5930193E+02  0.7816164E-02  0.1266605E+00
        -11   -1    0    0    0    0  0.00000000000E+00  0.00000000000E+00  0.45593999997E+02  0.45594000000E+02  0.51100000000E-03 0.  1.
         11   -1    0    0    0    0 -0.00000000000E+00 -0.00000000000E+00 -0.45593999997E+02  0.45594000000E+02  0.51100000000E-03 0. -1.
    9900012    2    1    2    0    0 -0.24028069394E+02 -0.19960387993E+02 -0.63997146322E+01  0.59301928511E+02  0.49999971702E+02 0.  0.
        -12    1    1    2    0    0  0.24028069394E+02  0.19960387993E+02  0.63997146322E+01  0.31886071489E+02  0.00000000000E+00 0.  1.
         11    1    3    3    0    0 -0.27952628570E+02 -0.17647078480E+02  0.30687611733E+01  0.33199188518E+02  0.51100000000E-03 0. -1.
        -11    1    3    3    0    0 -0.73856267111E+01 -0.92913302078E+00 -0.12285887914E+02  0.14365020438E+02  0.51100000000E-03 0.  1.
        -12    1    3    3    0    0  0.11310185888E+02 -0.13841764918E+01  0.28174121083E+01  0.11737719555E+02  0.00000000000E+00 0.  1.
</event>
<event>
 7    1  0.3755162E-013  0.5930195E+02  0.7816164E-02  0.1266605E+00
        -11   -1    0    0    0    0  0.00000000000E+00  0.00000000000E+00  0.45593999997E+02  0.45594000000E+02  0.51100000000E-03 0.  1.
         11   -1    0    0    0    0 -0.00000000000E+00 -0.00000000000E+00 -0.45593999997E+02  0.45594000000E+02  0.51100000000E-03 0. -1.
    9900012    2    1    2    0    0 -0.19602919229E+02 -0.75940912292E+01 -0.23974471540E+02  0.59301953687E+02  0.50000017616E+02 0.  0.
        -12    1    1    2    0    0  0.19602919229E+02  0.75940912292E+01  0.23974471540E+02  0.31886046313E+02  0.00000000000E+00 0.  1.
         11    1    3    3    0    0  0.11969674482E+02 -0.93500158938E+01 -0.37411825230E+01  0.15642645280E+02  0.51100000000E-03 0. -1.
        -11    1    3    3    0    0  0.28615094091E+01  0.17510986859E-01  0.11552159176E+01  0.30859466635E+01  0.51100000000E-03 0.  1.
        -12    1    3    3    0    0 -0.34434103120E+02  0.17384136777E+01 -0.21388504934E+02  0.40573361743E+02  0.00000000000E+00 0.  1.
</event>
<event>
 7    1  0.3755162E-013  0.5930201E+02  0.7816164E-02  0.1266605E+00
        -11   -1    0    0    0    0  0.00000000000E+00  0.00000000000E+00  0.45593999997E+02  0.45594000000E+02  0.51100000000E-03 0. -1.
         11   -1    0    0    0    0 -0.00000000000E+00 -0.00000000000E+00 -0.45593999997E+02  0.45594000000E+02  0.51100000000E-03 0.  1.
    9900012    2    1    2    0    0 -0.21005522257E+02 -0.23562042001E+02  0.45071488420E+01  0.59302012808E+02  0.50000125438E+02 0.  0.
        -12    1    1    2    0    0  0.21005522257E+02  0.23562042001E+02 -0.45071488420E+01  0.31885987192E+02  0.00000000000E+00 0.  1.
         11    1    3    3    0    0 -0.47867844086E+01 -0.41236967076E+00 -0.13746258196E+02  0.14561695244E+02  0.51100000000E-03 0.  1.
        -11    1    3    3    0    0 -0.57619566359E+01  0.36461177975E+01  0.14121058502E+02  0.15681154700E+02  0.51100000000E-03 0. -1.
         12    1    3    3    0    0 -0.10456781213E+02 -0.26795790127E+02  0.41323485366E+01  0.29059162863E+02  0.00000000000E+00 0. -1.
</event>
<event>
 7    1  0.3755162E-013  0.5930193E+02  0.7816164E-02  0.1266605E+00
        -11   -1    0    0    0    0  0.00000000000E+00  0.00000000000E+00  0.45593999997E+02  0.45594000000E+02  0.51100000000E-03 0. -1.
         11   -1    0    0    0    0 -0.00000000000E+00 -0.00000000000E+00 -0.45593999997E+02  0.45594000000E+02  0.51100000000E-03 0.  1.
    9900012    2    1    2    0    0  0.85458697469E+01 -0.44305978394E+01  0.30398341627E+02  0.59301933127E+02  0.49999980120E+02 0.  0.
        -12    1    1    2    0    0 -0.85458697469E+01  0.44305978394E+01 -0.30398341627E+02  0.31886066873E+02  0.00000000000E+00 0.  1.
         11    1    3    3    0    0  0.21153287044E+02 -0.12642093860E+02  0.32702205511E+02  0.40947751287E+02  0.51100000000E-03 0. -1.
        -11    1    3    3    0    0 -0.32497173795E+01  0.86074123803E+00  0.37223254131E+01  0.50156998781E+01  0.51100000000E-03 0.  1.
        -12    1    3    3    0    0 -0.93576999172E+01  0.73507547829E+01 -0.60261892967E+01  0.13338481962E+02  0.00000000000E+00 0.  1.
</event>
<event>
 7    1  0.3755162E-013  0.5930197E+02  0.7816164E-02  0.1266605E+00
        -11   -1    0    0    0    0  0.00000000000E+00  0.00000000000E+00  0.45593999997E+02  0.45594000000E+02  0.51100000000E-03 0.  1.
         11   -1    0    0    0    0 -0.00000000000E+00 -0.00000000000E+00 -0.45593999997E+02  0.45594000000E+02  0.51100000000E-03 0. -1.
    9900012    2    1    2    0    0  0.18107375051E+02  0.19959026570E+02 -0.17043456356E+02  0.59301965793E+02  0.50000039695E+02 0.  0.
        -12    1    1    2    0    0 -0.18107375051E+02 -0.19959026570E+02  0.17043456356E+02  0.31886034207E+02  0.00000000000E+00 0.  1.
         11    1    3    3    0    0 -0.72765895665E+01  0.16221262790E+02 -0.73625287938E+01  0.19242789630E+02  0.51100000000E-03 0. -1.
        -11    1    3    3    0    0 -0.50735743992E+01 -0.39831949229E+01  0.16492624404E+01  0.66578574509E+01  0.51100000000E-03 0.  1.
        -12    1    3    3    0    0  0.30457539017E+02  0.77209587029E+01 -0.11330190003E+02  0.33401318713E+02  0.00000000000E+00 0.  1.
</event>
<event>
 7    1  0.3755162E-013  0.5930166E+02  0.7816164E-02  0.1266606E+00
        -11   -1    0    0    0    0  0.00000000000E+00  0.00000000000E+00  0.45593999997E+02  0.45594000000E+02  0.51100000000E-03 0. -1.
         11   -1    0    0    0    0 -0.00000000000E+00 -0.00000000000E+00 -0.45593999997E+02  0.45594000000E+02  0.51100000000E-03 0.  1.
    9900012    2    1    2    0    0  0.20234457838E+02 -0.96114731416E+01  0.22691959922E+02  0.59301658958E+02  0.49999480098E+02 0.  0.
        -12    1    1    2    0    0 -0.20234457838E+02  0.96114731416E+01 -0.22691959922E+02  0.31886341042E+02  0.00000000000E+00 0.  1.
         11    1    3    3    0    0 -0.87889091580E+01  0.86343328150E+01 -0.39959991392E+01  0.12952398879E+02  0.51100000000E-03 0. -1.
        -11    1    3    3    0    0  0.38968794289E+01  0.20618118599E+01  0.77074627115E+01  0.88792859589E+01  0.51100000000E-03 0.  1.
        -12    1    3    3    0    0  0.25126487567E+02 -0.20307617817E+02  0.18980496350E+02  0.37469974120E+02  0.00000000000E+00 0.  1.
</event>
<event>
 7    1  0.3755162E-013  0.5930196E+02  0.7816164E-02  0.1266605E+00
        -11   -1    0    0    0    0  0.00000000000E+00  0.00000000000E+00  0.45593999997E+02  0.45594000000E+02  0.51100000000E-03 0. -1.
         11   -1    0    0    0    0 -0.00000000000E+00 -0.00000000000E+00 -0.45593999997E+02  0.45594000000E+02  0.51100000000E-03 0.  1.
    9900012    2    1    2    0    0  0.31687398020E+02 -0.34131990155E+00 -0.35371917006E+01  0.59301962026E+02  0.50000032824E+02 0.  0.
        -12    1    1    2    0    0 -0.31687398020E+02  0.34131990155E+00  0.35371917006E+01  0.31886037974E+02  0.00000000000E+00 0.  1.
         11    1    3    3    0    0  0.32055623124E+02 -0.80596938814E+01 -0.35629169966E+01  0.33244789323E+02  0.51100000000E-03 0. -1.
        -11    1    3    3    0    0  0.85889732429E+01  0.12203190123E+02 -0.36913638039E+01  0.15372523460E+02  0.51100000000E-03 0.  1.
        -12    1    3    3    0    0 -0.89571983466E+01 -0.44848161432E+01  0.37170890999E+01  0.10684649243E+02  0.00000000000E+00 0.  1.
</event>
<event>
 7    1  0.3755162E-013  0.5930194E+02  0.7816164E-02  0.1266605E+00
        -11   -1    0    0    0    0  0.00000000000E+00  0.00000000000E+00  0.45593999997E+02  0.45594000000E+02  0.51100000000E-03 0.  1.
         11   -1    0    0    0    0 -0.00000000000E+00 -0.00000000000E+00 -0.45593999997E+02  0.45594000000E+02  0.51100000000E-03 0. -1.
    9900012    2    1    2    0    0 -0.35193733812E+01 -0.57357159626E+01 -0.31167875392E+02  0.59301939048E+02  0.49999990918E+02 0.  0.
        -12    1    1    2    0    0  0.35193733812E+01  0.57357159626E+01  0.31167875392E+02  0.31886060952E+02  0.00000000000E+00 0.  1.
         11    1    3    3    0    0  0.33516399365E+01 -0.12857670903E+02 -0.23813152706E+02  0.27269386377E+02  0.51100000000E-03 0. -1.
        -11    1    3    3    0    0 -0.12013416450E+02 -0.60917700403E+01  0.37957441127E+01  0.13994267064E+02  0.51100000000E-03 0.  1.
         12    1    3    3    0    0  0.51424031321E+01  0.13213724981E+02 -0.11150466798E+02  0.18038285608E+02  0.00000000000E+00 0. -1.
</event>
<event>
 7    1  0.3755162E-013  0.5930197E+02  0.7816164E-02  0.1266605E+00
        -11   -1    0    0    0    0  0.00000000000E+00  0.00000000000E+00  0.45593999997E+02  0.45594000000E+02  0.51100000000E-03 0.  1.
         11   -1    0    0    0    0 -0.00000000000E+00 -0.00000000000E+00 -0.45593999997E+02  0.45594000000E+02  0.51100000000E-03 0. -1.
    9900012    2    1    2    0    0 -0.17719625303E+02  0.20923654064E+01  0.26426420281E+02  0.59301971669E+02  0.50000050411E+02 0.  0.
        -12    1    1    2    0    0  0.17719625303E+02 -0.20923654064E+01 -0.26426420281E+02  0.31886028331E+02  0.00000000000E+00 0.  1.
         11    1    3    3    0    0 -0.18040804215E+02 -0.66100919326E+01  0.24381995042E+02  0.31042641875E+02  0.51100000000E-03 0. -1.
        -11    1    3    3    0    0 -0.91555804271E+01  0.79004194251E+01  0.10130737758E+02  0.15775713227E+02  0.51100000000E-03 0.  1.
         12    1    3    3    0    0  0.94767593400E+01  0.80203791400E+00 -0.80863125195E+01  0.12483616566E+02  0.00000000000E+00 0. -1.
</event>
<event>
 7    1  0.3755162E-013  0.5930192E+02  0.7816164E-02  0.1266605E+00
        -11   -1    0    0    0    0  0.00000000000E+00  0.00000000000E+00  0.45593999997E+02  0.45594000000E+02  0.51100000000E-03 0.  1.
         11   -1    0    0    0    0 -0.00000000000E+00 -0.00000000000E+00 -0.45593999997E+02  0.45594000000E+02  0.51100000000E-03 0. -1.
    9900012    2    1    2    0    0 -0.18999727013E+02 -0.24012588562E+02  0.88954101041E+01  0.59301915936E+02  0.49999948767E+02 0.  0.
        -12    1    1    2    0    0  0.18999727013E+02  0.24012588562E+02 -0.88954101041E+01  0.31886084064E+02  0.00000000000E+00 0.  1.
         11    1    3    3    0    0 -0.57455105412E+01 -0.12447828060E+01 -0.55062282046E+01  0.80547454904E+01  0.51100000000E-03 0. -1.
        -11    1    3    3    0    0 -0.16398063933E+02 -0.68930815389E+01 -0.11155985554E+02  0.20996835185E+02  0.51100000000E-03 0.  1.
        -12    1    3    3    0    0  0.31438474609E+01 -0.15874724217E+02  0.25557623863E+02  0.30250335260E+02  0.00000000000E+00 0.  1.
</event>
<event>
 7    1  0.3755162E-013  0.5930194E+02  0.7816164E-02  0.1266605E+00
        -11   -1    0    0    0    0  0.00000000000E+00  0.00000000000E+00  0.45593999997E+02  0.45594000000E+02  0.51100000000E-03 0. -1.
         11   -1    0    0    0    0 -0.00000000000E+00 -0.00000000000E+00 -0.45593999997E+02  0.45594000000E+02  0.51100000000E-03 0.  1.
    9900012    2    1    2    0    0  0.13906978065E+02  0.70492154773E+01  0.27814116722E+02  0.59301944007E+02  0.49999999963E+02 0.  0.
        -12    1    1    2    0    0 -0.13906978065E+02 -0.70492154773E+01 -0.27814116722E+02  0.31886055993E+02  0.00000000000E+00 0.  1.
         11    1    3    3    0    0  0.25764852986E+01 -0.99469838837E+01  0.15697862703E+01  0.10394469398E+02  0.51100000000E-03 0. -1.
        -11    1    3    3    0    0  0.15659273527E+02 -0.60827540175E+01  0.16299463716E+02  0.23406949000E+02  0.51100000000E-03 0.  1.
        -12    1    3    3    0    0 -0.43287807605E+01  0.23078953378E+02  0.99448667360E+01  0.25500525609E+02  0.00000000000E+00 0.  1.
</event>
<event>
 7    1  0.3755162E-013  0.5930193E+02  0.7816164E-02  0.1266605E+00
        -11   -1    0    0    0    0  0.00000000000E+00  0.00000000000E+00  0.45593999997E+02  0.45594000000E+02  0.51100000000E-03 0. -1.
         11   -1    0    0    0    0 -0.00000000000E+00 -0.00000000000E+00 -0.45593999997E+02  0.45594000000E+02  0.51100000000E-03 0.  1.
    9900012    2    1    2    0    0  0.31587746503E+02 -0.41551539202E+01  0.12924219917E+01  0.59301931133E+02  0.49999976482E+02 0.  0.
        -12    1    1    2    0    0 -0.31587746503E+02  0.41551539202E+01 -0.12924219917E+01  0.31886068867E+02  0.00000000000E+00 0.  1.
         11    1    3    3    0    0  0.23630991277E+00  0.11865284375E+01  0.15403530641E+02  0.15450969180E+02  0.51100000000E-03 0. -1.
        -11    1    3    3    0    0 -0.40888696272E+01  0.30422438001E+01 -0.19204676996E+01  0.54463105506E+01  0.51100000000E-03 0.  1.
         12    1    3    3    0    0  0.35440306217E+02 -0.83839261578E+01 -0.12190640950E+02  0.38404651402E+02  0.00000000000E+00 0. -1.
</event>
<event>
 7    1  0.3755162E-013  0.5930199E+02  0.7816164E-02  0.1266605E+00
        -11   -1    0    0    0    0  0.00000000000E+00  0.00000000000E+00  0.45593999997E+02  0.45594000000E+02  0.51100000000E-03 0. -1.
         11   -1    0    0    0    0 -0.00000000000E+00 -0.00000000000E+00 -0.45593999997E+02  0.45594000000E+02  0.51100000000E-03 0.  1.
    9900012    2    1    2    0    0 -0.21047984752E+02 -0.19742945133E+02 -0.13561573439E+02  0.59301987098E+02  0.50000078550E+02 0.  0.
        -12    1    1    2    0    0  0.21047984752E+02  0.19742945133E+02  0.13561573439E+02  0.31886012902E+02  0.00000000000E+00 0.  1.
         11    1    3    3    0    0  0.40741643574E+01  0.35773725365E+01  0.33954266299E+01  0.63972909685E+01  0.51100000000E-03 0. -1.
        -11    1    3    3    0    0 -0.10169671486E+02  0.54315175811E+01 -0.16947338983E+02  0.20497216890E+02  0.51100000000E-03 0.  1.
         12    1    3    3    0    0 -0.14952477622E+02 -0.28751835250E+02 -0.96610860588E-02  0.32407479239E+02  0.00000000000E+00 0. -1.
</event>
<event>
 7    1  0.3755162E-013  0.5930194E+02  0.7816164E-02  0.1266605E+00
        -11   -1    0    0    0    0  0.00000000000E+00  0.00000000000E+00  0.45593999997E+02  0.45594000000E+02  0.51100000000E-03 0.  1.
         11   -1    0    0    0    0 -0.00000000000E+00 -0.00000000000E+00 -0.45593999997E+02  0.45594000000E+02  0.51100000000E-03 0. -1.
    9900012    2    1    2    0    0 -0.27902795704E+02 -0.73830127472E+01  0.13551602079E+02  0.59301940284E+02  0.49999993172E+02 0.  0.
        -12    1    1    2    0    0  0.27902795704E+02  0.73830127472E+01 -0.13551602079E+02  0.31886059716E+02  0.00000000000E+00 0.  1.
         11    1    3    3    0    0 -0.12245528935E+02 -0.18999374277E+02  0.11193276325E+02  0.25223374813E+02  0.51100000000E-03 0. -1.
        -11    1    3    3    0    0 -0.35428087876E+01 -0.34199925911E+01 -0.10004439636E+02  0.11150634786E+02  0.51100000000E-03 0.  1.
        -12    1    3    3    0    0 -0.12114457981E+02  0.15036354121E+02  0.12362765390E+02  0.22927930685E+02  0.00000000000E+00 0.  1.
</event>
<event>
 7    1  0.3755162E-013  0.5930194E+02  0.7816164E-02  0.1266605E+00
        -11   -1    0    0    0    0  0.00000000000E+00  0.00000000000E+00  0.45593999997E+02  0.45594000000E+02  0.51100000000E-03 0. -1.
         11   -1    0    0    0    0 -0.00000000000E+00 -0.00000000000E+00 -0.45593999997E+02  0.45594000000E+02  0.51100000000E-03 0.  1.
    9900012    2    1    2    0    0  0.21836274612E+00 -0.16294129957E+02  0.27407557165E+02  0.59301944378E+02  0.50000000639E+02 0.  0.
        -12    1    1    2    0    0 -0.21836274612E+00  0.16294129957E+02 -0.27407557165E+02  0.31886055622E+02  0.00000000000E+00 0.  1.
         11    1    3    3    0    0  0.16600528033E+02 -0.18934226216E+01  0.14519318640E+02  0.22135338132E+02  0.51100000000E-03 0. -1.
        -11    1    3    3    0    0 -0.12736105303E+00 -0.79037950655E+01 -0.70799058511E+01  0.10611845476E+02  0.51100000000E-03 0.  1.
         12    1    3    3    0    0 -0.16254804234E+02 -0.64969122703E+01  0.19968144376E+02  0.26554760770E+02  0.00000000000E+00 0. -1.
</event>
<event>
 7    1  0.3755162E-013  0.5930192E+02  0.7816164E-02  0.1266605E+00
        -11   -1    0    0    0    0  0.00000000000E+00  0.00000000000E+00  0.45593999997E+02  0.45594000000E+02  0.51100000000E-03 0.  1.
         11   -1    0    0    0    0 -0.00000000000E+00 -0.00000000000E+00 -0.45593999997E+02  0.45594000000E+02  0.51100000000E-03 0. -1.
    9900012    2    1    2    0    0 -0.32916343425E+01  0.31664204428E+02 -0.18070282220E+01  0.59301920754E+02  0.49999957554E+02 0.  0.
        -12    1    1    2    0    0  0.32916343425E+01 -0.31664204428E+02  0.18070282220E+01  0.31886079246E+02  0.00000000000E+00 0.  1.
         11    1    3    3    0    0 -0.96801295333E+01  0.20127236231E+02  0.15310124926E+02  0.27077859435E+02  0.51100000000E-03 0. -1.
        -11    1    3    3    0    0  0.73889669123E+01 -0.48650641288E+01 -0.51048537213E+00  0.88615053227E+01  0.51100000000E-03 0.  1.
        -12    1    3    3    0    0 -0.10004717216E+01  0.16402032326E+02 -0.16606667775E+02  0.23362555996E+02  0.00000000000E+00 0.  1.
</event>
<event>
 7    1  0.3755162E-013  0.5930197E+02  0.7816164E-02  0.1266605E+00
        -11   -1    0    0    0    0  0.00000000000E+00  0.00000000000E+00  0.45593999997E+02  0.45594000000E+02  0.51100000000E-03 0.  1.
         11   -1    0    0    0    0 -0.00000000000E+00 -0.00000000000E+00 -0.45593999997E+02  0.45594000000E+02  0.51100000000E-03 0. -1.
    9900012    2    1    2    0    0  0.28659066439E+02 -0.13235104154E+02 -0.44954199033E+01  0.59301970595E+02  0.50000048452E+02 0.  0.
        -12    1    1    2    0    0 -0.28659066439E+02  0.13235104154E+02  0.44954199033E+01  0.31886029405E+02  0.00000000000E+00 0.  1.
         11    1    3    3    0    0  0.48585493119E+01 -0.25450334798E+01  0.17583267830E+01  0.57597230981E+01  0.51100000000E-03 0. -1.
        -11    1    3    3    0    0  0.37841978547E+02 -0.57047015593E+01 -0.41397338048E+01  0.38492809153E+02  0.51100000000E-03 0.  1.
         12    1    3    3    0    0 -0.14041461420E+02 -0.49853691149E+01 -0.21140128814E+01  0.15049438344E+02  0.00000000000E+00 0. -1.
</event>
<event>
 7    1  0.3755162E-013  0.5930193E+02  0.7816164E-02  0.1266605E+00
        -11   -1    0    0    0    0  0.00000000000E+00  0.00000000000E+00  0.45593999997E+02  0.45594000000E+02  0.51100000000E-03 0. -1.
         11   -1    0    0    0    0 -0.00000000000E+00 -0.00000000000E+00 -0.45593999997E+02  0.45594000000E+02  0.51100000000E-03 0.  1.
    9900012    2    1    2    0    0  0.26956481161E+02 -0.12560394956E+02  0.11502445366E+02  0.59301927062E+02  0.49999969058E+02 0.  0.
        -12    1    1    2    0    0 -0.26956481161E+02  0.12560394956E+02 -0.11502445366E+02  0.31886072938E+02  0.00000000000E+00 0.  1.
         11    1    3    3    0    0  0.14029692887E+01  0.14575487540E+02  0.95684712862E+01  0.17491963951E+02  0.51100000000E-03 0. -1.
        -11    1    3    3    0    0  0.36639508106E+01 -0.53483548030E+01 -0.71164986247E+01  0.96267329649E+01  0.51100000000E-03 0.  1.
        -12    1    3    3    0    0  0.21889561062E+02 -0.21787527693E+02  0.90504727043E+01  0.32183230146E+02  0.00000000000E+00 0.  1.
</event>
<event>
 7    1  0.3755162E-013  0.5930191E+02  0.7816164E-02  0.1266605E+00
        -11   -1    0    0    0    0  0.00000000000E+00  0.00000000000E+00  0.45593999997E+02  0.45594000000E+02  0.51100000000E-03 0.  1.
         11   -1    0    0    0    0 -0.00000000000E+00 -0.00000000000E+00 -0.45593999997E+02  0.45594000000E+02  0.51100000000E-03 0. -1.
    9900012    2    1    2    0    0  0.17737348368E+02 -0.10237913508E+02 -0.24439606540E+02  0.59301909490E+02  0.49999937012E+02 0.  0.
        -12    1    1    2    0    0 -0.17737348368E+02  0.10237913508E+02  0.24439606540E+02  0.31886090510E+02  0.00000000000E+00 0.  1.
         11    1    3    3    0    0  0.13110109378E+02  0.37246686758E+01 -0.22014249616E+01  0.13805592952E+02  0.51100000000E-03 0. -1.
        -11    1    3    3    0    0  0.14650172151E+02  0.29455965688E+01  0.10999533323E+01  0.14983790602E+02  0.51100000000E-03 0.  1.
         12    1    3    3    0    0 -0.10022933161E+02 -0.16908178753E+02 -0.23338134911E+02  0.30512525937E+02  0.00000000000E+00 0. -1.
</event>
<event>
 7    1  0.3755162E-013  0.5930194E+02  0.7816164E-02  0.1266605E+00
        -11   -1    0    0    0    0  0.00000000000E+00  0.00000000000E+00  0.45593999997E+02  0.45594000000E+02  0.51100000000E-03 0. -1.
         11   -1    0    0    0    0 -0.00000000000E+00 -0.00000000000E+00 -0.45593999997E+02  0.45594000000E+02  0.51100000000E-03 0.  1.
    9900012    2    1    2    0    0 -0.27026532967E+02 -0.15163066137E+02 -0.75079077707E+01  0.59301941322E+02  0.49999995066E+02 0.  0.
        -12    1    1    2    0    0  0.27026532967E+02  0.15163066137E+02  0.75079077707E+01  0.31886058678E+02  0.00000000000E+00 0.  1.
         11    1    3    3    0    0 -0.24312565339E+02 -0.30309425384E+01 -0.12720841528E+02  0.27606290144E+02  0.51100000000E-03 0. -1.
        -11    1    3    3    0    0 -0.12594670217E+02 -0.39308843110E+01 -0.61428959800E+01  0.14553787845E+02  0.51100000000E-03 0.  1.
        -12    1    3    3    0    0  0.98807025895E+01 -0.82012392878E+01  0.11355829737E+02  0.17141863333E+02  0.00000000000E+00 0.  1.
</event>
<event>
 7    1  0.3755162E-013  0.5930194E+02  0.7816164E-02  0.1266605E+00
        -11   -1    0    0    0    0  0.00000000000E+00  0.00000000000E+00  0.45593999997E+02  0.45594000000E+02  0.51100000000E-03 0.  1.
         11   -1    0    0    0    0 -0.00000000000E+00 -0.00000000000E+00 -0.45593999997E+02  0.45594000000E+02  0.51100000000E-03 0. -1.
    9900012    2    1    2    0    0  0.68128412150E+01 -0.15213198056E+02 -0.27182067100E+02  0.59301937647E+02  0.49999988363E+02 0.  0.
        -12    1    1    2    0    0 -0.68128412150E+01  0.15213198056E+02  0.27182067100E+02  0.31886062353E+02  0.00000000000E+00 0.  1.
         11    1    3    3    0    0  0.24996872316E+02 -0.12239965402E+02 -0.35139755781E+01  0.28053670050E+02  0.51100000000E-03 0. -1.
        -11    1    3    3    0    0 -0.11459727252E+02 -0.53383474951E+01 -0.11216338536E+02  0.16900578484E+02  0.51100000000E-03 0.  1.
        -12    1    3    3    0    0 -0.67243038494E+01  0.23651148410E+01 -0.12451752986E+02  0.14347689113E+02  0.00000000000E+00 0.  1.
</event>
<event>
 7    1  0.3755162E-013  0.5930194E+02  0.7816164E-02  0.1266605E+00
        -11   -1    0    0    0    0  0.00000000000E+00  0.00000000000E+00  0.45593999997E+02  0.45594000000E+02  0.51100000000E-03 0. -1.
         11   -1    0    0    0    0 -0.00000000000E+00 -0.00000000000E+00 -0.45593999997E+02  0.45594000000E+02  0.51100000000E-03 0.  1.
    9900012    2    1    2    0    0 -0.15846430372E+02  0.27293690828E+02 -0.45459542150E+01  0.59301943262E+02  0.49999998604E+02 0.  0.
        -12    1    1    2    0    0  0.15846430372E+02 -0.27293690828E+02  0.45459542150E+01  0.31886056738E+02  0.00000000000E+00 0.  1.
         11    1    3    3    0    0 -0.24961165725E+00 -0.96218871890E+01 -0.95839970481E+00  0.96727219185E+01  0.51100000000E-03 0. -1.
        -11    1    3    3    0    0  0.72385837341E+01  0.19252503597E+02 -0.27144121276E+01  0.20746662929E+02  0.51100000000E-03 0.  1.
         12    1    3    3    0    0 -0.22835402449E+02  0.17663074420E+02 -0.87314238261E+00  0.28882558415E+02  0.00000000000E+00 0. -1.
</event>
<event>
 7    1  0.3755162E-013  0.5930196E+02  0.7816164E-02  0.1266605E+00
        -11   -1    0    0    0    0  0.00000000000E+00  0.00000000000E+00  0.45593999997E+02  0.45594000000E+02  0.51100000000E-03 0.  1.
         11   -1    0    0    0    0 -0.00000000000E+00 -0.00000000000E+00 -0.45593999997E+02  0.45594000000E+02  0.51100000000E-03 0. -1.
    9900012    2    1    2    0    0  0.12826393714E+02 -0.93627827829E+01 -0.27650338637E+02  0.59301963810E+02  0.50000036078E+02 0.  0.
        -12    1    1    2    0    0 -0.12826393714E+02  0.93627827829E+01  0.27650338637E+02  0.31886036190E+02  0.00000000000E+00 0.  1.
         11    1    3    3    0    0 -0.95409348904E+01  0.30275410415E+01 -0.11892408505E+02  0.15544285884E+02  0.51100000000E-03 0. -1.
        -11    1    3    3    0    0  0.26671745500E+02  0.61585886487E+00 -0.73090410922E+01  0.27661948089E+02  0.51100000000E-03 0.  1.
         12    1    3    3    0    0 -0.43044168956E+01 -0.13006182689E+02 -0.84488890405E+01  0.16095729837E+02  0.00000000000E+00 0. -1.
</event>
<event>
 7    1  0.3755162E-013  0.5930195E+02  0.7816164E-02  0.1266605E+00
        -11   -1    0    0    0    0  0.00000000000E+00  0.00000000000E+00  0.45593999997E+02  0.45594000000E+02  0.51100000000E-03 0.  1.
         11   -1    0    0    0    0 -0.00000000000E+00 -0.00000000000E+00 -0.45593999997E+02  0.45594000000E+02  0.51100000000E-03 0. -1.
    9900012    2    1    2    0    0 -0.30045251256E+02 -0.75702949802E+01  0.75295251177E+01  0.59301949168E+02  0.50000009375E+02 0.  0.
        -12    1    1    2    0    0  0.30045251256E+02  0.75702949802E+01 -0.75295251177E+01  0.31886050832E+02  0.00000000000E+00 0.  1.
         11    1    3    3    0    0 -0.12192142000E+01 -0.30669047262E+01  0.91384164457E+01  0.97161228513E+01  0.51100000000E-03 0. -1.
        -11    1    3    3    0    0 -0.26769938086E+02  0.13245467049E+02 -0.74591171470E+01  0.30784905577E+02  0.51100000000E-03 0.  1.
         12    1    3    3    0    0 -0.20560989701E+01 -0.17748857303E+02  0.58502258190E+01  0.18800920740E+02  0.00000000000E+00 0. -1.
</event>
<event>
 7    1  0.3755162E-013  0.5930197E+02  0.7816164E-02  0.1266605E+00
        -11   -1    0    0    0    0  0.00000000000E+00  0.00000000000E+00  0.45593999997E+02  0.45594000000E+02  0.51100000000E-03 0.  1.
         11   -1    0    0    0    0 -0.00000000000E+00 -0.00000000000E+00 -0.45593999997E+02  0.45594000000E+02  0.51100000000E-03 0. -1.
    9900012    2    1    2    0    0  0.19687783203E+02  0.24537964645E+02  0.51959768318E+01  0.59301973411E+02  0.50000053588E+02 0.  0.
        -12    1    1    2    0    0 -0.19687783203E+02 -0.24537964645E+02 -0.51959768318E+01  0.31886026589E+02  0.00000000000E+00 0.  1.
         11    1    3    3    0    0  0.17768573033E+02  0.37406835308E+02  0.77647222991E+01  0.42134124270E+02  0.51100000000E-03 0. -1.
        -11    1    3    3    0    0  0.30587855629E+01  0.87426121259E+00 -0.35548972202E+00  0.32010740371E+01  0.51100000000E-03 0.  1.
         12    1    3    3    0    0 -0.11395753931E+01 -0.13743131875E+02 -0.22132557453E+01  0.13966775104E+02  0.00000000000E+00 0. -1.
</event>
<event>
 7    1  0.3755162E-013  0.5930196E+02  0.7816164E-02  0.1266605E+00
        -11   -1    0    0    0    0  0.00000000000E+00  0.00000000000E+00  0.45593999997E+02  0.45594000000E+02  0.51100000000E-03 0.  1.
         11   -1    0    0    0    0 -0.00000000000E+00 -0.00000000000E+00 -0.45593999997E+02  0.45594000000E+02  0.51100000000E-03 0. -1.
    9900012    2    1    2    0    0  0.30990686159E+02 -0.74527530944E+01  0.86812460708E+00  0.59301956069E+02  0.50000021960E+02 0.  0.
        -12    1    1    2    0    0 -0.30990686159E+02  0.74527530944E+01 -0.86812460708E+00  0.31886043931E+02  0.00000000000E+00 0.  1.
         11    1    3    3    0    0  0.16753093097E+02  0.27865391687E+01 -0.12770377591E+02  0.21248846391E+02  0.51100000000E-03 0. -1.
        -11    1    3    3    0    0  0.22918232046E+01  0.45871989861E+00 -0.95656483115E+01  0.98470556730E+01  0.51100000000E-03 0.  1.
        -12    1    3    3    0    0  0.11945769857E+02 -0.10698012162E+02  0.23204150509E+02  0.28206054005E+02  0.00000000000E+00 0.  1.
</event>
<event>
 7    1  0.3755162E-013  0.5930207E+02  0.7816164E-02  0.1266604E+00
        -11   -1    0    0    0    0  0.00000000000E+00  0.00000000000E+00  0.45593999997E+02  0.45594000000E+02  0.51100000000E-03 0. -1.
         11   -1    0    0    0    0 -0.00000000000E+00 -0.00000000000E+00 -0.45593999997E+02  0.45594000000E+02  0.51100000000E-03 0.  1.
    9900012    2    1    2    0    0 -0.10135758951E+01 -0.28793065840E+02 -0.13661797421E+02  0.59302067595E+02  0.50000225357E+02 0.  0.
        -12    1    1    2    0    0  0.10135758951E+01  0.28793065840E+02  0.13661797421E+02  0.31885932405E+02  0.00000000000E+00 0.  1.
         11    1    3    3    0    0 -0.63705046162E+01 -0.22716561422E+02 -0.78069556392E+00  0.23605825080E+02  0.51100000000E-03 0. -1.
        -11    1    3    3    0    0  0.40435567119E+01  0.18811259078E+01 -0.22617626227E+02  0.23053112631E+02  0.51100000000E-03 0.  1.
         12    1    3    3    0    0  0.13133720092E+01 -0.79576303259E+01  0.97365243705E+01  0.12643129884E+02  0.00000000000E+00 0. -1.
</event>
<event>
 7    1  0.3755162E-013  0.5930197E+02  0.7816164E-02  0.1266605E+00
        -11   -1    0    0    0    0  0.00000000000E+00  0.00000000000E+00  0.45593999997E+02  0.45594000000E+02  0.51100000000E-03 0.  1.
         11   -1    0    0    0    0 -0.00000000000E+00 -0.00000000000E+00 -0.45593999997E+02  0.45594000000E+02  0.51100000000E-03 0. -1.
    9900012    2    1    2    0    0 -0.88677414023E+01 -0.21912196915E+02 -0.21399485640E+02  0.59301965488E+02  0.50000039139E+02 0.  0.
        -12    1    1    2    0    0  0.88677414023E+01  0.21912196915E+02  0.21399485640E+02  0.31886034512E+02  0.00000000000E+00 0.  1.
         11    1    3    3    0    0 -0.36212766145E+01 -0.13842197102E+02 -0.19085429952E+01  0.14434770575E+02  0.51100000000E-03 0. -1.
        -11    1    3    3    0    0  0.94120357626E+01 -0.92221748724E+01  0.67366049532E+01  0.14799215288E+02  0.51100000000E-03 0.  1.
        -12    1    3    3    0    0 -0.14658500550E+02  0.11521750593E+01 -0.26227547598E+02  0.30067979626E+02  0.00000000000E+00 0.  1.
</event>
<event>
 7    1  0.3755162E-013  0.5930194E+02  0.7816164E-02  0.1266605E+00
        -11   -1    0    0    0    0  0.00000000000E+00  0.00000000000E+00  0.45593999997E+02  0.45594000000E+02  0.51100000000E-03 0. -1.
         11   -1    0    0    0    0 -0.00000000000E+00 -0.00000000000E+00 -0.45593999997E+02  0.45594000000E+02  0.51100000000E-03 0.  1.
    9900012    2    1    2    0    0 -0.29481084547E+01  0.64197385536E+01  0.31093672820E+02  0.59301939158E+02  0.49999991119E+02 0.  0.
        -12    1    1    2    0    0  0.29481084547E+01 -0.64197385536E+01 -0.31093672820E+02  0.31886060842E+02  0.00000000000E+00 0.  1.
         11    1    3    3    0    0 -0.12511926482E+02  0.10430919949E+02  0.21086563540E+01  0.16425554090E+02  0.51100000000E-03 0. -1.
        -11    1    3    3    0    0  0.23714684990E+01  0.56416730055E+01 -0.43013276140E+01  0.74802243714E+01  0.51100000000E-03 0.  1.
        -12    1    3    3    0    0  0.71923495287E+01 -0.96528544006E+01  0.33286344080E+02  0.35396160697E+02  0.00000000000E+00 0.  1.
</event>
<event>
 7    1  0.3755162E-013  0.5930195E+02  0.7816164E-02  0.1266605E+00
        -11   -1    0    0    0    0  0.00000000000E+00  0.00000000000E+00  0.45593999997E+02  0.45594000000E+02  0.51100000000E-03 0. -1.
         11   -1    0    0    0    0 -0.00000000000E+00 -0.00000000000E+00 -0.45593999997E+02  0.45594000000E+02  0.51100000000E-03 0.  1.
    9900012    2    1    2    0    0  0.14896921591E+02 -0.20467255516E+02  0.19387976460E+02  0.59301945800E+02  0.50000003232E+02 0.  0.
        -12    1    1    2    0    0 -0.14896921591E+02  0.20467255516E+02 -0.19387976460E+02  0.31886054200E+02  0.00000000000E+00 0.  1.
         11    1    3    3    0    0 -0.17117015065E+01 -0.15467312371E+01  0.12266166193E+01  0.26128314448E+01  0.51100000000E-03 0. -1.
        -11    1    3    3    0    0  0.11507450776E+02 -0.33386967185E+02  0.35297271557E+01  0.35490420894E+02  0.51100000000E-03 0.  1.
         12    1    3    3    0    0  0.51011723221E+01  0.14466442906E+02  0.14631632685E+02  0.21198693461E+02  0.00000000000E+00 0. -1.
</event>
<event>
 7    1  0.3755162E-013  0.5930194E+02  0.7816164E-02  0.1266605E+00
        -11   -1    0    0    0    0  0.00000000000E+00  0.00000000000E+00  0.45593999997E+02  0.45594000000E+02  0.51100000000E-03 0.  1.
         11   -1    0    0    0    0 -0.00000000000E+00 -0.00000000000E+00 -0.45593999997E+02  0.45594000000E+02  0.51100000000E-03 0. -1.
    9900012    2    1    2    0    0  0.23602944086E+02 -0.14375343138E+02 -0.15905080672E+02  0.59301936414E+02  0.49999986114E+02 0.  0.
        -12    1    1    2    0    0 -0.23602944086E+02  0.14375343138E+02  0.15905080672E+02  0.31886063586E+02  0.00000000000E+00 0.  1.
         11    1    3    3    0    0 -0.27615315801E+01 -0.30682785782E+00 -0.26984689173E+01  0.38732331147E+01  0.51100000000E-03 0. -1.
        -11    1    3    3    0    0 -0.76855972493E+01 -0.17848990844E+02 -0.28709007579E+01  0.19644259992E+02  0.51100000000E-03 0.  1.
         12    1    3    3    0    0  0.34050072915E+02  0.37804755635E+01 -0.10335710996E+02  0.35784443307E+02  0.00000000000E+00 0. -1.
</event>
<event>
 7    1  0.3755162E-013  0.5930194E+02  0.7816164E-02  0.1266605E+00
        -11   -1    0    0    0    0  0.00000000000E+00  0.00000000000E+00  0.45593999997E+02  0.45594000000E+02  0.51100000000E-03 0.  1.
         11   -1    0    0    0    0 -0.00000000000E+00 -0.00000000000E+00 -0.45593999997E+02  0.45594000000E+02  0.51100000000E-03 0. -1.
    9900012    2    1    2    0    0  0.29334383188E+02 -0.22874010061E+01 -0.12287497029E+02  0.59301939980E+02  0.49999992618E+02 0.  0.
        -12    1    1    2    0    0 -0.29334383188E+02  0.22874010061E+01  0.12287497029E+02  0.31886060020E+02  0.00000000000E+00 0.  1.
         11    1    3    3    0    0  0.14579523077E+02 -0.19731273993E+02 -0.11297806934E+02  0.27009740990E+02  0.51100000000E-03 0. -1.
        -11    1    3    3    0    0 -0.81752832480E+00 -0.11359968789E+01 -0.71445442789E+01  0.72803402863E+01  0.51100000000E-03 0.  1.
         12    1    3    3    0    0  0.15572388435E+02  0.18579869866E+02  0.61548541836E+01  0.25011858704E+02  0.00000000000E+00 0. -1.
</event>
<event>
 7    1  0.3755162E-013  0.5930194E+02  0.7816164E-02  0.1266605E+00
        -11   -1    0    0    0    0  0.00000000000E+00  0.00000000000E+00  0.45593999997E+02  0.45594000000E+02  0.51100000000E-03 0.  1.
         11   -1    0    0    0    0 -0.00000000000E+00 -0.00000000000E+00 -0.45593999997E+02  0.45594000000E+02  0.51100000000E-03 0. -1.
    9900012    2    1    2    0    0  0.30158681175E+02 -0.82771087144E+01 -0.62180556475E+01  0.59301940429E+02  0.49999993438E+02 0.  0.
        -12    1    1    2    0    0 -0.30158681175E+02  0.82771087144E+01  0.62180556475E+01  0.31886059571E+02  0.00000000000E+00 0.  1.
         11    1    3    3    0    0  0.74111944873E+01 -0.15241089873E+01  0.88775044183E+00  0.76181896171E+01  0.51100000000E-03 0. -1.
        -11    1    3    3    0    0  0.24393457169E+02 -0.23447797672E+02 -0.10608124275E+01  0.33852109115E+02  0.51100000000E-03 0.  1.
         12    1    3    3    0    0 -0.16459704808E+01  0.16694797945E+02 -0.60449936618E+01  0.17831641697E+02  0.00000000000E+00 0. -1.
</event>
<event>
 7    1  0.3755162E-013  0.5930194E+02  0.7816164E-02  0.1266605E+00
        -11   -1    0    0    0    0  0.00000000000E+00  0.00000000000E+00  0.45593999997E+02  0.45594000000E+02  0.51100000000E-03 0.  1.
         11   -1    0    0    0    0 -0.00000000000E+00 -0.00000000000E+00 -0.45593999997E+02  0.45594000000E+02  0.51100000000E-03 0. -1.
    9900012    2    1    2    0    0 -0.13341749691E+02 -0.18310315524E+02 -0.22437707413E+02  0.59301942649E+02  0.49999997486E+02 0.  0.
        -12    1    1    2    0    0  0.13341749691E+02  0.18310315524E+02  0.22437707413E+02  0.31886057351E+02  0.00000000000E+00 0.  1.
         11    1    3    3    0    0  0.10726674511E+02  0.13430530257E+01  0.24073465578E+01  0.11075227095E+02  0.51100000000E-03 0. -1.
        -11    1    3    3    0    0 -0.58600315111E+01  0.46032359233E+01  0.20076131611E+01  0.77175294714E+01  0.51100000000E-03 0.  1.
         12    1    3    3    0    0 -0.18208392691E+02 -0.24256604473E+02 -0.26852667132E+02  0.40509186083E+02  0.00000000000E+00 0. -1.
</event>
<event>
 7    1  0.3755162E-013  0.5930188E+02  0.7816164E-02  0.1266605E+00
        -11   -1    0    0    0    0  0.00000000000E+00  0.00000000000E+00  0.45593999997E+02  0.45594000000E+02  0.51100000000E-03 0.  1.
         11   -1    0    0    0    0 -0.00000000000E+00 -0.00000000000E+00 -0.45593999997E+02  0.45594000000E+02  0.51100000000E-03 0. -1.
    9900012    2    1    2    0    0  0.12583566402E+02 -0.21222163229E+02 -0.20198974008E+02  0.59301875957E+02  0.49999875855E+02 0.  0.
        -12    1    1    2    0    0 -0.12583566402E+02  0.21222163229E+02  0.20198974008E+02  0.31886124043E+02  0.00000000000E+00 0.  1.
         11    1    3    3    0    0 -0.48075538749E+01 -0.18281891273E-02 -0.73378878778E+01  0.87725239453E+01  0.51100000000E-03 0. -1.
        -11    1    3    3    0    0 -0.12350804631E+02 -0.11976071331E+02 -0.81249677869E+01  0.19025870844E+02  0.51100000000E-03 0.  1.
        -12    1    3    3    0    0  0.29741924907E+02 -0.92442637088E+01 -0.47361183438E+01  0.31503481168E+02  0.00000000000E+00 0.  1.
</event>
<event>
 7    1  0.3755162E-013  0.5930195E+02  0.7816164E-02  0.1266605E+00
        -11   -1    0    0    0    0  0.00000000000E+00  0.00000000000E+00  0.45593999997E+02  0.45594000000E+02  0.51100000000E-03 0.  1.
         11   -1    0    0    0    0 -0.00000000000E+00 -0.00000000000E+00 -0.45593999997E+02  0.45594000000E+02  0.51100000000E-03 0. -1.
    9900012    2    1    2    0    0  0.25678517357E+01 -0.31656548230E+02  0.28264852973E+01  0.59301954032E+02  0.50000018245E+02 0.  0.
        -12    1    1    2    0    0 -0.25678517357E+01  0.31656548230E+02 -0.28264852973E+01  0.31886045968E+02  0.00000000000E+00 0.  1.
         11    1    3    3    0    0  0.55040894061E+01 -0.36285690140E+02 -0.58862467902E+01  0.37169802403E+02  0.51100000000E-03 0. -1.
        -11    1    3    3    0    0 -0.56492347350E+01 -0.43104915118E+01 -0.25042378214E+01  0.75342814848E+01  0.51100000000E-03 0.  1.
        -12    1    3    3    0    0  0.27129970647E+01  0.89396334226E+01  0.11216969909E+02  0.14597870144E+02  0.00000000000E+00 0.  1.
</event>
<event>
 7    1  0.3755162E-013  0.5930192E+02  0.7816164E-02  0.1266605E+00
        -11   -1    0    0    0    0  0.00000000000E+00  0.00000000000E+00  0.45593999997E+02  0.45594000000E+02  0.51100000000E-03 0.  1.
         11   -1    0    0    0    0 -0.00000000000E+00 -0.00000000000E+00 -0.45593999997E+02  0.45594000000E+02  0.51100000000E-03 0. -1.
    9900012    2    1    2    0    0  0.21951919663E+02  0.10555971788E+02 -0.20576852128E+02  0.59301919013E+02  0.49999954378E+02 0.  0.
        -12    1    1    2    0    0 -0.21951919663E+02 -0.10555971788E+02  0.20576852128E+02  0.31886080987E+02  0.00000000000E+00 0.  1.
         11    1    3    3    0    0  0.12199580166E+02 -0.72085810349E+01 -0.22322595132E+02  0.26440341345E+02  0.51100000000E-03 0. -1.
        -11    1    3    3    0    0  0.60996600147E+01  0.10861451445E+02 -0.11843133123E+02  0.17188274556E+02  0.51100000000E-03 0.  1.
        -12    1    3    3    0    0  0.36526794817E+01  0.69031013779E+01  0.13588876127E+02  0.15673303112E+02  0.00000000000E+00 0.  1.
</event>
<event>
 7    1  0.3755162E-013  0.5930191E+02  0.7816164E-02  0.1266605E+00
        -11   -1    0    0    0    0  0.00000000000E+00  0.00000000000E+00  0.45593999997E+02  0.45594000000E+02  0.51100000000E-03 0.  1.
         11   -1    0    0    0    0 -0.00000000000E+00 -0.00000000000E+00 -0.45593999997E+02  0.45594000000E+02  0.51100000000E-03 0. -1.
    9900012    2    1    2    0    0  0.73705958361E+01 -0.20762104990E+02 -0.23050634381E+02  0.59301914760E+02  0.49999946622E+02 0.  0.
        -12    1    1    2    0    0 -0.73705958361E+01  0.20762104990E+02  0.23050634381E+02  0.31886085240E+02  0.00000000000E+00 0.  1.
         11    1    3    3    0    0  0.15731141618E+02 -0.79702723876E+01 -0.10897054051E+02  0.20730167529E+02  0.51100000000E-03 0. -1.
        -11    1    3    3    0    0  0.86342456526E+01 -0.14042011206E+02 -0.13736883103E+02  0.21457638135E+02  0.51100000000E-03 0.  1.
        -12    1    3    3    0    0 -0.16994791434E+02  0.12501786039E+01  0.15833027734E+01  0.17114109095E+02  0.00000000000E+00 0.  1.
</event>
<event>
 7    1  0.3755162E-013  0.5930196E+02  0.7816164E-02  0.1266605E+00
        -11   -1    0    0    0    0  0.00000000000E+00  0.00000000000E+00  0.45593999997E+02  0.45594000000E+02  0.51100000000E-03 0. -1.
         11   -1    0    0    0    0 -0.00000000000E+00 -0.00000000000E+00 -0.45593999997E+02  0.45594000000E+02  0.51100000000E-03 0.  1.
    9900012    2    1    2    0    0 -0.24892050605E+02 -0.17817006666E+02 -0.89252404217E+01  0.59301955617E+02  0.50000021136E+02 0.  0.
        -12    1    1    2    0    0  0.24892050605E+02  0.17817006666E+02  0.89252404217E+01  0.31886044383E+02  0.00000000000E+00 0.  1.
         11    1    3    3    0    0 -0.22770834644E+01  0.10044065835E+02  0.71222248179E+01  0.12521759230E+02  0.51100000000E-03 0. -1.
        -11    1    3    3    0    0  0.59830432892E+00 -0.30394712685E+01 -0.12189648426E+02  0.12577117423E+02  0.51100000000E-03 0.  1.
        -12    1    3    3    0    0 -0.23213271469E+02 -0.24821601232E+02 -0.38578168136E+01  0.34203078964E+02  0.00000000000E+00 0.  1.
</event>
<event>
 7    1  0.3755162E-013  0.5930202E+02  0.7816164E-02  0.1266605E+00
        -11   -1    0    0    0    0  0.00000000000E+00  0.00000000000E+00  0.45593999997E+02  0.45594000000E+02  0.51100000000E-03 0.  1.
         11   -1    0    0    0    0 -0.00000000000E+00 -0.00000000000E+00 -0.45593999997E+02  0.45594000000E+02  0.51100000000E-03 0. -1.
    9900012    2    1    2    0    0 -0.22028620589E+02 -0.19711324205E+02 -0.11954896555E+02  0.59302015954E+02  0.50000131176E+02 0.  0.
        -12    1    1    2    0    0  0.22028620589E+02  0.19711324205E+02  0.11954896555E+02  0.31885984046E+02  0.00000000000E+00 0.  1.
         11    1    3    3    0    0  0.66466797059E+01  0.83188306927E+01 -0.16339484904E+01  0.10772700828E+02  0.51100000000E-03 0. -1.
        -11    1    3    3    0    0 -0.18064151523E+02 -0.20309853630E+01  0.11073761575E+01  0.18211665327E+02  0.51100000000E-03 0.  1.
        -12    1    3    3    0    0 -0.10611148772E+02 -0.25999169535E+02 -0.11428324222E+02  0.30317649798E+02  0.00000000000E+00 0.  1.
</event>
<event>
 7    1  0.3755162E-013  0.5930198E+02  0.7816164E-02  0.1266605E+00
        -11   -1    0    0    0    0  0.00000000000E+00  0.00000000000E+00  0.45593999997E+02  0.45594000000E+02  0.51100000000E-03 0. -1.
         11   -1    0    0    0    0 -0.00000000000E+00 -0.00000000000E+00 -0.45593999997E+02  0.45594000000E+02  0.51100000000E-03 0.  1.
    9900012    2    1    2    0    0 -0.12124811829E+02 -0.22632566270E+02  0.18906994964E+02  0.59301975217E+02  0.50000056883E+02 0.  0.
        -12    1    1    2    0    0  0.12124811829E+02  0.22632566270E+02 -0.18906994964E+02  0.31886024783E+02  0.00000000000E+00 0.  1.
         11    1    3    3    0    0 -0.68216267046E+01  0.45356259901E+01  0.17631282266E+02  0.19441414779E+02  0.51100000000E-03 0. -1.
        -11    1    3    3    0    0 -0.13542362528E+02 -0.24065790299E+02  0.80366572558E+01  0.28760140918E+02  0.51100000000E-03 0.  1.
        -12    1    3    3    0    0  0.82391774032E+01 -0.31024019612E+01 -0.67609445574E+01  0.11100419520E+02  0.00000000000E+00 0.  1.
</event>
<event>
 7    1  0.3755162E-013  0.5930194E+02  0.7816164E-02  0.1266605E+00
        -11   -1    0    0    0    0  0.00000000000E+00  0.00000000000E+00  0.45593999997E+02  0.45594000000E+02  0.51100000000E-03 0. -1.
         11   -1    0    0    0    0 -0.00000000000E+00 -0.00000000000E+00 -0.45593999997E+02  0.45594000000E+02  0.51100000000E-03 0.  1.
    9900012    2    1    2    0    0 -0.30480427135E+02 -0.91216381497E+01  0.21118506520E+01  0.59301942953E+02  0.49999998039E+02 0.  0.
        -12    1    1    2    0    0  0.30480427135E+02  0.91216381497E+01 -0.21118506520E+01  0.31886057047E+02  0.00000000000E+00 0.  1.
         11    1    3    3    0    0  0.27390589173E+01  0.58826709591E+01  0.65221459203E+01  0.92003613533E+01  0.51100000000E-03 0. -1.
        -11    1    3    3    0    0 -0.46185054609E+01  0.10429520910E+02  0.98672736711E+00  0.11448979442E+02  0.51100000000E-03 0.  1.
        -12    1    3    3    0    0 -0.28600980591E+02 -0.25433830019E+02 -0.53970226354E+01  0.38652602157E+02  0.00000000000E+00 0.  1.
</event>
<event>
 7    1  0.3755162E-013  0.5930186E+02  0.7816164E-02  0.1266605E+00
        -11   -1    0    0    0    0  0.00000000000E+00  0.00000000000E+00  0.45593999997E+02  0.45594000000E+02  0.51100000000E-03 0. -1.
         11   -1    0    0    0    0 -0.00000000000E+00 -0.00000000000E+00 -0.45593999997E+02  0.45594000000E+02  0.51100000000E-03 0.  1.
    9900012    2    1    2    0    0  0.18679050169E+02 -0.25841451609E+02  0.19582367258E+00  0.59301860638E+02  0.49999847917E+02 0.  0.
        -12    1    1    2    0    0 -0.18679050169E+02  0.25841451609E+02 -0.19582367258E+00  0.31886139362E+02  0.00000000000E+00 0.  1.
         11    1    3    3    0    0  0.14271329004E+02 -0.78297753575E+01 -0.10472216473E+02  0.19355710573E+02  0.51100000000E-03 0. -1.
        -11    1    3    3    0    0 -0.33677692952E+01 -0.11416155805E+02 -0.10868391758E+02  0.16118077523E+02  0.51100000000E-03 0.  1.
         12    1    3    3    0    0  0.77754904607E+01 -0.65955204472E+01  0.21536431904E+02  0.23828072541E+02  0.00000000000E+00 0. -1.
</event>
<event>
 7    1  0.3755162E-013  0.5930195E+02  0.7816164E-02  0.1266605E+00
        -11   -1    0    0    0    0  0.00000000000E+00  0.00000000000E+00  0.45593999997E+02  0.45594000000E+02  0.51100000000E-03 0.  1.
         11   -1    0    0    0    0 -0.00000000000E+00 -0.00000000000E+00 -0.45593999997E+02  0.45594000000E+02  0.51100000000E-03 0. -1.
    9900012    2    1    2    0    0 -0.20673736368E+02 -0.12639930467E+02 -0.20725562235E+02  0.59301950580E+02  0.50000011950E+02 0.  0.
        -12    1    1    2    0    0  0.20673736368E+02  0.12639930467E+02  0.20725562235E+02  0.31886049420E+02  0.00000000000E+00 0.  1.
         11    1    3    3    0    0 -0.96041921235E+00 -0.98499540424E+01 -0.50803540461E+01  0.11124477390E+02  0.51100000000E-03 0. -1.
        -11    1    3    3    0    0 -0.15211748472E+02 -0.15625883214E+02  0.59957163876E+01  0.22616678206E+02  0.51100000000E-03 0.  1.
         12    1    3    3    0    0 -0.45015686842E+01  0.12835906790E+02 -0.21640924576E+02  0.25560794985E+02  0.00000000000E+00 0. -1.
</event>
<event>
 7    1  0.3755162E-013  0.5930232E+02  0.7816164E-02  0.1266603E+00
        -11   -1    0    0    0    0  0.00000000000E+00  0.00000000000E+00  0.45593999997E+02  0.45594000000E+02  0.51100000000E-03 0.  1.
         11   -1    0    0    0    0 -0.00000000000E+00 -0.00000000000E+00 -0.45593999997E+02  0.45594000000E+02  0.51100000000E-03 0. -1.
    9900012    2    1    2    0    0 -0.27371337261E+02  0.67396725575E+01 -0.14902451285E+02  0.59302323844E+02  0.50000692689E+02 0.  0.
        -12    1    1    2    0    0  0.27371337261E+02 -0.67396725575E+01  0.14902451285E+02  0.31885676156E+02  0.00000000000E+00 0.  1.
         11    1    3    3    0    0 -0.23937649705E+02  0.15047470958E+02 -0.10817568023E+02  0.30273044674E+02  0.51100000000E-03 0. -1.
        -11    1    3    3    0    0 -0.11653303853E+02 -0.97169233234E+01 -0.10547437712E+02  0.18478813060E+02  0.51100000000E-03 0.  1.
        -12    1    3    3    0    0  0.82196162967E+01  0.14091249229E+01  0.64625544501E+01  0.10550466110E+02  0.00000000000E+00 0.  1.
</event>
<event>
 7    1  0.3755162E-013  0.5930192E+02  0.7816164E-02  0.1266605E+00
        -11   -1    0    0    0    0  0.00000000000E+00  0.00000000000E+00  0.45593999997E+02  0.45594000000E+02  0.51100000000E-03 0. -1.
         11   -1    0    0    0    0 -0.00000000000E+00 -0.00000000000E+00 -0.45593999997E+02  0.45594000000E+02  0.51100000000E-03 0.  1.
    9900012    2    1    2    0    0 -0.14986089773E+01 -0.54528572357E+01  0.31380605647E+02  0.59301923231E+02  0.49999962073E+02 0.  0.
        -12    1    1    2    0    0  0.14986089773E+01  0.54528572357E+01 -0.31380605647E+02  0.31886076769E+02  0.00000000000E+00 0.  1.
         11    1    3    3    0    0 -0.27516091653E+01  0.15557075907E+02  0.21055215436E+02  0.26323298827E+02  0.51100000000E-03 0. -1.
        -11    1    3    3    0    0  0.11513153230E+02 -0.73824850416E+01  0.77711532164E+01  0.15730372064E+02  0.51100000000E-03 0.  1.
        -12    1    3    3    0    0 -0.10260153042E+02 -0.13627448101E+02  0.25542369946E+01  0.17248252341E+02  0.00000000000E+00 0.  1.
</event>
<event>
 7    1  0.3755162E-013  0.5930213E+02  0.7816164E-02  0.1266604E+00
        -11   -1    0    0    0    0  0.00000000000E+00  0.00000000000E+00  0.45593999997E+02  0.45594000000E+02  0.51100000000E-03 0.  1.
         11   -1    0    0    0    0 -0.00000000000E+00 -0.00000000000E+00 -0.45593999997E+02  0.45594000000E+02  0.51100000000E-03 0. -1.
    9900012    2    1    2    0    0 -0.49534508511E+01 -0.56791150837E-01 -0.31498706900E+02  0.59302134214E+02  0.50000346853E+02 0.  0.
        -12    1    1    2    0    0  0.49534508511E+01  0.56791150837E-01  0.31498706900E+02  0.31885865786E+02  0.00000000000E+00 0.  1.
         11    1    3    3    0    0 -0.23061276286E+01 -0.60515984319E+01  0.61127373153E+01  0.89053706249E+01  0.51100000000E-03 0. -1.
        -11    1    3    3    0    0 -0.20038441536E+00 -0.51241279869E+01  0.44697857976E+01  0.68026338191E+01  0.51100000000E-03 0.  1.
         12    1    3    3    0    0 -0.24469388071E+01  0.11118935268E+02 -0.42081230013E+02  0.43594129770E+02  0.00000000000E+00 0. -1.
</event>
<event>
 7    1  0.3755162E-013  0.5930199E+02  0.7816164E-02  0.1266605E+00
        -11   -1    0    0    0    0  0.00000000000E+00  0.00000000000E+00  0.45593999997E+02  0.45594000000E+02  0.51100000000E-03 0.  1.
         11   -1    0    0    0    0 -0.00000000000E+00 -0.00000000000E+00 -0.45593999997E+02  0.45594000000E+02  0.51100000000E-03 0. -1.
    9900012    2    1    2    0    0  0.21381236898E+02  0.21732886259E+02 -0.93403260574E+01  0.59301994806E+02  0.50000092607E+02 0.  0.
        -12    1    1    2    0    0 -0.21381236898E+02 -0.21732886259E+02  0.93403260574E+01  0.31886005194E+02  0.00000000000E+00 0.  1.
         11    1    3    3    0    0  0.62703028181E+01  0.20201448237E+02 -0.24418730442E+02  0.32306185243E+02  0.51100000000E-03 0. -1.
        -11    1    3    3    0    0  0.13968711023E+02  0.56202117735E+01  0.46852843050E+01  0.15769069640E+02  0.51100000000E-03 0.  1.
        -12    1    3    3    0    0  0.11422230565E+01 -0.40887737521E+01  0.10393120080E+02  0.11226739923E+02  0.00000000000E+00 0.  1.
</event>
<event>
 7    1  0.3755162E-013  0.5930193E+02  0.7816164E-02  0.1266605E+00
        -11   -1    0    0    0    0  0.00000000000E+00  0.00000000000E+00  0.45593999997E+02  0.45594000000E+02  0.51100000000E-03 0. -1.
         11   -1    0    0    0    0 -0.00000000000E+00 -0.00000000000E+00 -0.45593999997E+02  0.45594000000E+02  0.51100000000E-03 0.  1.
    9900012    2    1    2    0    0 -0.42195225101E+01  0.30272360816E+02 -0.90830088557E+01  0.59301933303E+02  0.49999980440E+02 0.  0.
        -12    1    1    2    0    0  0.42195225101E+01 -0.30272360816E+02  0.90830088557E+01  0.31886066697E+02  0.00000000000E+00 0.  1.
         11    1    3    3    0    0 -0.68186975576E+01  0.96042361598E+00  0.56605726592E+01  0.89139852477E+01  0.51100000000E-03 0. -1.
        -11    1    3    3    0    0 -0.12508342916E+02  0.29950734151E+02 -0.62808763291E+01  0.33059862770E+02  0.51100000000E-03 0.  1.
         12    1    3    3    0    0  0.15107517964E+02 -0.63879695097E+00 -0.84627051859E+01  0.17328085285E+02  0.00000000000E+00 0. -1.
</event>
<event>
 7    1  0.3755162E-013  0.5930200E+02  0.7816164E-02  0.1266605E+00
        -11   -1    0    0    0    0  0.00000000000E+00  0.00000000000E+00  0.45593999997E+02  0.45594000000E+02  0.51100000000E-03 0.  1.
         11   -1    0    0    0    0 -0.00000000000E+00 -0.00000000000E+00 -0.45593999997E+02  0.45594000000E+02  0.51100000000E-03 0. -1.
    9900012    2    1    2    0    0  0.29014976705E+01 -0.22777613120E+02 -0.22124166446E+02  0.59301998540E+02  0.50000099417E+02 0.  0.
        -12    1    1    2    0    0 -0.29014976705E+01  0.22777613120E+02  0.22124166446E+02  0.31886001460E+02  0.00000000000E+00 0.  1.
         11    1    3    3    0    0  0.11263673904E+02 -0.20859732360E+02 -0.33401217399E+02  0.40959005212E+02  0.51100000000E-03 0. -1.
        -11    1    3    3    0    0 -0.41115014793E+01 -0.37557304055E+01 -0.59436863074E+00  0.56002883518E+01  0.51100000000E-03 0.  1.
        -12    1    3    3    0    0 -0.42506747540E+01  0.18378496449E+01  0.11871419584E+02  0.12742704976E+02  0.00000000000E+00 0.  1.
</event>
<event>
 7    1  0.3755162E-013  0.5930196E+02  0.7816164E-02  0.1266605E+00
        -11   -1    0    0    0    0  0.00000000000E+00  0.00000000000E+00  0.45593999997E+02  0.45594000000E+02  0.51100000000E-03 0.  1.
         11   -1    0    0    0    0 -0.00000000000E+00 -0.00000000000E+00 -0.45593999997E+02  0.45594000000E+02  0.51100000000E-03 0. -1.
    9900012    2    1    2    0    0  0.30829983031E+02  0.53819808954E+01 -0.61046067416E+01  0.59301956101E+02  0.50000022019E+02 0.  0.
        -12    1    1    2    0    0 -0.30829983031E+02 -0.53819808954E+01  0.61046067416E+01  0.31886043899E+02  0.00000000000E+00 0.  1.
         11    1    3    3    0    0 -0.13058274281E+01  0.93705110318E+01 -0.24112392276E+01  0.97634900084E+01  0.51100000000E-03 0. -1.
        -11    1    3    3    0    0  0.11873576571E+02  0.92200435509E+01  0.13224308106E+02  0.20021821816E+02  0.51100000000E-03 0.  1.
        -12    1    3    3    0    0  0.20262233888E+02 -0.13208573687E+02 -0.16917675620E+02  0.29516644277E+02  0.00000000000E+00 0.  1.
</event>
<event>
 7    1  0.3755162E-013  0.5930193E+02  0.7816164E-02  0.1266605E+00
        -11   -1    0    0    0    0  0.00000000000E+00  0.00000000000E+00  0.45593999997E+02  0.45594000000E+02  0.51100000000E-03 0. -1.
         11   -1    0    0    0    0 -0.00000000000E+00 -0.00000000000E+00 -0.45593999997E+02  0.45594000000E+02  0.51100000000E-03 0.  1.
    9900012    2    1    2    0    0 -0.28365967997E+02  0.73063763721E+01 -0.12598014017E+02  0.59301933556E+02  0.49999980901E+02 0.  0.
        -12    1    1    2    0    0  0.28365967997E+02 -0.73063763721E+01  0.12598014017E+02  0.31886066444E+02  0.00000000000E+00 0.  1.
         11    1    3    3    0    0 -0.30250937243E+01  0.64241044456E+01  0.59587234385E+01  0.92696653254E+01  0.51100000000E-03 0. -1.
        -11    1    3    3    0    0 -0.10830594197E+02  0.16614102995E+02  0.25230025254E+01  0.19992391827E+02  0.51100000000E-03 0.  1.
        -12    1    3    3    0    0 -0.14510280076E+02 -0.15731831068E+02 -0.21079739981E+02  0.30039876403E+02  0.00000000000E+00 0.  1.
</event>
<event>
 7    1  0.3755162E-013  0.5930194E+02  0.7816164E-02  0.1266605E+00
        -11   -1    0    0    0    0  0.00000000000E+00  0.00000000000E+00  0.45593999997E+02  0.45594000000E+02  0.51100000000E-03 0.  1.
         11   -1    0    0    0    0 -0.00000000000E+00 -0.00000000000E+00 -0.45593999997E+02  0.45594000000E+02  0.51100000000E-03 0. -1.
    9900012    2    1    2    0    0  0.26096086290E+02 -0.11071955800E+02  0.14598859143E+02  0.59301943279E+02  0.49999998635E+02 0.  0.
        -12    1    1    2    0    0 -0.26096086290E+02  0.11071955800E+02 -0.14598859143E+02  0.31886056721E+02  0.00000000000E+00 0.  1.
         11    1    3    3    0    0  0.16318961033E+02  0.43867467021E+01  0.37690940766E+01  0.17313523796E+02  0.51100000000E-03 0. -1.
        -11    1    3    3    0    0 -0.34672459802E+01  0.47615091188E+01  0.16191178474E+02  0.17229278117E+02  0.51100000000E-03 0.  1.
         12    1    3    3    0    0  0.13244371238E+02 -0.20220211621E+02 -0.53614134079E+01  0.24759141367E+02  0.00000000000E+00 0. -1.
</event>
<event>
 7    1  0.3755162E-013  0.5930195E+02  0.7816164E-02  0.1266605E+00
        -11   -1    0    0    0    0  0.00000000000E+00  0.00000000000E+00  0.45593999997E+02  0.45594000000E+02  0.51100000000E-03 0. -1.
         11   -1    0    0    0    0 -0.00000000000E+00 -0.00000000000E+00 -0.45593999997E+02  0.45594000000E+02  0.51100000000E-03 0.  1.
    9900012    2    1    2    0    0  0.10325503304E+02 -0.24118134172E+02  0.18122360163E+02  0.59301947370E+02  0.50000006096E+02 0.  0.
        -12    1    1    2    0    0 -0.10325503304E+02  0.24118134172E+02 -0.18122360163E+02  0.31886052630E+02  0.00000000000E+00 0.  1.
         11    1    3    3    0    0  0.10679354870E+02 -0.91908287571E+01  0.46777522415E+01  0.14845919304E+02  0.51100000000E-03 0. -1.
        -11    1    3    3    0    0  0.16597942921E+02 -0.16701995010E+02  0.14057293884E+01  0.23588650277E+02  0.51100000000E-03 0.  1.
         12    1    3    3    0    0 -0.16951794487E+02  0.17746895946E+01  0.12038878533E+02  0.20867377790E+02  0.00000000000E+00 0. -1.
</event>
<event>
 7    1  0.3755162E-013  0.5930195E+02  0.7816164E-02  0.1266605E+00
        -11   -1    0    0    0    0  0.00000000000E+00  0.00000000000E+00  0.45593999997E+02  0.45594000000E+02  0.51100000000E-03 0. -1.
         11   -1    0    0    0    0 -0.00000000000E+00 -0.00000000000E+00 -0.45593999997E+02  0.45594000000E+02  0.51100000000E-03 0.  1.
    9900012    2    1    2    0    0  0.12917572529E+02 -0.19485236098E+02  0.21683687556E+02  0.59301946436E+02  0.50000004392E+02 0.  0.
        -12    1    1    2    0    0 -0.12917572529E+02  0.19485236098E+02 -0.21683687556E+02  0.31886053564E+02  0.00000000000E+00 0.  1.
         11    1    3    3    0    0 -0.86770977347E+01 -0.17666716453E+02 -0.97080108920E+00  0.19706530652E+02  0.51100000000E-03 0. -1.
        -11    1    3    3    0    0 -0.40877122306E+01 -0.48677919986E+01  0.25973616029E+01  0.68666642396E+01  0.51100000000E-03 0.  1.
         12    1    3    3    0    0  0.25682382494E+02  0.30492723531E+01  0.20057127042E+02  0.32728751544E+02  0.00000000000E+00 0. -1.
</event>
<event>
 7    1  0.3755162E-013  0.5930194E+02  0.7816164E-02  0.1266605E+00
        -11   -1    0    0    0    0  0.00000000000E+00  0.00000000000E+00  0.45593999997E+02  0.45594000000E+02  0.51100000000E-03 0.  1.
         11   -1    0    0    0    0 -0.00000000000E+00 -0.00000000000E+00 -0.45593999997E+02  0.45594000000E+02  0.51100000000E-03 0. -1.
    9900012    2    1    2    0    0 -0.23798940410E+02  0.15894477367E+02 -0.14060467776E+02  0.59301941456E+02  0.49999995310E+02 0.  0.
        -12    1    1    2    0    0  0.23798940410E+02 -0.15894477367E+02  0.14060467776E+02  0.31886058544E+02  0.00000000000E+00 0.  1.
         11    1    3    3    0    0 -0.73401051980E+01 -0.92089576635E+01  0.36075608512E+00  0.11781858545E+02  0.51100000000E-03 0. -1.
        -11    1    3    3    0    0 -0.29479827300E+01  0.51523702588E+01  0.10996571996E+02  0.12496484201E+02  0.51100000000E-03 0.  1.
         12    1    3    3    0    0 -0.13510852482E+02  0.19951064772E+02 -0.25417795857E+02  0.35023598709E+02  0.00000000000E+00 0. -1.
</event>
<event>
 7    1  0.3755162E-013  0.5930194E+02  0.7816164E-02  0.1266605E+00
        -11   -1    0    0    0    0  0.00000000000E+00  0.00000000000E+00  0.45593999997E+02  0.45594000000E+02  0.51100000000E-03 0.  1.
         11   -1    0    0    0    0 -0.00000000000E+00 -0.00000000000E+00 -0.45593999997E+02  0.45594000000E+02  0.51100000000E-03 0. -1.
    9900012    2    1    2    0    0 -0.20627678424E+01  0.24228683140E+02 -0.20626113180E+02  0.59301942815E+02  0.49999997789E+02 0.  0.
        -12    1    1    2    0    0  0.20627678424E+01 -0.24228683140E+02  0.20626113180E+02  0.31886057185E+02  0.00000000000E+00 0.  1.
         11    1    3    3    0    0 -0.23596321556E+01  0.98455109611E+01  0.57140776536E+01  0.11625516491E+02  0.51100000000E-03 0. -1.
        -11    1    3    3    0    0 -0.10728612534E+02 -0.87496585264E+01 -0.66448596744E+01  0.15356230384E+02  0.51100000000E-03 0.  1.
         12    1    3    3    0    0  0.11025476847E+02  0.23132830706E+02 -0.19695331159E+02  0.32320195940E+02  0.00000000000E+00 0. -1.
</event>
<event>
 7    1  0.3755162E-013  0.5930193E+02  0.7816164E-02  0.1266605E+00
        -11   -1    0    0    0    0  0.00000000000E+00  0.00000000000E+00  0.45593999997E+02  0.45594000000E+02  0.51100000000E-03 0. -1.
         11   -1    0    0    0    0 -0.00000000000E+00 -0.00000000000E+00 -0.45593999997E+02  0.45594000000E+02  0.51100000000E-03 0.  1.
    9900012    2    1    2    0    0 -0.46345982804E+01  0.15664477586E+02  0.27383682998E+02  0.59301930098E+02  0.49999974596E+02 0.  0.
        -12    1    1    2    0    0  0.46345982804E+01 -0.15664477586E+02 -0.27383682998E+02  0.31886069902E+02  0.00000000000E+00 0.  1.
         11    1    3    3    0    0 -0.50200286947E+01  0.15504036403E+02  0.22400886329E+02  0.27701544027E+02  0.51100000000E-03 0. -1.
        -11    1    3    3    0    0 -0.87103732067E+01  0.89660503689E+01 -0.68649036079E+01  0.14261401138E+02  0.51100000000E-03 0.  1.
        -12    1    3    3    0    0  0.90958036209E+01 -0.88056091864E+01  0.11847700277E+02  0.17338984933E+02  0.00000000000E+00 0.  1.
</event>
<event>
 7    1  0.3755162E-013  0.5930198E+02  0.7816164E-02  0.1266605E+00
        -11   -1    0    0    0    0  0.00000000000E+00  0.00000000000E+00  0.45593999997E+02  0.45594000000E+02  0.51100000000E-03 0.  1.
         11   -1    0    0    0    0 -0.00000000000E+00 -0.00000000000E+00 -0.45593999997E+02  0.45594000000E+02  0.51100000000E-03 0. -1.
    9900012    2    1    2    0    0 -0.29841224469E+02  0.10945144192E+02 -0.25344783034E+01  0.59301977365E+02  0.50000060799E+02 0.  0.
        -12    1    1    2    0    0  0.29841224469E+02 -0.10945144192E+02  0.25344783034E+01  0.31886022635E+02  0.00000000000E+00 0.  1.
         11    1    3    3    0    0  0.33210040805E+01  0.49076585226E+01  0.56223810683E+01  0.81685585886E+01  0.51100000000E-03 0. -1.
        -11    1    3    3    0    0 -0.10092738694E+02  0.99098891365E-01  0.14889640037E+02  0.17988178775E+02  0.51100000000E-03 0.  1.
         12    1    3    3    0    0 -0.23069489856E+02  0.59383867784E+01 -0.23046499409E+02  0.33145240001E+02  0.00000000000E+00 0. -1.
</event>
<event>
 7    1  0.3755162E-013  0.5930190E+02  0.7816164E-02  0.1266605E+00
        -11   -1    0    0    0    0  0.00000000000E+00  0.00000000000E+00  0.45593999997E+02  0.45594000000E+02  0.51100000000E-03 0. -1.
         11   -1    0    0    0    0 -0.00000000000E+00 -0.00000000000E+00 -0.45593999997E+02  0.45594000000E+02  0.51100000000E-03 0.  1.
    9900012    2    1    2    0    0 -0.28355524203E+02  0.65191687370E+01 -0.13045608928E+02  0.59301902305E+02  0.49999923908E+02 0.  0.
        -12    1    1    2    0    0  0.28355524203E+02 -0.65191687370E+01  0.13045608928E+02  0.31886097695E+02  0.00000000000E+00 0.  1.
         11    1    3    3    0    0  0.44164884243E+01 -0.73273781595E+01 -0.15674741173E+02  0.17857585274E+02  0.51100000000E-03 0.  1.
        -11    1    3    3    0    0 -0.13932005074E+02  0.84474387372E+01 -0.90421984578E+01  0.18633876135E+02  0.51100000000E-03 0. -1.
         12    1    3    3    0    0 -0.18840007554E+02  0.53991081594E+01  0.11671330703E+02  0.22810440897E+02  0.00000000000E+00 0. -1.
</event>
<event>
 7    1  0.3755162E-013  0.5930200E+02  0.7816164E-02  0.1266605E+00
        -11   -1    0    0    0    0  0.00000000000E+00  0.00000000000E+00  0.45593999997E+02  0.45594000000E+02  0.51100000000E-03 0.  1.
         11   -1    0    0    0    0 -0.00000000000E+00 -0.00000000000E+00 -0.45593999997E+02  0.45594000000E+02  0.51100000000E-03 0. -1.
    9900012    2    1    2    0    0 -0.26453451422E+01  0.14833947516E+01 -0.31741439687E+02  0.59301995165E+02  0.50000093263E+02 0.  0.
        -12    1    1    2    0    0  0.26453451422E+01 -0.14833947516E+01  0.31741439687E+02  0.31886004835E+02  0.00000000000E+00 0.  1.
         11    1    3    3    0    0  0.10257404706E+02 -0.46846302314E+01 -0.63198391933E+01  0.12926735063E+02  0.51100000000E-03 0.  1.
        -11    1    3    3    0    0  0.19350725786E+01 -0.12706537603E+02 -0.16146046756E+02  0.20637234065E+02  0.51100000000E-03 0. -1.
        -12    1    3    3    0    0 -0.14837822427E+02  0.18874562586E+02 -0.92755537376E+01  0.25738026037E+02  0.00000000000E+00 0.  1.
</event>
<event>
 7    1  0.3755162E-013  0.5930195E+02  0.7816164E-02  0.1266605E+00
        -11   -1    0    0    0    0  0.00000000000E+00  0.00000000000E+00  0.45593999997E+02  0.45594000000E+02  0.51100000000E-03 0.  1.
         11   -1    0    0    0    0 -0.00000000000E+00 -0.00000000000E+00 -0.45593999997E+02  0.45594000000E+02  0.51100000000E-03 0. -1.
    9900012    2    1    2    0    0  0.17827974741E+02  0.25232951377E+02 -0.78855349577E+01  0.59301950070E+02  0.50000011020E+02 0.  0.
        -12    1    1    2    0    0 -0.17827974741E+02 -0.25232951377E+02  0.78855349577E+01  0.31886049930E+02  0.00000000000E+00 0.  1.
         11    1    3    3    0    0  0.89779997525E+01  0.19186238919E+02 -0.14776062633E+02  0.25827277646E+02  0.51100000000E-03 0.  1.
        -11    1    3    3    0    0  0.15722307038E+02 -0.31014599835E+01 -0.51811807107E+01  0.16842049354E+02  0.51100000000E-03 0. -1.
        -12    1    3    3    0    0 -0.68723320490E+01  0.91481724415E+01  0.12071708386E+02  0.16632623070E+02  0.00000000000E+00 0.  1.
</event>
<event>
 7    1  0.3755162E-013  0.5930194E+02  0.7816164E-02  0.1266605E+00
        -11   -1    0    0    0    0  0.00000000000E+00  0.00000000000E+00  0.45593999997E+02  0.45594000000E+02  0.51100000000E-03 0. -1.
         11   -1    0    0    0    0 -0.00000000000E+00 -0.00000000000E+00 -0.45593999997E+02  0.45594000000E+02  0.51100000000E-03 0.  1.
    9900012    2    1    2    0    0 -0.28100359339E+02 -0.14414536221E+02 -0.43945510911E+01  0.59301935196E+02  0.49999983892E+02 0.  0.
        -12    1    1    2    0    0  0.28100359339E+02  0.14414536221E+02  0.43945510911E+01  0.31886064804E+02  0.00000000000E+00 0.  1.
         11    1    3    3    0    0 -0.41422838516E+01  0.12351156887E+01  0.31998756155E+01  0.53780322133E+01  0.51100000000E-03 0. -1.
        -11    1    3    3    0    0 -0.27112783643E+02 -0.95099409053E+01  0.13487676408E+02  0.31740501383E+02  0.51100000000E-03 0.  1.
        -12    1    3    3    0    0  0.31547081562E+01 -0.61397110042E+01 -0.21082103115E+02  0.22183401599E+02  0.00000000000E+00 0.  1.
</event>
<event>
 7    1  0.3755162E-013  0.5930198E+02  0.7816164E-02  0.1266605E+00
        -11   -1    0    0    0    0  0.00000000000E+00  0.00000000000E+00  0.45593999997E+02  0.45594000000E+02  0.51100000000E-03 0.  1.
         11   -1    0    0    0    0 -0.00000000000E+00 -0.00000000000E+00 -0.45593999997E+02  0.45594000000E+02  0.51100000000E-03 0. -1.
    9900012    2    1    2    0    0 -0.17099439032E+02  0.26248986723E+02  0.59429019490E+01  0.59301981077E+02  0.50000067568E+02 0.  0.
        -12    1    1    2    0    0  0.17099439032E+02 -0.26248986723E+02 -0.59429019490E+01  0.31886018923E+02  0.00000000000E+00 0.  1.
         11    1    3    3    0    0  0.22269673656E+01 -0.35690920729E+01 -0.30371839695E+01  0.51886692511E+01  0.51100000000E-03 0. -1.
        -11    1    3    3    0    0  0.62450074718E+01  0.66220295294E+01 -0.10957758418E+02  0.14245134721E+02  0.51100000000E-03 0.  1.
        -12    1    3    3    0    0 -0.25571413869E+02  0.23196049266E+02  0.19937844337E+02  0.39868177105E+02  0.00000000000E+00 0.  1.
</event>
<event>
 7    1  0.3755162E-013  0.5930195E+02  0.7816164E-02  0.1266605E+00
        -11   -1    0    0    0    0  0.00000000000E+00  0.00000000000E+00  0.45593999997E+02  0.45594000000E+02  0.51100000000E-03 0.  1.
         11   -1    0    0    0    0 -0.00000000000E+00 -0.00000000000E+00 -0.45593999997E+02  0.45594000000E+02  0.51100000000E-03 0. -1.
    9900012    2    1    2    0    0  0.32503407318E+01 -0.24858825431E+02 -0.19702641723E+02  0.59301952777E+02  0.50000015956E+02 0.  0.
        -12    1    1    2    0    0 -0.32503407318E+01  0.24858825431E+02  0.19702641723E+02  0.31886047223E+02  0.00000000000E+00 0.  1.
         11    1    3    3    0    0 -0.90038354771E+01 -0.22492762686E+02 -0.25885207909E+02  0.35454723455E+02  0.51100000000E-03 0. -1.
        -11    1    3    3    0    0  0.42905078241E+01 -0.10265312817E+02  0.59742813675E+01  0.12628425980E+02  0.51100000000E-03 0.  1.
         12    1    3    3    0    0  0.79636683848E+01  0.78992500720E+01  0.20828481893E+00  0.11218803341E+02  0.00000000000E+00 0. -1.
</event>
<event>
 7    1  0.3755162E-013  0.5930193E+02  0.7816164E-02  0.1266605E+00
        -11   -1    0    0    0    0  0.00000000000E+00  0.00000000000E+00  0.45593999997E+02  0.45594000000E+02  0.51100000000E-03 0.  1.
         11   -1    0    0    0    0 -0.00000000000E+00 -0.00000000000E+00 -0.45593999997E+02  0.45594000000E+02  0.51100000000E-03 0. -1.
    9900012    2    1    2    0    0 -0.10843899420E+01  0.38230562823E+01 -0.31637471074E+02  0.59301933500E+02  0.49999980799E+02 0.  0.
        -12    1    1    2    0    0  0.10843899420E+01 -0.38230562823E+01  0.31637471074E+02  0.31886066500E+02  0.00000000000E+00 0.  1.
         11    1    3    3    0    0  0.68880368688E+01 -0.28193962331E+01 -0.19630864431E+01  0.76972563728E+01  0.51100000000E-03 0. -1.
        -11    1    3    3    0    0  0.11736026268E+02  0.16448341593E+02 -0.14283375268E+02  0.24744637056E+02  0.51100000000E-03 0.  1.
         12    1    3    3    0    0 -0.19708453079E+02 -0.98058890774E+01 -0.15391009364E+02  0.26860040071E+02  0.00000000000E+00 0. -1.
</event>
<event>
 7    1  0.3755162E-013  0.5930200E+02  0.7816164E-02  0.1266605E+00
        -11   -1    0    0    0    0  0.00000000000E+00  0.00000000000E+00  0.45593999997E+02  0.45594000000E+02  0.51100000000E-03 0.  1.
         11   -1    0    0    0    0 -0.00000000000E+00 -0.00000000000E+00 -0.45593999997E+02  0.45594000000E+02  0.51100000000E-03 0. -1.
    9900012    2    1    2    0    0 -0.21102257677E+02  0.82134076063E+00 -0.23890109694E+02  0.59301996473E+02  0.50000095647E+02 0.  0.
        -12    1    1    2    0    0  0.21102257677E+02 -0.82134076063E+00  0.23890109694E+02  0.31886003527E+02  0.00000000000E+00 0.  1.
         11    1    3    3    0    0 -0.33629456348E+00 -0.46196407251E+01 -0.18748444602E+02  0.19312129600E+02  0.51100000000E-03 0.  1.
        -11    1    3    3    0    0 -0.44152179153E+01  0.36316728832E+01 -0.18142690184E+02  0.19022103053E+02  0.51100000000E-03 0. -1.
        -12    1    3    3    0    0 -0.16350745199E+02  0.18093086026E+01  0.13001025091E+02  0.20967763820E+02  0.00000000000E+00 0.  1.
</event>
<event>
 7    1  0.3755162E-013  0.5930194E+02  0.7816164E-02  0.1266605E+00
        -11   -1    0    0    0    0  0.00000000000E+00  0.00000000000E+00  0.45593999997E+02  0.45594000000E+02  0.51100000000E-03 0.  1.
         11   -1    0    0    0    0 -0.00000000000E+00 -0.00000000000E+00 -0.45593999997E+02  0.45594000000E+02  0.51100000000E-03 0. -1.
    9900012    2    1    2    0    0  0.23603988116E+01  0.20517454297E+02 -0.24293688613E+02  0.59301941607E+02  0.49999995586E+02 0.  0.
        -12    1    1    2    0    0 -0.23603988116E+01 -0.20517454297E+02  0.24293688613E+02  0.31886058393E+02  0.00000000000E+00 0.  1.
         11    1    3    3    0    0 -0.10668390516E+02  0.65455767736E+01 -0.30345492331E+01  0.12878960393E+02  0.51100000000E-03 0. -1.
        -11    1    3    3    0    0  0.43098684037E+01 -0.12431321850E+02 -0.42454353359E+01  0.13825210669E+02  0.51100000000E-03 0.  1.
         12    1    3    3    0    0  0.87189209241E+01  0.26403199373E+02 -0.17013704044E+02  0.32597770545E+02  0.00000000000E+00 0. -1.
</event>
<event>
 7    1  0.3755162E-013  0.5930194E+02  0.7816164E-02  0.1266605E+00
        -11   -1    0    0    0    0  0.00000000000E+00  0.00000000000E+00  0.45593999997E+02  0.45594000000E+02  0.51100000000E-03 0.  1.
         11   -1    0    0    0    0 -0.00000000000E+00 -0.00000000000E+00 -0.45593999997E+02  0.45594000000E+02  0.51100000000E-03 0. -1.
    9900012    2    1    2    0    0 -0.24133724591E+02  0.90108913848E+01 -0.18790629066E+02  0.59301944006E+02  0.49999999959E+02 0.  0.
        -12    1    1    2    0    0  0.24133724591E+02 -0.90108913848E+01  0.18790629066E+02  0.31886055994E+02  0.00000000000E+00 0.  1.
         11    1    3    3    0    0 -0.22042326882E+02  0.25261429565E+02 -0.94910467940E+01  0.34843707719E+02  0.51100000000E-03 0. -1.
        -11    1    3    3    0    0  0.20068178511E+00  0.44520228723E+00  0.33507587144E+01  0.33861574799E+01  0.51100000000E-03 0.  1.
         12    1    3    3    0    0 -0.22920794939E+01 -0.16695740468E+02 -0.12650340987E+02  0.21072078807E+02  0.00000000000E+00 0. -1.
</event>
<event>
 7    1  0.3755162E-013  0.5930195E+02  0.7816164E-02  0.1266605E+00
        -11   -1    0    0    0    0  0.00000000000E+00  0.00000000000E+00  0.45593999997E+02  0.45594000000E+02  0.51100000000E-03 0.  1.
         11   -1    0    0    0    0 -0.00000000000E+00 -0.00000000000E+00 -0.45593999997E+02  0.45594000000E+02  0.51100000000E-03 0. -1.
    9900012    2    1    2    0    0  0.94776231250E+01  0.25974249755E+02 -0.15881852337E+02  0.59301949381E+02  0.50000009763E+02 0.  0.
        -12    1    1    2    0    0 -0.94776231250E+01 -0.25974249755E+02  0.15881852337E+02  0.31886050619E+02  0.00000000000E+00 0.  1.
         11    1    3    3    0    0 -0.77023047471E+01  0.25440317794E+02 -0.82187083319E+01  0.27822336975E+02  0.51100000000E-03 0. -1.
        -11    1    3    3    0    0 -0.37958271517E+01  0.72733804629E+01 -0.16224263853E+00  0.82058936173E+01  0.51100000000E-03 0.  1.
         12    1    3    3    0    0  0.20975755024E+02 -0.67394485019E+01 -0.75009013670E+01  0.23273718788E+02  0.00000000000E+00 0. -1.
</event>
<event>
 7    1  0.3755162E-013  0.5930192E+02  0.7816164E-02  0.1266605E+00
        -11   -1    0    0    0    0  0.00000000000E+00  0.00000000000E+00  0.45593999997E+02  0.45594000000E+02  0.51100000000E-03 0.  1.
         11   -1    0    0    0    0 -0.00000000000E+00 -0.00000000000E+00 -0.45593999997E+02  0.45594000000E+02  0.51100000000E-03 0. -1.
    9900012    2    1    2    0    0  0.15465542898E+02  0.67664990028E+01 -0.27050943016E+02  0.59301920844E+02  0.49999957718E+02 0.  0.
        -12    1    1    2    0    0 -0.15465542898E+02 -0.67664990028E+01  0.27050943016E+02  0.31886079156E+02  0.00000000000E+00 0.  1.
         11    1    3    3    0    0 -0.75223964486E+01 -0.54804700395E+01 -0.12562115681E+02  0.15634217307E+02  0.51100000000E-03 0. -1.
        -11    1    3    3    0    0 -0.85163379556E+00 -0.90717192893E+01 -0.45027688925E+01  0.10163478683E+02  0.51100000000E-03 0.  1.
         12    1    3    3    0    0  0.23839573142E+02  0.21318688332E+02 -0.99860584431E+01  0.33504224853E+02  0.00000000000E+00 0. -1.
</event>
<event>
 7    1  0.3755162E-013  0.5930195E+02  0.7816164E-02  0.1266605E+00
        -11   -1    0    0    0    0  0.00000000000E+00  0.00000000000E+00  0.45593999997E+02  0.45594000000E+02  0.51100000000E-03 0.  1.
         11   -1    0    0    0    0 -0.00000000000E+00 -0.00000000000E+00 -0.45593999997E+02  0.45594000000E+02  0.51100000000E-03 0. -1.
    9900012    2    1    2    0    0  0.12546044578E+02 -0.14699175718E+02 -0.25362398332E+02  0.59301948966E+02  0.50000009007E+02 0.  0.
        -12    1    1    2    0    0 -0.12546044578E+02  0.14699175718E+02  0.25362398332E+02  0.31886051034E+02  0.00000000000E+00 0.  1.
         11    1    3    3    0    0 -0.12572081292E+02 -0.14572078463E+02 -0.78399591401E+01  0.20781425801E+02  0.51100000000E-03 0. -1.
        -11    1    3    3    0    0 -0.23374111603E+01 -0.45277740652E+01  0.88772432361E+00  0.51722609808E+01  0.51100000000E-03 0.  1.
        -12    1    3    3    0    0  0.27455537031E+02  0.44006768100E+01 -0.18410163516E+02  0.33348262184E+02  0.00000000000E+00 0.  1.
</event>
<event>
 7    1  0.3755162E-013  0.5930196E+02  0.7816164E-02  0.1266605E+00
        -11   -1    0    0    0    0  0.00000000000E+00  0.00000000000E+00  0.45593999997E+02  0.45594000000E+02  0.51100000000E-03 0.  1.
         11   -1    0    0    0    0 -0.00000000000E+00 -0.00000000000E+00 -0.45593999997E+02  0.45594000000E+02  0.51100000000E-03 0. -1.
    9900012    2    1    2    0    0  0.18366715458E+02  0.49514396064E+01 -0.25590366228E+02  0.59301955489E+02  0.50000020902E+02 0.  0.
        -12    1    1    2    0    0 -0.18366715458E+02 -0.49514396064E+01  0.25590366228E+02  0.31886044511E+02  0.00000000000E+00 0.  1.
         11    1    3    3    0    0 -0.68446043078E+01  0.57891320718E-01 -0.29297392558E+00  0.68511162242E+01  0.51100000000E-03 0. -1.
        -11    1    3    3    0    0 -0.73151471239E+01 -0.81053138091E+01 -0.58559621136E+01  0.12389502893E+02  0.51100000000E-03 0.  1.
         12    1    3    3    0    0  0.32526466890E+02  0.12998862095E+02 -0.19441430189E+02  0.40061336372E+02  0.00000000000E+00 0. -1.
</event>
<event>
 7    1  0.3755162E-013  0.5930194E+02  0.7816164E-02  0.1266605E+00
        -11   -1    0    0    0    0  0.00000000000E+00  0.00000000000E+00  0.45593999997E+02  0.45594000000E+02  0.51100000000E-03 0.  1.
         11   -1    0    0    0    0 -0.00000000000E+00 -0.00000000000E+00 -0.45593999997E+02  0.45594000000E+02  0.51100000000E-03 0. -1.
    9900012    2    1    2    0    0  0.30874249660E+01  0.18705530375E+02 -0.25637705772E+02  0.59301936951E+02  0.49999987094E+02 0.  0.
        -12    1    1    2    0    0 -0.30874249660E+01 -0.18705530375E+02  0.25637705772E+02  0.31886063049E+02  0.00000000000E+00 0.  1.
         11    1    3    3    0    0 -0.84315611774E+01  0.10045959649E+02  0.42764060238E+01  0.13794933052E+02  0.51100000000E-03 0.  1.
        -11    1    3    3    0    0 -0.47008565630E+01  0.15601100035E+02 -0.17645177995E+02  0.24017591084E+02  0.51100000000E-03 0. -1.
        -12    1    3    3    0    0  0.16219842706E+02 -0.69415293091E+01 -0.12268933800E+02  0.21489412816E+02  0.00000000000E+00 0.  1.
</event>
<event>
 7    1  0.3755162E-013  0.5930192E+02  0.7816164E-02  0.1266605E+00
        -11   -1    0    0    0    0  0.00000000000E+00  0.00000000000E+00  0.45593999997E+02  0.45594000000E+02  0.51100000000E-03 0.  1.
         11   -1    0    0    0    0 -0.00000000000E+00 -0.00000000000E+00 -0.45593999997E+02  0.45594000000E+02  0.51100000000E-03 0. -1.
    9900012    2    1    2    0    0 -0.88652283769E+01  0.28646249959E+02  0.10840759192E+02  0.59301921992E+02  0.49999959812E+02 0.  0.
        -12    1    1    2    0    0  0.88652283769E+01 -0.28646249959E+02 -0.10840759192E+02  0.31886078008E+02  0.00000000000E+00 0.  1.
         11    1    3    3    0    0  0.12084061876E+02  0.19161231953E+01 -0.60386749014E+01  0.13644107678E+02  0.51100000000E-03 0. -1.
        -11    1    3    3    0    0  0.40101345649E+01  0.13650103414E+02  0.50534248296E+01  0.15097801337E+02  0.51100000000E-03 0.  1.
        -12    1    3    3    0    0 -0.24959424817E+02  0.13080023349E+02  0.11826009263E+02  0.30560012977E+02  0.00000000000E+00 0.  1.
</event>
<event>
 7    1  0.3755162E-013  0.5930188E+02  0.7816164E-02  0.1266605E+00
        -11   -1    0    0    0    0  0.00000000000E+00  0.00000000000E+00  0.45593999997E+02  0.45594000000E+02  0.51100000000E-03 0.  1.
         11   -1    0    0    0    0 -0.00000000000E+00 -0.00000000000E+00 -0.45593999997E+02  0.45594000000E+02  0.51100000000E-03 0. -1.
    9900012    2    1    2    0    0  0.15065262725E+02 -0.25738161251E+02 -0.11283150357E+02  0.59301881272E+02  0.49999885548E+02 0.  0.
        -12    1    1    2    0    0 -0.15065262725E+02  0.25738161251E+02  0.11283150357E+02  0.31886118728E+02  0.00000000000E+00 0.  1.
         11    1    3    3    0    0  0.21473382782E+02 -0.15563812417E+02 -0.15792099624E+02  0.30866305834E+02  0.51100000000E-03 0. -1.
        -11    1    3    3    0    0 -0.41634921366E+01  0.28469659357E+01 -0.85059019408E+01  0.98888952820E+01  0.51100000000E-03 0.  1.
        -12    1    3    3    0    0 -0.22446279207E+01 -0.13021314770E+02  0.13014851207E+02  0.18546680155E+02  0.00000000000E+00 0.  1.
</event>
<event>
 7    1  0.3755162E-013  0.5930195E+02  0.7816164E-02  0.1266605E+00
        -11   -1    0    0    0    0  0.00000000000E+00  0.00000000000E+00  0.45593999997E+02  0.45594000000E+02  0.51100000000E-03 0. -1.
         11   -1    0    0    0    0 -0.00000000000E+00 -0.00000000000E+00 -0.45593999997E+02  0.45594000000E+02  0.51100000000E-03 0.  1.
    9900012    2    1    2    0    0  0.18240021837E+02  0.14795007942E+02  0.21566858312E+02  0.59301952360E+02  0.50000015196E+02 0.  0.
        -12    1    1    2    0    0 -0.18240021837E+02 -0.14795007942E+02 -0.21566858312E+02  0.31886047640E+02  0.00000000000E+00 0.  1.
         11    1    3    3    0    0  0.14516798799E+02  0.23103520561E+02  0.84939467283E+01  0.28577215417E+02  0.51100000000E-03 0. -1.
        -11    1    3    3    0    0  0.15091032990E+01  0.36821968540E+01  0.17351851678E+02  0.17802323538E+02  0.51100000000E-03 0.  1.
        -12    1    3    3    0    0  0.22141197393E+01 -0.11990709473E+02 -0.42789400940E+01  0.12922413405E+02  0.00000000000E+00 0.  1.
</event>
<event>
 7    1  0.3755162E-013  0.5930172E+02  0.7816164E-02  0.1266606E+00
        -11   -1    0    0    0    0  0.00000000000E+00  0.00000000000E+00  0.45593999997E+02  0.45594000000E+02  0.51100000000E-03 0. -1.
         11   -1    0    0    0    0 -0.00000000000E+00 -0.00000000000E+00 -0.45593999997E+02  0.45594000000E+02  0.51100000000E-03 0.  1.
    9900012    2    1    2    0    0  0.94013145464E+01  0.18152079764E+01  0.30414720030E+02  0.59301719413E+02  0.49999590354E+02 0.  0.
        -12    1    1    2    0    0 -0.94013145464E+01 -0.18152079764E+01 -0.30414720030E+02  0.31886280587E+02  0.00000000000E+00 0.  1.
         11    1    3    3    0    0  0.18599994185E+02  0.55291372658E+00  0.13419866981E+02  0.22942500459E+02  0.51100000000E-03 0. -1.
        -11    1    3    3    0    0  0.22662088815E+01 -0.11082393144E+02 -0.14198967586E+01  0.11400493303E+02  0.51100000000E-03 0.  1.
         12    1    3    3    0    0 -0.11464888520E+02  0.12344687394E+02  0.18414749808E+02  0.24958725650E+02  0.00000000000E+00 0. -1.
</event>
<event>
 7    1  0.3755162E-013  0.5930196E+02  0.7816164E-02  0.1266605E+00
        -11   -1    0    0    0    0  0.00000000000E+00  0.00000000000E+00  0.45593999997E+02  0.45594000000E+02  0.51100000000E-03 0.  1.
         11   -1    0    0    0    0 -0.00000000000E+00 -0.00000000000E+00 -0.45593999997E+02  0.45594000000E+02  0.51100000000E-03 0. -1.
    9900012    2    1    2    0    0  0.13073356553E+01  0.13468640733E+02 -0.28872238853E+02  0.59301959385E+02  0.50000028009E+02 0.  0.
        -12    1    1    2    0    0 -0.13073356553E+01 -0.13468640733E+02  0.28872238853E+02  0.31886040615E+02  0.00000000000E+00 0.  1.
         11    1    3    3    0    0 -0.41734920245E+01 -0.21307096603E+01 -0.13351674018E+02  0.14150093946E+02  0.51100000000E-03 0. -1.
        -11    1    3    3    0    0  0.11340536419E+02 -0.10058230186E+02 -0.12402677148E+01  0.15209011309E+02  0.51100000000E-03 0.  1.
        -12    1    3    3    0    0 -0.58597087387E+01  0.25657580579E+02 -0.14280297120E+02  0.29942854131E+02  0.00000000000E+00 0.  1.
</event>
<event>
 7    1  0.3755162E-013  0.5930196E+02  0.7816164E-02  0.1266605E+00
        -11   -1    0    0    0    0  0.00000000000E+00  0.00000000000E+00  0.45593999997E+02  0.45594000000E+02  0.51100000000E-03 0.  1.
         11   -1    0    0    0    0 -0.00000000000E+00 -0.00000000000E+00 -0.45593999997E+02  0.45594000000E+02  0.51100000000E-03 0. -1.
    9900012    2    1    2    0    0  0.28696049208E+02  0.11781863621E+02 -0.73786029390E+01  0.59301963372E+02  0.50000035279E+02 0.  0.
        -12    1    1    2    0    0 -0.28696049208E+02 -0.11781863621E+02  0.73786029390E+01  0.31886036628E+02  0.00000000000E+00 0.  1.
         11    1    3    3    0    0  0.25905833926E+02  0.33884234013E+01  0.56996930047E+01  0.26740982502E+02  0.51100000000E-03 0. -1.
        -11    1    3    3    0    0 -0.62120376159E+00  0.16069054126E+02  0.10598241044E+01  0.16115943101E+02  0.51100000000E-03 0.  1.
         12    1    3    3    0    0  0.34114190435E+01 -0.76756139072E+01 -0.14138120048E+02  0.16445037769E+02  0.00000000000E+00 0. -1.
</event>
<event>
 7    1  0.3755162E-013  0.5930194E+02  0.7816164E-02  0.1266605E+00
        -11   -1    0    0    0    0  0.00000000000E+00  0.00000000000E+00  0.45593999997E+02  0.45594000000E+02  0.51100000000E-03 0. -1.
         11   -1    0    0    0    0 -0.00000000000E+00 -0.00000000000E+00 -0.45593999997E+02  0.45594000000E+02  0.51100000000E-03 0.  1.
    9900012    2    1    2    0    0  0.18402610254E+02 -0.25172130278E+02  0.66654832563E+01  0.59301939190E+02  0.49999991178E+02 0.  0.
        -12    1    1    2    0    0 -0.18402610254E+02  0.25172130278E+02 -0.66654832563E+01  0.31886060810E+02  0.00000000000E+00 0.  1.
         11    1    3    3    0    0 -0.10144334765E+02 -0.48954684863E+01  0.62870546237E-01  0.11263973211E+02  0.51100000000E-03 0. -1.
        -11    1    3    3    0    0 -0.45246360531E+01  0.44047474797E+01  0.99351654120E+00  0.63922771491E+01  0.51100000000E-03 0.  1.
         12    1    3    3    0    0  0.33071581073E+02 -0.24681409272E+02  0.56090961689E+01  0.41645688830E+02  0.00000000000E+00 0. -1.
</event>
<event>
 7    1  0.3755162E-013  0.5930195E+02  0.7816164E-02  0.1266605E+00
        -11   -1    0    0    0    0  0.00000000000E+00  0.00000000000E+00  0.45593999997E+02  0.45594000000E+02  0.51100000000E-03 0.  1.
         11   -1    0    0    0    0 -0.00000000000E+00 -0.00000000000E+00 -0.45593999997E+02  0.45594000000E+02  0.51100000000E-03 0. -1.
    9900012    2    1    2    0    0 -0.26428833393E+02  0.21565171798E+01 -0.17708369802E+02  0.59301950356E+02  0.50000011542E+02 0.  0.
        -12    1    1    2    0    0  0.26428833393E+02 -0.21565171798E+01  0.17708369802E+02  0.31886049644E+02  0.00000000000E+00 0.  1.
         11    1    3    3    0    0 -0.18419267461E+02 -0.16846308211E+02 -0.14908444753E+02  0.29074546245E+02  0.51100000000E-03 0. -1.
        -11    1    3    3    0    0  0.52966308670E+01 -0.66486239056E+00  0.25039417274E+01  0.58962755172E+01  0.51100000000E-03 0.  1.
        -12    1    3    3    0    0 -0.13306196799E+02  0.19667687781E+02 -0.53038667763E+01  0.24331128595E+02  0.00000000000E+00 0.  1.
</event>
<event>
 7    1  0.3755162E-013  0.5930194E+02  0.7816164E-02  0.1266605E+00
        -11   -1    0    0    0    0  0.00000000000E+00  0.00000000000E+00  0.45593999997E+02  0.45594000000E+02  0.51100000000E-03 0.  1.
         11   -1    0    0    0    0 -0.00000000000E+00 -0.00000000000E+00 -0.45593999997E+02  0.45594000000E+02  0.51100000000E-03 0. -1.
    9900012    2    1    2    0    0  0.22510176575E+02 -0.84449989626E+01 -0.20945040778E+02  0.59301940505E+02  0.49999993575E+02 0.  0.
        -12    1    1    2    0    0 -0.22510176575E+02  0.84449989626E+01  0.20945040778E+02  0.31886059495E+02  0.00000000000E+00 0.  1.
         11    1    3    3    0    0  0.23125388050E+02 -0.44719749172E+01  0.50550659996E+01  0.24090160328E+02  0.51100000000E-03 0. -1.
        -11    1    3    3    0    0  0.38666485776E-02  0.98130976902E+01 -0.89972030479E+01  0.13313397920E+02  0.51100000000E-03 0.  1.
        -12    1    3    3    0    0 -0.61907812315E+00 -0.13786121735E+02 -0.17002903730E+02  0.21898382257E+02  0.00000000000E+00 0.  1.
</event>
<event>
 7    1  0.3755162E-013  0.5930196E+02  0.7816164E-02  0.1266605E+00
        -11   -1    0    0    0    0  0.00000000000E+00  0.00000000000E+00  0.45593999997E+02  0.45594000000E+02  0.51100000000E-03 0.  1.
         11   -1    0    0    0    0 -0.00000000000E+00 -0.00000000000E+00 -0.45593999997E+02  0.45594000000E+02  0.51100000000E-03 0. -1.
    9900012    2    1    2    0    0  0.31880783305E+02  0.27173322719E+00 -0.51136071831E+00  0.59301958025E+02  0.50000025527E+02 0.  0.
        -12    1    1    2    0    0 -0.31880783305E+02 -0.27173322719E+00  0.51136071831E+00  0.31886041975E+02  0.00000000000E+00 0.  1.
         11    1    3    3    0    0 -0.14079135455E+01 -0.77892017027E+01 -0.52995238827E+01  0.95256935371E+01  0.51100000000E-03 0.  1.
        -11    1    3    3    0    0  0.27465739425E+02 -0.87171075019E+01 -0.53768082773E+01  0.29313220104E+02  0.51100000000E-03 0. -1.
        -12    1    3    3    0    0  0.58229574253E+01  0.16778042432E+02  0.10164971442E+02  0.20463044383E+02  0.00000000000E+00 0.  1.
</event>
<event>
 7    1  0.3755162E-013  0.5930193E+02  0.7816164E-02  0.1266605E+00
        -11   -1    0    0    0    0  0.00000000000E+00  0.00000000000E+00  0.45593999997E+02  0.45594000000E+02  0.51100000000E-03 0.  1.
         11   -1    0    0    0    0 -0.00000000000E+00 -0.00000000000E+00 -0.45593999997E+02  0.45594000000E+02  0.51100000000E-03 0. -1.
    9900012    2    1    2    0    0 -0.45791722005E+01  0.29069225003E+02  0.12277334438E+02  0.59301927786E+02  0.49999970379E+02 0.  0.
        -12    1    1    2    0    0  0.45791722005E+01 -0.29069225003E+02 -0.12277334438E+02  0.31886072214E+02  0.00000000000E+00 0.  1.
         11    1    3    3    0    0 -0.20518035652E+02  0.10449366640E+01  0.40806804729E+01  0.20945969374E+02  0.51100000000E-03 0.  1.
        -11    1    3    3    0    0  0.18933219105E+01  0.21209753109E+02  0.79883948155E+01  0.22743191219E+02  0.51100000000E-03 0. -1.
        -12    1    3    3    0    0  0.14045541541E+02  0.68145352301E+01  0.20825914910E+00  0.15612767194E+02  0.00000000000E+00 0.  1.
</event>
<event>
 7    1  0.3755162E-013  0.5930194E+02  0.7816164E-02  0.1266605E+00
        -11   -1    0    0    0    0  0.00000000000E+00  0.00000000000E+00  0.45593999997E+02  0.45594000000E+02  0.51100000000E-03 0. -1.
         11   -1    0    0    0    0 -0.00000000000E+00 -0.00000000000E+00 -0.45593999997E+02  0.45594000000E+02  0.51100000000E-03 0.  1.
    9900012    2    1    2    0    0 -0.12270925674E+02 -0.36950831048E+00  0.29428028111E+02  0.59301937342E+02  0.49999987807E+02 0.  0.
        -12    1    1    2    0    0  0.12270925674E+02  0.36950831048E+00 -0.29428028111E+02  0.31886062658E+02  0.00000000000E+00 0.  1.
         11    1    3    3    0    0 -0.48248590231E+01 -0.51246681417E+01  0.15909087022E+01  0.72161263096E+01  0.51100000000E-03 0. -1.
        -11    1    3    3    0    0 -0.80495530950E+01 -0.66876724358E+01  0.36340022822E+02  0.37816894724E+02  0.51100000000E-03 0.  1.
        -12    1    3    3    0    0  0.60348644386E+00  0.11442832267E+02 -0.85029034124E+01  0.14268916309E+02  0.00000000000E+00 0.  1.
</event>
<event>
 7    1  0.3755162E-013  0.5930196E+02  0.7816164E-02  0.1266605E+00
        -11   -1    0    0    0    0  0.00000000000E+00  0.00000000000E+00  0.45593999997E+02  0.45594000000E+02  0.51100000000E-03 0.  1.
         11   -1    0    0    0    0 -0.00000000000E+00 -0.00000000000E+00 -0.45593999997E+02  0.45594000000E+02  0.51100000000E-03 0. -1.
    9900012    2    1    2    0    0 -0.14099201477E+02  0.88671239139E+01 -0.27190179572E+02  0.59301964907E+02  0.50000038078E+02 0.  0.
        -12    1    1    2    0    0  0.14099201477E+02 -0.88671239139E+01  0.27190179572E+02  0.31886035093E+02  0.00000000000E+00 0.  1.
         11    1    3    3    0    0 -0.18784821590E+02 -0.83848662550E+01 -0.29005665537E+02  0.35559866954E+02  0.51100000000E-03 0. -1.
        -11    1    3    3    0    0  0.55170685340E+01 -0.69177156508E+00 -0.69866934004E+00  0.56039925245E+01  0.51100000000E-03 0.  1.
        -12    1    3    3    0    0 -0.83144842034E+00  0.17943761734E+02  0.25141553042E+01  0.18138105428E+02  0.00000000000E+00 0.  1.
</event>
<event>
 7    1  0.3755162E-013  0.5930190E+02  0.7816164E-02  0.1266605E+00
        -11   -1    0    0    0    0  0.00000000000E+00  0.00000000000E+00  0.45593999997E+02  0.45594000000E+02  0.51100000000E-03 0.  1.
         11   -1    0    0    0    0 -0.00000000000E+00 -0.00000000000E+00 -0.45593999997E+02  0.45594000000E+02  0.51100000000E-03 0. -1.
    9900012    2    1    2    0    0 -0.17622357667E+01 -0.29991176401E+02 -0.10683957148E+02  0.59301904642E+02  0.49999928170E+02 0.  0.
        -12    1    1    2    0    0  0.17622357667E+01  0.29991176401E+02  0.10683957148E+02  0.31886095358E+02  0.00000000000E+00 0.  1.
         11    1    3    3    0    0 -0.87227794540E+01 -0.21674414023E+02 -0.91482352927E+01  0.25090980727E+02  0.51100000000E-03 0. -1.
        -11    1    3    3    0    0 -0.84921444035E+01  0.72768435976E+01 -0.45070864995E+01  0.12057478936E+02  0.51100000000E-03 0.  1.
         12    1    3    3    0    0  0.15452688091E+02 -0.15593605976E+02  0.29713646442E+01  0.22153444979E+02  0.00000000000E+00 0. -1.
</event>
<event>
 7    1  0.3755162E-013  0.5930196E+02  0.7816164E-02  0.1266605E+00
        -11   -1    0    0    0    0  0.00000000000E+00  0.00000000000E+00  0.45593999997E+02  0.45594000000E+02  0.51100000000E-03 0. -1.
         11   -1    0    0    0    0 -0.00000000000E+00 -0.00000000000E+00 -0.45593999997E+02  0.45594000000E+02  0.51100000000E-03 0.  1.
    9900012    2    1    2    0    0  0.30791183580E+02 -0.73855158653E+01  0.37518903736E+01  0.59301960544E+02  0.50000030121E+02 0.  0.
        -12    1    1    2    0    0 -0.30791183580E+02  0.73855158653E+01 -0.37518903736E+01  0.31886039456E+02  0.00000000000E+00 0.  1.
         11    1    3    3    0    0 -0.42573930977E+01 -0.90496578352E+01  0.67035606141E+01  0.12039909804E+02  0.51100000000E-03 0. -1.
        -11    1    3    3    0    0  0.14292283707E+02 -0.12550276409E+02 -0.95083150282E+01  0.21264685900E+02  0.51100000000E-03 0.  1.
        -12    1    3    3    0    0  0.20756292971E+02  0.14214418379E+02  0.65566447877E+01  0.25997364840E+02  0.00000000000E+00 0.  1.
</event>
<event>
 7    1  0.3755162E-013  0.5930193E+02  0.7816164E-02  0.1266605E+00
        -11   -1    0    0    0    0  0.00000000000E+00  0.00000000000E+00  0.45593999997E+02  0.45594000000E+02  0.51100000000E-03 0.  1.
         11   -1    0    0    0    0 -0.00000000000E+00 -0.00000000000E+00 -0.45593999997E+02  0.45594000000E+02  0.51100000000E-03 0. -1.
    9900012    2    1    2    0    0 -0.37686568888E+01 -0.28620482946E+02 -0.13542027079E+02  0.59301932255E+02  0.49999978530E+02 0.  0.
        -12    1    1    2    0    0  0.37686568888E+01  0.28620482946E+02  0.13542027079E+02  0.31886067745E+02  0.00000000000E+00 0.  1.
         11    1    3    3    0    0 -0.12045748512E+02 -0.29375637738E+02 -0.60036698764E+01  0.32312106121E+02  0.51100000000E-03 0. -1.
        -11    1    3    3    0    0 -0.57149877625E+00 -0.10360852599E+02  0.98206075411E+00  0.10422970835E+02  0.51100000000E-03 0.  1.
        -12    1    3    3    0    0  0.88485903993E+01  0.11116007391E+02 -0.85204179566E+01  0.16566855300E+02  0.00000000000E+00 0.  1.
</event>
<event>
 7    1  0.3755162E-013  0.5930194E+02  0.7816164E-02  0.1266605E+00
        -11   -1    0    0    0    0  0.00000000000E+00  0.00000000000E+00  0.45593999997E+02  0.45594000000E+02  0.51100000000E-03 0. -1.
         11   -1    0    0    0    0 -0.00000000000E+00 -0.00000000000E+00 -0.45593999997E+02  0.45594000000E+02  0.51100000000E-03 0.  1.
    9900012    2    1    2    0    0  0.14653919412E+02 -0.21979111022E+02  0.17857835937E+02  0.59301937531E+02  0.49999988151E+02 0.  0.
        -12    1    1    2    0    0 -0.14653919412E+02  0.21979111022E+02 -0.17857835937E+02  0.31886062469E+02  0.00000000000E+00 0.  1.
         11    1    3    3    0    0  0.14763591172E+02 -0.20580730144E+02  0.12405643808E+02  0.28203369943E+02  0.51100000000E-03 0. -1.
        -11    1    3    3    0    0  0.64940233681E+01 -0.11587453910E+02  0.11467438238E+02  0.17548320935E+02  0.51100000000E-03 0.  1.
        -12    1    3    3    0    0 -0.66036951281E+01  0.10189073033E+02 -0.60152461086E+01  0.13550246653E+02  0.00000000000E+00 0.  1.
</event>
<event>
 7    1  0.3755162E-013  0.5930194E+02  0.7816164E-02  0.1266605E+00
        -11   -1    0    0    0    0  0.00000000000E+00  0.00000000000E+00  0.45593999997E+02  0.45594000000E+02  0.51100000000E-03 0.  1.
         11   -1    0    0    0    0 -0.00000000000E+00 -0.00000000000E+00 -0.45593999997E+02  0.45594000000E+02  0.51100000000E-03 0. -1.
    9900012    2    1    2    0    0 -0.26228898266E+02 -0.17751362358E+02 -0.36952779767E+01  0.59301936443E+02  0.49999986168E+02 0.  0.
        -12    1    1    2    0    0  0.26228898266E+02  0.17751362358E+02  0.36952779767E+01  0.31886063557E+02  0.00000000000E+00 0.  1.
         11    1    3    3    0    0 -0.83786287552E+01 -0.73261790652E+01 -0.17259439288E+02  0.20536858677E+02  0.51100000000E-03 0. -1.
        -11    1    3    3    0    0 -0.34648322712E+01 -0.18881292327E+02  0.42741952330E+01  0.19666647090E+02  0.51100000000E-03 0.  1.
        -12    1    3    3    0    0 -0.14385437240E+02  0.84561090346E+01  0.92899660781E+01  0.19098430677E+02  0.00000000000E+00 0.  1.
</event>
<event>
 7    1  0.3755162E-013  0.5930191E+02  0.7816164E-02  0.1266605E+00
        -11   -1    0    0    0    0  0.00000000000E+00  0.00000000000E+00  0.45593999997E+02  0.45594000000E+02  0.51100000000E-03 0. -1.
         11   -1    0    0    0    0 -0.00000000000E+00 -0.00000000000E+00 -0.45593999997E+02  0.45594000000E+02  0.51100000000E-03 0.  1.
    9900012    2    1    2    0    0  0.82665744466E+01 -0.15406828269E+02  0.26664881027E+02  0.59301913840E+02  0.49999944945E+02 0.  0.
        -12    1    1    2    0    0 -0.82665744466E+01  0.15406828269E+02 -0.26664881027E+02  0.31886086160E+02  0.00000000000E+00 0.  1.
         11    1    3    3    0    0 -0.79160425553E+01 -0.85786483053E+01  0.10991665244E+02  0.16033516195E+02  0.51100000000E-03 0. -1.
        -11    1    3    3    0    0  0.44621578564E+01 -0.21160940863E+02  0.10523471486E+02  0.24050773861E+02  0.51100000000E-03 0.  1.
         12    1    3    3    0    0  0.11720459145E+02  0.14332760899E+02  0.51497442974E+01  0.19217623784E+02  0.00000000000E+00 0. -1.
</event>
<event>
 7    1  0.3755162E-013  0.5930194E+02  0.7816164E-02  0.1266605E+00
        -11   -1    0    0    0    0  0.00000000000E+00  0.00000000000E+00  0.45593999997E+02  0.45594000000E+02  0.51100000000E-03 0. -1.
         11   -1    0    0    0    0 -0.00000000000E+00 -0.00000000000E+00 -0.45593999997E+02  0.45594000000E+02  0.51100000000E-03 0.  1.
    9900012    2    1    2    0    0 -0.31358403619E+02  0.19566988179E+01  0.54352933523E+01  0.59301944088E+02  0.50000000110E+02 0.  0.
        -12    1    1    2    0    0  0.31358403619E+02 -0.19566988179E+01 -0.54352933523E+01  0.31886055912E+02  0.00000000000E+00 0.  1.
         11    1    3    3    0    0 -0.69327907083E+01 -0.37891239538E+01  0.41158847990E+01  0.89085102729E+01  0.51100000000E-03 0. -1.
        -11    1    3    3    0    0 -0.24201201771E+02  0.49403118335E+01  0.19945932179E+02  0.31748150480E+02  0.51100000000E-03 0.  1.
        -12    1    3    3    0    0 -0.22441114031E+00  0.80551093826E+00 -0.18626523626E+02  0.18645283335E+02  0.00000000000E+00 0.  1.
</event>
<event>
 7    1  0.3755162E-013  0.5930196E+02  0.7816164E-02  0.1266605E+00
        -11   -1    0    0    0    0  0.00000000000E+00  0.00000000000E+00  0.45593999997E+02  0.45594000000E+02  0.51100000000E-03 0.  1.
         11   -1    0    0    0    0 -0.00000000000E+00 -0.00000000000E+00 -0.45593999997E+02  0.45594000000E+02  0.51100000000E-03 0. -1.
    9900012    2    1    2    0    0 -0.28060795776E+02 -0.15036278112E+02  0.17948081035E+01  0.59301964574E+02  0.50000037472E+02 0.  0.
        -12    1    1    2    0    0  0.28060795776E+02  0.15036278112E+02 -0.17948081035E+01  0.31886035426E+02  0.00000000000E+00 0.  1.
         11    1    3    3    0    0 -0.12877795923E+02 -0.34334904303E+01  0.20417758571E+02  0.24382603423E+02  0.51100000000E-03 0. -1.
        -11    1    3    3    0    0 -0.53187961059E+01  0.29823367574E+01  0.31938512626E+01  0.68836480662E+01  0.51100000000E-03 0.  1.
        -12    1    3    3    0    0 -0.98642037469E+01 -0.14585124439E+02 -0.21816801730E+02  0.28035713085E+02  0.00000000000E+00 0.  1.
</event>
<event>
 7    1  0.3755162E-013  0.5930195E+02  0.7816164E-02  0.1266605E+00
        -11   -1    0    0    0    0  0.00000000000E+00  0.00000000000E+00  0.45593999997E+02  0.45594000000E+02  0.51100000000E-03 0.  1.
         11   -1    0    0    0    0 -0.00000000000E+00 -0.00000000000E+00 -0.45593999997E+02  0.45594000000E+02  0.51100000000E-03 0. -1.
    9900012    2    1    2    0    0  0.99389399387E+01  0.30281708625E+02  0.97770566029E+00  0.59301947991E+02  0.50000007228E+02 0.  0.
        -12    1    1    2    0    0 -0.99389399387E+01 -0.30281708625E+02 -0.97770566029E+00  0.31886052009E+02  0.00000000000E+00 0.  1.
         11    1    3    3    0    0  0.72301601692E+01  0.95157489638E+01 -0.14279442516E+02  0.18620611516E+02  0.51100000000E-03 0. -1.
        -11    1    3    3    0    0  0.66647192731E+01  0.72745691013E+01 -0.85350978929E+01  0.13045525474E+02  0.51100000000E-03 0.  1.
        -12    1    3    3    0    0 -0.39559395037E+01  0.13491390560E+02  0.23792246069E+02  0.27635811000E+02  0.00000000000E+00 0.  1.
</event>
<event>
 7    1  0.3755162E-013  0.5930200E+02  0.7816164E-02  0.1266605E+00
        -11   -1    0    0    0    0  0.00000000000E+00  0.00000000000E+00  0.45593999997E+02  0.45594000000E+02  0.51100000000E-03 0.  1.
         11   -1    0    0    0    0 -0.00000000000E+00 -0.00000000000E+00 -0.45593999997E+02  0.45594000000E+02  0.51100000000E-03 0. -1.
    9900012    2    1    2    0    0 -0.51640656969E+01  0.20359384505E+02 -0.23990514342E+02  0.59302001657E+02  0.50000105102E+02 0.  0.
        -12    1    1    2    0    0  0.51640656969E+01 -0.20359384505E+02  0.23990514342E+02  0.31885998343E+02  0.00000000000E+00 0.  1.
         11    1    3    3    0    0 -0.22256930941E+01  0.76593048097E+01  0.33145557195E+01  0.86374151108E+01  0.51100000000E-03 0. -1.
        -11    1    3    3    0    0 -0.98886973381E+01  0.68877402320E+01  0.78357752239E+01  0.14374514745E+02  0.51100000000E-03 0.  1.
         12    1    3    3    0    0  0.69503247352E+01  0.58123394636E+01 -0.35140845285E+02  0.36290071801E+02  0.00000000000E+00 0. -1.
</event>
<event>
 7    1  0.3755162E-013  0.5930199E+02  0.7816164E-02  0.1266605E+00
        -11   -1    0    0    0    0  0.00000000000E+00  0.00000000000E+00  0.45593999997E+02  0.45594000000E+02  0.51100000000E-03 0. -1.
         11   -1    0    0    0    0 -0.00000000000E+00 -0.00000000000E+00 -0.45593999997E+02  0.45594000000E+02  0.51100000000E-03 0.  1.
    9900012    2    1    2    0    0 -0.80681617113E+01 -0.79874428192E+01  0.29796366788E+02  0.59301985041E+02  0.50000074798E+02 0.  0.
        -12    1    1    2    0    0  0.80681617113E+01  0.79874428192E+01 -0.29796366788E+02  0.31886014959E+02  0.00000000000E+00 0.  1.
         11    1    3    3    0    0  0.75906892035E+01 -0.75211156568E+01  0.52866512634E+01  0.11922014308E+02  0.51100000000E-03 0. -1.
        -11    1    3    3    0    0  0.10008582099E+02 -0.23943599755E+01 -0.19408571924E+01  0.10472421030E+02  0.51100000000E-03 0.  1.
         12    1    3    3    0    0 -0.25667433014E+02  0.19280328130E+01  0.26450572717E+02  0.36907549704E+02  0.00000000000E+00 0. -1.
</event>
<event>
 7    1  0.3755162E-013  0.5930196E+02  0.7816164E-02  0.1266605E+00
        -11   -1    0    0    0    0  0.00000000000E+00  0.00000000000E+00  0.45593999997E+02  0.45594000000E+02  0.51100000000E-03 0.  1.
         11   -1    0    0    0    0 -0.00000000000E+00 -0.00000000000E+00 -0.45593999997E+02  0.45594000000E+02  0.51100000000E-03 0. -1.
    9900012    2    1    2    0    0  0.72391213448E+01  0.27991651837E+02 -0.13445517578E+02  0.59301962407E+02  0.50000033520E+02 0.  0.
        -12    1    1    2    0    0 -0.72391213448E+01 -0.27991651837E+02  0.13445517578E+02  0.31886037593E+02  0.00000000000E+00 0.  1.
         11    1    3    3    0    0  0.27543561135E+01  0.71716754384E+01 -0.28170279456E+02  0.29199041954E+02  0.51100000000E-03 0. -1.
        -11    1    3    3    0    0  0.30244626418E+00 -0.25001548283E+01  0.19574010295E+01  0.31896186229E+01  0.51100000000E-03 0.  1.
        -12    1    3    3    0    0  0.41823189671E+01  0.23320131227E+02  0.12767360848E+02  0.26913301830E+02  0.00000000000E+00 0.  1.
</event>
<event>
 7    1  0.3755162E-013  0.5930195E+02  0.7816164E-02  0.1266605E+00
        -11   -1    0    0    0    0  0.00000000000E+00  0.00000000000E+00  0.45593999997E+02  0.45594000000E+02  0.51100000000E-03 0.  1.
         11   -1    0    0    0    0 -0.00000000000E+00 -0.00000000000E+00 -0.45593999997E+02  0.45594000000E+02  0.51100000000E-03 0. -1.
    9900012    2    1    2    0    0 -0.11017669667E+01  0.17241852336E+02 -0.26799719721E+02  0.59301947571E+02  0.50000006461E+02 0.  0.
        -12    1    1    2    0    0  0.11017669667E+01 -0.17241852336E+02  0.26799719721E+02  0.31886052429E+02  0.00000000000E+00 0.  1.
         11    1    3    3    0    0 -0.39578215065E+01  0.18280326700E+02 -0.14138273585E+02  0.23446225188E+02  0.51100000000E-03 0. -1.
        -11    1    3    3    0    0  0.23018997535E+01 -0.48260953977E+01 -0.23635727860E+02  0.24232985185E+02  0.51100000000E-03 0.  1.
        -12    1    3    3    0    0  0.55415478623E+00  0.37876210332E+01  0.10974281724E+02  0.11622737198E+02  0.00000000000E+00 0.  1.
</event>
<event>
 7    1  0.3755162E-013  0.5930190E+02  0.7816164E-02  0.1266605E+00
        -11   -1    0    0    0    0  0.00000000000E+00  0.00000000000E+00  0.45593999997E+02  0.45594000000E+02  0.51100000000E-03 0.  1.
         11   -1    0    0    0    0 -0.00000000000E+00 -0.00000000000E+00 -0.45593999997E+02  0.45594000000E+02  0.51100000000E-03 0. -1.
    9900012    2    1    2    0    0 -0.16146607240E+02 -0.14603318128E+02 -0.23297070782E+02  0.59301900634E+02  0.49999920861E+02 0.  0.
        -12    1    1    2    0    0  0.16146607240E+02  0.14603318128E+02  0.23297070782E+02  0.31886099366E+02  0.00000000000E+00 0.  1.
         11    1    3    3    0    0 -0.13539824703E+02  0.58731171433E+01  0.20406463544E+01  0.14899147485E+02  0.51100000000E-03 0. -1.
        -11    1    3    3    0    0 -0.11728172717E+02 -0.10501654048E+01 -0.79744462070E+00  0.11802067651E+02  0.51100000000E-03 0.  1.
        -12    1    3    3    0    0  0.91213901803E+01 -0.19426269867E+02 -0.24540272516E+02  0.32600685498E+02  0.00000000000E+00 0.  1.
</event>
<event>
 7    1  0.3755162E-013  0.5930191E+02  0.7816164E-02  0.1266605E+00
        -11   -1    0    0    0    0  0.00000000000E+00  0.00000000000E+00  0.45593999997E+02  0.45594000000E+02  0.51100000000E-03 0.  1.
         11   -1    0    0    0    0 -0.00000000000E+00 -0.00000000000E+00 -0.45593999997E+02  0.45594000000E+02  0.51100000000E-03 0. -1.
    9900012    2    1    2    0    0  0.52178859618E+01 -0.30184450619E+02 -0.88541011210E+01  0.59301913697E+02  0.49999944684E+02 0.  0.
        -12    1    1    2    0    0 -0.52178859618E+01  0.30184450619E+02  0.88541011210E+01  0.31886086303E+02  0.00000000000E+00 0.  1.
         11    1    3    3    0    0 -0.50314826880E+01  0.26587598262E+01 -0.46880264020E+01  0.73730871187E+01  0.51100000000E-03 0. -1.
        -11    1    3    3    0    0 -0.32973200203E+01 -0.33942827393E+02  0.64195946202E+01  0.34701571233E+02  0.51100000000E-03 0.  1.
         12    1    3    3    0    0  0.13546688670E+02  0.10996169474E+01 -0.10585669339E+02  0.17227255345E+02  0.00000000000E+00 0. -1.
</event>
<event>
 7    1  0.3755162E-013  0.5930196E+02  0.7816164E-02  0.1266605E+00
        -11   -1    0    0    0    0  0.00000000000E+00  0.00000000000E+00  0.45593999997E+02  0.45594000000E+02  0.51100000000E-03 0. -1.
         11   -1    0    0    0    0 -0.00000000000E+00 -0.00000000000E+00 -0.45593999997E+02  0.45594000000E+02  0.51100000000E-03 0.  1.
    9900012    2    1    2    0    0 -0.33704989793E+00  0.27292291006E+02  0.16484439840E+02  0.59301960613E+02  0.50000030247E+02 0.  0.
        -12    1    1    2    0    0  0.33704989793E+00 -0.27292291006E+02 -0.16484439840E+02  0.31886039387E+02  0.00000000000E+00 0.  1.
         11    1    3    3    0    0  0.41542628703E+01  0.19913389844E+02  0.16371568794E+02  0.26111860526E+02  0.51100000000E-03 0. -1.
        -11    1    3    3    0    0 -0.83522226731E+01 -0.59894396789E+01  0.11344616940E+02  0.15307950386E+02  0.51100000000E-03 0.  1.
         12    1    3    3    0    0  0.38609099048E+01  0.13368340840E+02 -0.11231745894E+02  0.17882149701E+02  0.00000000000E+00 0. -1.
</event>
<event>
 7    1  0.3755162E-013  0.5930197E+02  0.7816164E-02  0.1266605E+00
        -11   -1    0    0    0    0  0.00000000000E+00  0.00000000000E+00  0.45593999997E+02  0.45594000000E+02  0.51100000000E-03 0.  1.
         11   -1    0    0    0    0 -0.00000000000E+00 -0.00000000000E+00 -0.45593999997E+02  0.45594000000E+02  0.51100000000E-03 0. -1.
    9900012    2    1    2    0    0 -0.24188151103E+02  0.68131750128E+01 -0.19627350561E+02  0.59301970182E+02  0.50000047699E+02 0.  0.
        -12    1    1    2    0    0  0.24188151103E+02 -0.68131750128E+01  0.19627350561E+02  0.31886029818E+02  0.00000000000E+00 0.  1.
         11    1    3    3    0    0  0.63426158746E+01  0.13343452452E+00 -0.22594106864E+00  0.63480414721E+01  0.51100000000E-03 0. -1.
        -11    1    3    3    0    0 -0.40147547467E+01 -0.87479007260E+01  0.74605498999E+01  0.12178005907E+02  0.51100000000E-03 0.  1.
         12    1    3    3    0    0 -0.26516012231E+02  0.15427641214E+02 -0.26861959392E+02  0.40775922803E+02  0.00000000000E+00 0. -1.
</event>
<event>
 7    1  0.3755162E-013  0.5930192E+02  0.7816164E-02  0.1266605E+00
        -11   -1    0    0    0    0  0.00000000000E+00  0.00000000000E+00  0.45593999997E+02  0.45594000000E+02  0.51100000000E-03 0.  1.
         11   -1    0    0    0    0 -0.00000000000E+00 -0.00000000000E+00 -0.45593999997E+02  0.45594000000E+02  0.51100000000E-03 0. -1.
    9900012    2    1    2    0    0  0.31016474048E+02 -0.73959131109E+01 -0.27310056294E-01  0.59301922490E+02  0.49999960721E+02 0.  0.
        -12    1    1    2    0    0 -0.31016474048E+02  0.73959131109E+01  0.27310056294E-01  0.31886077510E+02  0.00000000000E+00 0.  1.
         11    1    3    3    0    0  0.47008088984E+01 -0.70197746161E+01 -0.29957212214E+01  0.89637707388E+01  0.51100000000E-03 0. -1.
        -11    1    3    3    0    0  0.25571993444E+02 -0.18810785049E+02  0.73623226384E+00  0.31753968588E+02  0.51100000000E-03 0.  1.
         12    1    3    3    0    0  0.74367170544E+00  0.18434646555E+02  0.22321789012E+01  0.18584183163E+02  0.00000000000E+00 0. -1.
</event>
<event>
 7    1  0.3755162E-013  0.5930196E+02  0.7816164E-02  0.1266605E+00
        -11   -1    0    0    0    0  0.00000000000E+00  0.00000000000E+00  0.45593999997E+02  0.45594000000E+02  0.51100000000E-03 0.  1.
         11   -1    0    0    0    0 -0.00000000000E+00 -0.00000000000E+00 -0.45593999997E+02  0.45594000000E+02  0.51100000000E-03 0. -1.
    9900012    2    1    2    0    0  0.35269636345E+01  0.21081017986E+02 -0.23661591538E+02  0.59301957506E+02  0.50000024581E+02 0.  0.
        -12    1    1    2    0    0 -0.35269636345E+01 -0.21081017986E+02  0.23661591538E+02  0.31886042494E+02  0.00000000000E+00 0.  1.
         11    1    3    3    0    0  0.12574689088E+02  0.22538544233E+02 -0.18816781205E+02  0.31940257309E+02  0.51100000000E-03 0. -1.
        -11    1    3    3    0    0  0.79492831474E+01  0.39491407731E+01 -0.32572741850E+01  0.94549802104E+01  0.51100000000E-03 0.  1.
        -12    1    3    3    0    0 -0.16997008601E+02 -0.54066670198E+01 -0.15875361478E+01  0.17906719986E+02  0.00000000000E+00 0.  1.
</event>
<event>
 7    1  0.3755162E-013  0.5930192E+02  0.7816164E-02  0.1266605E+00
        -11   -1    0    0    0    0  0.00000000000E+00  0.00000000000E+00  0.45593999997E+02  0.45594000000E+02  0.51100000000E-03 0.  1.
         11   -1    0    0    0    0 -0.00000000000E+00 -0.00000000000E+00 -0.45593999997E+02  0.45594000000E+02  0.51100000000E-03 0. -1.
    9900012    2    1    2    0    0  0.23564475452E+02  0.18337828379E+02 -0.11187561625E+02  0.59301921720E+02  0.49999959316E+02 0.  0.
        -12    1    1    2    0    0 -0.23564475452E+02 -0.18337828379E+02  0.11187561625E+02  0.31886078280E+02  0.00000000000E+00 0.  1.
         11    1    3    3    0    0  0.22157254136E+02  0.23970697798E+02 -0.66858039705E+01  0.33320237676E+02  0.51100000000E-03 0. -1.
        -11    1    3    3    0    0 -0.21078884213E+01  0.96119725916E+01 -0.28790472453E+01  0.10252908075E+02  0.51100000000E-03 0.  1.
        -12    1    3    3    0    0  0.35151097369E+01 -0.15244842011E+02 -0.16227104093E+01  0.15728775969E+02  0.00000000000E+00 0.  1.
</event>
<event>
 7    1  0.3755162E-013  0.5930193E+02  0.7816164E-02  0.1266605E+00
        -11   -1    0    0    0    0  0.00000000000E+00  0.00000000000E+00  0.45593999997E+02  0.45594000000E+02  0.51100000000E-03 0. -1.
         11   -1    0    0    0    0 -0.00000000000E+00 -0.00000000000E+00 -0.45593999997E+02  0.45594000000E+02  0.51100000000E-03 0.  1.
    9900012    2    1    2    0    0 -0.77913606424E+01  0.74404046709E+01  0.30010935524E+02  0.59301934495E+02  0.49999982615E+02 0.  0.
        -12    1    1    2    0    0  0.77913606424E+01 -0.74404046709E+01 -0.30010935524E+02  0.31886065505E+02  0.00000000000E+00 0.  1.
         11    1    3    3    0    0 -0.13115056709E+02  0.15922439083E+02  0.32811694106E+02  0.38757399928E+02  0.51100000000E-03 0. -1.
        -11    1    3    3    0    0  0.17862080027E+01  0.39972398523E+01  0.39723244700E+01  0.59116687510E+01  0.51100000000E-03 0.  1.
         12    1    3    3    0    0  0.35374880636E+01 -0.12479274265E+02 -0.67730830512E+01  0.14632865816E+02  0.00000000000E+00 0. -1.
</event>
<event>
 7    1  0.3755162E-013  0.5930187E+02  0.7816164E-02  0.1266605E+00
        -11   -1    0    0    0    0  0.00000000000E+00  0.00000000000E+00  0.45593999997E+02  0.45594000000E+02  0.51100000000E-03 0. -1.
         11   -1    0    0    0    0 -0.00000000000E+00 -0.00000000000E+00 -0.45593999997E+02  0.45594000000E+02  0.51100000000E-03 0.  1.
    9900012    2    1    2    0    0  0.31475603714E+02 -0.17770591672E+01 -0.47805691867E+01  0.59301868059E+02  0.49999861450E+02 0.  0.
        -12    1    1    2    0    0 -0.31475603714E+02  0.17770591672E+01  0.47805691867E+01  0.31886131941E+02  0.00000000000E+00 0.  1.
         11    1    3    3    0    0  0.89336174615E+01 -0.25330756903E+01 -0.15557680564E+02  0.18118151622E+02  0.51100000000E-03 0. -1.
        -11    1    3    3    0    0  0.25979216771E+02  0.10550154292E+02  0.29719115074E+01  0.28196767862E+02  0.51100000000E-03 0.  1.
        -12    1    3    3    0    0 -0.34372305184E+01 -0.97941377690E+01  0.78051998697E+01  0.12986948575E+02  0.00000000000E+00 0.  1.
</event>
<event>
 7    1  0.3755162E-013  0.5930193E+02  0.7816164E-02  0.1266605E+00
        -11   -1    0    0    0    0  0.00000000000E+00  0.00000000000E+00  0.45593999997E+02  0.45594000000E+02  0.51100000000E-03 0.  1.
         11   -1    0    0    0    0 -0.00000000000E+00 -0.00000000000E+00 -0.45593999997E+02  0.45594000000E+02  0.51100000000E-03 0. -1.
    9900012    2    1    2    0    0  0.36635833224E+01 -0.29563578740E+02 -0.11370781076E+02  0.59301926348E+02  0.49999967757E+02 0.  0.
        -12    1    1    2    0    0 -0.36635833224E+01  0.29563578740E+02  0.11370781076E+02  0.31886073652E+02  0.00000000000E+00 0.  1.
         11    1    3    3    0    0  0.92839862514E+01 -0.10696622879E+02 -0.49929814715E+01  0.15017989412E+02  0.51100000000E-03 0. -1.
        -11    1    3    3    0    0 -0.19471753108E+02  0.39332005595E+00 -0.65862129260E+01  0.20559233223E+02  0.51100000000E-03 0.  1.
         12    1    3    3    0    0  0.13851350179E+02 -0.19260275916E+02  0.20841332111E+00  0.23724703713E+02  0.00000000000E+00 0. -1.
</event>
<event>
 7    1  0.3755162E-013  0.5930197E+02  0.7816164E-02  0.1266605E+00
        -11   -1    0    0    0    0  0.00000000000E+00  0.00000000000E+00  0.45593999997E+02  0.45594000000E+02  0.51100000000E-03 0. -1.
         11   -1    0    0    0    0 -0.00000000000E+00 -0.00000000000E+00 -0.45593999997E+02  0.45594000000E+02  0.51100000000E-03 0.  1.
    9900012    2    1    2    0    0  0.16971009621E+02 -0.11118869650E+02  0.24598264758E+02  0.59301967651E+02  0.50000043084E+02 0.  0.
        -12    1    1    2    0    0 -0.16971009621E+02  0.11118869650E+02 -0.24598264758E+02  0.31886032349E+02  0.00000000000E+00 0.  1.
         11    1    3    3    0    0  0.11882307466E+01 -0.42853818210E+01 -0.33135813891E+01  0.55458283008E+01  0.51100000000E-03 0. -1.
        -11    1    3    3    0    0 -0.37763651570E+01 -0.19081416774E+02  0.28020960259E+01  0.19652306284E+02  0.51100000000E-03 0.  1.
         12    1    3    3    0    0  0.19559144031E+02  0.12247928945E+02  0.25109750121E+02  0.34103833066E+02  0.00000000000E+00 0. -1.
</event>
<event>
 7    1  0.3755162E-013  0.5930193E+02  0.7816164E-02  0.1266605E+00
        -11   -1    0    0    0    0  0.00000000000E+00  0.00000000000E+00  0.45593999997E+02  0.45594000000E+02  0.51100000000E-03 0.  1.
         11   -1    0    0    0    0 -0.00000000000E+00 -0.00000000000E+00 -0.45593999997E+02  0.45594000000E+02  0.51100000000E-03 0. -1.
    9900012    2    1    2    0    0  0.29747194545E+02 -0.84286258304E+01  0.77964056794E+01  0.59301933165E+02  0.49999980189E+02 0.  0.
        -12    1    1    2    0    0 -0.29747194545E+02  0.84286258304E+01 -0.77964056794E+01  0.31886066835E+02  0.00000000000E+00 0.  1.
         11    1    3    3    0    0  0.41713289950E+01 -0.83223702933E+01 -0.14396852140E+02  0.17144421387E+02  0.51100000000E-03 0. -1.
        -11    1    3    3    0    0  0.78562894602E+01 -0.72609259507E+00 -0.52557578359E+01  0.94800572377E+01  0.51100000000E-03 0.  1.
        -12    1    3    3    0    0  0.17719576090E+02  0.61983705795E+00  0.27449015655E+02  0.32677454540E+02  0.00000000000E+00 0.  1.
</event>
<event>
 7    1  0.3755162E-013  0.5930196E+02  0.7816164E-02  0.1266605E+00
        -11   -1    0    0    0    0  0.00000000000E+00  0.00000000000E+00  0.45593999997E+02  0.45594000000E+02  0.51100000000E-03 0.  1.
         11   -1    0    0    0    0 -0.00000000000E+00 -0.00000000000E+00 -0.45593999997E+02  0.45594000000E+02  0.51100000000E-03 0. -1.
    9900012    2    1    2    0    0  0.14025749470E+02 -0.28573312464E+02 -0.18878577815E+01  0.59301955398E+02  0.50000020737E+02 0.  0.
        -12    1    1    2    0    0 -0.14025749470E+02  0.28573312464E+02  0.18878577815E+01  0.31886044602E+02  0.00000000000E+00 0.  1.
         11    1    3    3    0    0 -0.35341914999E+01  0.34389959287E+00 -0.23224710975E+01  0.42429528335E+01  0.51100000000E-03 0. -1.
        -11    1    3    3    0    0 -0.14603575125E+01  0.95675282401E+01 -0.63815241099E+01  0.11592846541E+02  0.51100000000E-03 0.  1.
        -12    1    3    3    0    0  0.19020298483E+02 -0.38484740297E+02  0.68161374259E+01  0.43466156024E+02  0.00000000000E+00 0.  1.
</event>
<event>
 7    1  0.3755162E-013  0.5930194E+02  0.7816164E-02  0.1266605E+00
        -11   -1    0    0    0    0  0.00000000000E+00  0.00000000000E+00  0.45593999997E+02  0.45594000000E+02  0.51100000000E-03 0.  1.
         11   -1    0    0    0    0 -0.00000000000E+00 -0.00000000000E+00 -0.45593999997E+02  0.45594000000E+02  0.51100000000E-03 0. -1.
    9900012    2    1    2    0    0 -0.10662784973E+02 -0.29774384212E+02 -0.40634435979E+01  0.59301944858E+02  0.50000001515E+02 0.  0.
        -12    1    1    2    0    0  0.10662784973E+02  0.29774384212E+02  0.40634435979E+01  0.31886055142E+02  0.00000000000E+00 0.  1.
         11    1    3    3    0    0 -0.10368969121E+02  0.47551784744E+00 -0.78716281450E+01  0.13027055223E+02  0.51100000000E-03 0. -1.
        -11    1    3    3    0    0  0.41698202378E+00 -0.11204742111E+02  0.18892577788E+02  0.21969288007E+02  0.51100000000E-03 0.  1.
         12    1    3    3    0    0 -0.71079787599E+00 -0.19045159949E+02 -0.15084393241E+02  0.24305601629E+02  0.00000000000E+00 0. -1.
</event>
<event>
 7    1  0.3755162E-013  0.5930194E+02  0.7816164E-02  0.1266605E+00
        -11   -1    0    0    0    0  0.00000000000E+00  0.00000000000E+00  0.45593999997E+02  0.45594000000E+02  0.51100000000E-03 0.  1.
         11   -1    0    0    0    0 -0.00000000000E+00 -0.00000000000E+00 -0.45593999997E+02  0.45594000000E+02  0.51100000000E-03 0. -1.
    9900012    2    1    2    0    0 -0.30001876258E+02  0.14147532743E-01 -0.10798529085E+02  0.59301937064E+02  0.49999987301E+02 0.  0.
        -12    1    1    2    0    0  0.30001876258E+02 -0.14147532743E-01  0.10798529085E+02  0.31886062936E+02  0.00000000000E+00 0.  1.
         11    1    3    3    0    0 -0.29999255301E+02 -0.12231848512E+02 -0.12966151226E+01  0.32423057346E+02  0.51100000000E-03 0. -1.
        -11    1    3    3    0    0 -0.63519886573E+01 -0.40689184463E+01 -0.39355847861E+01  0.85083891011E+01  0.51100000000E-03 0.  1.
        -12    1    3    3    0    0  0.63493677001E+01  0.16314914491E+02 -0.55663291759E+01  0.18370490618E+02  0.00000000000E+00 0.  1.
</event>
<event>
 7    1  0.3755162E-013  0.5930197E+02  0.7816164E-02  0.1266605E+00
        -11   -1    0    0    0    0  0.00000000000E+00  0.00000000000E+00  0.45593999997E+02  0.45594000000E+02  0.51100000000E-03 0.  1.
         11   -1    0    0    0    0 -0.00000000000E+00 -0.00000000000E+00 -0.45593999997E+02  0.45594000000E+02  0.51100000000E-03 0. -1.
    9900012    2    1    2    0    0  0.14037099423E+02 -0.21755225554E+02  0.18611534330E+02  0.59301965294E+02  0.50000038785E+02 0.  0.
        -12    1    1    2    0    0 -0.14037099423E+02  0.21755225554E+02 -0.18611534330E+02  0.31886034706E+02  0.00000000000E+00 0.  1.
         11    1    3    3    0    0  0.76847830679E+01  0.51886359863E+01  0.83379846185E+01  0.12469956774E+02  0.51100000000E-03 0. -1.
        -11    1    3    3    0    0 -0.11651737434E+02 -0.30736233176E+00 -0.30215750506E+01  0.12041070255E+02  0.51100000000E-03 0.  1.
         12    1    3    3    0    0  0.18004053789E+02 -0.26636499209E+02  0.13295124762E+02  0.34790938265E+02  0.00000000000E+00 0. -1.
</event>
<event>
 7    1  0.3755162E-013  0.5930194E+02  0.7816164E-02  0.1266605E+00
        -11   -1    0    0    0    0  0.00000000000E+00  0.00000000000E+00  0.45593999997E+02  0.45594000000E+02  0.51100000000E-03 0. -1.
         11   -1    0    0    0    0 -0.00000000000E+00 -0.00000000000E+00 -0.45593999997E+02  0.45594000000E+02  0.51100000000E-03 0.  1.
    9900012    2    1    2    0    0 -0.31306392113E+02  0.25262088684E+01  0.54998881720E+01  0.59301942102E+02  0.49999996487E+02 0.  0.
        -12    1    1    2    0    0  0.31306392113E+02 -0.25262088684E+01 -0.54998881720E+01  0.31886057898E+02  0.00000000000E+00 0.  1.
         11    1    3    3    0    0 -0.26231507506E+02 -0.18958134299E+02 -0.44881630776E+01  0.32674859605E+02  0.51100000000E-03 0. -1.
        -11    1    3    3    0    0 -0.24966734337E+01 -0.38319279768E+00  0.20999984467E+00  0.25346232759E+01  0.51100000000E-03 0.  1.
        -12    1    3    3    0    0 -0.25782111734E+01  0.21867535965E+02  0.97780514049E+01  0.24092459221E+02  0.00000000000E+00 0.  1.
</event>
<event>
 7    1  0.3755162E-013  0.5930195E+02  0.7816164E-02  0.1266605E+00
        -11   -1    0    0    0    0  0.00000000000E+00  0.00000000000E+00  0.45593999997E+02  0.45594000000E+02  0.51100000000E-03 0. -1.
         11   -1    0    0    0    0 -0.00000000000E+00 -0.00000000000E+00 -0.45593999997E+02  0.45594000000E+02  0.51100000000E-03 0.  1.
    9900012    2    1    2    0    0 -0.28069296643E+02 -0.77877546551E+01  0.12968652846E+02  0.59301945160E+02  0.50000002065E+02 0.  0.
        -12    1    1    2    0    0  0.28069296643E+02  0.77877546551E+01 -0.12968652846E+02  0.31886054840E+02  0.00000000000E+00 0.  1.
         11    1    3    3    0    0 -0.67701521714E+01  0.61241488590E+01  0.37320920994E+01  0.98624880923E+01  0.51100000000E-03 0. -1.
        -11    1    3    3    0    0 -0.19699772267E+02  0.71051991231E+01  0.17004005900E+02  0.26975935551E+02  0.51100000000E-03 0.  1.
        -12    1    3    3    0    0 -0.15993722048E+01 -0.21017102637E+02 -0.77674451528E+01  0.22463521516E+02  0.00000000000E+00 0.  1.
</event>
<event>
 7    1  0.3755162E-013  0.5930194E+02  0.7816164E-02  0.1266605E+00
        -11   -1    0    0    0    0  0.00000000000E+00  0.00000000000E+00  0.45593999997E+02  0.45594000000E+02  0.51100000000E-03 0. -1.
         11   -1    0    0    0    0 -0.00000000000E+00 -0.00000000000E+00 -0.45593999997E+02  0.45594000000E+02  0.51100000000E-03 0.  1.
    9900012    2    1    2    0    0  0.68120562159E+00  0.30886972915E+02  0.78899556641E+01  0.59301944469E+02  0.50000000804E+02 0.  0.
        -12    1    1    2    0    0 -0.68120562159E+00 -0.30886972915E+02 -0.78899556641E+01  0.31886055531E+02  0.00000000000E+00 0.  1.
         11    1    3    3    0    0  0.10542381887E+02  0.27246422866E+02 -0.52688333690E+01  0.29686191743E+02  0.51100000000E-03 0. -1.
        -11    1    3    3    0    0  0.76321391853E+00 -0.67676053601E+01 -0.31842929179E+01  0.75181579821E+01  0.51100000000E-03 0.  1.
         12    1    3    3    0    0 -0.10624390184E+02  0.10408155409E+02  0.16343081951E+02  0.22097594744E+02  0.00000000000E+00 0. -1.
</event>
<event>
 7    1  0.3755162E-013  0.5930193E+02  0.7816164E-02  0.1266605E+00
        -11   -1    0    0    0    0  0.00000000000E+00  0.00000000000E+00  0.45593999997E+02  0.45594000000E+02  0.51100000000E-03 0.  1.
         11   -1    0    0    0    0 -0.00000000000E+00 -0.00000000000E+00 -0.45593999997E+02  0.45594000000E+02  0.51100000000E-03 0. -1.
    9900012    2    1    2    0    0  0.20324264050E+02 -0.24347407489E+02 -0.32938526578E+01  0.59301930534E+02  0.49999975392E+02 0.  0.
        -12    1    1    2    0    0 -0.20324264050E+02  0.24347407489E+02  0.32938526578E+01  0.31886069466E+02  0.00000000000E+00 0.  1.
         11    1    3    3    0    0 -0.40406164264E+01 -0.91505295334E+01  0.31587138910E+01  0.10489816278E+02  0.51100000000E-03 0. -1.
        -11    1    3    3    0    0 -0.94474696829E+01  0.18569465163E+01 -0.51524268744E+01  0.10920184830E+02  0.51100000000E-03 0.  1.
         12    1    3    3    0    0  0.33812350159E+02 -0.17053824472E+02 -0.13001396744E+01  0.37891929426E+02  0.00000000000E+00 0. -1.
</event>
<event>
 7    1  0.3755162E-013  0.5930194E+02  0.7816164E-02  0.1266605E+00
        -11   -1    0    0    0    0  0.00000000000E+00  0.00000000000E+00  0.45593999997E+02  0.45594000000E+02  0.51100000000E-03 0.  1.
         11   -1    0    0    0    0 -0.00000000000E+00 -0.00000000000E+00 -0.45593999997E+02  0.45594000000E+02  0.51100000000E-03 0. -1.
    9900012    2    1    2    0    0  0.23674576628E+02  0.20758953322E+02  0.50300268763E+01  0.59301938908E+02  0.49999990664E+02 0.  0.
        -12    1    1    2    0    0 -0.23674576628E+02 -0.20758953322E+02 -0.50300268763E+01  0.31886061092E+02  0.00000000000E+00 0.  1.
         11    1    3    3    0    0  0.10945824504E+01  0.10001637613E+01  0.27508234337E+01  0.31249748983E+01  0.51100000000E-03 0. -1.
        -11    1    3    3    0    0  0.50864917416E+01  0.30232681393E+02  0.12812906795E+02  0.33227368286E+02  0.51100000000E-03 0.  1.
         12    1    3    3    0    0  0.17493502436E+02 -0.10473891832E+02 -0.10533703352E+02  0.22949595724E+02  0.00000000000E+00 0. -1.
</event>
<event>
 7    1  0.3755162E-013  0.5930186E+02  0.7816164E-02  0.1266605E+00
        -11   -1    0    0    0    0  0.00000000000E+00  0.00000000000E+00  0.45593999997E+02  0.45594000000E+02  0.51100000000E-03 0. -1.
         11   -1    0    0    0    0 -0.00000000000E+00 -0.00000000000E+00 -0.45593999997E+02  0.45594000000E+02  0.51100000000E-03 0.  1.
    9900012    2    1    2    0    0  0.31228744747E+02  0.63049270232E+01 -0.13188936528E+01  0.59301857497E+02  0.49999842189E+02 0.  0.
        -12    1    1    2    0    0 -0.31228744747E+02 -0.63049270232E+01  0.13188936528E+01  0.31886142503E+02  0.00000000000E+00 0.  1.
         11    1    3    3    0    0  0.13732095606E+01  0.17573350383E+02  0.92710516911E+01  0.19916343738E+02  0.51100000000E-03 0.  1.
        -11    1    3    3    0    0  0.11581973781E+02 -0.51609604921E+00  0.54392369164E+01  0.12806005243E+02  0.51100000000E-03 0. -1.
         12    1    3    3    0    0  0.18273561405E+02 -0.10752327310E+02 -0.16029182260E+02  0.26579508516E+02  0.00000000000E+00 0. -1.
</event>
<event>
 7    1  0.3755162E-013  0.5930195E+02  0.7816164E-02  0.1266605E+00
        -11   -1    0    0    0    0  0.00000000000E+00  0.00000000000E+00  0.45593999997E+02  0.45594000000E+02  0.51100000000E-03 0.  1.
         11   -1    0    0    0    0 -0.00000000000E+00 -0.00000000000E+00 -0.45593999997E+02  0.45594000000E+02  0.51100000000E-03 0. -1.
    9900012    2    1    2    0    0 -0.59844187284E+01 -0.69167447310E+01 -0.30546123619E+02  0.59301948295E+02  0.50000007783E+02 0.  0.
        -12    1    1    2    0    0  0.59844187284E+01  0.69167447310E+01  0.30546123619E+02  0.31886051705E+02  0.00000000000E+00 0.  1.
         11    1    3    3    0    0  0.34102989020E+01  0.54855717498E+00 -0.23358481330E+02  0.23612490421E+02  0.51100000000E-03 0. -1.
        -11    1    3    3    0    0 -0.20558387695E+02 -0.94138621873E+01 -0.87592343863E+01  0.24248552394E+02  0.51100000000E-03 0.  1.
         12    1    3    3    0    0  0.11163670065E+02  0.19485602813E+01  0.15715920973E+01  0.11440905480E+02  0.00000000000E+00 0. -1.
</event>
<event>
 7    1  0.3755162E-013  0.5930196E+02  0.7816164E-02  0.1266605E+00
        -11   -1    0    0    0    0  0.00000000000E+00  0.00000000000E+00  0.45593999997E+02  0.45594000000E+02  0.51100000000E-03 0. -1.
         11   -1    0    0    0    0 -0.00000000000E+00 -0.00000000000E+00 -0.45593999997E+02  0.45594000000E+02  0.51100000000E-03 0.  1.
    9900012    2    1    2    0    0 -0.10491732706E+01  0.16281113356E+02  0.27396064094E+02  0.59301956901E+02  0.50000023477E+02 0.  0.
        -12    1    1    2    0    0  0.10491732706E+01 -0.16281113356E+02 -0.27396064094E+02  0.31886043099E+02  0.00000000000E+00 0.  1.
         11    1    3    3    0    0  0.82868119673E+01  0.72075016576E+01  0.14334814355E+02  0.18058411768E+02  0.51100000000E-03 0. -1.
        -11    1    3    3    0    0 -0.42371722223E+01  0.97035091494E+01 -0.11801699649E+02  0.15855340839E+02  0.51100000000E-03 0.  1.
         12    1    3    3    0    0 -0.50988130155E+01 -0.62989745088E+00  0.24862949388E+02  0.25388204293E+02  0.00000000000E+00 0. -1.
</event>
<event>
 7    1  0.3755162E-013  0.5930191E+02  0.7816164E-02  0.1266605E+00
        -11   -1    0    0    0    0  0.00000000000E+00  0.00000000000E+00  0.45593999997E+02  0.45594000000E+02  0.51100000000E-03 0.  1.
         11   -1    0    0    0    0 -0.00000000000E+00 -0.00000000000E+00 -0.45593999997E+02  0.45594000000E+02  0.51100000000E-03 0. -1.
    9900012    2    1    2    0    0  0.31188541561E+02  0.61714233308E+01 -0.24313303857E+01  0.59301906510E+02  0.49999931576E+02 0.  0.
        -12    1    1    2    0    0 -0.31188541561E+02 -0.61714233308E+01  0.24313303857E+01  0.31886093490E+02  0.00000000000E+00 0.  1.
         11    1    3    3    0    0  0.13262819457E+02  0.15737134757E+02  0.26822976679E+01  0.20754626264E+02  0.51100000000E-03 0. -1.
        -11    1    3    3    0    0  0.16191858706E+02  0.85436515185E+01  0.31320453726E+01  0.18573636642E+02  0.51100000000E-03 0.  1.
         12    1    3    3    0    0  0.17338633978E+01 -0.18109362945E+02 -0.82456734261E+01  0.19973643604E+02  0.00000000000E+00 0. -1.
</event>
<event>
 7    1  0.3755162E-013  0.5930195E+02  0.7816164E-02  0.1266605E+00
        -11   -1    0    0    0    0  0.00000000000E+00  0.00000000000E+00  0.45593999997E+02  0.45594000000E+02  0.51100000000E-03 0.  1.
         11   -1    0    0    0    0 -0.00000000000E+00 -0.00000000000E+00 -0.45593999997E+02  0.45594000000E+02  0.51100000000E-03 0. -1.
    9900012    2    1    2    0    0 -0.17301889815E+02  0.20962481635E+01 -0.26701504089E+02  0.59301953394E+02  0.50000017082E+02 0.  0.
        -12    1    1    2    0    0  0.17301889815E+02 -0.20962481635E+01  0.26701504089E+02  0.31886046606E+02  0.00000000000E+00 0.  1.
         11    1    3    3    0    0 -0.31567006696E+01 -0.10139957721E+02  0.69410669964E+01  0.12687076614E+02  0.51100000000E-03 0. -1.
        -11    1    3    3    0    0  0.37025155666E+01  0.52233475836E+01  0.15045328748E+01  0.65768990362E+01  0.51100000000E-03 0.  1.
         12    1    3    3    0    0 -0.17847704712E+02  0.70128583007E+01 -0.35147103960E+02  0.40037977744E+02  0.00000000000E+00 0. -1.
</event>
<event>
 7    1  0.3755162E-013  0.5930191E+02  0.7816164E-02  0.1266605E+00
        -11   -1    0    0    0    0  0.00000000000E+00  0.00000000000E+00  0.45593999997E+02  0.45594000000E+02  0.51100000000E-03 0. -1.
         11   -1    0    0    0    0 -0.00000000000E+00 -0.00000000000E+00 -0.45593999997E+02  0.45594000000E+02  0.51100000000E-03 0.  1.
    9900012    2    1    2    0    0  0.15151443391E+02 -0.17887773102E+01  0.27999223371E+02  0.59301914156E+02  0.49999945521E+02 0.  0.
        -12    1    1    2    0    0 -0.15151443391E+02  0.17887773102E+01 -0.27999223371E+02  0.31886085844E+02  0.00000000000E+00 0.  1.
         11    1    3    3    0    0 -0.77356659188E+01 -0.14724233700E+02  0.15424647072E+02  0.22683988248E+02  0.51100000000E-03 0. -1.
        -11    1    3    3    0    0 -0.10037399306E+00  0.10246820164E+02  0.80605819737E+01  0.13037652413E+02  0.51100000000E-03 0.  1.
        -12    1    3    3    0    0  0.22987483303E+02  0.26886362261E+01  0.45139943243E+01  0.23580273495E+02  0.00000000000E+00 0.  1.
</event>
<event>
 7    1  0.3755162E-013  0.5930194E+02  0.7816164E-02  0.1266605E+00
        -11   -1    0    0    0    0  0.00000000000E+00  0.00000000000E+00  0.45593999997E+02  0.45594000000E+02  0.51100000000E-03 0. -1.
         11   -1    0    0    0    0 -0.00000000000E+00 -0.00000000000E+00 -0.45593999997E+02  0.45594000000E+02  0.51100000000E-03 0.  1.
    9900012    2    1    2    0    0  0.67086246824E+01  0.21501501000E+02  0.22569899167E+02  0.59301944446E+02  0.50000000763E+02 0.  0.
        -12    1    1    2    0    0 -0.67086246824E+01 -0.21501501000E+02 -0.22569899167E+02  0.31886055554E+02  0.00000000000E+00 0.  1.
         11    1    3    3    0    0 -0.30006465273E+01 -0.94457201684E+00 -0.25654445973E+01  0.40592612776E+01  0.51100000000E-03 0. -1.
        -11    1    3    3    0    0 -0.97239785730E+01  0.20963262213E+01 -0.72735888658E+01  0.12322963855E+02  0.51100000000E-03 0.  1.
         12    1    3    3    0    0  0.19433249783E+02  0.20349746796E+02  0.32408932630E+02  0.42919719314E+02  0.00000000000E+00 0. -1.
</event>
<event>
 7    1  0.3755162E-013  0.5930195E+02  0.7816164E-02  0.1266605E+00
        -11   -1    0    0    0    0  0.00000000000E+00  0.00000000000E+00  0.45593999997E+02  0.45594000000E+02  0.51100000000E-03 0.  1.
         11   -1    0    0    0    0 -0.00000000000E+00 -0.00000000000E+00 -0.45593999997E+02  0.45594000000E+02  0.51100000000E-03 0. -1.
    9900012    2    1    2    0    0  0.65383928687E+01  0.29769388259E+02 -0.93676583447E+01  0.59301951617E+02  0.50000013841E+02 0.  0.
        -12    1    1    2    0    0 -0.65383928687E+01 -0.29769388259E+02  0.93676583447E+01  0.31886048383E+02  0.00000000000E+00 0.  1.
         11    1    3    3    0    0  0.33610767193E+01  0.20238099575E+02  0.80913413819E+01  0.22053283582E+02  0.51100000000E-03 0. -1.
        -11    1    3    3    0    0  0.13218663796E+02 -0.39863923835E+01 -0.12289619375E+01  0.13861267781E+02  0.51100000000E-03 0.  1.
         12    1    3    3    0    0 -0.10041347647E+02  0.13517681068E+02 -0.16230037789E+02  0.23387400254E+02  0.00000000000E+00 0. -1.
</event>
<event>
 7    1  0.3755162E-013  0.5930194E+02  0.7816164E-02  0.1266605E+00
        -11   -1    0    0    0    0  0.00000000000E+00  0.00000000000E+00  0.45593999997E+02  0.45594000000E+02  0.51100000000E-03 0.  1.
         11   -1    0    0    0    0 -0.00000000000E+00 -0.00000000000E+00 -0.45593999997E+02  0.45594000000E+02  0.51100000000E-03 0. -1.
    9900012    2    1    2    0    0  0.52569013318E+01 -0.28851942819E+02 -0.12516035885E+02  0.59301940816E+02  0.49999994142E+02 0.  0.
        -12    1    1    2    0    0 -0.52569013318E+01  0.28851942819E+02  0.12516035885E+02  0.31886059184E+02  0.00000000000E+00 0.  1.
         11    1    3    3    0    0  0.12876785610E+02 -0.10266643301E+02 -0.16607658112E+02  0.23388669918E+02  0.51100000000E-03 0. -1.
        -11    1    3    3    0    0 -0.58010031725E+01  0.50275347374E+01 -0.64154988795E+01  0.10004317542E+02  0.51100000000E-03 0.  1.
        -12    1    3    3    0    0 -0.18188811055E+01 -0.23612834256E+02  0.10507121106E+02  0.25908953356E+02  0.00000000000E+00 0.  1.
</event>
<event>
 7    1  0.3755162E-013  0.5930192E+02  0.7816164E-02  0.1266605E+00
        -11   -1    0    0    0    0  0.00000000000E+00  0.00000000000E+00  0.45593999997E+02  0.45594000000E+02  0.51100000000E-03 0. -1.
         11   -1    0    0    0    0 -0.00000000000E+00 -0.00000000000E+00 -0.45593999997E+02  0.45594000000E+02  0.51100000000E-03 0.  1.
    9900012    2    1    2    0    0  0.26243102979E+02  0.12646185244E+02  0.12965158127E+02  0.59301924976E+02  0.49999965255E+02 0.  0.
        -12    1    1    2    0    0 -0.26243102979E+02 -0.12646185244E+02 -0.12965158127E+02  0.31886075024E+02  0.00000000000E+00 0.  1.
         11    1    3    3    0    0  0.18340359127E+02 -0.12037914176E+01 -0.10834845343E+02  0.21335692174E+02  0.51100000000E-03 0. -1.
        -11    1    3    3    0    0  0.15312532841E+02  0.85899141126E+01  0.70693658793E+01  0.18927129224E+02  0.51100000000E-03 0.  1.
         12    1    3    3    0    0 -0.74097889897E+01  0.52600625489E+01  0.16730637590E+02  0.19039103578E+02  0.00000000000E+00 0. -1.
</event>
<event>
 7    1  0.3755162E-013  0.5930193E+02  0.7816164E-02  0.1266605E+00
        -11   -1    0    0    0    0  0.00000000000E+00  0.00000000000E+00  0.45593999997E+02  0.45594000000E+02  0.51100000000E-03 0.  1.
         11   -1    0    0    0    0 -0.00000000000E+00 -0.00000000000E+00 -0.45593999997E+02  0.45594000000E+02  0.51100000000E-03 0. -1.
    9900012    2    1    2    0    0  0.10812575583E+01  0.20409939173E+02 -0.24474204240E+02  0.59301930814E+02  0.49999975902E+02 0.  0.
        -12    1    1    2    0    0 -0.10812575583E+01 -0.20409939173E+02  0.24474204240E+02  0.31886069186E+02  0.00000000000E+00 0.  1.
         11    1    3    3    0    0 -0.36178737198E+00 -0.77169246072E+01 -0.52187777747E+01  0.93229532455E+01  0.51100000000E-03 0. -1.
        -11    1    3    3    0    0 -0.58272313250E+01  0.12106562264E+02  0.93692935955E+01  0.16380144612E+02  0.51100000000E-03 0.  1.
         12    1    3    3    0    0  0.72702762552E+01  0.16020301515E+02 -0.28624720061E+02  0.33598832956E+02  0.00000000000E+00 0. -1.
</event>
<event>
 7    1  0.3755162E-013  0.5930190E+02  0.7816164E-02  0.1266605E+00
        -11   -1    0    0    0    0  0.00000000000E+00  0.00000000000E+00  0.45593999997E+02  0.45594000000E+02  0.51100000000E-03 0.  1.
         11   -1    0    0    0    0 -0.00000000000E+00 -0.00000000000E+00 -0.45593999997E+02  0.45594000000E+02  0.51100000000E-03 0. -1.
    9900012    2    1    2    0    0 -0.39253516283E+01  0.95248473318E-01 -0.31643417506E+02  0.59301900691E+02  0.49999920964E+02 0.  0.
        -12    1    1    2    0    0  0.39253516283E+01 -0.95248473318E-01  0.31643417506E+02  0.31886099309E+02  0.00000000000E+00 0.  1.
         11    1    3    3    0    0 -0.31194422710E+01  0.10286100741E+02 -0.48991273068E+01  0.11812545753E+02  0.51100000000E-03 0. -1.
        -11    1    3    3    0    0  0.42542914112E+01 -0.18540451706E+02 -0.38231384322E-02  0.19022285871E+02  0.51100000000E-03 0.  1.
         12    1    3    3    0    0 -0.50602007685E+01  0.83495994386E+01 -0.26740467061E+02  0.28467069067E+02  0.00000000000E+00 0. -1.
</event>
<event>
 7    1  0.3755162E-013  0.5930186E+02  0.7816164E-02  0.1266605E+00
        -11   -1    0    0    0    0  0.00000000000E+00  0.00000000000E+00  0.45593999997E+02  0.45594000000E+02  0.51100000000E-03 0. -1.
         11   -1    0    0    0    0 -0.00000000000E+00 -0.00000000000E+00 -0.45593999997E+02  0.45594000000E+02  0.51100000000E-03 0.  1.
    9900012    2    1    2    0    0 -0.14388842324E+02 -0.57287377196E+01  0.27872370071E+02  0.59301855162E+02  0.49999837930E+02 0.  0.
        -12    1    1    2    0    0  0.14388842324E+02  0.57287377196E+01 -0.27872370071E+02  0.31886144838E+02  0.00000000000E+00 0.  1.
         11    1    3    3    0    0  0.52725179247E+01 -0.93757336843E+01  0.17531234948E+02  0.20568131331E+02  0.51100000000E-03 0. -1.
        -11    1    3    3    0    0  0.32464273961E+01 -0.94520648152E+01  0.68478444696E+01  0.12115023494E+02  0.51100000000E-03 0.  1.
        -12    1    3    3    0    0 -0.22907787644E+02  0.13099060780E+02  0.34932906532E+01  0.26618700338E+02  0.00000000000E+00 0.  1.
</event>
<event>
 7    1  0.3755162E-013  0.5930214E+02  0.7816164E-02  0.1266604E+00
        -11   -1    0    0    0    0  0.00000000000E+00  0.00000000000E+00  0.45593999997E+02  0.45594000000E+02  0.51100000000E-03 0. -1.
         11   -1    0    0    0    0 -0.00000000000E+00 -0.00000000000E+00 -0.45593999997E+02  0.45594000000E+02  0.51100000000E-03 0.  1.
    9900012    2    1    2    0    0 -0.80961497339E+01 -0.17937976185E+02  0.25087634213E+02  0.59302140743E+02  0.50000358761E+02 0.  0.
        -12    1    1    2    0    0  0.80961497339E+01  0.17937976185E+02 -0.25087634213E+02  0.31885859257E+02  0.00000000000E+00 0.  1.
         11    1    3    3    0    0 -0.14759327317E+02 -0.27604288371E+02  0.20709882234E+02  0.37533101414E+02  0.51100000000E-03 0. -1.
        -11    1    3    3    0    0  0.14093786961E+01  0.25960169902E+01  0.10587358976E+02  0.10991716102E+02  0.51100000000E-03 0.  1.
        -12    1    3    3    0    0  0.52537988872E+01  0.70702951961E+01 -0.62096069965E+01  0.10777323228E+02  0.00000000000E+00 0.  1.
</event>
