<event>
 8    1  0.4042158E-011  0.9118800E+02  0.7816164E-02  0.1184000E+00
        -11   -1    0    0    0    0  0.00000000000E+00  0.00000000000E+00  0.45593999997E+02  0.45594000000E+02  0.51100000000E-03 0. -1.
         11   -1    0    0    0    0 -0.00000000000E+00 -0.00000000000E+00 -0.45593999997E+02  0.45594000000E+02  0.51100000000E-03 0.  1.
         23    2    1    2    0    0  0.00000000000E+00 -0.71054273576E-14  0.00000000000E+00  0.91188000000E+02  0.91188000000E+02 0.  0.
    9900012    2    3    3    0    0  0.13664836652E+02  0.40723366854E+02 -0.62050961053E+01  0.47787267445E+02  0.19999983589E+02 0.  0.
         12    1    3    3    0    0 -0.13664836652E+02 -0.40723366854E+02  0.62050961053E+01  0.43400732555E+02  0.00000000000E+00 0. -1.
         11    1    4    4    0    0 -0.40263459934E+01  0.10359812147E+02 -0.18035215382E+01  0.11260100354E+02  0.51100000000E-03 0. -1.
        -11    1    4    4    0    0  0.33097393155E+01  0.83554427027E+00 -0.56099465634E+00  0.34593675477E+01  0.51100000000E-03 0.  1.
        -12    1    4    4    0    0  0.14381443330E+02  0.29528010437E+02 -0.38405799108E+01  0.33067799544E+02  0.00000000000E+00 0.  1.
</event>
<event>
 8    1  0.4042158E-011  0.9118800E+02  0.7816164E-02  0.1184000E+00
        -11   -1    0    0    0    0  0.00000000000E+00  0.00000000000E+00  0.45593999997E+02  0.45594000000E+02  0.51100000000E-03 0. -1.
         11   -1    0    0    0    0 -0.00000000000E+00 -0.00000000000E+00 -0.45593999997E+02  0.45594000000E+02  0.51100000000E-03 0.  1.
         23    2    1    2    0    0 -0.35527136788E-14  0.00000000000E+00  0.17763568394E-14  0.91188000000E+02  0.91188000000E+02 0.  0.
    9900012    2    3    3    0    0  0.27062356186E+02 -0.32728131636E+02  0.89510597778E+01  0.47787271966E+02  0.20000004202E+02 0.  0.
         12    1    3    3    0    0 -0.27062356186E+02  0.32728131636E+02 -0.89510597778E+01  0.43400728034E+02  0.00000000000E+00 0. -1.
         11    1    4    4    0    0  0.10910480554E+02 -0.12450198919E+02 -0.39366837428E+01  0.17015978320E+02  0.51100000000E-03 0. -1.
        -11    1    4    4    0    0  0.85936969236E+01 -0.15282862654E+02  0.38024914078E+01  0.17940915776E+02  0.51100000000E-03 0.  1.
         12    1    4    4    0    0  0.75581787091E+01 -0.49950700632E+01  0.90852521128E+01  0.12830377870E+02  0.00000000000E+00 0. -1.
</event>
<event>
 8    1  0.4042158E-011  0.9118800E+02  0.7816164E-02  0.1184000E+00
        -11   -1    0    0    0    0  0.00000000000E+00  0.00000000000E+00  0.45593999997E+02  0.45594000000E+02  0.51100000000E-03 0. -1.
         11   -1    0    0    0    0 -0.00000000000E+00 -0.00000000000E+00 -0.45593999997E+02  0.45594000000E+02  0.51100000000E-03 0.  1.
         23    2    1    2    0    0 -0.13322676296E-14  0.35527136788E-14 -0.71054273576E-14  0.91188000000E+02  0.91188000000E+02 0.  0.
    9900012    2    3    3    0    0 -0.26700260487E+01  0.17606321316E+02 -0.39579182104E+02  0.47787271373E+02  0.20000001497E+02 0.  0.
         12    1    3    3    0    0  0.26700260487E+01 -0.17606321316E+02  0.39579182104E+02  0.43400728627E+02  0.00000000000E+00 0. -1.
         11    1    4    4    0    0 -0.49700123776E+01 -0.22530871370E+01 -0.37097451008E+01  0.65984569146E+01  0.51100000000E-03 0. -1.
        -11    1    4    4    0    0 -0.45463899590E+00  0.98115258462E+01 -0.16933236130E+02  0.19575679353E+02  0.51100000000E-03 0.  1.
         12    1    4    4    0    0  0.27546253248E+01  0.10047882607E+02 -0.18936200873E+02  0.21613135105E+02  0.00000000000E+00 0. -1.
</event>
<event>
 8    1  0.4042158E-011  0.9118800E+02  0.7816164E-02  0.1184000E+00
        -11   -1    0    0    0    0  0.00000000000E+00  0.00000000000E+00  0.45593999997E+02  0.45594000000E+02  0.51100000000E-03 0. -1.
         11   -1    0    0    0    0 -0.00000000000E+00 -0.00000000000E+00 -0.45593999997E+02  0.45594000000E+02  0.51100000000E-03 0.  1.
         23    2    1    2    0    0 -0.44408920985E-15  0.00000000000E+00  0.71054273576E-14  0.91188000000E+02  0.91188000000E+02 0.  0.
    9900012    2    3    3    0    0 -0.18879115745E+01 -0.22687434583E+02 -0.36950499932E+02  0.47787270245E+02  0.19999996354E+02 0.  0.
         12    1    3    3    0    0  0.18879115745E+01  0.22687434583E+02  0.36950499932E+02  0.43400729755E+02  0.00000000000E+00 0. -1.
         11    1    4    4    0    0  0.30047940101E+01 -0.26301515034E+00 -0.16616179599E+01  0.34436809548E+01  0.51100000000E-03 0. -1.
        -11    1    4    4    0    0 -0.40478883976E+00 -0.26959794939E+01  0.91009633482E+00  0.28740972558E+01  0.51100000000E-03 0.  1.
        -12    1    4    4    0    0 -0.44879167448E+01 -0.19728439939E+02 -0.36198978307E+02  0.41469492034E+02  0.00000000000E+00 0.  1.
</event>
<event>
 8    1  0.4042158E-011  0.9118800E+02  0.7816164E-02  0.1184000E+00
        -11   -1    0    0    0    0  0.00000000000E+00  0.00000000000E+00  0.45593999997E+02  0.45594000000E+02  0.51100000000E-03 0. -1.
         11   -1    0    0    0    0 -0.00000000000E+00 -0.00000000000E+00 -0.45593999997E+02  0.45594000000E+02  0.51100000000E-03 0.  1.
         23    2    1    2    0    0  0.23314683517E-14  0.00000000000E+00  0.00000000000E+00  0.91188000000E+02  0.91188000000E+02 0.  0.
    9900012    2    3    3    0    0  0.79035906290E+00 -0.10873863623E+02 -0.42009023688E+02  0.47787266726E+02  0.19999980309E+02 0.  0.
         12    1    3    3    0    0 -0.79035906290E+00  0.10873863623E+02  0.42009023688E+02  0.43400733274E+02  0.00000000000E+00 0. -1.
         11    1    4    4    0    0 -0.81124865214E+01 -0.49332737302E+01 -0.17138467829E+02  0.19592771806E+02  0.51100000000E-03 0. -1.
        -11    1    4    4    0    0 -0.65481695487E+00 -0.24476421574E+00 -0.77168199460E+01  0.77484195231E+01  0.51100000000E-03 0.  1.
         12    1    4    4    0    0  0.95576625391E+01 -0.56958256769E+01 -0.17153735913E+02  0.20446075396E+02  0.00000000000E+00 0. -1.
</event>
<event>
 8    1  0.4042158E-011  0.9118800E+02  0.7816164E-02  0.1184000E+00
        -11   -1    0    0    0    0  0.00000000000E+00  0.00000000000E+00  0.45593999997E+02  0.45594000000E+02  0.51100000000E-03 0.  1.
         11   -1    0    0    0    0 -0.00000000000E+00 -0.00000000000E+00 -0.45593999997E+02  0.45594000000E+02  0.51100000000E-03 0. -1.
         23    2    1    2    0    0  0.00000000000E+00  0.71054273576E-14  0.00000000000E+00  0.91188000000E+02  0.91188000000E+02 0.  0.
    9900012    2    3    3    0    0  0.51002391069E+01 -0.39100237032E+02  0.18132353990E+02  0.47787271480E+02  0.20000001985E+02 0.  0.
        -12    1    3    3    0    0 -0.51002391069E+01  0.39100237032E+02 -0.18132353990E+02  0.43400728520E+02  0.00000000000E+00 0.  1.
         11    1    4    4    0    0  0.87680831321E+00 -0.26570148735E+01  0.82823291598E-01  0.27991750240E+01  0.51100000000E-03 0.  1.
        -11    1    4    4    0    0  0.88054256990E+00 -0.36564571643E+02  0.19374941379E+02  0.41389994060E+02  0.51100000000E-03 0. -1.
         12    1    4    4    0    0  0.33428882238E+01  0.12134948437E+00 -0.13254106810E+01  0.35981023953E+01  0.00000000000E+00 0. -1.
</event>
<event>
 8    1  0.4042158E-011  0.9118800E+02  0.7816164E-02  0.1184000E+00
        -11   -1    0    0    0    0  0.00000000000E+00  0.00000000000E+00  0.45593999997E+02  0.45594000000E+02  0.51100000000E-03 0. -1.
         11   -1    0    0    0    0 -0.00000000000E+00 -0.00000000000E+00 -0.45593999997E+02  0.45594000000E+02  0.51100000000E-03 0.  1.
         23    2    1    2    0    0  0.00000000000E+00 -0.44408920985E-15  0.00000000000E+00  0.91188000000E+02  0.91188000000E+02 0.  0.
    9900012    2    3    3    0    0 -0.41999711782E+02  0.22921753537E+01  0.10695485281E+02  0.47787271170E+02  0.20000000572E+02 0.  0.
        -12    1    3    3    0    0  0.41999711782E+02 -0.22921753537E+01 -0.10695485281E+02  0.43400728830E+02  0.00000000000E+00 0.  1.
         11    1    4    4    0    0 -0.16260429764E+02 -0.45986922143E+01  0.60158288998E+01  0.17937105224E+02  0.51100000000E-03 0. -1.
        -11    1    4    4    0    0  0.44779972901E+00 -0.16690266810E+01 -0.53797717430E+00  0.18098603152E+01  0.51100000000E-03 0.  1.
        -12    1    4    4    0    0 -0.26187081747E+02  0.85598942490E+01  0.52176335551E+01  0.28040305631E+02  0.00000000000E+00 0.  1.
</event>
<event>
 8    1  0.4042158E-011  0.9118800E+02  0.7816164E-02  0.1184000E+00
        -11   -1    0    0    0    0  0.00000000000E+00  0.00000000000E+00  0.45593999997E+02  0.45594000000E+02  0.51100000000E-03 0. -1.
         11   -1    0    0    0    0 -0.00000000000E+00 -0.00000000000E+00 -0.45593999997E+02  0.45594000000E+02  0.51100000000E-03 0.  1.
         23    2    1    2    0    0  0.00000000000E+00  0.00000000000E+00  0.00000000000E+00  0.91188000000E+02  0.91188000000E+02 0.  0.
    9900012    2    3    3    0    0 -0.37844607506E+02 -0.76327501095E+01 -0.19827995685E+02  0.47787278758E+02  0.20000035167E+02 0.  0.
         12    1    3    3    0    0  0.37844607506E+02  0.76327501095E+01  0.19827995685E+02  0.43400721242E+02  0.00000000000E+00 0. -1.
         11    1    4    4    0    0 -0.79799177028E+01 -0.70938486506E+01 -0.41188931858E+01  0.11444083911E+02  0.51100000000E-03 0. -1.
        -11    1    4    4    0    0 -0.23177460010E+02 -0.60228558197E+01 -0.13170366601E+02  0.27329983561E+02  0.51100000000E-03 0.  1.
         12    1    4    4    0    0 -0.66872297924E+01  0.54839543608E+01 -0.25387358982E+01  0.90132112862E+01  0.00000000000E+00 0. -1.
</event>
<event>
 8    1  0.4042158E-011  0.9118800E+02  0.7816164E-02  0.1184000E+00
        -11   -1    0    0    0    0  0.00000000000E+00  0.00000000000E+00  0.45593999997E+02  0.45594000000E+02  0.51100000000E-03 0. -1.
         11   -1    0    0    0    0 -0.00000000000E+00 -0.00000000000E+00 -0.45593999997E+02  0.45594000000E+02  0.51100000000E-03 0.  1.
         23    2    1    2    0    0  0.00000000000E+00  0.88817841970E-15 -0.71054273576E-14  0.91188000000E+02  0.91188000000E+02 0.  0.
    9900012    2    3    3    0    0 -0.62409510059E+01  0.76293612575E+01 -0.42266612493E+02  0.47787272422E+02  0.20000006281E+02 0.  0.
         12    1    3    3    0    0  0.62409510059E+01 -0.76293612575E+01  0.42266612493E+02  0.43400727578E+02  0.00000000000E+00 0. -1.
         11    1    4    4    0    0  0.27786034745E+01  0.47052925203E+00 -0.53733689090E+01  0.60675471765E+01  0.51100000000E-03 0.  1.
        -11    1    4    4    0    0  0.34004424780E+01  0.39187424888E+01 -0.44705816871E+01  0.68487701539E+01  0.51100000000E-03 0. -1.
         12    1    4    4    0    0 -0.12419996958E+02  0.32400895166E+01 -0.32422661897E+02  0.34870955092E+02  0.00000000000E+00 0. -1.
</event>
<event>
 8    1  0.4042158E-011  0.9118800E+02  0.7816164E-02  0.1184000E+00
        -11   -1    0    0    0    0  0.00000000000E+00  0.00000000000E+00  0.45593999997E+02  0.45594000000E+02  0.51100000000E-03 0. -1.
         11   -1    0    0    0    0 -0.00000000000E+00 -0.00000000000E+00 -0.45593999997E+02  0.45594000000E+02  0.51100000000E-03 0.  1.
         23    2    1    2    0    0 -0.17763568394E-14  0.00000000000E+00  0.00000000000E+00  0.91188000000E+02  0.91188000000E+02 0.  0.
    9900012    2    3    3    0    0  0.12845733826E+02 -0.23034607111E+02  0.34467609843E+02  0.47787284216E+02  0.20000060054E+02 0.  0.
        -12    1    3    3    0    0 -0.12845733826E+02  0.23034607111E+02 -0.34467609843E+02  0.43400715784E+02  0.00000000000E+00 0.  1.
         11    1    4    4    0    0  0.18498428202E+01 -0.18485769630E+01  0.65133803248E+01  0.70187804329E+01  0.51100000000E-03 0. -1.
        -11    1    4    4    0    0  0.99311912239E+01 -0.10050975288E+02  0.45764668966E+01  0.14852431211E+02  0.51100000000E-03 0.  1.
        -12    1    4    4    0    0  0.10646997816E+01 -0.11135054860E+02  0.23377762622E+02  0.25916072572E+02  0.00000000000E+00 0.  1.
</event>
<event>
 8    1  0.4042158E-011  0.9118800E+02  0.7816164E-02  0.1184000E+00
        -11   -1    0    0    0    0  0.00000000000E+00  0.00000000000E+00  0.45593999997E+02  0.45594000000E+02  0.51100000000E-03 0. -1.
         11   -1    0    0    0    0 -0.00000000000E+00 -0.00000000000E+00 -0.45593999997E+02  0.45594000000E+02  0.51100000000E-03 0.  1.
         23    2    1    2    0    0  0.00000000000E+00  0.35527136788E-14  0.00000000000E+00  0.91188000000E+02  0.91188000000E+02 0.  0.
    9900012    2    3    3    0    0  0.45809728355E+01  0.17333908928E+02 -0.39524339458E+02  0.47787272812E+02  0.20000008057E+02 0.  0.
         12    1    3    3    0    0 -0.45809728355E+01 -0.17333908928E+02  0.39524339458E+02  0.43400727188E+02  0.00000000000E+00 0. -1.
         11    1    4    4    0    0  0.58652965720E+01  0.13795645639E+01 -0.17271059230E+02  0.18291921426E+02  0.51100000000E-03 0.  1.
        -11    1    4    4    0    0  0.24318446909E+01  0.30965078901E+01 -0.52003194638E+00  0.39714812351E+01  0.51100000000E-03 0. -1.
        -12    1    4    4    0    0 -0.37161684274E+01  0.12857836474E+02 -0.21733248282E+02  0.25523870151E+02  0.00000000000E+00 0.  1.
</event>
<event>
 8    1  0.4042158E-011  0.9118800E+02  0.7816164E-02  0.1184000E+00
        -11   -1    0    0    0    0  0.00000000000E+00  0.00000000000E+00  0.45593999997E+02  0.45594000000E+02  0.51100000000E-03 0. -1.
         11   -1    0    0    0    0 -0.00000000000E+00 -0.00000000000E+00 -0.45593999997E+02  0.45594000000E+02  0.51100000000E-03 0.  1.
         23    2    1    2    0    0  0.00000000000E+00  0.71054273576E-14  0.00000000000E+00  0.91188000000E+02  0.91188000000E+02 0.  0.
    9900012    2    3    3    0    0  0.19556852016E+02 -0.17160669820E+02  0.34737072079E+02  0.47787271595E+02  0.20000002512E+02 0.  0.
        -12    1    3    3    0    0 -0.19556852016E+02  0.17160669820E+02 -0.34737072079E+02  0.43400728405E+02  0.00000000000E+00 0.  1.
         11    1    4    4    0    0  0.81863562951E+01 -0.88626894564E+01  0.19440736729E+02  0.22880252154E+02  0.51100000000E-03 0. -1.
        -11    1    4    4    0    0  0.14444920893E+02 -0.81341985119E+01  0.12927371271E+02  0.21022317980E+02  0.51100000000E-03 0.  1.
        -12    1    4    4    0    0 -0.30744251722E+01 -0.16378185176E+00  0.23689640786E+01  0.38847014609E+01  0.00000000000E+00 0.  1.
</event>
<event>
 8    1  0.4042158E-011  0.9118800E+02  0.7816164E-02  0.1184000E+00
        -11   -1    0    0    0    0  0.00000000000E+00  0.00000000000E+00  0.45593999997E+02  0.45594000000E+02  0.51100000000E-03 0. -1.
         11   -1    0    0    0    0 -0.00000000000E+00 -0.00000000000E+00 -0.45593999997E+02  0.45594000000E+02  0.51100000000E-03 0.  1.
         23    2    1    2    0    0  0.00000000000E+00  0.00000000000E+00  0.00000000000E+00  0.91188000000E+02  0.91188000000E+02 0.  0.
    9900012    2    3    3    0    0  0.12000995782E+02 -0.68146238411E+01 -0.41148027223E+02  0.47787272561E+02  0.20000006916E+02 0.  0.
         12    1    3    3    0    0 -0.12000995782E+02  0.68146238411E+01  0.41148027223E+02  0.43400727439E+02  0.00000000000E+00 0. -1.
         11    1    4    4    0    0 -0.14645911465E+01  0.83764987643E+00 -0.17515837949E+01  0.24320219147E+01  0.51100000000E-03 0. -1.
        -11    1    4    4    0    0  0.24489831098E+01  0.47312429187E+01 -0.14485854096E+02  0.15434446766E+02  0.51100000000E-03 0.  1.
        -12    1    4    4    0    0  0.11016603818E+02 -0.12383516636E+02 -0.24910589333E+02  0.29920803881E+02  0.00000000000E+00 0.  1.
</event>
<event>
 8    1  0.4117403E-011  0.9118800E+02  0.7816164E-02  0.1184000E+00
        -11   -1    0    0    0    0  0.00000000000E+00  0.00000000000E+00  0.45593999997E+02  0.45594000000E+02  0.51100000000E-03 0. -1.
         11   -1    0    0    0    0 -0.00000000000E+00 -0.00000000000E+00 -0.45593999997E+02  0.45594000000E+02  0.51100000000E-03 0.  1.
         23    2    1    2    0    0  0.00000000000E+00  0.00000000000E+00  0.35527136788E-14  0.91188000000E+02  0.91188000000E+02 0.  0.
    9900012    2    3    3    0    0 -0.85732629460E+01  0.33410129253E+02  0.26341709728E+02  0.47787271369E+02  0.20000001481E+02 0.  0.
        -12    1    3    3    0    0  0.85732629460E+01 -0.33410129253E+02 -0.26341709728E+02  0.43400728631E+02  0.00000000000E+00 0.  1.
         11    1    4    4    0    0 -0.59696889718E+01  0.12401840161E+02  0.45862376729E+01  0.14507804867E+02  0.51100000000E-03 0. -1.
        -11    1    4    4    0    0 -0.39061764430E+01  0.22327315035E+02  0.17494130138E+02  0.28632355834E+02  0.51100000000E-03 0.  1.
        -12    1    4    4    0    0  0.13026024689E+01 -0.13190259422E+01  0.42613419179E+01  0.46471106689E+01  0.00000000000E+00 0.  1.
</event>
<event>
 8    1  0.4042158E-011  0.9118800E+02  0.7816164E-02  0.1184000E+00
        -11   -1    0    0    0    0  0.00000000000E+00  0.00000000000E+00  0.45593999997E+02  0.45594000000E+02  0.51100000000E-03 0. -1.
         11   -1    0    0    0    0 -0.00000000000E+00 -0.00000000000E+00 -0.45593999997E+02  0.45594000000E+02  0.51100000000E-03 0.  1.
         23    2    1    2    0    0 -0.35527136788E-14  0.00000000000E+00  0.00000000000E+00  0.91188000000E+02  0.91188000000E+02 0.  0.
    9900012    2    3    3    0    0 -0.28678646785E+02  0.26325985570E+01  0.32468880740E+02  0.47787267597E+02  0.19999984281E+02 0.  0.
        -12    1    3    3    0    0  0.28678646785E+02 -0.26325985570E+01 -0.32468880740E+02  0.43400732403E+02  0.00000000000E+00 0.  1.
         11    1    4    4    0    0 -0.38159540606E+01  0.12908945476E+01  0.98372316673E+01  0.10630100717E+02  0.51100000000E-03 0. -1.
        -11    1    4    4    0    0 -0.17027443414E+02  0.15306536685E+01  0.23725796822E+02  0.29243634606E+02  0.51100000000E-03 0.  1.
        -12    1    4    4    0    0 -0.78352493114E+01 -0.18894965907E+00 -0.10941477492E+01  0.79135322734E+01  0.00000000000E+00 0.  1.
</event>
<event>
 8    1  0.4042158E-011  0.9118800E+02  0.7816164E-02  0.1184000E+00
        -11   -1    0    0    0    0  0.00000000000E+00  0.00000000000E+00  0.45593999997E+02  0.45594000000E+02  0.51100000000E-03 0. -1.
         11   -1    0    0    0    0 -0.00000000000E+00 -0.00000000000E+00 -0.45593999997E+02  0.45594000000E+02  0.51100000000E-03 0.  1.
         23    2    1    2    0    0  0.00000000000E+00  0.00000000000E+00  0.00000000000E+00  0.91188000000E+02  0.91188000000E+02 0.  0.
    9900012    2    3    3    0    0  0.12593010183E+02 -0.14829811643E+02 -0.38795821441E+02  0.47787274429E+02  0.20000015432E+02 0.  0.
         12    1    3    3    0    0 -0.12593010183E+02  0.14829811643E+02  0.38795821441E+02  0.43400725571E+02  0.00000000000E+00 0. -1.
         11    1    4    4    0    0  0.83064582953E+01 -0.46691489740E+01 -0.97413412390E+01  0.13626882657E+02  0.51100000000E-03 0. -1.
        -11    1    4    4    0    0  0.58370676440E+01 -0.14164378726E+01 -0.31632958614E+01  0.67885267839E+01  0.51100000000E-03 0.  1.
        -12    1    4    4    0    0 -0.15505157563E+01 -0.87442247963E+01 -0.25891184340E+02  0.27371864988E+02  0.00000000000E+00 0.  1.
</event>
<event>
 8    1  0.4042158E-011  0.9118800E+02  0.7816164E-02  0.1184000E+00
        -11   -1    0    0    0    0  0.00000000000E+00  0.00000000000E+00  0.45593999997E+02  0.45594000000E+02  0.51100000000E-03 0. -1.
         11   -1    0    0    0    0 -0.00000000000E+00 -0.00000000000E+00 -0.45593999997E+02  0.45594000000E+02  0.51100000000E-03 0.  1.
         23    2    1    2    0    0  0.00000000000E+00  0.00000000000E+00 -0.35527136788E-14  0.91188000000E+02  0.91188000000E+02 0.  0.
    9900012    2    3    3    0    0  0.25798921880E+02 -0.30198257691E+02  0.17495843251E+02  0.47787266494E+02  0.19999979255E+02 0.  0.
        -12    1    3    3    0    0 -0.25798921880E+02  0.30198257691E+02 -0.17495843251E+02  0.43400733506E+02  0.00000000000E+00 0.  1.
         11    1    4    4    0    0  0.16250049906E+02 -0.10942076978E+02  0.97556124415E+01  0.21885272329E+02  0.51100000000E-03 0. -1.
        -11    1    4    4    0    0  0.10839595998E+02 -0.17110992654E+02  0.29125517141E+01  0.20463769661E+02  0.51100000000E-03 0.  1.
         12    1    4    4    0    0 -0.12907240234E+01 -0.21451880591E+01  0.48276790953E+01  0.54382245045E+01  0.00000000000E+00 0. -1.
</event>
<event>
 8    1  0.4042158E-011  0.9118800E+02  0.7816164E-02  0.1184000E+00
        -11   -1    0    0    0    0  0.00000000000E+00  0.00000000000E+00  0.45593999997E+02  0.45594000000E+02  0.51100000000E-03 0. -1.
         11   -1    0    0    0    0 -0.00000000000E+00 -0.00000000000E+00 -0.45593999997E+02  0.45594000000E+02  0.51100000000E-03 0.  1.
         23    2    1    2    0    0 -0.35527136788E-14  0.17763568394E-14  0.00000000000E+00  0.91188000000E+02  0.91188000000E+02 0.  0.
    9900012    2    3    3    0    0  0.31863863209E+02 -0.94841222609E+01 -0.27899246342E+02  0.47787282262E+02  0.20000051147E+02 0.  0.
         12    1    3    3    0    0 -0.31863863209E+02  0.94841222609E+01  0.27899246342E+02  0.43400717738E+02  0.00000000000E+00 0. -1.
         11    1    4    4    0    0  0.65188430335E+01 -0.12478715563E+01 -0.10811794829E+01  0.67246893796E+01  0.51100000000E-03 0. -1.
        -11    1    4    4    0    0  0.12143077655E+02 -0.38984341448E+01 -0.24148470054E+01  0.12980123652E+02  0.51100000000E-03 0.  1.
        -12    1    4    4    0    0  0.13201942521E+02 -0.43378165598E+01 -0.24403219854E+02  0.28082469230E+02  0.00000000000E+00 0.  1.
</event>
<event>
 8    1  0.4226889E-011  0.9118800E+02  0.7816164E-02  0.1184000E+00
        -11   -1    0    0    0    0  0.00000000000E+00  0.00000000000E+00  0.45593999997E+02  0.45594000000E+02  0.51100000000E-03 0. -1.
         11   -1    0    0    0    0 -0.00000000000E+00 -0.00000000000E+00 -0.45593999997E+02  0.45594000000E+02  0.51100000000E-03 0.  1.
         23    2    1    2    0    0  0.00000000000E+00  0.00000000000E+00  0.00000000000E+00  0.91188000000E+02  0.91188000000E+02 0.  0.
    9900012    2    3    3    0    0 -0.25707711152E+02  0.64732397873E+01  0.34363265667E+02  0.47787271051E+02  0.20000000031E+02 0.  0.
        -12    1    3    3    0    0  0.25707711152E+02 -0.64732397873E+01 -0.34363265667E+02  0.43400728949E+02  0.00000000000E+00 0.  1.
         11    1    4    4    0    0 -0.93582775292E+01 -0.20038996289E+01  0.10164799662E+02  0.13961236495E+02  0.51100000000E-03 0. -1.
        -11    1    4    4    0    0 -0.18405432800E+02  0.46494350785E+01  0.21628576857E+02  0.28777987077E+02  0.51100000000E-03 0.  1.
        -12    1    4    4    0    0  0.20559991777E+01  0.38277043378E+01  0.25698891477E+01  0.50480474787E+01  0.00000000000E+00 0.  1.
</event>
<event>
 8    1  0.4042158E-011  0.9118800E+02  0.7816164E-02  0.1184000E+00
        -11   -1    0    0    0    0  0.00000000000E+00  0.00000000000E+00  0.45593999997E+02  0.45594000000E+02  0.51100000000E-03 0. -1.
         11   -1    0    0    0    0 -0.00000000000E+00 -0.00000000000E+00 -0.45593999997E+02  0.45594000000E+02  0.51100000000E-03 0.  1.
         23    2    1    2    0    0  0.88817841970E-15  0.00000000000E+00  0.00000000000E+00  0.91188000000E+02  0.91188000000E+02 0.  0.
    9900012    2    3    3    0    0  0.53089580549E+01 -0.28678263616E+01  0.42979226495E+02  0.47787269893E+02  0.19999994751E+02 0.  0.
        -12    1    3    3    0    0 -0.53089580549E+01  0.28678263616E+01 -0.42979226495E+02  0.43400730107E+02  0.00000000000E+00 0.  1.
         11    1    4    4    0    0  0.70277905680E+01 -0.15518714708E+01  0.11747466520E+02  0.13776832554E+02  0.51100000000E-03 0.  1.
        -11    1    4    4    0    0  0.28762516283E+01  0.14284133414E+01  0.26992114205E+02  0.27182483654E+02  0.51100000000E-03 0. -1.
         12    1    4    4    0    0 -0.45950841414E+01 -0.27443682323E+01  0.42396457702E+01  0.68279536845E+01  0.00000000000E+00 0. -1.
</event>
<event>
 8    1  0.4042158E-011  0.9118800E+02  0.7816164E-02  0.1184000E+00
        -11   -1    0    0    0    0  0.00000000000E+00  0.00000000000E+00  0.45593999997E+02  0.45594000000E+02  0.51100000000E-03 0. -1.
         11   -1    0    0    0    0 -0.00000000000E+00 -0.00000000000E+00 -0.45593999997E+02  0.45594000000E+02  0.51100000000E-03 0.  1.
         23    2    1    2    0    0 -0.88817841970E-15 -0.71054273576E-14  0.71054273576E-14  0.91188000000E+02  0.91188000000E+02 0.  0.
    9900012    2    3    3    0    0  0.67096840686E+01  0.32010370970E+02 -0.28529644098E+02  0.47787259197E+02  0.19999945982E+02 0.  0.
         12    1    3    3    0    0 -0.67096840686E+01 -0.32010370970E+02  0.28529644098E+02  0.43400740803E+02  0.00000000000E+00 0. -1.
         11    1    4    4    0    0  0.72617564304E+00  0.14770366774E+02 -0.10446365120E+02  0.18105734180E+02  0.51100000000E-03 0. -1.
        -11    1    4    4    0    0  0.62540033320E+01  0.13239399018E+02 -0.20353988858E+02  0.25073474166E+02  0.51100000000E-03 0.  1.
         12    1    4    4    0    0 -0.27049490640E+00  0.40006051778E+01  0.22707098810E+01  0.46080508511E+01  0.00000000000E+00 0. -1.
</event>
<event>
 8    1  0.4042158E-011  0.9118800E+02  0.7816164E-02  0.1184000E+00
        -11   -1    0    0    0    0  0.00000000000E+00  0.00000000000E+00  0.45593999997E+02  0.45594000000E+02  0.51100000000E-03 0. -1.
         11   -1    0    0    0    0 -0.00000000000E+00 -0.00000000000E+00 -0.45593999997E+02  0.45594000000E+02  0.51100000000E-03 0.  1.
         23    2    1    2    0    0  0.00000000000E+00  0.00000000000E+00  0.00000000000E+00  0.91188000000E+02  0.91188000000E+02 0.  0.
    9900012    2    3    3    0    0  0.14233136553E+02 -0.27143641862E+02 -0.30728871785E+02  0.47787273844E+02  0.20000012765E+02 0.  0.
         12    1    3    3    0    0 -0.14233136553E+02  0.27143641862E+02  0.30728871785E+02  0.43400726156E+02  0.00000000000E+00 0. -1.
         11    1    4    4    0    0  0.11924819242E+02 -0.61085624563E+01 -0.71084541600E+01  0.15167266400E+02  0.51100000000E-03 0. -1.
        -11    1    4    4    0    0  0.51442498090E+00 -0.62378515338E+01 -0.24341648244E+01  0.67156967973E+01  0.51100000000E-03 0.  1.
        -12    1    4    4    0    0  0.17938923307E+01 -0.14797227872E+02 -0.21186252800E+02  0.25904310647E+02  0.00000000000E+00 0.  1.
</event>
<event>
 8    1  0.4042158E-011  0.9118800E+02  0.7816164E-02  0.1184000E+00
        -11   -1    0    0    0    0  0.00000000000E+00  0.00000000000E+00  0.45593999997E+02  0.45594000000E+02  0.51100000000E-03 0. -1.
         11   -1    0    0    0    0 -0.00000000000E+00 -0.00000000000E+00 -0.45593999997E+02  0.45594000000E+02  0.51100000000E-03 0.  1.
         23    2    1    2    0    0  0.00000000000E+00 -0.35527136788E-14  0.00000000000E+00  0.91188000000E+02  0.91188000000E+02 0.  0.
    9900012    2    3    3    0    0 -0.89961382328E+01 -0.27529848361E+02  0.32323367211E+02  0.47787272798E+02  0.20000007993E+02 0.  0.
        -12    1    3    3    0    0  0.89961382328E+01  0.27529848361E+02 -0.32323367211E+02  0.43400727202E+02  0.00000000000E+00 0.  1.
         11    1    4    4    0    0 -0.19298853790E+01 -0.90005172560E+01  0.45411921883E+01  0.10264316597E+02  0.51100000000E-03 0. -1.
        -11    1    4    4    0    0 -0.83212208404E+01 -0.11514143385E+02  0.75828962221E+01  0.16103370130E+02  0.51100000000E-03 0.  1.
         12    1    4    4    0    0  0.12549679866E+01 -0.70151877201E+01  0.20199278800E+02  0.21419586071E+02  0.00000000000E+00 0. -1.
</event>
<event>
 8    1  0.4042158E-011  0.9118800E+02  0.7816164E-02  0.1184000E+00
        -11   -1    0    0    0    0  0.00000000000E+00  0.00000000000E+00  0.45593999997E+02  0.45594000000E+02  0.51100000000E-03 0. -1.
         11   -1    0    0    0    0 -0.00000000000E+00 -0.00000000000E+00 -0.45593999997E+02  0.45594000000E+02  0.51100000000E-03 0.  1.
         23    2    1    2    0    0  0.00000000000E+00  0.00000000000E+00  0.00000000000E+00  0.91188000000E+02  0.91188000000E+02 0.  0.
    9900012    2    3    3    0    0 -0.33605031423E+02 -0.60630398998E+01 -0.26787396324E+02  0.47787271993E+02  0.20000004324E+02 0.  0.
         12    1    3    3    0    0  0.33605031423E+02  0.60630398998E+01  0.26787396324E+02  0.43400728007E+02  0.00000000000E+00 0. -1.
         11    1    4    4    0    0 -0.76640069431E+01 -0.70993254754E+00 -0.11394790743E+02  0.13750718635E+02  0.51100000000E-03 0. -1.
        -11    1    4    4    0    0 -0.38966340964E+01 -0.49319672419E+01 -0.91870797326E+01  0.11131508992E+02  0.51100000000E-03 0.  1.
         12    1    4    4    0    0 -0.22044390383E+02 -0.42114011033E+00 -0.62055258484E+01  0.22905044366E+02  0.00000000000E+00 0. -1.
</event>
<event>
 8    1  0.4042158E-011  0.9118800E+02  0.7816164E-02  0.1184000E+00
        -11   -1    0    0    0    0  0.00000000000E+00  0.00000000000E+00  0.45593999997E+02  0.45594000000E+02  0.51100000000E-03 0. -1.
         11   -1    0    0    0    0 -0.00000000000E+00 -0.00000000000E+00 -0.45593999997E+02  0.45594000000E+02  0.51100000000E-03 0.  1.
         23    2    1    2    0    0  0.00000000000E+00  0.17763568394E-14  0.00000000000E+00  0.91188000000E+02  0.91188000000E+02 0.  0.
    9900012    2    3    3    0    0  0.36015119337E+01 -0.13561863884E+02 -0.41069827344E+02  0.47787242423E+02  0.19999869501E+02 0.  0.
         12    1    3    3    0    0 -0.36015119337E+01  0.13561863884E+02  0.41069827344E+02  0.43400757577E+02  0.00000000000E+00 0. -1.
         11    1    4    4    0    0  0.50086758588E+01 -0.91523488231E+01 -0.12871275908E+02  0.16568707451E+02  0.51100000000E-03 0. -1.
        -11    1    4    4    0    0  0.20928127310E+01 -0.47185441456E+01 -0.34197598451E+01  0.61918722241E+01  0.51100000000E-03 0.  1.
        -12    1    4    4    0    0 -0.34999766561E+01  0.30902908445E+00 -0.24778791591E+02  0.25026662747E+02  0.00000000000E+00 0.  1.
</event>
<event>
 8    1  0.4042158E-011  0.9118800E+02  0.7816164E-02  0.1184000E+00
        -11   -1    0    0    0    0  0.00000000000E+00  0.00000000000E+00  0.45593999997E+02  0.45594000000E+02  0.51100000000E-03 0.  1.
         11   -1    0    0    0    0 -0.00000000000E+00 -0.00000000000E+00 -0.45593999997E+02  0.45594000000E+02  0.51100000000E-03 0. -1.
         23    2    1    2    0    0  0.00000000000E+00  0.35527136788E-14  0.00000000000E+00  0.91188000000E+02  0.91188000000E+02 0.  0.
    9900012    2    3    3    0    0  0.19242456031E+02  0.31952391667E+02  0.22190014128E+02  0.47787260671E+02  0.19999952702E+02 0.  0.
        -12    1    3    3    0    0 -0.19242456031E+02 -0.31952391667E+02 -0.22190014128E+02  0.43400739329E+02  0.00000000000E+00 0.  1.
         11    1    4    4    0    0  0.49978460525E+01  0.16616019490E+02  0.16568062325E+02  0.23991066219E+02  0.51100000000E-03 0. -1.
        -11    1    4    4    0    0 -0.44957399123E+00  0.44027466764E+01 -0.57000060067E+00  0.44621963220E+01  0.51100000000E-03 0.  1.
         12    1    4    4    0    0  0.14694183969E+02  0.10933625500E+02  0.61919524043E+01  0.19333998130E+02  0.00000000000E+00 0. -1.
</event>
<event>
 8    1  0.4931094E-011  0.9118800E+02  0.7816164E-02  0.1184000E+00
        -11   -1    0    0    0    0  0.00000000000E+00  0.00000000000E+00  0.45593999997E+02  0.45594000000E+02  0.51100000000E-03 0.  1.
         11   -1    0    0    0    0 -0.00000000000E+00 -0.00000000000E+00 -0.45593999997E+02  0.45594000000E+02  0.51100000000E-03 0. -1.
         23    2    1    2    0    0  0.00000000000E+00 -0.35527136788E-14  0.17763568394E-14  0.91188000000E+02  0.91188000000E+02 0.  0.
    9900012    2    3    3    0    0  0.38458361822E+02 -0.13270103065E+02  0.15115628929E+02  0.47787268815E+02  0.19999989837E+02 0.  0.
        -12    1    3    3    0    0 -0.38458361822E+02  0.13270103065E+02 -0.15115628929E+02  0.43400731185E+02  0.00000000000E+00 0.  1.
         11    1    4    4    0    0  0.18502810984E+02 -0.71196942305E+01  0.20904540997E+01  0.19935246646E+02  0.51100000000E-03 0. -1.
        -11    1    4    4    0    0  0.20685550857E+02 -0.49328514228E+01  0.81491311680E+01  0.22773523585E+02  0.51100000000E-03 0.  1.
        -12    1    4    4    0    0 -0.73000001864E+00 -0.12175574118E+01  0.48760436616E+01  0.50784985841E+01  0.00000000000E+00 0.  1.
</event>
<event>
 8    1  0.4042158E-011  0.9118800E+02  0.7816164E-02  0.1184000E+00
        -11   -1    0    0    0    0  0.00000000000E+00  0.00000000000E+00  0.45593999997E+02  0.45594000000E+02  0.51100000000E-03 0.  1.
         11   -1    0    0    0    0 -0.00000000000E+00 -0.00000000000E+00 -0.45593999997E+02  0.45594000000E+02  0.51100000000E-03 0. -1.
         23    2    1    2    0    0  0.00000000000E+00  0.00000000000E+00  0.88817841970E-15  0.91188000000E+02  0.91188000000E+02 0.  0.
    9900012    2    3    3    0    0  0.38686032114E+02 -0.18680080146E+02 -0.61699781156E+01  0.47787272991E+02  0.20000008876E+02 0.  0.
         12    1    3    3    0    0 -0.38686032114E+02  0.18680080146E+02  0.61699781156E+01  0.43400727009E+02  0.00000000000E+00 0. -1.
         11    1    4    4    0    0 -0.42952564032E+00 -0.63616950443E+00 -0.95607197235E+00  0.12260822939E+01  0.51100000000E-03 0. -1.
        -11    1    4    4    0    0  0.22277127540E+02 -0.90788184133E+01  0.55074484527E+01  0.24678479368E+02  0.51100000000E-03 0.  1.
         12    1    4    4    0    0  0.16838430214E+02 -0.89650922282E+01 -0.10721354596E+02  0.21882711329E+02  0.00000000000E+00 0. -1.
</event>
<event>
 8    1  0.4042158E-011  0.9118800E+02  0.7816164E-02  0.1184000E+00
        -11   -1    0    0    0    0  0.00000000000E+00  0.00000000000E+00  0.45593999997E+02  0.45594000000E+02  0.51100000000E-03 0. -1.
         11   -1    0    0    0    0 -0.00000000000E+00 -0.00000000000E+00 -0.45593999997E+02  0.45594000000E+02  0.51100000000E-03 0.  1.
         23    2    1    2    0    0  0.00000000000E+00  0.00000000000E+00  0.00000000000E+00  0.91188000000E+02  0.91188000000E+02 0.  0.
    9900012    2    3    3    0    0 -0.32379469338E+02 -0.59100213752E+01  0.28288949723E+02  0.47787273466E+02  0.20000011039E+02 0.  0.
        -12    1    3    3    0    0  0.32379469338E+02  0.59100213752E+01 -0.28288949723E+02  0.43400726534E+02  0.00000000000E+00 0.  1.
         11    1    4    4    0    0 -0.11730235479E+02  0.31751897801E+01  0.89647659593E+01  0.15101234502E+02  0.51100000000E-03 0.  1.
        -11    1    4    4    0    0 -0.14342840717E+02  0.93482136750E+00  0.12314262448E+02  0.18927018538E+02  0.51100000000E-03 0. -1.
         12    1    4    4    0    0 -0.63063931422E+01 -0.10020032523E+02  0.70099213160E+01  0.13759020426E+02  0.00000000000E+00 0. -1.
</event>
<event>
 8    1  0.4042158E-011  0.9118800E+02  0.7816164E-02  0.1184000E+00
        -11   -1    0    0    0    0  0.00000000000E+00  0.00000000000E+00  0.45593999997E+02  0.45594000000E+02  0.51100000000E-03 0. -1.
         11   -1    0    0    0    0 -0.00000000000E+00 -0.00000000000E+00 -0.45593999997E+02  0.45594000000E+02  0.51100000000E-03 0.  1.
         23    2    1    2    0    0  0.00000000000E+00 -0.71054273576E-14  0.35527136788E-14  0.91188000000E+02  0.91188000000E+02 0.  0.
    9900012    2    3    3    0    0  0.27777368341E+02 -0.20517946331E+02  0.26287921542E+02  0.47787272672E+02  0.20000007420E+02 0.  0.
        -12    1    3    3    0    0 -0.27777368341E+02  0.20517946331E+02 -0.26287921542E+02  0.43400727328E+02  0.00000000000E+00 0.  1.
         11    1    4    4    0    0  0.15199168614E+02 -0.19880768740E+02  0.21113707626E+02  0.32742149323E+02  0.51100000000E-03 0. -1.
        -11    1    4    4    0    0  0.13892490481E+00 -0.47443659986E+00 -0.10307688519E+01  0.11431862944E+01  0.51100000000E-03 0.  1.
         12    1    4    4    0    0  0.12439274822E+02 -0.16274099119E+00  0.62049827672E+01  0.13901937055E+02  0.00000000000E+00 0. -1.
</event>
<event>
 8    1  0.4042158E-011  0.9118800E+02  0.7816164E-02  0.1184000E+00
        -11   -1    0    0    0    0  0.00000000000E+00  0.00000000000E+00  0.45593999997E+02  0.45594000000E+02  0.51100000000E-03 0. -1.
         11   -1    0    0    0    0 -0.00000000000E+00 -0.00000000000E+00 -0.45593999997E+02  0.45594000000E+02  0.51100000000E-03 0.  1.
         23    2    1    2    0    0  0.00000000000E+00  0.00000000000E+00  0.00000000000E+00  0.91188000000E+02  0.91188000000E+02 0.  0.
    9900012    2    3    3    0    0  0.24438421582E+02  0.14391060778E+02 -0.32852455755E+02  0.47787275019E+02  0.20000018120E+02 0.  0.
         12    1    3    3    0    0 -0.24438421582E+02 -0.14391060778E+02  0.32852455755E+02  0.43400724981E+02  0.00000000000E+00 0. -1.
         11    1    4    4    0    0  0.84914780387E+01  0.31882155286E+01 -0.33846086932E+01  0.96811927883E+01  0.51100000000E-03 0. -1.
        -11    1    4    4    0    0  0.93109767083E+00 -0.29876360286E+01 -0.64947139182E+01  0.72093148809E+01  0.51100000000E-03 0.  1.
        -12    1    4    4    0    0  0.15015845873E+02  0.14190481278E+02 -0.22973133144E+02  0.30896767349E+02  0.00000000000E+00 0.  1.
</event>
<event>
 8    1  0.4042158E-011  0.9118800E+02  0.7816164E-02  0.1184000E+00
        -11   -1    0    0    0    0  0.00000000000E+00  0.00000000000E+00  0.45593999997E+02  0.45594000000E+02  0.51100000000E-03 0.  1.
         11   -1    0    0    0    0 -0.00000000000E+00 -0.00000000000E+00 -0.45593999997E+02  0.45594000000E+02  0.51100000000E-03 0. -1.
         23    2    1    2    0    0  0.00000000000E+00  0.00000000000E+00  0.00000000000E+00  0.91188000000E+02  0.91188000000E+02 0.  0.
    9900012    2    3    3    0    0  0.11221991880E+02 -0.23907699907E+02 -0.34439978891E+02  0.47787270023E+02  0.19999995341E+02 0.  0.
         12    1    3    3    0    0 -0.11221991880E+02  0.23907699907E+02  0.34439978891E+02  0.43400729977E+02  0.00000000000E+00 0. -1.
         11    1    4    4    0    0  0.89925691903E+01 -0.14841459630E+02 -0.20958881288E+02  0.27210474632E+02  0.51100000000E-03 0.  1.
        -11    1    4    4    0    0  0.53727490952E+00 -0.50292559682E+01 -0.15088531830E+02  0.15913700794E+02  0.51100000000E-03 0. -1.
        -12    1    4    4    0    0  0.16921477798E+01 -0.40369843086E+01  0.16074342274E+01  0.46630945961E+01  0.00000000000E+00 0.  1.
</event>
<event>
 8    1  0.4042158E-011  0.9118800E+02  0.7816164E-02  0.1184000E+00
        -11   -1    0    0    0    0  0.00000000000E+00  0.00000000000E+00  0.45593999997E+02  0.45594000000E+02  0.51100000000E-03 0. -1.
         11   -1    0    0    0    0 -0.00000000000E+00 -0.00000000000E+00 -0.45593999997E+02  0.45594000000E+02  0.51100000000E-03 0.  1.
         23    2    1    2    0    0  0.00000000000E+00  0.00000000000E+00  0.00000000000E+00  0.91188000000E+02  0.91188000000E+02 0.  0.
    9900012    2    3    3    0    0  0.19613482213E+02 -0.20307791918E+02  0.32962527744E+02  0.47787270370E+02  0.19999996926E+02 0.  0.
        -12    1    3    3    0    0 -0.19613482213E+02  0.20307791918E+02 -0.32962527744E+02  0.43400729630E+02  0.00000000000E+00 0.  1.
         11    1    4    4    0    0  0.17555053048E+02 -0.15629068637E+02  0.25259421412E+02  0.34503420763E+02  0.51100000000E-03 0. -1.
        -11    1    4    4    0    0  0.53325287069E+01 -0.51576956569E+01  0.44905789143E+01  0.86719655295E+01  0.51100000000E-03 0.  1.
        -12    1    4    4    0    0 -0.32740995414E+01  0.47897237583E+00  0.32125274170E+01  0.46118840780E+01  0.00000000000E+00 0.  1.
</event>
<event>
 8    1  0.4042158E-011  0.9118800E+02  0.7816164E-02  0.1184000E+00
        -11   -1    0    0    0    0  0.00000000000E+00  0.00000000000E+00  0.45593999997E+02  0.45594000000E+02  0.51100000000E-03 0. -1.
         11   -1    0    0    0    0 -0.00000000000E+00 -0.00000000000E+00 -0.45593999997E+02  0.45594000000E+02  0.51100000000E-03 0.  1.
         23    2    1    2    0    0  0.17763568394E-14  0.00000000000E+00  0.00000000000E+00  0.91188000000E+02  0.91188000000E+02 0.  0.
    9900012    2    3    3    0    0 -0.10710484930E+02 -0.34231710266E+01 -0.41918858382E+02  0.47787271027E+02  0.19999999919E+02 0.  0.
         12    1    3    3    0    0  0.10710484930E+02  0.34231710266E+01  0.41918858382E+02  0.43400728973E+02  0.00000000000E+00 0. -1.
         11    1    4    4    0    0 -0.36951567655E+01  0.14872698522E+01 -0.63013180001E+01  0.74547142088E+01  0.51100000000E-03 0. -1.
        -11    1    4    4    0    0 -0.12181446861E+02 -0.16527490498E+01 -0.27919313281E+02  0.30505856510E+02  0.51100000000E-03 0.  1.
         12    1    4    4    0    0  0.51661186967E+01 -0.32576918289E+01 -0.76982271018E+01  0.98267003084E+01  0.00000000000E+00 0. -1.
</event>
<event>
 8    1  0.4042158E-011  0.9118800E+02  0.7816164E-02  0.1184000E+00
        -11   -1    0    0    0    0  0.00000000000E+00  0.00000000000E+00  0.45593999997E+02  0.45594000000E+02  0.51100000000E-03 0. -1.
         11   -1    0    0    0    0 -0.00000000000E+00 -0.00000000000E+00 -0.45593999997E+02  0.45594000000E+02  0.51100000000E-03 0.  1.
         23    2    1    2    0    0  0.00000000000E+00  0.71054273576E-14 -0.35527136788E-14  0.91188000000E+02  0.91188000000E+02 0.  0.
    9900012    2    3    3    0    0 -0.22283177290E+01  0.38609682394E+02 -0.19696445634E+02  0.47787274833E+02  0.20000017273E+02 0.  0.
         12    1    3    3    0    0  0.22283177290E+01 -0.38609682394E+02  0.19696445634E+02  0.43400725167E+02  0.00000000000E+00 0. -1.
         11    1    4    4    0    0 -0.37515955579E+01  0.82871807637E+01 -0.46743128888E+01  0.10227464763E+02  0.51100000000E-03 0. -1.
        -11    1    4    4    0    0  0.17923017707E+01  0.29781050523E+02 -0.17783568666E+02  0.34732961731E+02  0.51100000000E-03 0.  1.
         12    1    4    4    0    0 -0.26902394178E+00  0.54145110702E+00  0.27614359209E+01  0.28268483384E+01  0.00000000000E+00 0. -1.
</event>
<event>
 8    1  0.4042158E-011  0.9118800E+02  0.7816164E-02  0.1184000E+00
        -11   -1    0    0    0    0  0.00000000000E+00  0.00000000000E+00  0.45593999997E+02  0.45594000000E+02  0.51100000000E-03 0. -1.
         11   -1    0    0    0    0 -0.00000000000E+00 -0.00000000000E+00 -0.45593999997E+02  0.45594000000E+02  0.51100000000E-03 0.  1.
         23    2    1    2    0    0  0.00000000000E+00  0.00000000000E+00  0.00000000000E+00  0.91188000000E+02  0.91188000000E+02 0.  0.
    9900012    2    3    3    0    0 -0.34078783724E+02 -0.13605177579E+02  0.23176681581E+02  0.47787275050E+02  0.20000018263E+02 0.  0.
        -12    1    3    3    0    0  0.34078783724E+02  0.13605177579E+02 -0.23176681581E+02  0.43400724950E+02  0.00000000000E+00 0.  1.
         11    1    4    4    0    0 -0.99869997502E+01 -0.44562483363E+01  0.15266548016E+02  0.18779398335E+02  0.51100000000E-03 0.  1.
        -11    1    4    4    0    0 -0.47926167695E+00  0.71928256021E+00  0.27744939559E+01  0.29060069045E+01  0.51100000000E-03 0. -1.
         12    1    4    4    0    0 -0.23612522297E+02 -0.98682118029E+01  0.51356396095E+01  0.26101869811E+02  0.00000000000E+00 0. -1.
</event>
<event>
 8    1  0.4042158E-011  0.9118800E+02  0.7816164E-02  0.1184000E+00
        -11   -1    0    0    0    0  0.00000000000E+00  0.00000000000E+00  0.45593999997E+02  0.45594000000E+02  0.51100000000E-03 0. -1.
         11   -1    0    0    0    0 -0.00000000000E+00 -0.00000000000E+00 -0.45593999997E+02  0.45594000000E+02  0.51100000000E-03 0.  1.
         23    2    1    2    0    0 -0.44408920985E-15 -0.71054273576E-14  0.00000000000E+00  0.91188000000E+02  0.91188000000E+02 0.  0.
    9900012    2    3    3    0    0  0.23980868288E+01  0.31795020184E+02 -0.29444000538E+02  0.47787270783E+02  0.19999998807E+02 0.  0.
         12    1    3    3    0    0 -0.23980868288E+01 -0.31795020184E+02  0.29444000538E+02  0.43400729217E+02  0.00000000000E+00 0. -1.
         11    1    4    4    0    0  0.39508250615E+01  0.20525123173E+02 -0.28325804013E+02  0.35202853196E+02  0.51100000000E-03 0. -1.
        -11    1    4    4    0    0 -0.15207383163E+01  0.52609441752E+01 -0.30551743586E+01  0.62709065743E+01  0.51100000000E-03 0.  1.
         12    1    4    4    0    0 -0.31999916517E-01  0.60089528354E+01  0.19369778334E+01  0.63135110121E+01  0.00000000000E+00 0. -1.
</event>
<event>
 8    1  0.4042158E-011  0.9118800E+02  0.7816164E-02  0.1184000E+00
        -11   -1    0    0    0    0  0.00000000000E+00  0.00000000000E+00  0.45593999997E+02  0.45594000000E+02  0.51100000000E-03 0. -1.
         11   -1    0    0    0    0 -0.00000000000E+00 -0.00000000000E+00 -0.45593999997E+02  0.45594000000E+02  0.51100000000E-03 0.  1.
         23    2    1    2    0    0 -0.17763568394E-14 -0.71054273576E-14 -0.71054273576E-14  0.91188000000E+02  0.91188000000E+02 0.  0.
    9900012    2    3    3    0    0 -0.96881528257E+01 -0.33885103931E+02 -0.25329089439E+02  0.47787270220E+02  0.19999996242E+02 0.  0.
         12    1    3    3    0    0  0.96881528257E+01  0.33885103931E+02  0.25329089439E+02  0.43400729780E+02  0.00000000000E+00 0. -1.
         11    1    4    4    0    0  0.19319508411E+01 -0.21083480300E+02 -0.14962714955E+02  0.25925439527E+02  0.51100000000E-03 0. -1.
        -11    1    4    4    0    0 -0.69740617130E+01 -0.11989868608E+02 -0.10061459348E+02  0.17135560991E+02  0.51100000000E-03 0.  1.
         12    1    4    4    0    0 -0.46460419538E+01 -0.81175502337E+00 -0.30491513739E+00  0.47262697019E+01  0.00000000000E+00 0. -1.
</event>
<event>
 8    1  0.4042158E-011  0.9118800E+02  0.7816164E-02  0.1184000E+00
        -11   -1    0    0    0    0  0.00000000000E+00  0.00000000000E+00  0.45593999997E+02  0.45594000000E+02  0.51100000000E-03 0. -1.
         11   -1    0    0    0    0 -0.00000000000E+00 -0.00000000000E+00 -0.45593999997E+02  0.45594000000E+02  0.51100000000E-03 0.  1.
         23    2    1    2    0    0  0.11102230246E-15  0.00000000000E+00  0.00000000000E+00  0.91188000000E+02  0.91188000000E+02 0.  0.
    9900012    2    3    3    0    0 -0.46002351225E+00  0.55128038214E+01 -0.43046714274E+02  0.47787282985E+02  0.20000054443E+02 0.  0.
         12    1    3    3    0    0  0.46002351225E+00 -0.55128038214E+01  0.43046714274E+02  0.43400717015E+02  0.00000000000E+00 0. -1.
         11    1    4    4    0    0  0.12581105715E+01  0.39427751193E+01 -0.82095769299E+01  0.91937735169E+01  0.51100000000E-03 0. -1.
        -11    1    4    4    0    0 -0.59510676131E+01  0.24056607647E+01 -0.42381701361E+01  0.76918460602E+01  0.51100000000E-03 0.  1.
         12    1    4    4    0    0  0.42329335293E+01 -0.83563206261E+00 -0.30598967208E+02  0.30901663408E+02  0.00000000000E+00 0. -1.
</event>
<event>
 8    1  0.4042158E-011  0.9118800E+02  0.7816164E-02  0.1184000E+00
        -11   -1    0    0    0    0  0.00000000000E+00  0.00000000000E+00  0.45593999997E+02  0.45594000000E+02  0.51100000000E-03 0. -1.
         11   -1    0    0    0    0 -0.00000000000E+00 -0.00000000000E+00 -0.45593999997E+02  0.45594000000E+02  0.51100000000E-03 0.  1.
         23    2    1    2    0    0  0.00000000000E+00  0.00000000000E+00  0.00000000000E+00  0.91188000000E+02  0.91188000000E+02 0.  0.
    9900012    2    3    3    0    0  0.10025938538E+02 -0.13457741487E+02 -0.40024904795E+02  0.47787271281E+02  0.20000001079E+02 0.  0.
         12    1    3    3    0    0 -0.10025938538E+02  0.13457741487E+02  0.40024904795E+02  0.43400728719E+02  0.00000000000E+00 0. -1.
         11    1    4    4    0    0 -0.45616194233E+00 -0.38028147166E+01 -0.16539403998E+01  0.41719303198E+01  0.51100000000E-03 0. -1.
        -11    1    4    4    0    0  0.12595839920E+01 -0.10784178113E+02 -0.25729915521E+02  0.27926933280E+02  0.51100000000E-03 0.  1.
        -12    1    4    4    0    0  0.92225164879E+01  0.11292513420E+01 -0.12641048874E+02  0.15688407682E+02  0.00000000000E+00 0.  1.
</event>
<event>
 8    1  0.4042158E-011  0.9118800E+02  0.7816164E-02  0.1184000E+00
        -11   -1    0    0    0    0  0.00000000000E+00  0.00000000000E+00  0.45593999997E+02  0.45594000000E+02  0.51100000000E-03 0. -1.
         11   -1    0    0    0    0 -0.00000000000E+00 -0.00000000000E+00 -0.45593999997E+02  0.45594000000E+02  0.51100000000E-03 0.  1.
         23    2    1    2    0    0  0.88817841970E-15  0.00000000000E+00  0.00000000000E+00  0.91188000000E+02  0.91188000000E+02 0.  0.
    9900012    2    3    3    0    0 -0.20335935529E+01 -0.21906576808E+02  0.37411151786E+02  0.47787217886E+02  0.19999757628E+02 0.  0.
        -12    1    3    3    0    0  0.20335935529E+01  0.21906576808E+02 -0.37411151786E+02  0.43400782114E+02  0.00000000000E+00 0.  1.
         11    1    4    4    0    0  0.93704769181E+00 -0.12928929497E+02  0.12983926109E+02  0.18347141843E+02  0.51100000000E-03 0. -1.
        -11    1    4    4    0    0  0.27185998932E+01 -0.67012555861E+01  0.21432510552E+02  0.22619684362E+02  0.51100000000E-03 0.  1.
         12    1    4    4    0    0 -0.56892411380E+01 -0.22763917247E+01  0.29947151243E+01  0.68203916813E+01  0.00000000000E+00 0. -1.
</event>
<event>
 8    1  0.4042158E-011  0.9118800E+02  0.7816164E-02  0.1184000E+00
        -11   -1    0    0    0    0  0.00000000000E+00  0.00000000000E+00  0.45593999997E+02  0.45594000000E+02  0.51100000000E-03 0. -1.
         11   -1    0    0    0    0 -0.00000000000E+00 -0.00000000000E+00 -0.45593999997E+02  0.45594000000E+02  0.51100000000E-03 0.  1.
         23    2    1    2    0    0  0.00000000000E+00  0.00000000000E+00  0.00000000000E+00  0.91188000000E+02  0.91188000000E+02 0.  0.
    9900012    2    3    3    0    0 -0.10311029855E+02  0.13237840756E+02 -0.40025810413E+02  0.47787271161E+02  0.20000000530E+02 0.  0.
         12    1    3    3    0    0  0.10311029855E+02 -0.13237840756E+02  0.40025810413E+02  0.43400728839E+02  0.00000000000E+00 0. -1.
         11    1    4    4    0    0 -0.44113143175E+01  0.83010090687E+01 -0.52722314873E+01  0.10777888044E+02  0.51100000000E-03 0. -1.
        -11    1    4    4    0    0  0.52803932804E+00 -0.20877879436E+01 -0.21467055193E+01  0.30407283465E+01  0.51100000000E-03 0.  1.
        -12    1    4    4    0    0 -0.64277548654E+01  0.70246196309E+01 -0.32606873407E+02  0.33968654771E+02  0.00000000000E+00 0.  1.
</event>
<event>
 8    1  0.4042158E-011  0.9118800E+02  0.7816164E-02  0.1184000E+00
        -11   -1    0    0    0    0  0.00000000000E+00  0.00000000000E+00  0.45593999997E+02  0.45594000000E+02  0.51100000000E-03 0. -1.
         11   -1    0    0    0    0 -0.00000000000E+00 -0.00000000000E+00 -0.45593999997E+02  0.45594000000E+02  0.51100000000E-03 0.  1.
         23    2    1    2    0    0  0.00000000000E+00  0.00000000000E+00  0.00000000000E+00  0.91188000000E+02  0.91188000000E+02 0.  0.
    9900012    2    3    3    0    0 -0.37927639416E+02  0.99665230480E+01 -0.18595320035E+02  0.47787270276E+02  0.19999996497E+02 0.  0.
         12    1    3    3    0    0  0.37927639416E+02 -0.99665230480E+01  0.18595320035E+02  0.43400729724E+02  0.00000000000E+00 0. -1.
         11    1    4    4    0    0 -0.17104326420E+00 -0.18847285759E+01 -0.12988306094E+01  0.22953036436E+01  0.51100000000E-03 0. -1.
        -11    1    4    4    0    0 -0.77797825752E+01  0.89981615321E+01 -0.37428795920E+01  0.12470007048E+02  0.51100000000E-03 0.  1.
         12    1    4    4    0    0 -0.29976813577E+02  0.28530900918E+01 -0.13553609833E+02  0.33021959585E+02  0.00000000000E+00 0. -1.
</event>
<event>
 8    1  0.4042158E-011  0.9118800E+02  0.7816164E-02  0.1184000E+00
        -11   -1    0    0    0    0  0.00000000000E+00  0.00000000000E+00  0.45593999997E+02  0.45594000000E+02  0.51100000000E-03 0. -1.
         11   -1    0    0    0    0 -0.00000000000E+00 -0.00000000000E+00 -0.45593999997E+02  0.45594000000E+02  0.51100000000E-03 0.  1.
         23    2    1    2    0    0  0.35527136788E-14  0.00000000000E+00  0.71054273576E-14  0.91188000000E+02  0.91188000000E+02 0.  0.
    9900012    2    3    3    0    0 -0.28662320852E+02 -0.88396106895E+01 -0.31368068595E+02  0.47787273264E+02  0.20000010122E+02 0.  0.
         12    1    3    3    0    0  0.28662320852E+02  0.88396106895E+01  0.31368068595E+02  0.43400726736E+02  0.00000000000E+00 0. -1.
         11    1    4    4    0    0 -0.59940077026E+01 -0.19949130527E+00 -0.99190390502E+01  0.11591171686E+02  0.51100000000E-03 0. -1.
        -11    1    4    4    0    0 -0.42492332909E+01  0.24533505766E+01 -0.11502215362E+02  0.12505033831E+02  0.51100000000E-03 0.  1.
         12    1    4    4    0    0 -0.18419079859E+02 -0.11093469961E+02 -0.99468141824E+01  0.23691067747E+02  0.00000000000E+00 0. -1.
</event>
<event>
 8    1  0.4042158E-011  0.9118800E+02  0.7816164E-02  0.1184000E+00
        -11   -1    0    0    0    0  0.00000000000E+00  0.00000000000E+00  0.45593999997E+02  0.45594000000E+02  0.51100000000E-03 0.  1.
         11   -1    0    0    0    0 -0.00000000000E+00 -0.00000000000E+00 -0.45593999997E+02  0.45594000000E+02  0.51100000000E-03 0. -1.
         23    2    1    2    0    0  0.00000000000E+00  0.00000000000E+00  0.00000000000E+00  0.91188000000E+02  0.91188000000E+02 0.  0.
    9900012    2    3    3    0    0 -0.16927919030E+02 -0.32793144652E+02 -0.22840282254E+02  0.47787271063E+02  0.20000000084E+02 0.  0.
        -12    1    3    3    0    0  0.16927919030E+02  0.32793144652E+02  0.22840282254E+02  0.43400728937E+02  0.00000000000E+00 0.  1.
         11    1    4    4    0    0 -0.20538564183E+01  0.20089028427E+00 -0.27470018381E+01  0.34357972077E+01  0.51100000000E-03 0. -1.
        -11    1    4    4    0    0 -0.53825349181E+01 -0.87549148276E+00 -0.32951183767E+00  0.54632175312E+01  0.51100000000E-03 0.  1.
         12    1    4    4    0    0 -0.94915276939E+01 -0.32118543453E+02 -0.19763768578E+02  0.38888256324E+02  0.00000000000E+00 0. -1.
</event>
<event>
 8    1  0.4042158E-011  0.9118800E+02  0.7816164E-02  0.1184000E+00
        -11   -1    0    0    0    0  0.00000000000E+00  0.00000000000E+00  0.45593999997E+02  0.45594000000E+02  0.51100000000E-03 0. -1.
         11   -1    0    0    0    0 -0.00000000000E+00 -0.00000000000E+00 -0.45593999997E+02  0.45594000000E+02  0.51100000000E-03 0.  1.
         23    2    1    2    0    0 -0.35527136788E-14  0.00000000000E+00  0.00000000000E+00  0.91188000000E+02  0.91188000000E+02 0.  0.
    9900012    2    3    3    0    0  0.16270033544E+02  0.84620447863E+01  0.39335774169E+02  0.47787270478E+02  0.19999997419E+02 0.  0.
        -12    1    3    3    0    0 -0.16270033544E+02 -0.84620447863E+01 -0.39335774169E+02  0.43400729522E+02  0.00000000000E+00 0.  1.
         11    1    4    4    0    0  0.64822189881E+01 -0.27261170547E+01  0.18930945848E+02  0.20194840632E+02  0.51100000000E-03 0. -1.
        -11    1    4    4    0    0 -0.16334354866E+01 -0.90310919373E+00  0.28739001018E+01  0.34268089764E+01  0.51100000000E-03 0.  1.
         12    1    4    4    0    0  0.11421250043E+02  0.12091271035E+02  0.17530928220E+02  0.24165620870E+02  0.00000000000E+00 0. -1.
</event>
<event>
 8    1  0.4042158E-011  0.9118800E+02  0.7816164E-02  0.1184000E+00
        -11   -1    0    0    0    0  0.00000000000E+00  0.00000000000E+00  0.45593999997E+02  0.45594000000E+02  0.51100000000E-03 0. -1.
         11   -1    0    0    0    0 -0.00000000000E+00 -0.00000000000E+00 -0.45593999997E+02  0.45594000000E+02  0.51100000000E-03 0.  1.
         23    2    1    2    0    0 -0.71054273576E-14  0.66613381478E-15 -0.17763568394E-14  0.91188000000E+02  0.91188000000E+02 0.  0.
    9900012    2    3    3    0    0 -0.40793084536E+02  0.19974583432E+01 -0.14681874501E+02  0.47787273916E+02  0.20000013092E+02 0.  0.
         12    1    3    3    0    0  0.40793084536E+02 -0.19974583432E+01  0.14681874501E+02  0.43400726084E+02  0.00000000000E+00 0. -1.
         11    1    4    4    0    0 -0.43775760033E+01  0.49845543255E+01 -0.23607306173E+01  0.70414489132E+01  0.51100000000E-03 0. -1.
        -11    1    4    4    0    0 -0.23932570972E+02  0.34948920849E+01 -0.43369517048E+01  0.24572166660E+02  0.51100000000E-03 0.  1.
        -12    1    4    4    0    0 -0.12482937560E+02 -0.64819880673E+01 -0.79841921785E+01  0.16173658342E+02  0.00000000000E+00 0.  1.
</event>
<event>
 8    1  0.4042158E-011  0.9118800E+02  0.7816164E-02  0.1184000E+00
        -11   -1    0    0    0    0  0.00000000000E+00  0.00000000000E+00  0.45593999997E+02  0.45594000000E+02  0.51100000000E-03 0. -1.
         11   -1    0    0    0    0 -0.00000000000E+00 -0.00000000000E+00 -0.45593999997E+02  0.45594000000E+02  0.51100000000E-03 0.  1.
         23    2    1    2    0    0  0.00000000000E+00  0.00000000000E+00  0.00000000000E+00  0.91188000000E+02  0.91188000000E+02 0.  0.
    9900012    2    3    3    0    0 -0.29873907883E+02 -0.14953351304E+02 -0.27705054541E+02  0.47787272650E+02  0.20000007319E+02 0.  0.
         12    1    3    3    0    0  0.29873907883E+02  0.14953351304E+02  0.27705054541E+02  0.43400727350E+02  0.00000000000E+00 0. -1.
         11    1    4    4    0    0 -0.34417508184E+01 -0.25954621807E+01 -0.95214387685E+01  0.10451787843E+02  0.51100000000E-03 0. -1.
        -11    1    4    4    0    0 -0.67038717944E+01 -0.10874819568E+02 -0.61401352911E+01  0.14174091129E+02  0.51100000000E-03 0.  1.
        -12    1    4    4    0    0 -0.19728285270E+02 -0.14830695551E+01 -0.12043480482E+02  0.23161393678E+02  0.00000000000E+00 0.  1.
</event>
<event>
 8    1  0.4042158E-011  0.9118800E+02  0.7816164E-02  0.1184000E+00
        -11   -1    0    0    0    0  0.00000000000E+00  0.00000000000E+00  0.45593999997E+02  0.45594000000E+02  0.51100000000E-03 0.  1.
         11   -1    0    0    0    0 -0.00000000000E+00 -0.00000000000E+00 -0.45593999997E+02  0.45594000000E+02  0.51100000000E-03 0. -1.
         23    2    1    2    0    0  0.71054273576E-14  0.00000000000E+00 -0.88817841970E-15  0.91188000000E+02  0.91188000000E+02 0.  0.
    9900012    2    3    3    0    0  0.42046204564E+02 -0.83813229694E+01 -0.67448843338E+01  0.47787270080E+02  0.19999995601E+02 0.  0.
        -12    1    3    3    0    0 -0.42046204564E+02  0.83813229694E+01  0.67448843338E+01  0.43400729920E+02  0.00000000000E+00 0.  1.
         11    1    4    4    0    0  0.60013988514E+01 -0.33947640948E+01 -0.52644143811E+01  0.86749795660E+01  0.51100000000E-03 0. -1.
        -11    1    4    4    0    0  0.13151138899E+02 -0.66151618670E+01  0.45014743420E+01  0.15394027815E+02  0.51100000000E-03 0.  1.
         12    1    4    4    0    0  0.22893666814E+02  0.16286029924E+01 -0.59819442947E+01  0.23718262698E+02  0.00000000000E+00 0. -1.
</event>
<event>
 8    1  0.4042158E-011  0.9118800E+02  0.7816164E-02  0.1184000E+00
        -11   -1    0    0    0    0  0.00000000000E+00  0.00000000000E+00  0.45593999997E+02  0.45594000000E+02  0.51100000000E-03 0. -1.
         11   -1    0    0    0    0 -0.00000000000E+00 -0.00000000000E+00 -0.45593999997E+02  0.45594000000E+02  0.51100000000E-03 0.  1.
         23    2    1    2    0    0 -0.88817841970E-15  0.00000000000E+00 -0.35527136788E-14  0.91188000000E+02  0.91188000000E+02 0.  0.
    9900012    2    3    3    0    0 -0.44149539127E+01  0.40007144729E+02 -0.16234512193E+02  0.47787276117E+02  0.20000023127E+02 0.  0.
         12    1    3    3    0    0  0.44149539127E+01 -0.40007144729E+02  0.16234512193E+02  0.43400723883E+02  0.00000000000E+00 0. -1.
         11    1    4    4    0    0 -0.11385160262E+01  0.65932420628E+01 -0.94232182730E+01  0.11556993663E+02  0.51100000000E-03 0.  1.
        -11    1    4    4    0    0  0.34401547668E+01  0.76154664355E+01 -0.44500924496E+01  0.94674873605E+01  0.51100000000E-03 0. -1.
        -12    1    4    4    0    0 -0.67165926533E+01  0.25798436231E+02 -0.23612014707E+01  0.26762795094E+02  0.00000000000E+00 0.  1.
</event>
<event>
 8    1  0.4042158E-011  0.9118800E+02  0.7816164E-02  0.1184000E+00
        -11   -1    0    0    0    0  0.00000000000E+00  0.00000000000E+00  0.45593999997E+02  0.45594000000E+02  0.51100000000E-03 0. -1.
         11   -1    0    0    0    0 -0.00000000000E+00 -0.00000000000E+00 -0.45593999997E+02  0.45594000000E+02  0.51100000000E-03 0.  1.
         23    2    1    2    0    0  0.00000000000E+00  0.00000000000E+00  0.35527136788E-14  0.91188000000E+02  0.91188000000E+02 0.  0.
    9900012    2    3    3    0    0  0.19819261346E+02  0.33612003252E+02  0.19001409995E+02  0.47787268846E+02  0.19999989976E+02 0.  0.
        -12    1    3    3    0    0 -0.19819261346E+02 -0.33612003252E+02 -0.19001409995E+02  0.43400731154E+02  0.00000000000E+00 0.  1.
         11    1    4    4    0    0  0.37011852611E+01  0.18371453342E+02  0.88047619011E+01  0.20705866382E+02  0.51100000000E-03 0. -1.
        -11    1    4    4    0    0 -0.12493513061E+01  0.34691954115E+01  0.34312605062E+01  0.50368387320E+01  0.51100000000E-03 0.  1.
         12    1    4    4    0    0  0.17367427391E+02  0.11771354499E+02  0.67653875875E+01  0.22044563732E+02  0.00000000000E+00 0. -1.
</event>
<event>
 8    1  0.4042158E-011  0.9118800E+02  0.7816164E-02  0.1184000E+00
        -11   -1    0    0    0    0  0.00000000000E+00  0.00000000000E+00  0.45593999997E+02  0.45594000000E+02  0.51100000000E-03 0.  1.
         11   -1    0    0    0    0 -0.00000000000E+00 -0.00000000000E+00 -0.45593999997E+02  0.45594000000E+02  0.51100000000E-03 0. -1.
         23    2    1    2    0    0  0.00000000000E+00  0.00000000000E+00  0.00000000000E+00  0.91188000000E+02  0.91188000000E+02 0.  0.
    9900012    2    3    3    0    0 -0.19501157152E+02 -0.37476978363E+02 -0.99400344051E+01  0.47787270496E+02  0.19999997499E+02 0.  0.
         12    1    3    3    0    0  0.19501157152E+02  0.37476978363E+02  0.99400344051E+01  0.43400729504E+02  0.00000000000E+00 0. -1.
         11    1    4    4    0    0 -0.12902936376E+02 -0.15984811748E+02 -0.51879156913E+01  0.21187601167E+02  0.51100000000E-03 0. -1.
        -11    1    4    4    0    0 -0.63942237672E+01 -0.14775268642E+02  0.29612508731E+01  0.16369595842E+02  0.51100000000E-03 0.  1.
        -12    1    4    4    0    0 -0.20399700869E+00 -0.67168979729E+01 -0.77133695869E+01  0.10230073487E+02  0.00000000000E+00 0.  1.
</event>
<event>
 8    1  0.4042158E-011  0.9118800E+02  0.7816164E-02  0.1184000E+00
        -11   -1    0    0    0    0  0.00000000000E+00  0.00000000000E+00  0.45593999997E+02  0.45594000000E+02  0.51100000000E-03 0. -1.
         11   -1    0    0    0    0 -0.00000000000E+00 -0.00000000000E+00 -0.45593999997E+02  0.45594000000E+02  0.51100000000E-03 0.  1.
         23    2    1    2    0    0 -0.88817841970E-15 -0.88817841970E-15  0.00000000000E+00  0.91188000000E+02  0.91188000000E+02 0.  0.
    9900012    2    3    3    0    0  0.18084785481E+01 -0.31237424940E+01 -0.43250377293E+02  0.47787268465E+02  0.19999988238E+02 0.  0.
         12    1    3    3    0    0 -0.18084785481E+01  0.31237424940E+01  0.43250377293E+02  0.43400731535E+02  0.00000000000E+00 0. -1.
         11    1    4    4    0    0  0.90908900184E+01 -0.50199650958E+01 -0.23040017623E+02  0.25272252437E+02  0.51100000000E-03 0. -1.
        -11    1    4    4    0    0 -0.19372326430E+01 -0.23321893390E+01 -0.75653242545E+01  0.81502213935E+01  0.51100000000E-03 0.  1.
         12    1    4    4    0    0 -0.53451788272E+01  0.42284119408E+01 -0.12645035415E+02  0.14364794634E+02  0.00000000000E+00 0. -1.
</event>
<event>
 8    1  0.4042158E-011  0.9118800E+02  0.7816164E-02  0.1184000E+00
        -11   -1    0    0    0    0  0.00000000000E+00  0.00000000000E+00  0.45593999997E+02  0.45594000000E+02  0.51100000000E-03 0. -1.
         11   -1    0    0    0    0 -0.00000000000E+00 -0.00000000000E+00 -0.45593999997E+02  0.45594000000E+02  0.51100000000E-03 0.  1.
         23    2    1    2    0    0  0.00000000000E+00  0.88817841970E-15  0.00000000000E+00  0.91188000000E+02  0.91188000000E+02 0.  0.
    9900012    2    3    3    0    0 -0.17347251368E+02  0.50260063455E+01  0.39464347076E+02  0.47787279269E+02  0.20000037500E+02 0.  0.
        -12    1    3    3    0    0  0.17347251368E+02 -0.50260063455E+01 -0.39464347076E+02  0.43400720731E+02  0.00000000000E+00 0.  1.
         11    1    4    4    0    0 -0.13548797457E+01 -0.41720991347E+01  0.91048341979E+01  0.10106439351E+02  0.51100000000E-03 0. -1.
        -11    1    4    4    0    0 -0.66856219329E+01 -0.26939636439E+01  0.10349592357E+02  0.12612257647E+02  0.51100000000E-03 0.  1.
        -12    1    4    4    0    0 -0.93067496894E+01  0.11892069124E+02  0.20009920521E+02  0.25068582272E+02  0.00000000000E+00 0.  1.
</event>
<event>
 8    1  0.4042158E-011  0.9118800E+02  0.7816164E-02  0.1184000E+00
        -11   -1    0    0    0    0  0.00000000000E+00  0.00000000000E+00  0.45593999997E+02  0.45594000000E+02  0.51100000000E-03 0. -1.
         11   -1    0    0    0    0 -0.00000000000E+00 -0.00000000000E+00 -0.45593999997E+02  0.45594000000E+02  0.51100000000E-03 0.  1.
         23    2    1    2    0    0  0.00000000000E+00  0.00000000000E+00  0.00000000000E+00  0.91188000000E+02  0.91188000000E+02 0.  0.
    9900012    2    3    3    0    0 -0.36358697305E+02 -0.38601046460E+01  0.23383069885E+02  0.47787271494E+02  0.20000002049E+02 0.  0.
        -12    1    3    3    0    0  0.36358697305E+02  0.38601046460E+01 -0.23383069885E+02  0.43400728506E+02  0.00000000000E+00 0.  1.
         11    1    4    4    0    0 -0.10754490593E+02  0.22893153999E+01  0.64697994362E+01  0.12757677607E+02  0.51100000000E-03 0. -1.
        -11    1    4    4    0    0 -0.99973462476E-01 -0.80068110036E+00  0.71596877000E+01  0.72050130562E+01  0.51100000000E-03 0.  1.
        -12    1    4    4    0    0 -0.25504233250E+02 -0.53487389456E+01  0.97535827485E+01  0.27824580831E+02  0.00000000000E+00 0.  1.
</event>
<event>
 8    1  0.4042158E-011  0.9118800E+02  0.7816164E-02  0.1184000E+00
        -11   -1    0    0    0    0  0.00000000000E+00  0.00000000000E+00  0.45593999997E+02  0.45594000000E+02  0.51100000000E-03 0.  1.
         11   -1    0    0    0    0 -0.00000000000E+00 -0.00000000000E+00 -0.45593999997E+02  0.45594000000E+02  0.51100000000E-03 0. -1.
         23    2    1    2    0    0 -0.17763568394E-14  0.00000000000E+00  0.00000000000E+00  0.91188000000E+02  0.91188000000E+02 0.  0.
    9900012    2    3    3    0    0  0.15558390276E+02  0.10799180313E+02 -0.39050445109E+02  0.47787273432E+02  0.20000010886E+02 0.  0.
         12    1    3    3    0    0 -0.15558390276E+02 -0.10799180313E+02  0.39050445109E+02  0.43400726568E+02  0.00000000000E+00 0. -1.
         11    1    4    4    0    0  0.31771149161E+01  0.61843909413E+01 -0.15749287906E+02  0.17215714342E+02  0.51100000000E-03 0. -1.
        -11    1    4    4    0    0 -0.32881016540E+01 -0.81086469877E-01 -0.26317071438E+01  0.42123710965E+01  0.51100000000E-03 0.  1.
        -12    1    4    4    0    0  0.15669377014E+02  0.46958758416E+01 -0.20669450059E+02  0.26359187993E+02  0.00000000000E+00 0.  1.
</event>
<event>
 8    1  0.4042158E-011  0.9118800E+02  0.7816164E-02  0.1184000E+00
        -11   -1    0    0    0    0  0.00000000000E+00  0.00000000000E+00  0.45593999997E+02  0.45594000000E+02  0.51100000000E-03 0. -1.
         11   -1    0    0    0    0 -0.00000000000E+00 -0.00000000000E+00 -0.45593999997E+02  0.45594000000E+02  0.51100000000E-03 0.  1.
         23    2    1    2    0    0  0.00000000000E+00 -0.88817841970E-15 -0.71054273576E-14  0.91188000000E+02  0.91188000000E+02 0.  0.
    9900012    2    3    3    0    0 -0.17751324624E+02 -0.78834885929E+01 -0.38811956585E+02  0.47787229358E+02  0.19999809935E+02 0.  0.
         12    1    3    3    0    0  0.17751324624E+02  0.78834885929E+01  0.38811956585E+02  0.43400770642E+02  0.00000000000E+00 0. -1.
         11    1    4    4    0    0 -0.67666746459E+01 -0.46974883424E+01 -0.41576458902E+01  0.92271502697E+01  0.51100000000E-03 0. -1.
        -11    1    4    4    0    0 -0.69469643691E+01  0.18635548106E+01 -0.65713040723E+01  0.97424426069E+01  0.51100000000E-03 0.  1.
         12    1    4    4    0    0 -0.40376856092E+01 -0.50495550611E+01 -0.28083006623E+02  0.28817636482E+02  0.00000000000E+00 0. -1.
</event>
<event>
 8    1  0.4042158E-011  0.9118800E+02  0.7816164E-02  0.1184000E+00
        -11   -1    0    0    0    0  0.00000000000E+00  0.00000000000E+00  0.45593999997E+02  0.45594000000E+02  0.51100000000E-03 0. -1.
         11   -1    0    0    0    0 -0.00000000000E+00 -0.00000000000E+00 -0.45593999997E+02  0.45594000000E+02  0.51100000000E-03 0.  1.
         23    2    1    2    0    0  0.88817841970E-15  0.00000000000E+00  0.00000000000E+00  0.91188000000E+02  0.91188000000E+02 0.  0.
    9900012    2    3    3    0    0  0.61160249222E+01 -0.55889042663E+01  0.42602604212E+02  0.47787268469E+02  0.19999988259E+02 0.  0.
        -12    1    3    3    0    0 -0.61160249222E+01  0.55889042663E+01 -0.42602604212E+02  0.43400731531E+02  0.00000000000E+00 0.  1.
         11    1    4    4    0    0 -0.27961931913E+01  0.49282386010E+01  0.18061443965E+02  0.18929394877E+02  0.51100000000E-03 0. -1.
        -11    1    4    4    0    0 -0.21458456732E+00 -0.37970923930E+01  0.71709516591E+01  0.81170502731E+01  0.51100000000E-03 0.  1.
         12    1    4    4    0    0  0.91268026808E+01 -0.67200504744E+01  0.17370208588E+02  0.20740823319E+02  0.00000000000E+00 0. -1.
</event>
<event>
 8    1  0.4042158E-011  0.9118800E+02  0.7816164E-02  0.1184000E+00
        -11   -1    0    0    0    0  0.00000000000E+00  0.00000000000E+00  0.45593999997E+02  0.45594000000E+02  0.51100000000E-03 0. -1.
         11   -1    0    0    0    0 -0.00000000000E+00 -0.00000000000E+00 -0.45593999997E+02  0.45594000000E+02  0.51100000000E-03 0.  1.
         23    2    1    2    0    0  0.88817841970E-15  0.00000000000E+00  0.00000000000E+00  0.91188000000E+02  0.91188000000E+02 0.  0.
    9900012    2    3    3    0    0  0.44266476561E+01 -0.22846629913E+02 -0.36634133166E+02  0.47787269353E+02  0.19999992289E+02 0.  0.
         12    1    3    3    0    0 -0.44266476561E+01  0.22846629913E+02  0.36634133166E+02  0.43400730647E+02  0.00000000000E+00 0. -1.
         11    1    4    4    0    0  0.41183521657E+01 -0.11152013168E+02 -0.98218692683E+01  0.15420678923E+02  0.51100000000E-03 0. -1.
        -11    1    4    4    0    0  0.63635044504E+01 -0.93442566593E+01 -0.13937300052E+02  0.17945964850E+02  0.51100000000E-03 0.  1.
         12    1    4    4    0    0 -0.60552089599E+01 -0.23503600851E+01 -0.12874963846E+02  0.14420625580E+02  0.00000000000E+00 0. -1.
</event>
<event>
 8    1  0.4042158E-011  0.9118800E+02  0.7816164E-02  0.1184000E+00
        -11   -1    0    0    0    0  0.00000000000E+00  0.00000000000E+00  0.45593999997E+02  0.45594000000E+02  0.51100000000E-03 0.  1.
         11   -1    0    0    0    0 -0.00000000000E+00 -0.00000000000E+00 -0.45593999997E+02  0.45594000000E+02  0.51100000000E-03 0. -1.
         23    2    1    2    0    0 -0.44408920985E-15  0.00000000000E+00  0.00000000000E+00  0.91188000000E+02  0.91188000000E+02 0.  0.
    9900012    2    3    3    0    0  0.19825529295E+01  0.43035752348E+02  0.52551534800E+01  0.47787272652E+02  0.20000007328E+02 0.  0.
        -12    1    3    3    0    0 -0.19825529295E+01 -0.43035752348E+02 -0.52551534800E+01  0.43400727348E+02  0.00000000000E+00 0.  1.
         11    1    4    4    0    0  0.13116935738E+00  0.68015110187E-01  0.27751451584E+00  0.31439787396E+00  0.51100000000E-03 0.  1.
        -11    1    4    4    0    0  0.24931927446E+01  0.15287886752E+02 -0.73738789577E+01  0.17155453435E+02  0.51100000000E-03 0. -1.
         12    1    4    4    0    0 -0.64180917252E+00  0.27679850485E+02  0.12351517922E+02  0.30317421343E+02  0.00000000000E+00 0. -1.
</event>
<event>
 8    1  0.4042158E-011  0.9118800E+02  0.7816164E-02  0.1184000E+00
        -11   -1    0    0    0    0  0.00000000000E+00  0.00000000000E+00  0.45593999997E+02  0.45594000000E+02  0.51100000000E-03 0. -1.
         11   -1    0    0    0    0 -0.00000000000E+00 -0.00000000000E+00 -0.45593999997E+02  0.45594000000E+02  0.51100000000E-03 0.  1.
         23    2    1    2    0    0  0.00000000000E+00  0.00000000000E+00  0.00000000000E+00  0.91188000000E+02  0.91188000000E+02 0.  0.
    9900012    2    3    3    0    0  0.12757179445E+02 -0.37150157718E+02 -0.18459237167E+02  0.47787270943E+02  0.19999999538E+02 0.  0.
         12    1    3    3    0    0 -0.12757179445E+02  0.37150157718E+02  0.18459237167E+02  0.43400729057E+02  0.00000000000E+00 0. -1.
         11    1    4    4    0    0  0.41048927870E+01 -0.32348563549E+00 -0.37060400911E+01  0.55398123765E+01  0.51100000000E-03 0. -1.
        -11    1    4    4    0    0 -0.25063466141E+01 -0.48098171348E+01 -0.43040433030E+00  0.54407134063E+01  0.51100000000E-03 0.  1.
        -12    1    4    4    0    0  0.11158633272E+02 -0.32016854948E+02 -0.14322792745E+02  0.36806745160E+02  0.00000000000E+00 0.  1.
</event>
<event>
 8    1  0.4042158E-011  0.9118800E+02  0.7816164E-02  0.1184000E+00
        -11   -1    0    0    0    0  0.00000000000E+00  0.00000000000E+00  0.45593999997E+02  0.45594000000E+02  0.51100000000E-03 0. -1.
         11   -1    0    0    0    0 -0.00000000000E+00 -0.00000000000E+00 -0.45593999997E+02  0.45594000000E+02  0.51100000000E-03 0.  1.
         23    2    1    2    0    0 -0.44408920985E-15  0.00000000000E+00  0.00000000000E+00  0.91188000000E+02  0.91188000000E+02 0.  0.
    9900012    2    3    3    0    0  0.39692139965E+01  0.17957531414E+02 -0.39311519745E+02  0.47787272138E+02  0.20000004987E+02 0.  0.
         12    1    3    3    0    0 -0.39692139965E+01 -0.17957531414E+02  0.39311519745E+02  0.43400727862E+02  0.00000000000E+00 0. -1.
         11    1    4    4    0    0  0.49676364707E+01  0.16937496093E+01 -0.19372439702E+01  0.55945611361E+01  0.51100000000E-03 0. -1.
        -11    1    4    4    0    0  0.17098744730E+01  0.91342564045E+01 -0.94819565015E+01  0.13276513478E+02  0.51100000000E-03 0.  1.
        -12    1    4    4    0    0 -0.27082969473E+01  0.71295254002E+01 -0.27892319274E+02  0.28916197524E+02  0.00000000000E+00 0.  1.
</event>
<event>
 8    1  0.4042158E-011  0.9118800E+02  0.7816164E-02  0.1184000E+00
        -11   -1    0    0    0    0  0.00000000000E+00  0.00000000000E+00  0.45593999997E+02  0.45594000000E+02  0.51100000000E-03 0. -1.
         11   -1    0    0    0    0 -0.00000000000E+00 -0.00000000000E+00 -0.45593999997E+02  0.45594000000E+02  0.51100000000E-03 0.  1.
         23    2    1    2    0    0 -0.44408920985E-15 -0.17763568394E-14  0.00000000000E+00  0.91188000000E+02  0.91188000000E+02 0.  0.
    9900012    2    3    3    0    0 -0.35685972100E+01 -0.51974590559E+01  0.42940357396E+02  0.47787276964E+02  0.20000026991E+02 0.  0.
        -12    1    3    3    0    0  0.35685972100E+01  0.51974590559E+01 -0.42940357396E+02  0.43400723036E+02  0.00000000000E+00 0.  1.
         11    1    4    4    0    0 -0.48847754312E+00 -0.35466760600E+01  0.74931187920E+01  0.83044777607E+01  0.51100000000E-03 0. -1.
        -11    1    4    4    0    0 -0.13554960597E+01 -0.91188219081E+01  0.14554955709E+02  0.17228958718E+02  0.51100000000E-03 0.  1.
        -12    1    4    4    0    0 -0.17246236072E+01  0.74680389122E+01  0.20892282895E+02  0.22253840485E+02  0.00000000000E+00 0.  1.
</event>
<event>
 8    1  0.4042158E-011  0.9118800E+02  0.7816164E-02  0.1184000E+00
        -11   -1    0    0    0    0  0.00000000000E+00  0.00000000000E+00  0.45593999997E+02  0.45594000000E+02  0.51100000000E-03 0. -1.
         11   -1    0    0    0    0 -0.00000000000E+00 -0.00000000000E+00 -0.45593999997E+02  0.45594000000E+02  0.51100000000E-03 0.  1.
         23    2    1    2    0    0 -0.26645352591E-14 -0.71054273576E-14  0.00000000000E+00  0.91188000000E+02  0.91188000000E+02 0.  0.
    9900012    2    3    3    0    0  0.45276953594E+01  0.41353666498E+02 -0.12369266931E+02  0.47787256659E+02  0.19999934412E+02 0.  0.
         12    1    3    3    0    0 -0.45276953594E+01 -0.41353666498E+02  0.12369266931E+02  0.43400743341E+02  0.00000000000E+00 0. -1.
         11    1    4    4    0    0  0.10200094456E+02  0.25997370053E+02 -0.11419578114E+02  0.30171376189E+02  0.51100000000E-03 0. -1.
        -11    1    4    4    0    0 -0.15019454913E+01  0.27325061472E+01 -0.28026594817E+01  0.41925327112E+01  0.51100000000E-03 0.  1.
         12    1    4    4    0    0 -0.41704536056E+01  0.12623790298E+02  0.18529706647E+01  0.13423347759E+02  0.00000000000E+00 0. -1.
</event>
<event>
 8    1  0.4042158E-011  0.9118800E+02  0.7816164E-02  0.1184000E+00
        -11   -1    0    0    0    0  0.00000000000E+00  0.00000000000E+00  0.45593999997E+02  0.45594000000E+02  0.51100000000E-03 0.  1.
         11   -1    0    0    0    0 -0.00000000000E+00 -0.00000000000E+00 -0.45593999997E+02  0.45594000000E+02  0.51100000000E-03 0. -1.
         23    2    1    2    0    0  0.00000000000E+00  0.00000000000E+00 -0.44408920985E-15  0.91188000000E+02  0.91188000000E+02 0.  0.
    9900012    2    3    3    0    0 -0.27204336678E+02  0.33602891621E+02 -0.37937846317E+01  0.47787273494E+02  0.20000011170E+02 0.  0.
         12    1    3    3    0    0  0.27204336678E+02 -0.33602891621E+02  0.37937846317E+01  0.43400726506E+02  0.00000000000E+00 0. -1.
         11    1    4    4    0    0 -0.16949851712E+02  0.21751774612E+02  0.31141865452E+01  0.27751312220E+02  0.51100000000E-03 0. -1.
        -11    1    4    4    0    0 -0.10211133249E+02  0.13148130185E+02 -0.44111811101E+01  0.17222052393E+02  0.51100000000E-03 0.  1.
         12    1    4    4    0    0 -0.43351717217E-01 -0.12970131765E+01 -0.24967900667E+01  0.28139088807E+01  0.00000000000E+00 0. -1.
</event>
<event>
 8    1  0.4042158E-011  0.9118800E+02  0.7816164E-02  0.1184000E+00
        -11   -1    0    0    0    0  0.00000000000E+00  0.00000000000E+00  0.45593999997E+02  0.45594000000E+02  0.51100000000E-03 0. -1.
         11   -1    0    0    0    0 -0.00000000000E+00 -0.00000000000E+00 -0.45593999997E+02  0.45594000000E+02  0.51100000000E-03 0.  1.
         23    2    1    2    0    0 -0.35527136788E-14  0.00000000000E+00 -0.88817841970E-15  0.91188000000E+02  0.91188000000E+02 0.  0.
    9900012    2    3    3    0    0 -0.30131118548E+02 -0.30750611346E+02  0.54900382256E+01  0.47787252047E+02  0.19999913385E+02 0.  0.
        -12    1    3    3    0    0  0.30131118548E+02  0.30750611346E+02 -0.54900382256E+01  0.43400747953E+02  0.00000000000E+00 0.  1.
         11    1    4    4    0    0  0.19782736580E+00 -0.41170761425E+01  0.10976400717E+01  0.42654736687E+01  0.51100000000E-03 0. -1.
        -11    1    4    4    0    0 -0.16951198232E+02 -0.19940249610E+02 -0.38327432557E+01  0.26450833581E+02  0.51100000000E-03 0.  1.
         12    1    4    4    0    0 -0.13377747682E+02 -0.66932855943E+01  0.82251414096E+01  0.17070944798E+02  0.00000000000E+00 0. -1.
</event>
<event>
 8    1  0.4042158E-011  0.9118800E+02  0.7816164E-02  0.1184000E+00
        -11   -1    0    0    0    0  0.00000000000E+00  0.00000000000E+00  0.45593999997E+02  0.45594000000E+02  0.51100000000E-03 0. -1.
         11   -1    0    0    0    0 -0.00000000000E+00 -0.00000000000E+00 -0.45593999997E+02  0.45594000000E+02  0.51100000000E-03 0.  1.
         23    2    1    2    0    0 -0.17763568394E-14  0.44408920985E-15  0.71054273576E-14  0.91188000000E+02  0.91188000000E+02 0.  0.
    9900012    2    3    3    0    0  0.53278044816E+01 -0.26508843756E+01 -0.42990875621E+02  0.47787215730E+02  0.19999747798E+02 0.  0.
         12    1    3    3    0    0 -0.53278044816E+01  0.26508843756E+01  0.42990875621E+02  0.43400784270E+02  0.00000000000E+00 0. -1.
         11    1    4    4    0    0  0.58497944254E+01 -0.20379134317E+01 -0.79679412121E+01  0.10092634611E+02  0.51100000000E-03 0. -1.
        -11    1    4    4    0    0  0.62298381423E+01 -0.25790975645E+01 -0.20028688589E+02  0.21133172842E+02  0.51100000000E-03 0.  1.
         12    1    4    4    0    0 -0.67518280861E+01  0.19661266206E+01 -0.14994245820E+02  0.16561408277E+02  0.00000000000E+00 0. -1.
</event>
<event>
 8    1  0.4042158E-011  0.9118800E+02  0.7816164E-02  0.1184000E+00
        -11   -1    0    0    0    0  0.00000000000E+00  0.00000000000E+00  0.45593999997E+02  0.45594000000E+02  0.51100000000E-03 0. -1.
         11   -1    0    0    0    0 -0.00000000000E+00 -0.00000000000E+00 -0.45593999997E+02  0.45594000000E+02  0.51100000000E-03 0.  1.
         23    2    1    2    0    0  0.00000000000E+00  0.00000000000E+00  0.35527136788E-14  0.91188000000E+02  0.91188000000E+02 0.  0.
    9900012    2    3    3    0    0  0.22145175922E+02  0.21486985370E+02 -0.30520883201E+02  0.47787266500E+02  0.19999979281E+02 0.  0.
         12    1    3    3    0    0 -0.22145175922E+02 -0.21486985370E+02  0.30520883201E+02  0.43400733500E+02  0.00000000000E+00 0. -1.
         11    1    4    4    0    0  0.20434997165E+01  0.50418123110E+01 -0.98958388360E+01  0.11292625425E+02  0.51100000000E-03 0. -1.
        -11    1    4    4    0    0  0.19944128109E+02  0.12486684275E+02 -0.22086288809E+02  0.32272119295E+02  0.51100000000E-03 0.  1.
         12    1    4    4    0    0  0.15754809672E+00  0.39584887842E+01  0.14612444431E+01  0.42225217797E+01  0.00000000000E+00 0. -1.
</event>
<event>
 8    1  0.4042158E-011  0.9118800E+02  0.7816164E-02  0.1184000E+00
        -11   -1    0    0    0    0  0.00000000000E+00  0.00000000000E+00  0.45593999997E+02  0.45594000000E+02  0.51100000000E-03 0. -1.
         11   -1    0    0    0    0 -0.00000000000E+00 -0.00000000000E+00 -0.45593999997E+02  0.45594000000E+02  0.51100000000E-03 0.  1.
         23    2    1    2    0    0  0.00000000000E+00  0.66613381478E-15  0.13322676296E-14  0.91188000000E+02  0.91188000000E+02 0.  0.
    9900012    2    3    3    0    0  0.43300610738E+02  0.14205850818E+01 -0.25811646457E+01  0.47787270016E+02  0.19999995309E+02 0.  0.
         12    1    3    3    0    0 -0.43300610738E+02 -0.14205850818E+01  0.25811646457E+01  0.43400729984E+02  0.00000000000E+00 0. -1.
         11    1    4    4    0    0  0.79653038206E+00  0.22115878167E+01  0.14510453381E+01  0.27624471316E+01  0.51100000000E-03 0. -1.
        -11    1    4    4    0    0  0.13525466363E+02 -0.46350020826E+01  0.37363077130E+01  0.14777735964E+02  0.51100000000E-03 0.  1.
        -12    1    4    4    0    0  0.28978613993E+02  0.38439993477E+01 -0.77685176968E+01  0.30247086920E+02  0.00000000000E+00 0.  1.
</event>
<event>
 8    1  0.4042158E-011  0.9118800E+02  0.7816164E-02  0.1184000E+00
        -11   -1    0    0    0    0  0.00000000000E+00  0.00000000000E+00  0.45593999997E+02  0.45594000000E+02  0.51100000000E-03 0. -1.
         11   -1    0    0    0    0 -0.00000000000E+00 -0.00000000000E+00 -0.45593999997E+02  0.45594000000E+02  0.51100000000E-03 0.  1.
         23    2    1    2    0    0 -0.17763568394E-14  0.17763568394E-14  0.00000000000E+00  0.91188000000E+02  0.91188000000E+02 0.  0.
    9900012    2    3    3    0    0  0.11243439485E+02 -0.15092991003E+02  0.39107677092E+02  0.47787265946E+02  0.19999976755E+02 0.  0.
        -12    1    3    3    0    0 -0.11243439485E+02  0.15092991003E+02 -0.39107677092E+02  0.43400734054E+02  0.00000000000E+00 0.  1.
         11    1    4    4    0    0  0.54820944008E+01 -0.38199841066E+01  0.16152346412E+02  0.17479815001E+02  0.51100000000E-03 0. -1.
        -11    1    4    4    0    0 -0.38856510474E-01  0.32124429287E+01  0.98558100043E+00  0.33604567499E+01  0.51100000000E-03 0.  1.
         12    1    4    4    0    0  0.58002015943E+01 -0.14485449825E+02  0.21969749680E+02  0.26946994195E+02  0.00000000000E+00 0. -1.
</event>
<event>
 8    1  0.4042158E-011  0.9118800E+02  0.7816164E-02  0.1184000E+00
        -11   -1    0    0    0    0  0.00000000000E+00  0.00000000000E+00  0.45593999997E+02  0.45594000000E+02  0.51100000000E-03 0. -1.
         11   -1    0    0    0    0 -0.00000000000E+00 -0.00000000000E+00 -0.45593999997E+02  0.45594000000E+02  0.51100000000E-03 0.  1.
         23    2    1    2    0    0  0.00000000000E+00  0.00000000000E+00 -0.71054273576E-14  0.91188000000E+02  0.91188000000E+02 0.  0.
    9900012    2    3    3    0    0  0.21750705514E+02  0.26531810271E+02 -0.26581813341E+02  0.47787274809E+02  0.20000017164E+02 0.  0.
         12    1    3    3    0    0 -0.21750705514E+02 -0.26531810271E+02  0.26581813341E+02  0.43400725191E+02  0.00000000000E+00 0. -1.
         11    1    4    4    0    0  0.32312861747E+01  0.46783306547E+01 -0.92752972613E+01  0.10879298121E+02  0.51100000000E-03 0. -1.
        -11    1    4    4    0    0 -0.25879867134E+01  0.73992687724E+00 -0.20328441703E+01  0.33730731824E+01  0.51100000000E-03 0.  1.
        -12    1    4    4    0    0  0.21107406052E+02  0.21113552739E+02 -0.15273671910E+02  0.33534903506E+02  0.00000000000E+00 0.  1.
</event>
<event>
 8    1  0.4042158E-011  0.9118800E+02  0.7816164E-02  0.1184000E+00
        -11   -1    0    0    0    0  0.00000000000E+00  0.00000000000E+00  0.45593999997E+02  0.45594000000E+02  0.51100000000E-03 0. -1.
         11   -1    0    0    0    0 -0.00000000000E+00 -0.00000000000E+00 -0.45593999997E+02  0.45594000000E+02  0.51100000000E-03 0.  1.
         23    2    1    2    0    0  0.00000000000E+00 -0.88817841970E-15  0.00000000000E+00  0.91188000000E+02  0.91188000000E+02 0.  0.
    9900012    2    3    3    0    0 -0.81028695175E+01  0.74203938045E+01  0.41986942796E+02  0.47787284522E+02  0.20000061449E+02 0.  0.
        -12    1    3    3    0    0  0.81028695175E+01 -0.74203938045E+01 -0.41986942796E+02  0.43400715478E+02  0.00000000000E+00 0.  1.
         11    1    4    4    0    0  0.30160877452E+01  0.49436861721E+00  0.11296481770E+02  0.11702635868E+02  0.51100000000E-03 0. -1.
        -11    1    4    4    0    0 -0.42293538338E+01 -0.31008015662E+01  0.35233039631E+01  0.63179170050E+01  0.51100000000E-03 0.  1.
         12    1    4    4    0    0 -0.68896034289E+01  0.10026826754E+02  0.27167157063E+02  0.29766731649E+02  0.00000000000E+00 0. -1.
</event>
<event>
 8    1  0.5173180E-011  0.9118800E+02  0.7816164E-02  0.1184000E+00
        -11   -1    0    0    0    0  0.00000000000E+00  0.00000000000E+00  0.45593999997E+02  0.45594000000E+02  0.51100000000E-03 0. -1.
         11   -1    0    0    0    0 -0.00000000000E+00 -0.00000000000E+00 -0.45593999997E+02  0.45594000000E+02  0.51100000000E-03 0.  1.
         23    2    1    2    0    0  0.22204460493E-15  0.00000000000E+00  0.00000000000E+00  0.91188000000E+02  0.91188000000E+02 0.  0.
    9900012    2    3    3    0    0 -0.17876695042E+01  0.29546082141E+02  0.31740458484E+02  0.47787269166E+02  0.19999991436E+02 0.  0.
        -12    1    3    3    0    0  0.17876695042E+01 -0.29546082141E+02 -0.31740458484E+02  0.43400730834E+02  0.00000000000E+00 0.  1.
         11    1    4    4    0    0  0.14727041003E+01  0.13807075337E+02  0.18555020341E+02  0.23175266273E+02  0.51100000000E-03 0. -1.
        -11    1    4    4    0    0  0.11444663941E+01 -0.14777974823E+01  0.44148581688E+01  0.47942321218E+01  0.51100000000E-03 0.  1.
        -12    1    4    4    0    0 -0.44048399985E+01  0.17216804287E+02  0.87705799745E+01  0.19817770771E+02  0.00000000000E+00 0.  1.
</event>
<event>
 8    1  0.4042158E-011  0.9118800E+02  0.7816164E-02  0.1184000E+00
        -11   -1    0    0    0    0  0.00000000000E+00  0.00000000000E+00  0.45593999997E+02  0.45594000000E+02  0.51100000000E-03 0. -1.
         11   -1    0    0    0    0 -0.00000000000E+00 -0.00000000000E+00 -0.45593999997E+02  0.45594000000E+02  0.51100000000E-03 0.  1.
         23    2    1    2    0    0  0.00000000000E+00 -0.77715611724E-15  0.00000000000E+00  0.91188000000E+02  0.91188000000E+02 0.  0.
    9900012    2    3    3    0    0  0.24425258817E+02  0.66644856575E+00 -0.35869011601E+02  0.47787269416E+02  0.19999992577E+02 0.  0.
         12    1    3    3    0    0 -0.24425258817E+02 -0.66644856575E+00  0.35869011601E+02  0.43400730584E+02  0.00000000000E+00 0. -1.
         11    1    4    4    0    0  0.61309512420E+01 -0.26061147418E+01 -0.10093676010E+02  0.12093911396E+02  0.51100000000E-03 0. -1.
        -11    1    4    4    0    0 -0.31870116551E+00 -0.44428595157E+01 -0.58874006387E+01  0.73825508905E+01  0.51100000000E-03 0.  1.
         12    1    4    4    0    0  0.18613008741E+02  0.77154228232E+01 -0.19887934952E+02  0.28310807130E+02  0.00000000000E+00 0. -1.
</event>
<event>
 8    1  0.4042158E-011  0.9118800E+02  0.7816164E-02  0.1184000E+00
        -11   -1    0    0    0    0  0.00000000000E+00  0.00000000000E+00  0.45593999997E+02  0.45594000000E+02  0.51100000000E-03 0. -1.
         11   -1    0    0    0    0 -0.00000000000E+00 -0.00000000000E+00 -0.45593999997E+02  0.45594000000E+02  0.51100000000E-03 0.  1.
         23    2    1    2    0    0  0.00000000000E+00  0.00000000000E+00  0.00000000000E+00  0.91188000000E+02  0.91188000000E+02 0.  0.
    9900012    2    3    3    0    0 -0.24554395344E+02 -0.22473769059E+02 -0.27850218062E+02  0.47787271060E+02  0.20000000070E+02 0.  0.
         12    1    3    3    0    0  0.24554395344E+02  0.22473769059E+02  0.27850218062E+02  0.43400728940E+02  0.00000000000E+00 0. -1.
         11    1    4    4    0    0 -0.11597070008E+02 -0.12184575328E+02 -0.14667009377E+02  0.22317640400E+02  0.51100000000E-03 0. -1.
        -11    1    4    4    0    0 -0.15857987853E+02 -0.68715126168E+01 -0.10970362960E+02  0.20470523396E+02  0.51100000000E-03 0.  1.
         12    1    4    4    0    0  0.29006625163E+01 -0.34176811146E+01 -0.22128457244E+01  0.49991072637E+01  0.00000000000E+00 0. -1.
</event>
<event>
 8    1  0.4042158E-011  0.9118800E+02  0.7816164E-02  0.1184000E+00
        -11   -1    0    0    0    0  0.00000000000E+00  0.00000000000E+00  0.45593999997E+02  0.45594000000E+02  0.51100000000E-03 0. -1.
         11   -1    0    0    0    0 -0.00000000000E+00 -0.00000000000E+00 -0.45593999997E+02  0.45594000000E+02  0.51100000000E-03 0.  1.
         23    2    1    2    0    0  0.00000000000E+00 -0.35527136788E-14  0.00000000000E+00  0.91188000000E+02  0.91188000000E+02 0.  0.
    9900012    2    3    3    0    0 -0.58261289815E+01  0.19222745210E+02  0.38472921850E+02  0.47787269269E+02  0.19999991906E+02 0.  0.
        -12    1    3    3    0    0  0.58261289815E+01 -0.19222745210E+02 -0.38472921850E+02  0.43400730731E+02  0.00000000000E+00 0.  1.
         11    1    4    4    0    0 -0.24202532832E+01  0.18237460766E+01  0.12434377435E+01  0.32756393864E+01  0.51100000000E-03 0. -1.
        -11    1    4    4    0    0  0.19849986285E+01  0.50503368167E+00  0.18890158520E+02  0.19000878078E+02  0.51100000000E-03 0.  1.
         12    1    4    4    0    0 -0.53908743268E+01  0.16893965452E+02  0.18339325587E+02  0.25510751805E+02  0.00000000000E+00 0. -1.
</event>
<event>
 8    1  0.4042158E-011  0.9118800E+02  0.7816164E-02  0.1184000E+00
        -11   -1    0    0    0    0  0.00000000000E+00  0.00000000000E+00  0.45593999997E+02  0.45594000000E+02  0.51100000000E-03 0. -1.
         11   -1    0    0    0    0 -0.00000000000E+00 -0.00000000000E+00 -0.45593999997E+02  0.45594000000E+02  0.51100000000E-03 0.  1.
         23    2    1    2    0    0  0.00000000000E+00 -0.35527136788E-14  0.00000000000E+00  0.91188000000E+02  0.91188000000E+02 0.  0.
    9900012    2    3    3    0    0  0.26908659202E+01  0.27933537541E+02  0.33107392460E+02  0.47787277489E+02  0.20000029385E+02 0.  0.
        -12    1    3    3    0    0 -0.26908659202E+01 -0.27933537541E+02 -0.33107392460E+02  0.43400722511E+02  0.00000000000E+00 0.  1.
         11    1    4    4    0    0  0.31695885586E+00  0.11078532332E+02  0.61790701043E+01  0.12689178428E+02  0.51100000000E-03 0. -1.
        -11    1    4    4    0    0  0.28218694102E+01  0.34618495188E+01 -0.57569236029E+00  0.45031956446E+01  0.51100000000E-03 0.  1.
        -12    1    4    4    0    0 -0.44796234591E+00  0.13393155690E+02  0.27504014716E+02  0.30594903417E+02  0.00000000000E+00 0.  1.
</event>
<event>
 8    1  0.4042158E-011  0.9118800E+02  0.7816164E-02  0.1184000E+00
        -11   -1    0    0    0    0  0.00000000000E+00  0.00000000000E+00  0.45593999997E+02  0.45594000000E+02  0.51100000000E-03 0.  1.
         11   -1    0    0    0    0 -0.00000000000E+00 -0.00000000000E+00 -0.45593999997E+02  0.45594000000E+02  0.51100000000E-03 0. -1.
         23    2    1    2    0    0  0.00000000000E+00 -0.17763568394E-14  0.35527136788E-14  0.91188000000E+02  0.91188000000E+02 0.  0.
    9900012    2    3    3    0    0 -0.35746350987E+02  0.11724108511E+02 -0.21641800361E+02  0.47787264383E+02  0.19999969627E+02 0.  0.
        -12    1    3    3    0    0  0.35746350987E+02 -0.11724108511E+02  0.21641800361E+02  0.43400735617E+02  0.00000000000E+00 0.  1.
         11    1    4    4    0    0 -0.13607964615E+00  0.19062856261E+01 -0.23632216736E+01  0.30392860178E+01  0.51100000000E-03 0. -1.
        -11    1    4    4    0    0 -0.88846559684E+01 -0.35998992821E+01 -0.89358822094E+01  0.13105204220E+02  0.51100000000E-03 0.  1.
         12    1    4    4    0    0 -0.26725615372E+02  0.13417722167E+02 -0.10342696478E+02  0.31642774145E+02  0.00000000000E+00 0. -1.
</event>
<event>
 8    1  0.4042158E-011  0.9118800E+02  0.7816164E-02  0.1184000E+00
        -11   -1    0    0    0    0  0.00000000000E+00  0.00000000000E+00  0.45593999997E+02  0.45594000000E+02  0.51100000000E-03 0. -1.
         11   -1    0    0    0    0 -0.00000000000E+00 -0.00000000000E+00 -0.45593999997E+02  0.45594000000E+02  0.51100000000E-03 0.  1.
         23    2    1    2    0    0  0.00000000000E+00  0.00000000000E+00 -0.71054273576E-14  0.91188000000E+02  0.91188000000E+02 0.  0.
    9900012    2    3    3    0    0 -0.16350969263E+02  0.20940864489E+02  0.34318352532E+02  0.47787270491E+02  0.19999997477E+02 0.  0.
        -12    1    3    3    0    0  0.16350969263E+02 -0.20940864489E+02 -0.34318352532E+02  0.43400729509E+02  0.00000000000E+00 0.  1.
         11    1    4    4    0    0 -0.35281804002E+01  0.63841939437E+00  0.18973204388E+01  0.40565331711E+01  0.51100000000E-03 0. -1.
        -11    1    4    4    0    0 -0.18826794773E+01  0.18245634674E+01 -0.19053742522E+01  0.32409821294E+01  0.51100000000E-03 0.  1.
         12    1    4    4    0    0 -0.10940109385E+02  0.18477881627E+02  0.34326406345E+02  0.40489755191E+02  0.00000000000E+00 0. -1.
</event>
<event>
 8    1  0.4042158E-011  0.9118800E+02  0.7816164E-02  0.1184000E+00
        -11   -1    0    0    0    0  0.00000000000E+00  0.00000000000E+00  0.45593999997E+02  0.45594000000E+02  0.51100000000E-03 0. -1.
         11   -1    0    0    0    0 -0.00000000000E+00 -0.00000000000E+00 -0.45593999997E+02  0.45594000000E+02  0.51100000000E-03 0.  1.
         23    2    1    2    0    0  0.49960036108E-15  0.00000000000E+00  0.00000000000E+00  0.91188000000E+02  0.91188000000E+02 0.  0.
    9900012    2    3    3    0    0  0.37481876954E+00  0.24974472189E+02  0.35493080490E+02  0.47787268291E+02  0.19999987445E+02 0.  0.
        -12    1    3    3    0    0 -0.37481876954E+00 -0.24974472189E+02 -0.35493080490E+02  0.43400731709E+02  0.00000000000E+00 0.  1.
         11    1    4    4    0    0  0.43861246834E+01  0.14426913731E+02  0.66720171580E+01  0.16489079500E+02  0.51100000000E-03 0. -1.
        -11    1    4    4    0    0  0.15339434029E+00 -0.12843827074E+00 -0.74291933749E-01  0.21341453925E+00  0.51100000000E-03 0.  1.
        -12    1    4    4    0    0 -0.41647002542E+01  0.10675996729E+02  0.28895355265E+02  0.31084774252E+02  0.00000000000E+00 0.  1.
</event>
<event>
 8    1  0.4042158E-011  0.9118800E+02  0.7816164E-02  0.1184000E+00
        -11   -1    0    0    0    0  0.00000000000E+00  0.00000000000E+00  0.45593999997E+02  0.45594000000E+02  0.51100000000E-03 0. -1.
         11   -1    0    0    0    0 -0.00000000000E+00 -0.00000000000E+00 -0.45593999997E+02  0.45594000000E+02  0.51100000000E-03 0.  1.
         23    2    1    2    0    0  0.00000000000E+00 -0.17763568394E-14 -0.71054273576E-14  0.91188000000E+02  0.91188000000E+02 0.  0.
    9900012    2    3    3    0    0  0.42524757142E+01  0.15528700834E+02 -0.40303834974E+02  0.47787271747E+02  0.20000003203E+02 0.  0.
         12    1    3    3    0    0 -0.42524757142E+01 -0.15528700834E+02  0.40303834974E+02  0.43400728253E+02  0.00000000000E+00 0. -1.
         11    1    4    4    0    0 -0.55642889656E+01  0.66516083248E+01 -0.56504831516E+01  0.10350515210E+02  0.51100000000E-03 0. -1.
        -11    1    4    4    0    0  0.80357455190E+00  0.13820376990E+01 -0.10134175299E+02  0.10259496552E+02  0.51100000000E-03 0.  1.
         12    1    4    4    0    0  0.90131901279E+01  0.74950548098E+01 -0.24519176524E+02  0.27177259985E+02  0.00000000000E+00 0. -1.
</event>
<event>
 8    1  0.4042158E-011  0.9118800E+02  0.7816164E-02  0.1184000E+00
        -11   -1    0    0    0    0  0.00000000000E+00  0.00000000000E+00  0.45593999997E+02  0.45594000000E+02  0.51100000000E-03 0. -1.
         11   -1    0    0    0    0 -0.00000000000E+00 -0.00000000000E+00 -0.45593999997E+02  0.45594000000E+02  0.51100000000E-03 0.  1.
         23    2    1    2    0    0  0.00000000000E+00 -0.88817841970E-15  0.00000000000E+00  0.91188000000E+02  0.91188000000E+02 0.  0.
    9900012    2    3    3    0    0  0.84021533500E+01 -0.48927086827E+01  0.42297617997E+02  0.47787271119E+02  0.20000000340E+02 0.  0.
        -12    1    3    3    0    0 -0.84021533500E+01  0.48927086827E+01 -0.42297617997E+02  0.43400728881E+02  0.00000000000E+00 0.  1.
         11    1    4    4    0    0  0.17132416471E+01  0.44877490141E+00 -0.75182690257E+00  0.19240165815E+01  0.51100000000E-03 0. -1.
        -11    1    4    4    0    0 -0.31309603605E+01  0.10850862957E+01  0.16593237555E+02  0.16920870482E+02  0.51100000000E-03 0.  1.
         12    1    4    4    0    0  0.98198720635E+01 -0.64265698798E+01  0.26456207345E+02  0.28942384056E+02  0.00000000000E+00 0. -1.
</event>
<event>
 8    1  0.4042158E-011  0.9118800E+02  0.7816164E-02  0.1184000E+00
        -11   -1    0    0    0    0  0.00000000000E+00  0.00000000000E+00  0.45593999997E+02  0.45594000000E+02  0.51100000000E-03 0. -1.
         11   -1    0    0    0    0 -0.00000000000E+00 -0.00000000000E+00 -0.45593999997E+02  0.45594000000E+02  0.51100000000E-03 0.  1.
         23    2    1    2    0    0  0.00000000000E+00  0.00000000000E+00  0.71054273576E-14  0.91188000000E+02  0.91188000000E+02 0.  0.
    9900012    2    3    3    0    0 -0.50043424407E+01  0.12598451477E+02 -0.41229350375E+02  0.47787265499E+02  0.19999974716E+02 0.  0.
         12    1    3    3    0    0  0.50043424407E+01 -0.12598451477E+02  0.41229350375E+02  0.43400734501E+02  0.00000000000E+00 0. -1.
         11    1    4    4    0    0  0.45353917394E+01 -0.91614237893E+00 -0.99932366642E+01  0.11012441799E+02  0.51100000000E-03 0. -1.
        -11    1    4    4    0    0  0.94382554864E+00 -0.30675295098E+00  0.58041608418E-01  0.99411927284E+00  0.51100000000E-03 0.  1.
        -12    1    4    4    0    0 -0.10483559729E+02  0.13821346807E+02 -0.31294155319E+02  0.35780704427E+02  0.00000000000E+00 0.  1.
</event>
<event>
 8    1  0.4042158E-011  0.9118800E+02  0.7816164E-02  0.1184000E+00
        -11   -1    0    0    0    0  0.00000000000E+00  0.00000000000E+00  0.45593999997E+02  0.45594000000E+02  0.51100000000E-03 0. -1.
         11   -1    0    0    0    0 -0.00000000000E+00 -0.00000000000E+00 -0.45593999997E+02  0.45594000000E+02  0.51100000000E-03 0.  1.
         23    2    1    2    0    0  0.11657341759E-14 -0.71054273576E-14  0.00000000000E+00  0.91188000000E+02  0.91188000000E+02 0.  0.
    9900012    2    3    3    0    0  0.17704773973E+00  0.41558426006E+02 -0.12509567115E+02  0.47787269737E+02  0.19999994037E+02 0.  0.
         12    1    3    3    0    0 -0.17704773973E+00 -0.41558426006E+02  0.12509567115E+02  0.43400730263E+02  0.00000000000E+00 0. -1.
         11    1    4    4    0    0  0.52215145262E+01  0.10825679023E+02 -0.74546910783E+00  0.12042228395E+02  0.51100000000E-03 0. -1.
        -11    1    4    4    0    0  0.38378024646E+01  0.15175466795E+02 -0.73604505223E+01  0.17297391490E+02  0.51100000000E-03 0.  1.
        -12    1    4    4    0    0 -0.88822692511E+01  0.15557280188E+02 -0.44036474848E+01  0.18447649852E+02  0.00000000000E+00 0.  1.
</event>
<event>
 8    1  0.4042158E-011  0.9118800E+02  0.7816164E-02  0.1184000E+00
        -11   -1    0    0    0    0  0.00000000000E+00  0.00000000000E+00  0.45593999997E+02  0.45594000000E+02  0.51100000000E-03 0.  1.
         11   -1    0    0    0    0 -0.00000000000E+00 -0.00000000000E+00 -0.45593999997E+02  0.45594000000E+02  0.51100000000E-03 0. -1.
         23    2    1    2    0    0 -0.35527136788E-14 -0.35527136788E-14 -0.35527136788E-14  0.91188000000E+02  0.91188000000E+02 0.  0.
    9900012    2    3    3    0    0  0.22525461699E+02  0.30451806155E+02  0.21187579773E+02  0.47787280426E+02  0.20000042776E+02 0.  0.
        -12    1    3    3    0    0 -0.22525461699E+02 -0.30451806155E+02 -0.21187579773E+02  0.43400719574E+02  0.00000000000E+00 0.  1.
         11    1    4    4    0    0  0.10255408193E+02  0.38682610534E+01  0.17256960821E+01  0.11095713948E+02  0.51100000000E-03 0. -1.
        -11    1    4    4    0    0  0.53132664036E+01  0.50594458961E+01  0.94259847757E+01  0.11944788902E+02  0.51100000000E-03 0.  1.
        -12    1    4    4    0    0  0.69567871026E+01  0.21524099205E+02  0.10035898915E+02  0.24746777577E+02  0.00000000000E+00 0.  1.
</event>
<event>
 8    1  0.4042158E-011  0.9118800E+02  0.7816164E-02  0.1184000E+00
        -11   -1    0    0    0    0  0.00000000000E+00  0.00000000000E+00  0.45593999997E+02  0.45594000000E+02  0.51100000000E-03 0. -1.
         11   -1    0    0    0    0 -0.00000000000E+00 -0.00000000000E+00 -0.45593999997E+02  0.45594000000E+02  0.51100000000E-03 0.  1.
         23    2    1    2    0    0  0.00000000000E+00  0.00000000000E+00 -0.35527136788E-14  0.91188000000E+02  0.91188000000E+02 0.  0.
    9900012    2    3    3    0    0  0.35026687071E+02  0.83319727398E+01  0.24234949161E+02  0.47787270308E+02  0.19999996643E+02 0.  0.
        -12    1    3    3    0    0 -0.35026687071E+02 -0.83319727398E+01 -0.24234949161E+02  0.43400729692E+02  0.00000000000E+00 0.  1.
         11    1    4    4    0    0  0.59764508599E+01  0.15716421870E+01  0.96951584164E+01  0.11497135340E+02  0.51100000000E-03 0. -1.
        -11    1    4    4    0    0  0.23133337910E+02  0.10216143561E+02  0.15034107239E+02  0.29420151136E+02  0.51100000000E-03 0.  1.
         12    1    4    4    0    0  0.59168983017E+01 -0.34558130085E+01 -0.49431649425E+00  0.68699838325E+01  0.00000000000E+00 0. -1.
</event>
<event>
 8    1  0.4042158E-011  0.9118800E+02  0.7816164E-02  0.1184000E+00
        -11   -1    0    0    0    0  0.00000000000E+00  0.00000000000E+00  0.45593999997E+02  0.45594000000E+02  0.51100000000E-03 0. -1.
         11   -1    0    0    0    0 -0.00000000000E+00 -0.00000000000E+00 -0.45593999997E+02  0.45594000000E+02  0.51100000000E-03 0.  1.
         23    2    1    2    0    0  0.00000000000E+00  0.17763568394E-14  0.00000000000E+00  0.91188000000E+02  0.91188000000E+02 0.  0.
    9900012    2    3    3    0    0 -0.35570915360E+02 -0.82070568224E+01 -0.23472911736E+02  0.47787269746E+02  0.19999994080E+02 0.  0.
         12    1    3    3    0    0  0.35570915360E+02  0.82070568224E+01  0.23472911736E+02  0.43400730254E+02  0.00000000000E+00 0. -1.
         11    1    4    4    0    0  0.14066037914E+01  0.17308792203E+01 -0.20441621642E+01  0.30254051491E+01  0.51100000000E-03 0. -1.
        -11    1    4    4    0    0 -0.63615697445E+01  0.14019161068E+01 -0.22220268112E+01  0.68827568456E+01  0.51100000000E-03 0.  1.
        -12    1    4    4    0    0 -0.30615949407E+02 -0.11339852150E+02 -0.19206722760E+02  0.37879107751E+02  0.00000000000E+00 0.  1.
</event>
<event>
 8    1  0.4042158E-011  0.9118800E+02  0.7816164E-02  0.1184000E+00
        -11   -1    0    0    0    0  0.00000000000E+00  0.00000000000E+00  0.45593999997E+02  0.45594000000E+02  0.51100000000E-03 0. -1.
         11   -1    0    0    0    0 -0.00000000000E+00 -0.00000000000E+00 -0.45593999997E+02  0.45594000000E+02  0.51100000000E-03 0.  1.
         23    2    1    2    0    0  0.00000000000E+00  0.00000000000E+00  0.00000000000E+00  0.91188000000E+02  0.91188000000E+02 0.  0.
    9900012    2    3    3    0    0 -0.57907012225E+01  0.51176655520E+01 -0.42707138680E+02  0.47787280933E+02  0.20000045084E+02 0.  0.
         12    1    3    3    0    0  0.57907012225E+01 -0.51176655520E+01  0.42707138680E+02  0.43400719067E+02  0.00000000000E+00 0. -1.
         11    1    4    4    0    0  0.21321566651E+00  0.13107167833E+01 -0.84752128373E+01  0.85786171557E+01  0.51100000000E-03 0.  1.
        -11    1    4    4    0    0 -0.14601413785E+01  0.10465138494E+02 -0.14927253643E+02  0.18288631390E+02  0.51100000000E-03 0. -1.
         12    1    4    4    0    0 -0.45437755106E+01 -0.66581897258E+01 -0.19304672200E+02  0.20920032386E+02  0.00000000000E+00 0. -1.
</event>
<event>
 8    1  0.4042158E-011  0.9118800E+02  0.7816164E-02  0.1184000E+00
        -11   -1    0    0    0    0  0.00000000000E+00  0.00000000000E+00  0.45593999997E+02  0.45594000000E+02  0.51100000000E-03 0. -1.
         11   -1    0    0    0    0 -0.00000000000E+00 -0.00000000000E+00 -0.45593999997E+02  0.45594000000E+02  0.51100000000E-03 0.  1.
         23    2    1    2    0    0  0.17763568394E-14  0.35527136788E-14  0.00000000000E+00  0.91188000000E+02  0.91188000000E+02 0.  0.
    9900012    2    3    3    0    0 -0.15287162727E+02 -0.19916495882E+02  0.35401409944E+02  0.47787262927E+02  0.19999962991E+02 0.  0.
        -12    1    3    3    0    0  0.15287162727E+02  0.19916495882E+02 -0.35401409944E+02  0.43400737073E+02  0.00000000000E+00 0.  1.
         11    1    4    4    0    0 -0.33608054762E+01 -0.59771072828E-01  0.10584790056E+02  0.11105690740E+02  0.51100000000E-03 0. -1.
        -11    1    4    4    0    0  0.20573933048E+00 -0.87708347898E+01  0.15445499362E+02  0.17763257651E+02  0.51100000000E-03 0.  1.
         12    1    4    4    0    0 -0.12132096581E+02 -0.11085890019E+02  0.93711205260E+01  0.18918314536E+02  0.00000000000E+00 0. -1.
</event>
<event>
 8    1  0.4042158E-011  0.9118800E+02  0.7816164E-02  0.1184000E+00
        -11   -1    0    0    0    0  0.00000000000E+00  0.00000000000E+00  0.45593999997E+02  0.45594000000E+02  0.51100000000E-03 0.  1.
         11   -1    0    0    0    0 -0.00000000000E+00 -0.00000000000E+00 -0.45593999997E+02  0.45594000000E+02  0.51100000000E-03 0. -1.
         23    2    1    2    0    0  0.17763568394E-14  0.71054273576E-14 -0.17763568394E-14  0.91188000000E+02  0.91188000000E+02 0.  0.
    9900012    2    3    3    0    0 -0.71360682456E+01 -0.40348574831E+02  0.14307083073E+02  0.47787267437E+02  0.19999983554E+02 0.  0.
        -12    1    3    3    0    0  0.71360682456E+01  0.40348574831E+02 -0.14307083073E+02  0.43400732563E+02  0.00000000000E+00 0.  1.
         11    1    4    4    0    0 -0.99039262397E+01 -0.28150214320E+02  0.33666232275E+01  0.30030925284E+02  0.51100000000E-03 0. -1.
        -11    1    4    4    0    0 -0.96831140164E+00  0.14902237312E+00  0.14121187359E+01  0.17186955005E+01  0.51100000000E-03 0.  1.
         12    1    4    4    0    0  0.37361693957E+01 -0.12347382885E+02  0.95283411099E+01  0.16037646653E+02  0.00000000000E+00 0. -1.
</event>
<event>
 8    1  0.4247276E-011  0.9118800E+02  0.7816164E-02  0.1184000E+00
        -11   -1    0    0    0    0  0.00000000000E+00  0.00000000000E+00  0.45593999997E+02  0.45594000000E+02  0.51100000000E-03 0. -1.
         11   -1    0    0    0    0 -0.00000000000E+00 -0.00000000000E+00 -0.45593999997E+02  0.45594000000E+02  0.51100000000E-03 0.  1.
         23    2    1    2    0    0  0.88817841970E-15 -0.71054273576E-14  0.00000000000E+00  0.91188000000E+02  0.91188000000E+02 0.  0.
    9900012    2    3    3    0    0  0.61812350353E+01 -0.38765009049E+02  0.18511881399E+02  0.47787270213E+02  0.19999996209E+02 0.  0.
        -12    1    3    3    0    0 -0.61812350353E+01  0.38765009049E+02 -0.18511881399E+02  0.43400729787E+02  0.00000000000E+00 0.  1.
         11    1    4    4    0    0  0.42822467613E+01 -0.30288610038E+02  0.17988996948E+02  0.35487202578E+02  0.51100000000E-03 0. -1.
        -11    1    4    4    0    0  0.38651154659E+01 -0.77629702387E+00  0.16494608102E+01  0.42734618121E+01  0.51100000000E-03 0.  1.
        -12    1    4    4    0    0 -0.19661271918E+01 -0.77001019866E+01 -0.11265763590E+01  0.80266058225E+01  0.00000000000E+00 0.  1.
</event>
<event>
 8    1  0.4042158E-011  0.9118800E+02  0.7816164E-02  0.1184000E+00
        -11   -1    0    0    0    0  0.00000000000E+00  0.00000000000E+00  0.45593999997E+02  0.45594000000E+02  0.51100000000E-03 0. -1.
         11   -1    0    0    0    0 -0.00000000000E+00 -0.00000000000E+00 -0.45593999997E+02  0.45594000000E+02  0.51100000000E-03 0.  1.
         23    2    1    2    0    0 -0.17763568394E-14  0.00000000000E+00 -0.71054273576E-14  0.91188000000E+02  0.91188000000E+02 0.  0.
    9900012    2    3    3    0    0 -0.15502158392E+02 -0.22150383199E+02 -0.33950914951E+02  0.47787297048E+02  0.20000118561E+02 0.  0.
         12    1    3    3    0    0  0.15502158392E+02  0.22150383199E+02  0.33950914951E+02  0.43400702952E+02  0.00000000000E+00 0. -1.
         11    1    4    4    0    0 -0.53854186326E+01 -0.45157975435E+01 -0.11681547360E+02  0.13632817401E+02  0.51100000000E-03 0. -1.
        -11    1    4    4    0    0 -0.12268817948E+02 -0.19040661865E+02 -0.21988615924E+02  0.31568495824E+02  0.51100000000E-03 0.  1.
         12    1    4    4    0    0  0.21520781884E+01  0.14060762092E+01 -0.28075166743E+00  0.25859838231E+01  0.00000000000E+00 0. -1.
</event>
<event>
 8    1  0.4042158E-011  0.9118800E+02  0.7816164E-02  0.1184000E+00
        -11   -1    0    0    0    0  0.00000000000E+00  0.00000000000E+00  0.45593999997E+02  0.45594000000E+02  0.51100000000E-03 0. -1.
         11   -1    0    0    0    0 -0.00000000000E+00 -0.00000000000E+00 -0.45593999997E+02  0.45594000000E+02  0.51100000000E-03 0.  1.
         23    2    1    2    0    0  0.00000000000E+00 -0.71054273576E-14  0.00000000000E+00  0.91188000000E+02  0.91188000000E+02 0.  0.
    9900012    2    3    3    0    0  0.52854485429E+01  0.32795325350E+02  0.27931249344E+02  0.47787262437E+02  0.19999960755E+02 0.  0.
        -12    1    3    3    0    0 -0.52854485429E+01 -0.32795325350E+02 -0.27931249344E+02  0.43400737563E+02  0.00000000000E+00 0.  1.
         11    1    4    4    0    0  0.87460325641E+01  0.13116625880E+02  0.67197466671E+01  0.17137501441E+02  0.51100000000E-03 0.  1.
        -11    1    4    4    0    0  0.27391026476E+01  0.57885727476E+01  0.34818528149E+01  0.72892768540E+01  0.51100000000E-03 0. -1.
        -12    1    4    4    0    0 -0.61996866687E+01  0.13890126722E+02  0.17729649862E+02  0.23360484142E+02  0.00000000000E+00 0.  1.
</event>
<event>
 8    1  0.4309318E-011  0.9118800E+02  0.7816164E-02  0.1184000E+00
        -11   -1    0    0    0    0  0.00000000000E+00  0.00000000000E+00  0.45593999997E+02  0.45594000000E+02  0.51100000000E-03 0. -1.
         11   -1    0    0    0    0 -0.00000000000E+00 -0.00000000000E+00 -0.45593999997E+02  0.45594000000E+02  0.51100000000E-03 0.  1.
         23    2    1    2    0    0  0.17763568394E-14  0.00000000000E+00  0.00000000000E+00  0.91188000000E+02  0.91188000000E+02 0.  0.
    9900012    2    3    3    0    0 -0.77166275595E+01 -0.96174491939E+01  0.41612276053E+02  0.47787272032E+02  0.20000004501E+02 0.  0.
        -12    1    3    3    0    0  0.77166275595E+01  0.96174491939E+01 -0.41612276053E+02  0.43400727968E+02  0.00000000000E+00 0.  1.
         11    1    4    4    0    0 -0.25190534135E+01 -0.61668913134E+01  0.24447179587E+02  0.25338523410E+02  0.51100000000E-03 0. -1.
        -11    1    4    4    0    0 -0.70228896033E+01  0.56933304098E+00  0.16554831489E+02  0.17991874955E+02  0.51100000000E-03 0.  1.
        -12    1    4    4    0    0  0.18253154573E+01 -0.40198909215E+01  0.61026497608E+00  0.44568736667E+01  0.00000000000E+00 0.  1.
</event>
<event>
 8    1  0.4042158E-011  0.9118800E+02  0.7816164E-02  0.1184000E+00
        -11   -1    0    0    0    0  0.00000000000E+00  0.00000000000E+00  0.45593999997E+02  0.45594000000E+02  0.51100000000E-03 0. -1.
         11   -1    0    0    0    0 -0.00000000000E+00 -0.00000000000E+00 -0.45593999997E+02  0.45594000000E+02  0.51100000000E-03 0.  1.
         23    2    1    2    0    0  0.00000000000E+00  0.00000000000E+00  0.00000000000E+00  0.91188000000E+02  0.91188000000E+02 0.  0.
    9900012    2    3    3    0    0  0.16138914756E+02 -0.34015982831E+02 -0.21588693213E+02  0.47787270374E+02  0.19999996942E+02 0.  0.
         12    1    3    3    0    0 -0.16138914756E+02  0.34015982831E+02  0.21588693213E+02  0.43400729626E+02  0.00000000000E+00 0. -1.
         11    1    4    4    0    0 -0.23356049886E+01 -0.19181231717E+01 -0.11793734731E+01  0.32442517188E+01  0.51100000000E-03 0. -1.
        -11    1    4    4    0    0  0.69404360053E+01 -0.11291395748E+02 -0.15242190313E+02  0.20198753320E+02  0.51100000000E-03 0.  1.
        -12    1    4    4    0    0  0.11534083739E+02 -0.20806463911E+02 -0.51671294268E+01  0.24344265335E+02  0.00000000000E+00 0.  1.
</event>
<event>
 8    1  0.4042158E-011  0.9118800E+02  0.7816164E-02  0.1184000E+00
        -11   -1    0    0    0    0  0.00000000000E+00  0.00000000000E+00  0.45593999997E+02  0.45594000000E+02  0.51100000000E-03 0. -1.
         11   -1    0    0    0    0 -0.00000000000E+00 -0.00000000000E+00 -0.45593999997E+02  0.45594000000E+02  0.51100000000E-03 0.  1.
         23    2    1    2    0    0 -0.71054273576E-14  0.00000000000E+00  0.00000000000E+00  0.91188000000E+02  0.91188000000E+02 0.  0.
    9900012    2    3    3    0    0 -0.31512328999E+02 -0.22205848935E+02  0.19937312215E+02  0.47787273920E+02  0.20000013113E+02 0.  0.
        -12    1    3    3    0    0  0.31512328999E+02  0.22205848935E+02 -0.19937312215E+02  0.43400726080E+02  0.00000000000E+00 0.  1.
         11    1    4    4    0    0 -0.11843665728E+02 -0.12205933961E+02  0.69336359856E+01  0.18366615093E+02  0.51100000000E-03 0. -1.
        -11    1    4    4    0    0 -0.17414178176E+02 -0.70493244882E+01  0.15978328924E+02  0.24662797342E+02  0.51100000000E-03 0.  1.
         12    1    4    4    0    0 -0.22544850959E+01 -0.29505904854E+01 -0.29746526946E+01  0.47578614853E+01  0.00000000000E+00 0. -1.
</event>
<event>
 8    1  0.5220338E-011  0.9118800E+02  0.7816164E-02  0.1184000E+00
        -11   -1    0    0    0    0  0.00000000000E+00  0.00000000000E+00  0.45593999997E+02  0.45594000000E+02  0.51100000000E-03 0. -1.
         11   -1    0    0    0    0 -0.00000000000E+00 -0.00000000000E+00 -0.45593999997E+02  0.45594000000E+02  0.51100000000E-03 0.  1.
         23    2    1    2    0    0  0.00000000000E+00  0.00000000000E+00  0.71054273576E-14  0.91188000000E+02  0.91188000000E+02 0.  0.
    9900012    2    3    3    0    0  0.40928741095E+01 -0.83083576734E+01  0.42400976371E+02  0.47787271632E+02  0.20000002677E+02 0.  0.
        -12    1    3    3    0    0 -0.40928741095E+01  0.83083576734E+01 -0.42400976371E+02  0.43400728368E+02  0.00000000000E+00 0.  1.
         11    1    4    4    0    0  0.35932567735E+01 -0.81832590979E+01  0.14754071551E+02  0.17249923226E+02  0.51100000000E-03 0.  1.
        -11    1    4    4    0    0  0.25554972103E+01 -0.26427292381E+01  0.26967224036E+02  0.27216644839E+02  0.51100000000E-03 0. -1.
        -12    1    4    4    0    0 -0.20558798743E+01  0.25176306626E+01  0.67968078376E+00  0.33207035668E+01  0.00000000000E+00 0.  1.
</event>
<event>
 8    1  0.4042158E-011  0.9118800E+02  0.7816164E-02  0.1184000E+00
        -11   -1    0    0    0    0  0.00000000000E+00  0.00000000000E+00  0.45593999997E+02  0.45594000000E+02  0.51100000000E-03 0. -1.
         11   -1    0    0    0    0 -0.00000000000E+00 -0.00000000000E+00 -0.45593999997E+02  0.45594000000E+02  0.51100000000E-03 0.  1.
         23    2    1    2    0    0 -0.17763568394E-14  0.88817841970E-15  0.71054273576E-14  0.91188000000E+02  0.91188000000E+02 0.  0.
    9900012    2    3    3    0    0  0.14797184292E+02 -0.36891312947E+01 -0.40633200105E+02  0.47787270704E+02  0.19999998447E+02 0.  0.
         12    1    3    3    0    0 -0.14797184292E+02  0.36891312947E+01  0.40633200105E+02  0.43400729296E+02  0.00000000000E+00 0. -1.
         11    1    4    4    0    0  0.40563776656E+00 -0.60720021568E+01 -0.55251512149E+01  0.82195528101E+01  0.51100000000E-03 0. -1.
        -11    1    4    4    0    0  0.70853729714E+01 -0.27506785418E+01 -0.24756737871E+02  0.25897197008E+02  0.51100000000E-03 0.  1.
         12    1    4    4    0    0  0.73061735541E+01  0.51335494038E+01 -0.10351311019E+02  0.13670520886E+02  0.00000000000E+00 0. -1.
</event>
<event>
 8    1  0.4042158E-011  0.9118800E+02  0.7816164E-02  0.1184000E+00
        -11   -1    0    0    0    0  0.00000000000E+00  0.00000000000E+00  0.45593999997E+02  0.45594000000E+02  0.51100000000E-03 0. -1.
         11   -1    0    0    0    0 -0.00000000000E+00 -0.00000000000E+00 -0.45593999997E+02  0.45594000000E+02  0.51100000000E-03 0.  1.
         23    2    1    2    0    0  0.00000000000E+00  0.00000000000E+00 -0.11102230246E-15  0.91188000000E+02  0.91188000000E+02 0.  0.
    9900012    2    3    3    0    0  0.11342934326E+02 -0.41890184619E+02 -0.41722205099E+00  0.47787264974E+02  0.19999972323E+02 0.  0.
         12    1    3    3    0    0 -0.11342934326E+02  0.41890184619E+02  0.41722205099E+00  0.43400735026E+02  0.00000000000E+00 0. -1.
         11    1    4    4    0    0 -0.70599968309E+00 -0.44975685119E+01 -0.40431779494E+01  0.60888296300E+01  0.51100000000E-03 0. -1.
        -11    1    4    4    0    0  0.29710857521E+01 -0.23054137941E+01  0.39508249677E+01  0.54544753638E+01  0.51100000000E-03 0.  1.
        -12    1    4    4    0    0  0.90778482569E+01 -0.35087202313E+02 -0.32486906931E+00  0.36243959980E+02  0.00000000000E+00 0.  1.
</event>
<event>
 8    1  0.4042158E-011  0.9118800E+02  0.7816164E-02  0.1184000E+00
        -11   -1    0    0    0    0  0.00000000000E+00  0.00000000000E+00  0.45593999997E+02  0.45594000000E+02  0.51100000000E-03 0. -1.
         11   -1    0    0    0    0 -0.00000000000E+00 -0.00000000000E+00 -0.45593999997E+02  0.45594000000E+02  0.51100000000E-03 0.  1.
         23    2    1    2    0    0  0.17763568394E-14  0.00000000000E+00  0.00000000000E+00  0.91188000000E+02  0.91188000000E+02 0.  0.
    9900012    2    3    3    0    0 -0.89658220028E+01 -0.10891072061E+02 -0.41044143260E+02  0.47787272923E+02  0.20000008566E+02 0.  0.
         12    1    3    3    0    0  0.89658220028E+01  0.10891072061E+02  0.41044143260E+02  0.43400727077E+02  0.00000000000E+00 0. -1.
         11    1    4    4    0    0 -0.67713321845E+01 -0.79705084850E+01 -0.11446411416E+02  0.15504846972E+02  0.51100000000E-03 0. -1.
        -11    1    4    4    0    0 -0.38665292803E+01 -0.12699727503E+01 -0.19108321110E+01  0.44960159118E+01  0.51100000000E-03 0.  1.
        -12    1    4    4    0    0  0.16720394620E+01 -0.16505908258E+01 -0.27686899733E+02  0.27786410039E+02  0.00000000000E+00 0.  1.
</event>
<event>
 8    1  0.4042158E-011  0.9118800E+02  0.7816164E-02  0.1184000E+00
        -11   -1    0    0    0    0  0.00000000000E+00  0.00000000000E+00  0.45593999997E+02  0.45594000000E+02  0.51100000000E-03 0. -1.
         11   -1    0    0    0    0 -0.00000000000E+00 -0.00000000000E+00 -0.45593999997E+02  0.45594000000E+02  0.51100000000E-03 0.  1.
         23    2    1    2    0    0  0.00000000000E+00  0.00000000000E+00  0.00000000000E+00  0.91188000000E+02  0.91188000000E+02 0.  0.
    9900012    2    3    3    0    0 -0.24499702387E+02 -0.23775446260E+02  0.26797680458E+02  0.47787274893E+02  0.20000017547E+02 0.  0.
        -12    1    3    3    0    0  0.24499702387E+02  0.23775446260E+02 -0.26797680458E+02  0.43400725107E+02  0.00000000000E+00 0.  1.
         11    1    4    4    0    0 -0.21067989502E+02 -0.23779952523E+02  0.19644980010E+02  0.37353334035E+02  0.51100000000E-03 0. -1.
        -11    1    4    4    0    0 -0.26257393410E+00 -0.13159810417E+01 -0.94314273667E+00  0.16402041506E+01  0.51100000000E-03 0.  1.
         12    1    4    4    0    0 -0.31691389506E+01  0.13204873048E+01  0.80958431848E+01  0.87937367076E+01  0.00000000000E+00 0. -1.
</event>
<event>
 8    1  0.4042158E-011  0.9118800E+02  0.7816164E-02  0.1184000E+00
        -11   -1    0    0    0    0  0.00000000000E+00  0.00000000000E+00  0.45593999997E+02  0.45594000000E+02  0.51100000000E-03 0. -1.
         11   -1    0    0    0    0 -0.00000000000E+00 -0.00000000000E+00 -0.45593999997E+02  0.45594000000E+02  0.51100000000E-03 0.  1.
         23    2    1    2    0    0  0.00000000000E+00  0.00000000000E+00  0.00000000000E+00  0.91188000000E+02  0.91188000000E+02 0.  0.
    9900012    2    3    3    0    0  0.39875857149E+01 -0.12735462462E+02  0.41298067228E+02  0.47787271887E+02  0.20000003843E+02 0.  0.
        -12    1    3    3    0    0 -0.39875857149E+01  0.12735462462E+02 -0.41298067228E+02  0.43400728113E+02  0.00000000000E+00 0.  1.
         11    1    4    4    0    0  0.23898957265E+00 -0.11140669054E+02  0.20954367171E+02  0.23733038718E+02  0.51100000000E-03 0. -1.
        -11    1    4    4    0    0 -0.87290064334E-01 -0.22102285505E+01 -0.95124056205E+00  0.24078182384E+01  0.51100000000E-03 0.  1.
         12    1    4    4    0    0  0.38358862065E+01  0.61543514282E+00  0.21294940619E+02  0.21646414931E+02  0.00000000000E+00 0. -1.
</event>
<event>
 8    1  0.4042158E-011  0.9118800E+02  0.7816164E-02  0.1184000E+00
        -11   -1    0    0    0    0  0.00000000000E+00  0.00000000000E+00  0.45593999997E+02  0.45594000000E+02  0.51100000000E-03 0.  1.
         11   -1    0    0    0    0 -0.00000000000E+00 -0.00000000000E+00 -0.45593999997E+02  0.45594000000E+02  0.51100000000E-03 0. -1.
         23    2    1    2    0    0  0.00000000000E+00  0.00000000000E+00  0.00000000000E+00  0.91188000000E+02  0.91188000000E+02 0.  0.
    9900012    2    3    3    0    0 -0.36516839745E+02 -0.82908001428E+01 -0.21940969075E+02  0.47787273325E+02  0.20000010397E+02 0.  0.
        -12    1    3    3    0    0  0.36516839745E+02  0.82908001428E+01  0.21940969075E+02  0.43400726675E+02  0.00000000000E+00 0.  1.
         11    1    4    4    0    0 -0.13064088194E+02 -0.10032861424E+02 -0.81813767882E+01  0.18391944843E+02  0.51100000000E-03 0. -1.
        -11    1    4    4    0    0 -0.22659256307E+02  0.18555441257E+01 -0.88118239880E+01  0.24383051135E+02  0.51100000000E-03 0.  1.
         12    1    4    4    0    0 -0.79349524369E+00 -0.11348284424E+00 -0.49477682991E+01  0.50122773466E+01  0.00000000000E+00 0. -1.
</event>
<event>
 8    1  0.4042158E-011  0.9118800E+02  0.7816164E-02  0.1184000E+00
        -11   -1    0    0    0    0  0.00000000000E+00  0.00000000000E+00  0.45593999997E+02  0.45594000000E+02  0.51100000000E-03 0. -1.
         11   -1    0    0    0    0 -0.00000000000E+00 -0.00000000000E+00 -0.45593999997E+02  0.45594000000E+02  0.51100000000E-03 0.  1.
         23    2    1    2    0    0  0.35527136788E-14 -0.49960036108E-15  0.00000000000E+00  0.91188000000E+02  0.91188000000E+02 0.  0.
    9900012    2    3    3    0    0 -0.18669956846E+02  0.47248876021E+00  0.39176939591E+02  0.47787272702E+02  0.20000007557E+02 0.  0.
        -12    1    3    3    0    0  0.18669956846E+02 -0.47248876021E+00 -0.39176939591E+02  0.43400727298E+02  0.00000000000E+00 0.  1.
         11    1    4    4    0    0 -0.11749940503E+02  0.53714721019E+01  0.20487382454E+02  0.24220789716E+02  0.51100000000E-03 0. -1.
        -11    1    4    4    0    0 -0.10102103240E+02 -0.27310271580E+01  0.14421443930E+02  0.17818222260E+02  0.51100000000E-03 0.  1.
         12    1    4    4    0    0  0.31820868966E+01 -0.21679561838E+01  0.42681132066E+01  0.57482607262E+01  0.00000000000E+00 0. -1.
</event>
<event>
 8    1  0.4042158E-011  0.9118800E+02  0.7816164E-02  0.1184000E+00
        -11   -1    0    0    0    0  0.00000000000E+00  0.00000000000E+00  0.45593999997E+02  0.45594000000E+02  0.51100000000E-03 0. -1.
         11   -1    0    0    0    0 -0.00000000000E+00 -0.00000000000E+00 -0.45593999997E+02  0.45594000000E+02  0.51100000000E-03 0.  1.
         23    2    1    2    0    0 -0.88817841970E-15  0.00000000000E+00 -0.71054273576E-14  0.91188000000E+02  0.91188000000E+02 0.  0.
    9900012    2    3    3    0    0  0.50714325231E+01 -0.47120551200E+01 -0.42845082076E+02  0.47787263262E+02  0.19999964517E+02 0.  0.
         12    1    3    3    0    0 -0.50714325231E+01  0.47120551200E+01  0.42845082076E+02  0.43400736738E+02  0.00000000000E+00 0. -1.
         11    1    4    4    0    0 -0.65823826874E+01  0.10778091763E+01 -0.11471220478E+02  0.13269451156E+02  0.51100000000E-03 0. -1.
        -11    1    4    4    0    0  0.33854797708E+01  0.40159280723E+00 -0.12998232295E+02  0.13437886482E+02  0.51100000000E-03 0.  1.
         12    1    4    4    0    0  0.82683354396E+01 -0.61914571035E+01 -0.18375629304E+02  0.21079925624E+02  0.00000000000E+00 0. -1.
</event>
<event>
 8    1  0.4042158E-011  0.9118800E+02  0.7816164E-02  0.1184000E+00
        -11   -1    0    0    0    0  0.00000000000E+00  0.00000000000E+00  0.45593999997E+02  0.45594000000E+02  0.51100000000E-03 0. -1.
         11   -1    0    0    0    0 -0.00000000000E+00 -0.00000000000E+00 -0.45593999997E+02  0.45594000000E+02  0.51100000000E-03 0.  1.
         23    2    1    2    0    0  0.88817841970E-15  0.35527136788E-14  0.00000000000E+00  0.91188000000E+02  0.91188000000E+02 0.  0.
    9900012    2    3    3    0    0 -0.47610877259E+01 -0.28000855066E+02  0.32816266911E+02  0.47787271726E+02  0.20000003107E+02 0.  0.
        -12    1    3    3    0    0  0.47610877259E+01  0.28000855066E+02 -0.32816266911E+02  0.43400728274E+02  0.00000000000E+00 0.  1.
         11    1    4    4    0    0  0.38297752684E+01 -0.31872141729E+01  0.41975533596E+01  0.65149802193E+01  0.51100000000E-03 0. -1.
        -11    1    4    4    0    0  0.14479057299E+01 -0.10700317089E+02  0.47856451632E+01  0.11810826250E+02  0.51100000000E-03 0.  1.
         12    1    4    4    0    0 -0.10038768724E+02 -0.14113323804E+02  0.23833068388E+02  0.29461465257E+02  0.00000000000E+00 0. -1.
</event>
<event>
 8    1  0.4042158E-011  0.9118800E+02  0.7816164E-02  0.1184000E+00
        -11   -1    0    0    0    0  0.00000000000E+00  0.00000000000E+00  0.45593999997E+02  0.45594000000E+02  0.51100000000E-03 0. -1.
         11   -1    0    0    0    0 -0.00000000000E+00 -0.00000000000E+00 -0.45593999997E+02  0.45594000000E+02  0.51100000000E-03 0.  1.
         23    2    1    2    0    0  0.00000000000E+00 -0.88817841970E-15  0.00000000000E+00  0.91188000000E+02  0.91188000000E+02 0.  0.
    9900012    2    3    3    0    0 -0.67258022906E+01 -0.58890292321E+01 -0.42470060155E+02  0.47787273148E+02  0.20000009589E+02 0.  0.
         12    1    3    3    0    0  0.67258022906E+01  0.58890292321E+01  0.42470060155E+02  0.43400726852E+02  0.00000000000E+00 0. -1.
         11    1    4    4    0    0  0.24144697931E+01  0.17799449895E+01 -0.14631145840E+02  0.14935471114E+02  0.51100000000E-03 0. -1.
        -11    1    4    4    0    0  0.16923418762E+01 -0.10736464035E+01 -0.13750830726E+02  0.13896117571E+02  0.51100000000E-03 0.  1.
        -12    1    4    4    0    0 -0.10832613960E+02 -0.65953278181E+01 -0.14088083589E+02  0.18955684462E+02  0.00000000000E+00 0.  1.
</event>
<event>
 8    1  0.4042158E-011  0.9118800E+02  0.7816164E-02  0.1184000E+00
        -11   -1    0    0    0    0  0.00000000000E+00  0.00000000000E+00  0.45593999997E+02  0.45594000000E+02  0.51100000000E-03 0. -1.
         11   -1    0    0    0    0 -0.00000000000E+00 -0.00000000000E+00 -0.45593999997E+02  0.45594000000E+02  0.51100000000E-03 0.  1.
         23    2    1    2    0    0  0.00000000000E+00  0.00000000000E+00  0.00000000000E+00  0.91188000000E+02  0.91188000000E+02 0.  0.
    9900012    2    3    3    0    0 -0.75602723058E+01 -0.37679226504E+02  0.20167827477E+02  0.47787273135E+02  0.20000009530E+02 0.  0.
        -12    1    3    3    0    0  0.75602723058E+01  0.37679226504E+02 -0.20167827477E+02  0.43400726865E+02  0.00000000000E+00 0.  1.
         11    1    4    4    0    0  0.12328846178E+00 -0.52189631647E+01  0.31790583317E+01  0.61122163490E+01  0.51100000000E-03 0. -1.
        -11    1    4    4    0    0 -0.10815123302E+02 -0.81991924655E+01  0.54019321574E+01  0.14607344743E+02  0.51100000000E-03 0.  1.
        -12    1    4    4    0    0  0.31315625348E+01 -0.24261070874E+02  0.11586836988E+02  0.27067712043E+02  0.00000000000E+00 0.  1.
</event>
<event>
 8    1  0.4042158E-011  0.9118800E+02  0.7816164E-02  0.1184000E+00
        -11   -1    0    0    0    0  0.00000000000E+00  0.00000000000E+00  0.45593999997E+02  0.45594000000E+02  0.51100000000E-03 0. -1.
         11   -1    0    0    0    0 -0.00000000000E+00 -0.00000000000E+00 -0.45593999997E+02  0.45594000000E+02  0.51100000000E-03 0.  1.
         23    2    1    2    0    0  0.00000000000E+00  0.00000000000E+00  0.00000000000E+00  0.91188000000E+02  0.91188000000E+02 0.  0.
    9900012    2    3    3    0    0  0.25980514366E+02  0.20554178925E+02 -0.28038571222E+02  0.47787275649E+02  0.20000020994E+02 0.  0.
         12    1    3    3    0    0 -0.25980514366E+02 -0.20554178925E+02  0.28038571222E+02  0.43400724351E+02  0.00000000000E+00 0. -1.
         11    1    4    4    0    0  0.25450751551E+02  0.15864514426E+02 -0.23457013782E+02  0.38074336085E+02  0.51100000000E-03 0. -1.
        -11    1    4    4    0    0  0.34613371746E+01  0.39970873861E+01 -0.17254558090E+01  0.55619026077E+01  0.51100000000E-03 0.  1.
         12    1    4    4    0    0 -0.29315743596E+01  0.69257711339E+00 -0.28561016311E+01  0.41510369561E+01  0.00000000000E+00 0. -1.
</event>
<event>
 8    1  0.4042158E-011  0.9118800E+02  0.7816164E-02  0.1184000E+00
        -11   -1    0    0    0    0  0.00000000000E+00  0.00000000000E+00  0.45593999997E+02  0.45594000000E+02  0.51100000000E-03 0. -1.
         11   -1    0    0    0    0 -0.00000000000E+00 -0.00000000000E+00 -0.45593999997E+02  0.45594000000E+02  0.51100000000E-03 0.  1.
         23    2    1    2    0    0  0.88817841970E-15  0.35527136788E-14  0.71054273576E-14  0.91188000000E+02  0.91188000000E+02 0.  0.
    9900012    2    3    3    0    0 -0.68947446572E+01 -0.23138150238E+02 -0.36065384935E+02  0.47787268545E+02  0.19999988602E+02 0.  0.
         12    1    3    3    0    0  0.68947446572E+01  0.23138150238E+02  0.36065384935E+02  0.43400731455E+02  0.00000000000E+00 0. -1.
         11    1    4    4    0    0 -0.47808724279E+01 -0.49842836913E+01 -0.59938908653E+01  0.91447554944E+01  0.51100000000E-03 0.  1.
        -11    1    4    4    0    0 -0.45629996139E+01  0.11604934658E+01 -0.45979689823E+01  0.65809596249E+01  0.51100000000E-03 0. -1.
        -12    1    4    4    0    0  0.24491273847E+01 -0.19314360013E+02 -0.25473525088E+02  0.32061553425E+02  0.00000000000E+00 0.  1.
</event>
<event>
 8    1  0.4042158E-011  0.9118800E+02  0.7816164E-02  0.1184000E+00
        -11   -1    0    0    0    0  0.00000000000E+00  0.00000000000E+00  0.45593999997E+02  0.45594000000E+02  0.51100000000E-03 0. -1.
         11   -1    0    0    0    0 -0.00000000000E+00 -0.00000000000E+00 -0.45593999997E+02  0.45594000000E+02  0.51100000000E-03 0.  1.
         23    2    1    2    0    0  0.00000000000E+00  0.00000000000E+00  0.00000000000E+00  0.91188000000E+02  0.91188000000E+02 0.  0.
    9900012    2    3    3    0    0  0.82935908341E+01 -0.40838556467E+02  0.12126503781E+02  0.47787269163E+02  0.19999991423E+02 0.  0.
        -12    1    3    3    0    0 -0.82935908341E+01  0.40838556467E+02 -0.12126503781E+02  0.43400730837E+02  0.00000000000E+00 0.  1.
         11    1    4    4    0    0  0.40795520712E+01 -0.93980919891E+01 -0.42932144830E+01  0.11108490851E+02  0.51100000000E-03 0. -1.
        -11    1    4    4    0    0  0.49776986002E+01 -0.14885173328E+02  0.47114781099E+01  0.16387308949E+02  0.51100000000E-03 0.  1.
        -12    1    4    4    0    0 -0.76365983719E+00 -0.16555291150E+02  0.11708240154E+02  0.20291469363E+02  0.00000000000E+00 0.  1.
</event>
<event>
 8    1  0.4042158E-011  0.9118800E+02  0.7816164E-02  0.1184000E+00
        -11   -1    0    0    0    0  0.00000000000E+00  0.00000000000E+00  0.45593999997E+02  0.45594000000E+02  0.51100000000E-03 0.  1.
         11   -1    0    0    0    0 -0.00000000000E+00 -0.00000000000E+00 -0.45593999997E+02  0.45594000000E+02  0.51100000000E-03 0. -1.
         23    2    1    2    0    0  0.00000000000E+00  0.00000000000E+00  0.00000000000E+00  0.91188000000E+02  0.91188000000E+02 0.  0.
    9900012    2    3    3    0    0 -0.21445380499E+02 -0.32567372828E+02  0.19054790274E+02  0.47787272471E+02  0.20000006504E+02 0.  0.
        -12    1    3    3    0    0  0.21445380499E+02  0.32567372828E+02 -0.19054790274E+02  0.43400727529E+02  0.00000000000E+00 0.  1.
         11    1    4    4    0    0  0.21925466998E+01 -0.37653095306E+01  0.29689196583E+01  0.52725042523E+01  0.51100000000E-03 0. -1.
        -11    1    4    4    0    0 -0.94611974535E+01 -0.92136796294E+01  0.12286484337E+02  0.18037844860E+02  0.51100000000E-03 0.  1.
         12    1    4    4    0    0 -0.14176729745E+02 -0.19588383668E+02  0.37993862785E+01  0.24476923358E+02  0.00000000000E+00 0. -1.
</event>
<event>
 8    1  0.4042158E-011  0.9118800E+02  0.7816164E-02  0.1184000E+00
        -11   -1    0    0    0    0  0.00000000000E+00  0.00000000000E+00  0.45593999997E+02  0.45594000000E+02  0.51100000000E-03 0.  1.
         11   -1    0    0    0    0 -0.00000000000E+00 -0.00000000000E+00 -0.45593999997E+02  0.45594000000E+02  0.51100000000E-03 0. -1.
         23    2    1    2    0    0  0.00000000000E+00  0.71054273576E-14  0.00000000000E+00  0.91188000000E+02  0.91188000000E+02 0.  0.
    9900012    2    3    3    0    0  0.84173758110E+01  0.39437251309E+02  0.16046014037E+02  0.47787267601E+02  0.19999984300E+02 0.  0.
        -12    1    3    3    0    0 -0.84173758110E+01 -0.39437251309E+02 -0.16046014037E+02  0.43400732399E+02  0.00000000000E+00 0.  1.
         11    1    4    4    0    0  0.64131045106E+01  0.18865589246E+02  0.74145755712E+01  0.21260627888E+02  0.51100000000E-03 0. -1.
        -11    1    4    4    0    0  0.78317530088E+01  0.12905761690E+02  0.74205166279E+01  0.16821388387E+02  0.51100000000E-03 0.  1.
         12    1    4    4    0    0 -0.58274817084E+01  0.76659003732E+01  0.12109218375E+01  0.97052513254E+01  0.00000000000E+00 0. -1.
</event>
<event>
 8    1  0.4042158E-011  0.9118800E+02  0.7816164E-02  0.1184000E+00
        -11   -1    0    0    0    0  0.00000000000E+00  0.00000000000E+00  0.45593999997E+02  0.45594000000E+02  0.51100000000E-03 0.  1.
         11   -1    0    0    0    0 -0.00000000000E+00 -0.00000000000E+00 -0.45593999997E+02  0.45594000000E+02  0.51100000000E-03 0. -1.
         23    2    1    2    0    0  0.00000000000E+00  0.35527136788E-14  0.00000000000E+00  0.91188000000E+02  0.91188000000E+02 0.  0.
    9900012    2    3    3    0    0  0.20604520965E+02  0.23388531936E+02 -0.30200224416E+02  0.47787271146E+02  0.20000000462E+02 0.  0.
         12    1    3    3    0    0 -0.20604520965E+02 -0.23388531936E+02  0.30200224416E+02  0.43400728854E+02  0.00000000000E+00 0. -1.
         11    1    4    4    0    0 -0.14378001013E+00 -0.25633749508E+01 -0.41751652102E+01  0.49013843578E+01  0.51100000000E-03 0. -1.
        -11    1    4    4    0    0  0.54592266114E+01  0.80982821014E+01 -0.12157493166E+02  0.15594549321E+02  0.51100000000E-03 0.  1.
        -12    1    4    4    0    0  0.15289074364E+02  0.17853624785E+02 -0.13867566040E+02  0.27291337467E+02  0.00000000000E+00 0.  1.
</event>
<event>
 8    1  0.4042158E-011  0.9118800E+02  0.7816164E-02  0.1184000E+00
        -11   -1    0    0    0    0  0.00000000000E+00  0.00000000000E+00  0.45593999997E+02  0.45594000000E+02  0.51100000000E-03 0.  1.
         11   -1    0    0    0    0 -0.00000000000E+00 -0.00000000000E+00 -0.45593999997E+02  0.45594000000E+02  0.51100000000E-03 0. -1.
         23    2    1    2    0    0 -0.88817841970E-15  0.00000000000E+00  0.00000000000E+00  0.91188000000E+02  0.91188000000E+02 0.  0.
    9900012    2    3    3    0    0 -0.51338139394E+01  0.42605019954E+02  0.64868915634E+01  0.47787268060E+02  0.19999986391E+02 0.  0.
        -12    1    3    3    0    0  0.51338139394E+01 -0.42605019954E+02 -0.64868915634E+01  0.43400731940E+02  0.00000000000E+00 0.  1.
         11    1    4    4    0    0 -0.19163434347E+01  0.17257553716E+02 -0.13055908582E+01  0.17412641965E+02  0.51100000000E-03 0. -1.
        -11    1    4    4    0    0  0.44123709789E+01  0.21051996823E+01  0.10586478926E+01  0.50021614308E+01  0.51100000000E-03 0.  1.
        -12    1    4    4    0    0 -0.76298414836E+01  0.23242266555E+02  0.67338345290E+01  0.25372464664E+02  0.00000000000E+00 0.  1.
</event>
<event>
 8    1  0.4042158E-011  0.9118800E+02  0.7816164E-02  0.1184000E+00
        -11   -1    0    0    0    0  0.00000000000E+00  0.00000000000E+00  0.45593999997E+02  0.45594000000E+02  0.51100000000E-03 0. -1.
         11   -1    0    0    0    0 -0.00000000000E+00 -0.00000000000E+00 -0.45593999997E+02  0.45594000000E+02  0.51100000000E-03 0.  1.
         23    2    1    2    0    0  0.00000000000E+00  0.00000000000E+00 -0.35527136788E-14  0.91188000000E+02  0.91188000000E+02 0.  0.
    9900012    2    3    3    0    0  0.29764306316E+02  0.54790027486E+01  0.31107716086E+02  0.47787269572E+02  0.19999993287E+02 0.  0.
        -12    1    3    3    0    0 -0.29764306316E+02 -0.54790027486E+01 -0.31107716086E+02  0.43400730428E+02  0.00000000000E+00 0.  1.
         11    1    4    4    0    0  0.54823790664E+01  0.31144278442E+01  0.16127278273E+02  0.17316040130E+02  0.51100000000E-03 0. -1.
        -11    1    4    4    0    0  0.12202563059E+01 -0.19779390386E+01  0.38532166164E+01  0.44998385356E+01  0.51100000000E-03 0.  1.
         12    1    4    4    0    0  0.23061670944E+02  0.43425139430E+01  0.11127221196E+02  0.25971390906E+02  0.00000000000E+00 0. -1.
</event>
<event>
 8    1  0.4042158E-011  0.9118800E+02  0.7816164E-02  0.1184000E+00
        -11   -1    0    0    0    0  0.00000000000E+00  0.00000000000E+00  0.45593999997E+02  0.45594000000E+02  0.51100000000E-03 0. -1.
         11   -1    0    0    0    0 -0.00000000000E+00 -0.00000000000E+00 -0.45593999997E+02  0.45594000000E+02  0.51100000000E-03 0.  1.
         23    2    1    2    0    0 -0.35527136788E-14  0.00000000000E+00 -0.17763568394E-14  0.91188000000E+02  0.91188000000E+02 0.  0.
    9900012    2    3    3    0    0 -0.21986941758E+02  0.36527580043E+02 -0.81199464535E+01  0.47787271411E+02  0.20000001670E+02 0.  0.
         12    1    3    3    0    0  0.21986941758E+02 -0.36527580043E+02  0.81199464535E+01  0.43400728589E+02  0.00000000000E+00 0. -1.
         11    1    4    4    0    0 -0.36312804745E+01  0.42552103642E+01 -0.27404480723E+01  0.62292109473E+01  0.51100000000E-03 0. -1.
        -11    1    4    4    0    0 -0.19113000786E+02  0.20533130975E+02  0.12033176961E+01  0.28077824709E+02  0.51100000000E-03 0.  1.
         12    1    4    4    0    0  0.75733950246E+00  0.11739238704E+02 -0.65828160773E+01  0.13480235754E+02  0.00000000000E+00 0. -1.
</event>
<event>
 8    1  0.4042158E-011  0.9118800E+02  0.7816164E-02  0.1184000E+00
        -11   -1    0    0    0    0  0.00000000000E+00  0.00000000000E+00  0.45593999997E+02  0.45594000000E+02  0.51100000000E-03 0.  1.
         11   -1    0    0    0    0 -0.00000000000E+00 -0.00000000000E+00 -0.45593999997E+02  0.45594000000E+02  0.51100000000E-03 0. -1.
         23    2    1    2    0    0  0.17763568394E-14  0.00000000000E+00  0.00000000000E+00  0.91188000000E+02  0.91188000000E+02 0.  0.
    9900012    2    3    3    0    0 -0.90478832944E+01  0.40493294501E+02  0.12729890011E+02  0.47787295036E+02  0.20000109387E+02 0.  0.
        -12    1    3    3    0    0  0.90478832944E+01 -0.40493294501E+02 -0.12729890011E+02  0.43400704964E+02  0.00000000000E+00 0.  1.
         11    1    4    4    0    0 -0.15871708792E+01  0.98181090980E+01 -0.35622680303E+00  0.99519483246E+01  0.51100000000E-03 0. -1.
        -11    1    4    4    0    0 -0.92770795792E+01  0.68466882871E+01  0.31347913884E+01  0.11948567417E+02  0.51100000000E-03 0.  1.
        -12    1    4    4    0    0  0.18163671641E+01  0.23828497116E+02  0.99513254255E+01  0.25886779294E+02  0.00000000000E+00 0.  1.
</event>
<event>
 8    1  0.4042158E-011  0.9118800E+02  0.7816164E-02  0.1184000E+00
        -11   -1    0    0    0    0  0.00000000000E+00  0.00000000000E+00  0.45593999997E+02  0.45594000000E+02  0.51100000000E-03 0. -1.
         11   -1    0    0    0    0 -0.00000000000E+00 -0.00000000000E+00 -0.45593999997E+02  0.45594000000E+02  0.51100000000E-03 0.  1.
         23    2    1    2    0    0  0.00000000000E+00  0.00000000000E+00  0.00000000000E+00  0.91188000000E+02  0.91188000000E+02 0.  0.
    9900012    2    3    3    0    0  0.69789035211E+01  0.13314760292E+01 -0.42815246699E+02  0.47787271058E+02  0.20000000063E+02 0.  0.
         12    1    3    3    0    0 -0.69789035211E+01 -0.13314760292E+01  0.42815246699E+02  0.43400728942E+02  0.00000000000E+00 0. -1.
         11    1    4    4    0    0 -0.31306536739E+01  0.12903383713E+01 -0.17646163040E+02  0.17968111638E+02  0.51100000000E-03 0. -1.
        -11    1    4    4    0    0  0.46804916516E+01 -0.42517431891E+01 -0.20543193212E+02  0.21494350650E+02  0.51100000000E-03 0.  1.
         12    1    4    4    0    0  0.54290655433E+01  0.42928808470E+01 -0.46258904469E+01  0.83248087706E+01  0.00000000000E+00 0. -1.
</event>
<event>
 8    1  0.4042158E-011  0.9118800E+02  0.7816164E-02  0.1184000E+00
        -11   -1    0    0    0    0  0.00000000000E+00  0.00000000000E+00  0.45593999997E+02  0.45594000000E+02  0.51100000000E-03 0. -1.
         11   -1    0    0    0    0 -0.00000000000E+00 -0.00000000000E+00 -0.45593999997E+02  0.45594000000E+02  0.51100000000E-03 0.  1.
         23    2    1    2    0    0 -0.35527136788E-14  0.35527136788E-14  0.00000000000E+00  0.91188000000E+02  0.91188000000E+02 0.  0.
    9900012    2    3    3    0    0 -0.25125646859E+02  0.26510532139E+02  0.23441786950E+02  0.47787264755E+02  0.19999971323E+02 0.  0.
        -12    1    3    3    0    0  0.25125646859E+02 -0.26510532139E+02 -0.23441786950E+02  0.43400735245E+02  0.00000000000E+00 0.  1.
         11    1    4    4    0    0 -0.17704691251E+02  0.12001180758E+02  0.17305710675E+02  0.27513125125E+02  0.51100000000E-03 0. -1.
        -11    1    4    4    0    0 -0.81569940137E+00 -0.47190864847E+00  0.35813454834E+01  0.37032551922E+01  0.51100000000E-03 0.  1.
        -12    1    4    4    0    0 -0.66052562064E+01  0.14981260030E+02  0.25547307918E+01  0.16570884438E+02  0.00000000000E+00 0.  1.
</event>
<event>
 8    1  0.4042158E-011  0.9118800E+02  0.7816164E-02  0.1184000E+00
        -11   -1    0    0    0    0  0.00000000000E+00  0.00000000000E+00  0.45593999997E+02  0.45594000000E+02  0.51100000000E-03 0. -1.
         11   -1    0    0    0    0 -0.00000000000E+00 -0.00000000000E+00 -0.45593999997E+02  0.45594000000E+02  0.51100000000E-03 0.  1.
         23    2    1    2    0    0  0.00000000000E+00  0.71054273576E-14 -0.35527136788E-14  0.91188000000E+02  0.91188000000E+02 0.  0.
    9900012    2    3    3    0    0  0.91275879020E+01  0.27877738530E+02 -0.31986594752E+02  0.47787269472E+02  0.19999992833E+02 0.  0.
         12    1    3    3    0    0 -0.91275879020E+01 -0.27877738530E+02  0.31986594752E+02  0.43400730528E+02  0.00000000000E+00 0. -1.
         11    1    4    4    0    0  0.61804145255E+01  0.86421272572E+01 -0.71608757910E+00  0.10648787204E+02  0.51100000000E-03 0. -1.
        -11    1    4    4    0    0 -0.35101976806E+00  0.12778324964E+02 -0.20173711810E+02  0.23882785688E+02  0.51100000000E-03 0.  1.
         12    1    4    4    0    0  0.32981931446E+01  0.64572863096E+01 -0.11096795363E+02  0.13255696581E+02  0.00000000000E+00 0. -1.
</event>
<event>
 8    1  0.4042158E-011  0.9118800E+02  0.7816164E-02  0.1184000E+00
        -11   -1    0    0    0    0  0.00000000000E+00  0.00000000000E+00  0.45593999997E+02  0.45594000000E+02  0.51100000000E-03 0. -1.
         11   -1    0    0    0    0 -0.00000000000E+00 -0.00000000000E+00 -0.45593999997E+02  0.45594000000E+02  0.51100000000E-03 0.  1.
         23    2    1    2    0    0  0.00000000000E+00  0.00000000000E+00 -0.71054273576E-14  0.91188000000E+02  0.91188000000E+02 0.  0.
    9900012    2    3    3    0    0 -0.42597312648E+01 -0.73692878611E+01  0.42557856179E+02  0.47787276082E+02  0.20000022967E+02 0.  0.
        -12    1    3    3    0    0  0.42597312648E+01  0.73692878611E+01 -0.42557856179E+02  0.43400723918E+02  0.00000000000E+00 0.  1.
         11    1    4    4    0    0  0.35789774820E+01 -0.24129817355E+01  0.16660189499E+01  0.46267893917E+01  0.51100000000E-03 0. -1.
        -11    1    4    4    0    0 -0.94471517731E+00  0.29023585014E+01  0.13520227965E+02  0.13860473878E+02  0.51100000000E-03 0.  1.
         12    1    4    4    0    0 -0.68939935695E+01 -0.78586646270E+01  0.27371609265E+02  0.29300012812E+02  0.00000000000E+00 0. -1.
</event>
<event>
 8    1  0.4042158E-011  0.9118800E+02  0.7816164E-02  0.1184000E+00
        -11   -1    0    0    0    0  0.00000000000E+00  0.00000000000E+00  0.45593999997E+02  0.45594000000E+02  0.51100000000E-03 0. -1.
         11   -1    0    0    0    0 -0.00000000000E+00 -0.00000000000E+00 -0.45593999997E+02  0.45594000000E+02  0.51100000000E-03 0.  1.
         23    2    1    2    0    0  0.71054273576E-14  0.00000000000E+00  0.35527136788E-14  0.91188000000E+02  0.91188000000E+02 0.  0.
    9900012    2    3    3    0    0  0.32528574017E+02  0.80403261401E+01 -0.27583852282E+02  0.47787264076E+02  0.19999968228E+02 0.  0.
         12    1    3    3    0    0 -0.32528574017E+02 -0.80403261401E+01  0.27583852282E+02  0.43400735924E+02  0.00000000000E+00 0. -1.
         11    1    4    4    0    0  0.68641586560E+01  0.33940150949E+01 -0.17511471952E+01  0.78550957524E+01  0.51100000000E-03 0. -1.
        -11    1    4    4    0    0  0.80871028042E+01 -0.33892381029E+01 -0.15623956771E+01  0.89066967612E+01  0.51100000000E-03 0.  1.
        -12    1    4    4    0    0  0.17577312557E+02  0.80355491481E+01 -0.24270309410E+02  0.31025471562E+02  0.00000000000E+00 0.  1.
</event>
<event>
 8    1  0.4042158E-011  0.9118800E+02  0.7816164E-02  0.1184000E+00
        -11   -1    0    0    0    0  0.00000000000E+00  0.00000000000E+00  0.45593999997E+02  0.45594000000E+02  0.51100000000E-03 0. -1.
         11   -1    0    0    0    0 -0.00000000000E+00 -0.00000000000E+00 -0.45593999997E+02  0.45594000000E+02  0.51100000000E-03 0.  1.
         23    2    1    2    0    0  0.00000000000E+00  0.00000000000E+00  0.71054273576E-14  0.91188000000E+02  0.91188000000E+02 0.  0.
    9900012    2    3    3    0    0 -0.51606943011E+01  0.22365920613E+02  0.36834172363E+02  0.47787269312E+02  0.19999992102E+02 0.  0.
        -12    1    3    3    0    0  0.51606943011E+01 -0.22365920613E+02 -0.36834172363E+02  0.43400730688E+02  0.00000000000E+00 0.  1.
         11    1    4    4    0    0 -0.48124068250E+00  0.95728481754E+01  0.11286735377E+02  0.14807478195E+02  0.51100000000E-03 0. -1.
        -11    1    4    4    0    0  0.27313559167E+01  0.36450620214E-02 -0.73269695752E+00  0.28279256572E+01  0.51100000000E-03 0.  1.
         12    1    4    4    0    0 -0.74108095353E+01  0.12789427375E+02  0.26280133944E+02  0.30151865460E+02  0.00000000000E+00 0. -1.
</event>
<event>
 8    1  0.4042158E-011  0.9118800E+02  0.7816164E-02  0.1184000E+00
        -11   -1    0    0    0    0  0.00000000000E+00  0.00000000000E+00  0.45593999997E+02  0.45594000000E+02  0.51100000000E-03 0. -1.
         11   -1    0    0    0    0 -0.00000000000E+00 -0.00000000000E+00 -0.45593999997E+02  0.45594000000E+02  0.51100000000E-03 0.  1.
         23    2    1    2    0    0 -0.17763568394E-14  0.00000000000E+00  0.00000000000E+00  0.91188000000E+02  0.91188000000E+02 0.  0.
    9900012    2    3    3    0    0  0.80208984998E+01  0.17239997920E+02  0.39013726093E+02  0.47787272302E+02  0.20000005736E+02 0.  0.
        -12    1    3    3    0    0 -0.80208984998E+01 -0.17239997920E+02 -0.39013726093E+02  0.43400727698E+02  0.00000000000E+00 0.  1.
         11    1    4    4    0    0  0.49565254070E+01  0.38432111271E+01  0.10742119662E+02  0.12439073558E+02  0.51100000000E-03 0. -1.
        -11    1    4    4    0    0  0.61338217108E+01 -0.70553985494E+00  0.49124725244E+01  0.78901167184E+01  0.51100000000E-03 0.  1.
         12    1    4    4    0    0 -0.30694486180E+01  0.14102326648E+02  0.23359133907E+02  0.27458082026E+02  0.00000000000E+00 0. -1.
</event>
<event>
 8    1  0.4042158E-011  0.9118800E+02  0.7816164E-02  0.1184000E+00
        -11   -1    0    0    0    0  0.00000000000E+00  0.00000000000E+00  0.45593999997E+02  0.45594000000E+02  0.51100000000E-03 0. -1.
         11   -1    0    0    0    0 -0.00000000000E+00 -0.00000000000E+00 -0.45593999997E+02  0.45594000000E+02  0.51100000000E-03 0.  1.
         23    2    1    2    0    0  0.00000000000E+00  0.00000000000E+00  0.00000000000E+00  0.91188000000E+02  0.91188000000E+02 0.  0.
    9900012    2    3    3    0    0  0.28703367265E+02 -0.91123868510E+01 -0.31252271750E+02  0.47787269868E+02  0.19999994634E+02 0.  0.
         12    1    3    3    0    0 -0.28703367265E+02  0.91123868510E+01  0.31252271750E+02  0.43400730132E+02  0.00000000000E+00 0. -1.
         11    1    4    4    0    0  0.76408723698E+01 -0.21645798556E+01 -0.15532495351E+02  0.17444963417E+02  0.51100000000E-03 0. -1.
        -11    1    4    4    0    0  0.74466389154E+01 -0.63549286127E+01 -0.13277658808E+02  0.16496477578E+02  0.51100000000E-03 0.  1.
         12    1    4    4    0    0  0.13615855980E+02 -0.59287838272E+00 -0.24421175913E+01  0.13845828873E+02  0.00000000000E+00 0. -1.
</event>
<event>
 8    1  0.4042158E-011  0.9118800E+02  0.7816164E-02  0.1184000E+00
        -11   -1    0    0    0    0  0.00000000000E+00  0.00000000000E+00  0.45593999997E+02  0.45594000000E+02  0.51100000000E-03 0.  1.
         11   -1    0    0    0    0 -0.00000000000E+00 -0.00000000000E+00 -0.45593999997E+02  0.45594000000E+02  0.51100000000E-03 0. -1.
         23    2    1    2    0    0 -0.55511151231E-15  0.00000000000E+00  0.44408920985E-15  0.91188000000E+02  0.91188000000E+02 0.  0.
    9900012    2    3    3    0    0  0.66452420093E+00 -0.43359713828E+02  0.17654714072E+01  0.47787271147E+02  0.20000000470E+02 0.  0.
        -12    1    3    3    0    0 -0.66452420093E+00  0.43359713828E+02 -0.17654714072E+01  0.43400728853E+02  0.00000000000E+00 0.  1.
         11    1    4    4    0    0  0.27098391073E+01 -0.24392067860E+02 -0.17421991014E+01  0.24603891165E+02  0.51100000000E-03 0. -1.
        -11    1    4    4    0    0  0.73799879802E+00 -0.14409760483E+02 -0.30282833325E+01  0.14743009855E+02  0.51100000000E-03 0.  1.
        -12    1    4    4    0    0 -0.27833137044E+01 -0.45578854850E+01  0.65359538411E+01  0.84403701272E+01  0.00000000000E+00 0.  1.
</event>
<event>
 8    1  0.4042158E-011  0.9118800E+02  0.7816164E-02  0.1184000E+00
        -11   -1    0    0    0    0  0.00000000000E+00  0.00000000000E+00  0.45593999997E+02  0.45594000000E+02  0.51100000000E-03 0. -1.
         11   -1    0    0    0    0 -0.00000000000E+00 -0.00000000000E+00 -0.45593999997E+02  0.45594000000E+02  0.51100000000E-03 0.  1.
         23    2    1    2    0    0  0.00000000000E+00  0.00000000000E+00 -0.17763568394E-14  0.91188000000E+02  0.91188000000E+02 0.  0.
    9900012    2    3    3    0    0 -0.34886814392E+02  0.21433822362E+02 -0.14391863200E+02  0.47787259386E+02  0.19999946846E+02 0.  0.
         12    1    3    3    0    0  0.34886814392E+02 -0.21433822362E+02  0.14391863200E+02  0.43400740614E+02  0.00000000000E+00 0. -1.
         11    1    4    4    0    0 -0.21557861394E+02  0.12474631064E+02 -0.11489164397E+02  0.27429157969E+02  0.51100000000E-03 0. -1.
        -11    1    4    4    0    0 -0.82835755609E+01  0.34421459812E+01 -0.74041579250E+01  0.11631317547E+02  0.51100000000E-03 0.  1.
         12    1    4    4    0    0 -0.50453774364E+01  0.55170453166E+01  0.45014591221E+01  0.87267838709E+01  0.00000000000E+00 0. -1.
</event>
<event>
 8    1  0.4042158E-011  0.9118800E+02  0.7816164E-02  0.1184000E+00
        -11   -1    0    0    0    0  0.00000000000E+00  0.00000000000E+00  0.45593999997E+02  0.45594000000E+02  0.51100000000E-03 0. -1.
         11   -1    0    0    0    0 -0.00000000000E+00 -0.00000000000E+00 -0.45593999997E+02  0.45594000000E+02  0.51100000000E-03 0.  1.
         23    2    1    2    0    0  0.00000000000E+00  0.00000000000E+00  0.71054273576E-14  0.91188000000E+02  0.91188000000E+02 0.  0.
    9900012    2    3    3    0    0 -0.24548141896E+02  0.10876180097E+02  0.34098694519E+02  0.47787268071E+02  0.19999986444E+02 0.  0.
        -12    1    3    3    0    0  0.24548141896E+02 -0.10876180097E+02 -0.34098694519E+02  0.43400731929E+02  0.00000000000E+00 0.  1.
         11    1    4    4    0    0  0.20620700021E+00  0.34652238768E+00  0.24556654873E+01  0.24885522576E+01  0.51100000000E-03 0. -1.
        -11    1    4    4    0    0  0.11880143393E+01 -0.14345217691E+01  0.80055334123E+01  0.82193549780E+01  0.51100000000E-03 0.  1.
         12    1    4    4    0    0 -0.25942363235E+02  0.11964179479E+02  0.23637495620E+02  0.37079360836E+02  0.00000000000E+00 0. -1.
</event>
<event>
 8    1  0.4042158E-011  0.9118800E+02  0.7816164E-02  0.1184000E+00
        -11   -1    0    0    0    0  0.00000000000E+00  0.00000000000E+00  0.45593999997E+02  0.45594000000E+02  0.51100000000E-03 0. -1.
         11   -1    0    0    0    0 -0.00000000000E+00 -0.00000000000E+00 -0.45593999997E+02  0.45594000000E+02  0.51100000000E-03 0.  1.
         23    2    1    2    0    0 -0.35527136788E-14 -0.35527136788E-14  0.71054273576E-14  0.91188000000E+02  0.91188000000E+02 0.  0.
    9900012    2    3    3    0    0  0.22197754068E+02  0.12088040757E+02 -0.35281189585E+02  0.47787270126E+02  0.19999995815E+02 0.  0.
         12    1    3    3    0    0 -0.22197754068E+02 -0.12088040757E+02  0.35281189585E+02  0.43400729874E+02  0.00000000000E+00 0. -1.
         11    1    4    4    0    0  0.10237830869E+02  0.71863168878E+01 -0.25067794455E+02  0.28015186068E+02  0.51100000000E-03 0. -1.
        -11    1    4    4    0    0  0.15336628330E+01 -0.53570865439E+00 -0.75400747495E+01  0.77130949001E+01  0.51100000000E-03 0.  1.
         12    1    4    4    0    0  0.10426260366E+02  0.54374325233E+01 -0.26733203808E+01  0.12058989159E+02  0.00000000000E+00 0. -1.
</event>
<event>
 8    1  0.4042158E-011  0.9118800E+02  0.7816164E-02  0.1184000E+00
        -11   -1    0    0    0    0  0.00000000000E+00  0.00000000000E+00  0.45593999997E+02  0.45594000000E+02  0.51100000000E-03 0.  1.
         11   -1    0    0    0    0 -0.00000000000E+00 -0.00000000000E+00 -0.45593999997E+02  0.45594000000E+02  0.51100000000E-03 0. -1.
         23    2    1    2    0    0 -0.35527136788E-14 -0.17763568394E-14  0.00000000000E+00  0.91188000000E+02  0.91188000000E+02 0.  0.
    9900012    2    3    3    0    0 -0.31547023031E+02  0.11720662210E+02 -0.27405034681E+02  0.47787256797E+02  0.19999935039E+02 0.  0.
         12    1    3    3    0    0  0.31547023031E+02 -0.11720662210E+02  0.27405034681E+02  0.43400743203E+02  0.00000000000E+00 0. -1.
         11    1    4    4    0    0 -0.51150751063E+01  0.82074369309E+01 -0.10075095650E+02  0.13965441881E+02  0.51100000000E-03 0. -1.
        -11    1    4    4    0    0 -0.11352542838E+02  0.38060798936E+01 -0.13915750300E+02  0.18357956850E+02  0.51100000000E-03 0.  1.
         12    1    4    4    0    0 -0.15079405086E+02 -0.29285461415E+00 -0.34141887308E+01  0.15463858066E+02  0.00000000000E+00 0. -1.
</event>
<event>
 8    1  0.4042158E-011  0.9118800E+02  0.7816164E-02  0.1184000E+00
        -11   -1    0    0    0    0  0.00000000000E+00  0.00000000000E+00  0.45593999997E+02  0.45594000000E+02  0.51100000000E-03 0. -1.
         11   -1    0    0    0    0 -0.00000000000E+00 -0.00000000000E+00 -0.45593999997E+02  0.45594000000E+02  0.51100000000E-03 0.  1.
         23    2    1    2    0    0  0.00000000000E+00  0.00000000000E+00  0.00000000000E+00  0.91188000000E+02  0.91188000000E+02 0.  0.
    9900012    2    3    3    0    0  0.85982556760E+01 -0.26578813507E+02 -0.33215365642E+02  0.47787264489E+02  0.19999970113E+02 0.  0.
         12    1    3    3    0    0 -0.85982556760E+01  0.26578813507E+02  0.33215365642E+02  0.43400735511E+02  0.00000000000E+00 0. -1.
         11    1    4    4    0    0 -0.56229786391E+00 -0.31968554190E+01 -0.10426253654E+01  0.34092713842E+01  0.51100000000E-03 0. -1.
        -11    1    4    4    0    0  0.95298086239E+01 -0.21606970091E+02 -0.17001025688E+02  0.29098338159E+02  0.51100000000E-03 0.  1.
         12    1    4    4    0    0 -0.36925508395E+00 -0.17749879973E+01 -0.15171714588E+02  0.15279654946E+02  0.00000000000E+00 0. -1.
</event>
<event>
 8    1  0.4042158E-011  0.9118800E+02  0.7816164E-02  0.1184000E+00
        -11   -1    0    0    0    0  0.00000000000E+00  0.00000000000E+00  0.45593999997E+02  0.45594000000E+02  0.51100000000E-03 0. -1.
         11   -1    0    0    0    0 -0.00000000000E+00 -0.00000000000E+00 -0.45593999997E+02  0.45594000000E+02  0.51100000000E-03 0.  1.
         23    2    1    2    0    0  0.00000000000E+00 -0.35527136788E-14  0.00000000000E+00  0.91188000000E+02  0.91188000000E+02 0.  0.
    9900012    2    3    3    0    0  0.90457421690E+01 -0.19062825292E+02 -0.37926329167E+02  0.47787271854E+02  0.20000003690E+02 0.  0.
         12    1    3    3    0    0 -0.90457421690E+01  0.19062825292E+02  0.37926329167E+02  0.43400728146E+02  0.00000000000E+00 0. -1.
         11    1    4    4    0    0 -0.90793447598E+00 -0.10506396786E+02 -0.18124385420E+02  0.20969074027E+02  0.51100000000E-03 0. -1.
        -11    1    4    4    0    0  0.77049285577E+01 -0.11416941155E+02 -0.18245506557E+02  0.22860686324E+02  0.51100000000E-03 0.  1.
        -12    1    4    4    0    0  0.22487480873E+01  0.28605126481E+01 -0.15564371904E+01  0.39575115031E+01  0.00000000000E+00 0.  1.
</event>
<event>
 8    1  0.4042158E-011  0.9118800E+02  0.7816164E-02  0.1184000E+00
        -11   -1    0    0    0    0  0.00000000000E+00  0.00000000000E+00  0.45593999997E+02  0.45594000000E+02  0.51100000000E-03 0. -1.
         11   -1    0    0    0    0 -0.00000000000E+00 -0.00000000000E+00 -0.45593999997E+02  0.45594000000E+02  0.51100000000E-03 0.  1.
         23    2    1    2    0    0  0.00000000000E+00  0.88817841970E-15  0.00000000000E+00  0.91188000000E+02  0.91188000000E+02 0.  0.
    9900012    2    3    3    0    0  0.76004957400E+01  0.52073066358E+01 -0.42411551365E+02  0.47787271122E+02  0.20000000355E+02 0.  0.
         12    1    3    3    0    0 -0.76004957400E+01 -0.52073066358E+01  0.42411551365E+02  0.43400728878E+02  0.00000000000E+00 0. -1.
         11    1    4    4    0    0 -0.26467852099E+01  0.22997017121E+01 -0.25468347759E+01  0.43336436804E+01  0.51100000000E-03 0.  1.
        -11    1    4    4    0    0  0.62652853404E+01  0.75191627942E+00 -0.43804843537E+01  0.76816548947E+01  0.51100000000E-03 0. -1.
        -12    1    4    4    0    0  0.39819956095E+01  0.21556886443E+01 -0.35484232236E+02  0.35771972547E+02  0.00000000000E+00 0.  1.
</event>
<event>
 8    1  0.4042158E-011  0.9118800E+02  0.7816164E-02  0.1184000E+00
        -11   -1    0    0    0    0  0.00000000000E+00  0.00000000000E+00  0.45593999997E+02  0.45594000000E+02  0.51100000000E-03 0. -1.
         11   -1    0    0    0    0 -0.00000000000E+00 -0.00000000000E+00 -0.45593999997E+02  0.45594000000E+02  0.51100000000E-03 0.  1.
         23    2    1    2    0    0  0.88817841970E-15  0.00000000000E+00 -0.71054273576E-14  0.91188000000E+02  0.91188000000E+02 0.  0.
    9900012    2    3    3    0    0  0.30714483583E+01 -0.21765666109E+02 -0.37422521271E+02  0.47787272881E+02  0.20000008373E+02 0.  0.
         12    1    3    3    0    0 -0.30714483583E+01  0.21765666109E+02  0.37422521271E+02  0.43400727119E+02  0.00000000000E+00 0. -1.
         11    1    4    4    0    0  0.72759664714E+00 -0.57526754541E+01 -0.96497845573E+00  0.58782527542E+01  0.51100000000E-03 0. -1.
        -11    1    4    4    0    0  0.66123411221E+01 -0.37545644222E+01 -0.15338401810E+02  0.17119765753E+02  0.51100000000E-03 0.  1.
        -12    1    4    4    0    0 -0.42684894109E+01 -0.12258426232E+02 -0.21119141006E+02  0.24789254373E+02  0.00000000000E+00 0.  1.
</event>
<event>
 8    1  0.4042158E-011  0.9118800E+02  0.7816164E-02  0.1184000E+00
        -11   -1    0    0    0    0  0.00000000000E+00  0.00000000000E+00  0.45593999997E+02  0.45594000000E+02  0.51100000000E-03 0. -1.
         11   -1    0    0    0    0 -0.00000000000E+00 -0.00000000000E+00 -0.45593999997E+02  0.45594000000E+02  0.51100000000E-03 0.  1.
         23    2    1    2    0    0  0.00000000000E+00  0.00000000000E+00  0.00000000000E+00  0.91188000000E+02  0.91188000000E+02 0.  0.
    9900012    2    3    3    0    0 -0.26320183011E+02 -0.32641723538E+02 -0.11197723533E+02  0.47787272338E+02  0.20000005899E+02 0.  0.
         12    1    3    3    0    0  0.26320183011E+02  0.32641723538E+02  0.11197723533E+02  0.43400727662E+02  0.00000000000E+00 0. -1.
         11    1    4    4    0    0 -0.11878479979E+02 -0.90986964638E+01  0.26313858679E+01  0.15192391379E+02  0.51100000000E-03 0. -1.
        -11    1    4    4    0    0 -0.13216743255E+02 -0.16749975653E+02 -0.60138375818E+01  0.22167774570E+02  0.51100000000E-03 0.  1.
        -12    1    4    4    0    0 -0.12249597765E+01 -0.67930514208E+01 -0.78152718189E+01  0.10427106390E+02  0.00000000000E+00 0.  1.
</event>
<event>
 8    1  0.4042158E-011  0.9118800E+02  0.7816164E-02  0.1184000E+00
        -11   -1    0    0    0    0  0.00000000000E+00  0.00000000000E+00  0.45593999997E+02  0.45594000000E+02  0.51100000000E-03 0.  1.
         11   -1    0    0    0    0 -0.00000000000E+00 -0.00000000000E+00 -0.45593999997E+02  0.45594000000E+02  0.51100000000E-03 0. -1.
         23    2    1    2    0    0  0.71054273576E-14 -0.88817841970E-15 -0.88817841970E-15  0.91188000000E+02  0.91188000000E+02 0.  0.
    9900012    2    3    3    0    0  0.42802442106E+02  0.55818796771E+01  0.45184920537E+01  0.47787271880E+02  0.20000003808E+02 0.  0.
        -12    1    3    3    0    0 -0.42802442106E+02 -0.55818796771E+01 -0.45184920537E+01  0.43400728120E+02  0.00000000000E+00 0.  1.
         11    1    4    4    0    0  0.24871645123E+02 -0.20162151720E+00  0.29132708037E+01  0.25042494473E+02  0.51100000000E-03 0. -1.
        -11    1    4    4    0    0  0.18922349753E+02  0.60599231997E+01  0.38832831845E+01  0.20244946973E+02  0.51100000000E-03 0.  1.
         12    1    4    4    0    0 -0.99155277090E+00 -0.27642200545E+00 -0.22780619346E+01  0.24998304343E+01  0.00000000000E+00 0. -1.
</event>
<event>
 8    1  0.4042158E-011  0.9118800E+02  0.7816164E-02  0.1184000E+00
        -11   -1    0    0    0    0  0.00000000000E+00  0.00000000000E+00  0.45593999997E+02  0.45594000000E+02  0.51100000000E-03 0. -1.
         11   -1    0    0    0    0 -0.00000000000E+00 -0.00000000000E+00 -0.45593999997E+02  0.45594000000E+02  0.51100000000E-03 0.  1.
         23    2    1    2    0    0 -0.44408920985E-15 -0.35527136788E-14  0.00000000000E+00  0.91188000000E+02  0.91188000000E+02 0.  0.
    9900012    2    3    3    0    0  0.39563276434E+01  0.25280182283E+02 -0.35055432293E+02  0.47787268693E+02  0.19999989280E+02 0.  0.
         12    1    3    3    0    0 -0.39563276434E+01 -0.25280182283E+02  0.35055432293E+02  0.43400731307E+02  0.00000000000E+00 0. -1.
         11    1    4    4    0    0  0.31185994705E+00  0.18818359910E+02 -0.23293135317E+02  0.29946587110E+02  0.51100000000E-03 0. -1.
        -11    1    4    4    0    0  0.78903806993E+00  0.59597322318E+01 -0.13273349551E+02  0.14571300488E+02  0.51100000000E-03 0.  1.
         12    1    4    4    0    0  0.28554296265E+01  0.50209014110E+00  0.15110525753E+01  0.32693810953E+01  0.00000000000E+00 0. -1.
</event>
<event>
 8    1  0.4042158E-011  0.9118800E+02  0.7816164E-02  0.1184000E+00
        -11   -1    0    0    0    0  0.00000000000E+00  0.00000000000E+00  0.45593999997E+02  0.45594000000E+02  0.51100000000E-03 0. -1.
         11   -1    0    0    0    0 -0.00000000000E+00 -0.00000000000E+00 -0.45593999997E+02  0.45594000000E+02  0.51100000000E-03 0.  1.
         23    2    1    2    0    0  0.00000000000E+00  0.00000000000E+00  0.00000000000E+00  0.91188000000E+02  0.91188000000E+02 0.  0.
    9900012    2    3    3    0    0 -0.14326232621E+02  0.74500409304E+01 -0.40284959406E+02  0.47787285659E+02  0.20000066633E+02 0.  0.
         12    1    3    3    0    0  0.14326232621E+02 -0.74500409304E+01  0.40284959406E+02  0.43400714341E+02  0.00000000000E+00 0. -1.
         11    1    4    4    0    0 -0.74392241579E+01  0.80497037468E+01 -0.16260325623E+02  0.19609639877E+02  0.51100000000E-03 0. -1.
        -11    1    4    4    0    0 -0.10711271711E+02 -0.60539498097E+00 -0.15686217195E+02  0.19004085216E+02  0.51100000000E-03 0.  1.
         12    1    4    4    0    0  0.38242632487E+01  0.57321645047E-02 -0.83384165881E+01  0.91735605655E+01  0.00000000000E+00 0. -1.
</event>
<event>
 8    1  0.4042158E-011  0.9118800E+02  0.7816164E-02  0.1184000E+00
        -11   -1    0    0    0    0  0.00000000000E+00  0.00000000000E+00  0.45593999997E+02  0.45594000000E+02  0.51100000000E-03 0.  1.
         11   -1    0    0    0    0 -0.00000000000E+00 -0.00000000000E+00 -0.45593999997E+02  0.45594000000E+02  0.51100000000E-03 0. -1.
         23    2    1    2    0    0  0.00000000000E+00  0.22204460493E-15  0.00000000000E+00  0.91188000000E+02  0.91188000000E+02 0.  0.
    9900012    2    3    3    0    0  0.42286560043E+02  0.17080998898E+01 -0.96204107518E+01  0.47787273410E+02  0.20000010784E+02 0.  0.
         12    1    3    3    0    0 -0.42286560043E+02 -0.17080998898E+01  0.96204107518E+01  0.43400726590E+02  0.00000000000E+00 0. -1.
         11    1    4    4    0    0  0.15447550622E+02  0.76645832041E+01 -0.35728180237E+01  0.17610726414E+02  0.51100000000E-03 0. -1.
        -11    1    4    4    0    0 -0.21036254527E+00 -0.50202022213E+00 -0.22592284564E+01  0.23238739603E+01  0.51100000000E-03 0.  1.
        -12    1    4    4    0    0  0.27049371966E+02 -0.54544630921E+01 -0.37883642717E+01  0.27852673036E+02  0.00000000000E+00 0.  1.
</event>
<event>
 8    1  0.4596960E-011  0.9118800E+02  0.7816164E-02  0.1184000E+00
        -11   -1    0    0    0    0  0.00000000000E+00  0.00000000000E+00  0.45593999997E+02  0.45594000000E+02  0.51100000000E-03 0. -1.
         11   -1    0    0    0    0 -0.00000000000E+00 -0.00000000000E+00 -0.45593999997E+02  0.45594000000E+02  0.51100000000E-03 0.  1.
         23    2    1    2    0    0 -0.88817841970E-15  0.00000000000E+00  0.00000000000E+00  0.91188000000E+02  0.91188000000E+02 0.  0.
    9900012    2    3    3    0    0  0.48994854175E+01  0.13445123462E+02  0.40973725883E+02  0.47787279787E+02  0.20000039861E+02 0.  0.
        -12    1    3    3    0    0 -0.48994854175E+01 -0.13445123462E+02 -0.40973725883E+02  0.43400720213E+02  0.00000000000E+00 0.  1.
         11    1    4    4    0    0  0.15110498327E+01  0.16192959294E+01  0.23240765597E+02  0.23346061268E+02  0.51100000000E-03 0. -1.
        -11    1    4    4    0    0  0.48116051228E+01  0.20921050452E+01  0.11898434048E+02  0.13003890972E+02  0.51100000000E-03 0.  1.
        -12    1    4    4    0    0 -0.14231695381E+01  0.97337224870E+01  0.58345262384E+01  0.11437327547E+02  0.00000000000E+00 0.  1.
</event>
<event>
 8    1  0.4042158E-011  0.9118800E+02  0.7816164E-02  0.1184000E+00
        -11   -1    0    0    0    0  0.00000000000E+00  0.00000000000E+00  0.45593999997E+02  0.45594000000E+02  0.51100000000E-03 0. -1.
         11   -1    0    0    0    0 -0.00000000000E+00 -0.00000000000E+00 -0.45593999997E+02  0.45594000000E+02  0.51100000000E-03 0.  1.
         23    2    1    2    0    0  0.35527136788E-14  0.17763568394E-14  0.00000000000E+00  0.91188000000E+02  0.91188000000E+02 0.  0.
    9900012    2    3    3    0    0  0.22151760001E+02  0.15553543964E+02 -0.33926535351E+02  0.47787274177E+02  0.20000014285E+02 0.  0.
         12    1    3    3    0    0 -0.22151760001E+02 -0.15553543964E+02  0.33926535351E+02  0.43400725823E+02  0.00000000000E+00 0. -1.
         11    1    4    4    0    0  0.22912411487E+01 -0.35119602302E+01 -0.74719349951E+01  0.85681657017E+01  0.51100000000E-03 0. -1.
        -11    1    4    4    0    0 -0.59251339909E-01  0.20695514096E+01 -0.48443165239E+01  0.52682024072E+01  0.51100000000E-03 0.  1.
        -12    1    4    4    0    0  0.19919770192E+02  0.16995952785E+02 -0.21610283832E+02  0.33950906069E+02  0.00000000000E+00 0.  1.
</event>
<event>
 8    1  0.4042158E-011  0.9118800E+02  0.7816164E-02  0.1184000E+00
        -11   -1    0    0    0    0  0.00000000000E+00  0.00000000000E+00  0.45593999997E+02  0.45594000000E+02  0.51100000000E-03 0. -1.
         11   -1    0    0    0    0 -0.00000000000E+00 -0.00000000000E+00 -0.45593999997E+02  0.45594000000E+02  0.51100000000E-03 0.  1.
         23    2    1    2    0    0  0.00000000000E+00  0.00000000000E+00  0.00000000000E+00  0.91188000000E+02  0.91188000000E+02 0.  0.
    9900012    2    3    3    0    0  0.12509574061E+02 -0.28197790071E+02 -0.30528983006E+02  0.47787267156E+02  0.19999982270E+02 0.  0.
         12    1    3    3    0    0 -0.12509574061E+02  0.28197790071E+02  0.30528983006E+02  0.43400732844E+02  0.00000000000E+00 0. -1.
         11    1    4    4    0    0 -0.21039590365E+01 -0.55868205586E+01 -0.12075197920E+01  0.60907562659E+01  0.51100000000E-03 0. -1.
        -11    1    4    4    0    0 -0.88322366574E+00  0.86493703592E+00 -0.26888001733E+01  0.29593659376E+01  0.51100000000E-03 0.  1.
        -12    1    4    4    0    0  0.15496756763E+02 -0.23475906548E+02 -0.26632663041E+02  0.38737144952E+02  0.00000000000E+00 0.  1.
</event>
<event>
 8    1  0.4042158E-011  0.9118800E+02  0.7816164E-02  0.1184000E+00
        -11   -1    0    0    0    0  0.00000000000E+00  0.00000000000E+00  0.45593999997E+02  0.45594000000E+02  0.51100000000E-03 0. -1.
         11   -1    0    0    0    0 -0.00000000000E+00 -0.00000000000E+00 -0.45593999997E+02  0.45594000000E+02  0.51100000000E-03 0.  1.
         23    2    1    2    0    0 -0.35527136788E-14  0.00000000000E+00 -0.35527136788E-14  0.91188000000E+02  0.91188000000E+02 0.  0.
    9900012    2    3    3    0    0 -0.19635639641E+02 -0.22742413065E+02 -0.31318489111E+02  0.47787268943E+02  0.19999990418E+02 0.  0.
         12    1    3    3    0    0  0.19635639641E+02  0.22742413065E+02  0.31318489111E+02  0.43400731057E+02  0.00000000000E+00 0. -1.
         11    1    4    4    0    0 -0.12131269075E+02 -0.10939888408E+02 -0.14060847611E+02  0.21553567768E+02  0.51100000000E-03 0. -1.
        -11    1    4    4    0    0 -0.72474560295E+01 -0.11925660469E+02 -0.19496798938E+02  0.23976491937E+02  0.51100000000E-03 0.  1.
         12    1    4    4    0    0 -0.25691453650E+00  0.12313581212E+00  0.22391574384E+01  0.22572092373E+01  0.00000000000E+00 0. -1.
</event>
<event>
 8    1  0.4042158E-011  0.9118800E+02  0.7816164E-02  0.1184000E+00
        -11   -1    0    0    0    0  0.00000000000E+00  0.00000000000E+00  0.45593999997E+02  0.45594000000E+02  0.51100000000E-03 0. -1.
         11   -1    0    0    0    0 -0.00000000000E+00 -0.00000000000E+00 -0.45593999997E+02  0.45594000000E+02  0.51100000000E-03 0.  1.
         23    2    1    2    0    0  0.00000000000E+00  0.11102230246E-15  0.00000000000E+00  0.91188000000E+02  0.91188000000E+02 0.  0.
    9900012    2    3    3    0    0 -0.17547597212E+01 -0.45782730781E+00  0.43362779072E+02  0.47787315716E+02  0.20000203674E+02 0.  0.
        -12    1    3    3    0    0  0.17547597212E+01  0.45782730781E+00 -0.43362779072E+02  0.43400684284E+02  0.00000000000E+00 0.  1.
         11    1    4    4    0    0 -0.26361045373E+01  0.39321921201E+01  0.25179971506E+02  0.25621126972E+02  0.51100000000E-03 0. -1.
        -11    1    4    4    0    0 -0.14309783689E+01  0.34665427591E+01  0.95826206065E+01  0.10290346726E+02  0.51100000000E-03 0.  1.
        -12    1    4    4    0    0  0.23123231850E+01 -0.78565621869E+01  0.86001869590E+01  0.11875842018E+02  0.00000000000E+00 0.  1.
</event>
<event>
 8    1  0.4042158E-011  0.9118800E+02  0.7816164E-02  0.1184000E+00
        -11   -1    0    0    0    0  0.00000000000E+00  0.00000000000E+00  0.45593999997E+02  0.45594000000E+02  0.51100000000E-03 0.  1.
         11   -1    0    0    0    0 -0.00000000000E+00 -0.00000000000E+00 -0.45593999997E+02  0.45594000000E+02  0.51100000000E-03 0. -1.
         23    2    1    2    0    0 -0.71054273576E-14 -0.22204460493E-15 -0.13322676296E-14  0.91188000000E+02  0.91188000000E+02 0.  0.
    9900012    2    3    3    0    0 -0.43265588630E+02 -0.12499832779E+01 -0.31858183516E+01  0.47787273551E+02  0.20000011429E+02 0.  0.
         12    1    3    3    0    0  0.43265588630E+02  0.12499832779E+01  0.31858183516E+01  0.43400726449E+02  0.00000000000E+00 0. -1.
         11    1    4    4    0    0 -0.66953127880E+01 -0.25290811246E+01  0.31062985322E+01  0.78020866116E+01  0.51100000000E-03 0. -1.
        -11    1    4    4    0    0 -0.25355624935E+02  0.25434105574E+01  0.26029421511E+01  0.25615463322E+02  0.51100000000E-03 0.  1.
         12    1    4    4    0    0 -0.11214650908E+02 -0.12643127107E+01 -0.88950590348E+01  0.14369723618E+02  0.00000000000E+00 0. -1.
</event>
<event>
 8    1  0.4042158E-011  0.9118800E+02  0.7816164E-02  0.1184000E+00
        -11   -1    0    0    0    0  0.00000000000E+00  0.00000000000E+00  0.45593999997E+02  0.45594000000E+02  0.51100000000E-03 0. -1.
         11   -1    0    0    0    0 -0.00000000000E+00 -0.00000000000E+00 -0.45593999997E+02  0.45594000000E+02  0.51100000000E-03 0.  1.
         23    2    1    2    0    0  0.35527136788E-14  0.00000000000E+00  0.00000000000E+00  0.91188000000E+02  0.91188000000E+02 0.  0.
    9900012    2    3    3    0    0  0.26923835654E+02 -0.24746061200E+02 -0.23374402429E+02  0.47787272355E+02  0.20000005974E+02 0.  0.
         12    1    3    3    0    0 -0.26923835654E+02  0.24746061200E+02  0.23374402429E+02  0.43400727645E+02  0.00000000000E+00 0. -1.
         11    1    4    4    0    0  0.16700603881E+02 -0.76924159410E+01 -0.13796203245E+02  0.22987358640E+02  0.51100000000E-03 0. -1.
        -11    1    4    4    0    0  0.45742924002E+01 -0.15464627869E+01 -0.63595385037E+01  0.79849501160E+01  0.51100000000E-03 0.  1.
         12    1    4    4    0    0  0.56489393733E+01 -0.15507182472E+02 -0.32186606803E+01  0.16814963599E+02  0.00000000000E+00 0. -1.
</event>
<event>
 8    1  0.4042158E-011  0.9118800E+02  0.7816164E-02  0.1184000E+00
        -11   -1    0    0    0    0  0.00000000000E+00  0.00000000000E+00  0.45593999997E+02  0.45594000000E+02  0.51100000000E-03 0. -1.
         11   -1    0    0    0    0 -0.00000000000E+00 -0.00000000000E+00 -0.45593999997E+02  0.45594000000E+02  0.51100000000E-03 0.  1.
         23    2    1    2    0    0 -0.17763568394E-14  0.35527136788E-14  0.35527136788E-14  0.91188000000E+02  0.91188000000E+02 0.  0.
    9900012    2    3    3    0    0  0.12816023302E+02 -0.31881225672E+02  0.26513401476E+02  0.47787268883E+02  0.19999990146E+02 0.  0.
        -12    1    3    3    0    0 -0.12816023302E+02  0.31881225672E+02 -0.26513401476E+02  0.43400731117E+02  0.00000000000E+00 0.  1.
         11    1    4    4    0    0  0.38670187637E+01 -0.42150043969E+01  0.54736414762E+01  0.79171236858E+01  0.51100000000E-03 0. -1.
        -11    1    4    4    0    0 -0.13612682360E+01 -0.52524992971E+01  0.12727935410E+02  0.13836261783E+02  0.51100000000E-03 0.  1.
         12    1    4    4    0    0  0.10310272774E+02 -0.22413721978E+02  0.83118245902E+01  0.26033883414E+02  0.00000000000E+00 0. -1.
</event>
<event>
 8    1  0.4042158E-011  0.9118800E+02  0.7816164E-02  0.1184000E+00
        -11   -1    0    0    0    0  0.00000000000E+00  0.00000000000E+00  0.45593999997E+02  0.45594000000E+02  0.51100000000E-03 0.  1.
         11   -1    0    0    0    0 -0.00000000000E+00 -0.00000000000E+00 -0.45593999997E+02  0.45594000000E+02  0.51100000000E-03 0. -1.
         23    2    1    2    0    0  0.00000000000E+00  0.00000000000E+00  0.00000000000E+00  0.91188000000E+02  0.91188000000E+02 0.  0.
    9900012    2    3    3    0    0 -0.17266275231E+01  0.29771580293E+02 -0.31532436665E+02  0.47787276529E+02  0.20000025008E+02 0.  0.
         12    1    3    3    0    0  0.17266275231E+01 -0.29771580293E+02  0.31532436665E+02  0.43400723471E+02  0.00000000000E+00 0. -1.
         11    1    4    4    0    0  0.11511174052E+01  0.15564879625E+02 -0.12666318289E+02  0.20100402192E+02  0.51100000000E-03 0. -1.
        -11    1    4    4    0    0  0.80391172270E+00  0.14910311506E+02 -0.97580703899E+01  0.17837701681E+02  0.51100000000E-03 0.  1.
         12    1    4    4    0    0 -0.36816566510E+01 -0.70361083753E+00 -0.91080479855E+01  0.98491726562E+01  0.00000000000E+00 0. -1.
</event>
<event>
 8    1  0.4042158E-011  0.9118800E+02  0.7816164E-02  0.1184000E+00
        -11   -1    0    0    0    0  0.00000000000E+00  0.00000000000E+00  0.45593999997E+02  0.45594000000E+02  0.51100000000E-03 0. -1.
         11   -1    0    0    0    0 -0.00000000000E+00 -0.00000000000E+00 -0.45593999997E+02  0.45594000000E+02  0.51100000000E-03 0.  1.
         23    2    1    2    0    0  0.35527136788E-14  0.16653345369E-15  0.00000000000E+00  0.91188000000E+02  0.91188000000E+02 0.  0.
    9900012    2    3    3    0    0  0.22903492593E+02 -0.16326230644E+00 -0.36864977042E+02  0.47787272359E+02  0.20000005991E+02 0.  0.
         12    1    3    3    0    0 -0.22903492593E+02  0.16326230644E+00  0.36864977042E+02  0.43400727641E+02  0.00000000000E+00 0. -1.
         11    1    4    4    0    0  0.16308258338E+02  0.49979742350E+01 -0.17408106384E+02  0.24371729619E+02  0.51100000000E-03 0. -1.
        -11    1    4    4    0    0  0.64333697300E+01 -0.15622151571E+00 -0.16227468496E+02  0.17456900793E+02  0.51100000000E-03 0.  1.
         12    1    4    4    0    0  0.16186452539E+00 -0.50050150257E+01 -0.32294021612E+01  0.59586419469E+01  0.00000000000E+00 0. -1.
</event>
<event>
 8    1  0.4042158E-011  0.9118800E+02  0.7816164E-02  0.1184000E+00
        -11   -1    0    0    0    0  0.00000000000E+00  0.00000000000E+00  0.45593999997E+02  0.45594000000E+02  0.51100000000E-03 0. -1.
         11   -1    0    0    0    0 -0.00000000000E+00 -0.00000000000E+00 -0.45593999997E+02  0.45594000000E+02  0.51100000000E-03 0.  1.
         23    2    1    2    0    0  0.00000000000E+00  0.00000000000E+00  0.00000000000E+00  0.91188000000E+02  0.91188000000E+02 0.  0.
    9900012    2    3    3    0    0  0.25722149067E+02 -0.12657828928E+02  0.32584868751E+02  0.47787271235E+02  0.20000000867E+02 0.  0.
        -12    1    3    3    0    0 -0.25722149067E+02  0.12657828928E+02 -0.32584868751E+02  0.43400728765E+02  0.00000000000E+00 0.  1.
         11    1    4    4    0    0 -0.40410467298E+00 -0.38485855098E+01  0.29163438805E+01  0.48456137799E+01  0.51100000000E-03 0. -1.
        -11    1    4    4    0    0  0.46592590308E+01  0.39080833531E+01  0.62968417354E+01  0.87539720306E+01  0.51100000000E-03 0.  1.
         12    1    4    4    0    0  0.21466994710E+02 -0.12717326772E+02  0.23371683135E+02  0.34187685424E+02  0.00000000000E+00 0. -1.
</event>
<event>
 8    1  0.4042158E-011  0.9118800E+02  0.7816164E-02  0.1184000E+00
        -11   -1    0    0    0    0  0.00000000000E+00  0.00000000000E+00  0.45593999997E+02  0.45594000000E+02  0.51100000000E-03 0.  1.
         11   -1    0    0    0    0 -0.00000000000E+00 -0.00000000000E+00 -0.45593999997E+02  0.45594000000E+02  0.51100000000E-03 0. -1.
         23    2    1    2    0    0  0.00000000000E+00  0.00000000000E+00  0.00000000000E+00  0.91188000000E+02  0.91188000000E+02 0.  0.
    9900012    2    3    3    0    0  0.29204930566E+02 -0.25384590127E+02 -0.19654971536E+02  0.47787270843E+02  0.19999999083E+02 0.  0.
         12    1    3    3    0    0 -0.29204930566E+02  0.25384590127E+02  0.19654971536E+02  0.43400729157E+02  0.00000000000E+00 0. -1.
         11    1    4    4    0    0  0.67644574774E+01 -0.10736243689E+02 -0.32182166405E+01  0.13091284586E+02  0.51100000000E-03 0. -1.
        -11    1    4    4    0    0  0.12103789255E+02 -0.10942984233E+02 -0.18261652944E+01  0.16419058993E+02  0.51100000000E-03 0.  1.
         12    1    4    4    0    0  0.10336683833E+02 -0.37053622043E+01 -0.14610589601E+02  0.18276927264E+02  0.00000000000E+00 0. -1.
</event>
<event>
 8    1  0.4042158E-011  0.9118800E+02  0.7816164E-02  0.1184000E+00
        -11   -1    0    0    0    0  0.00000000000E+00  0.00000000000E+00  0.45593999997E+02  0.45594000000E+02  0.51100000000E-03 0. -1.
         11   -1    0    0    0    0 -0.00000000000E+00 -0.00000000000E+00 -0.45593999997E+02  0.45594000000E+02  0.51100000000E-03 0.  1.
         23    2    1    2    0    0  0.00000000000E+00  0.00000000000E+00  0.00000000000E+00  0.91188000000E+02  0.91188000000E+02 0.  0.
    9900012    2    3    3    0    0 -0.35623851783E+02 -0.80881245315E+01  0.23433894928E+02  0.47787262612E+02  0.19999961553E+02 0.  0.
        -12    1    3    3    0    0  0.35623851783E+02  0.80881245315E+01 -0.23433894928E+02  0.43400737388E+02  0.00000000000E+00 0.  1.
         11    1    4    4    0    0 -0.92567901965E+01  0.24281146207E+01  0.77971953459E+00  0.96016596569E+01  0.51100000000E-03 0. -1.
        -11    1    4    4    0    0 -0.10599470405E+01  0.17046362228E+01  0.39386776204E+01  0.44206847930E+01  0.51100000000E-03 0.  1.
         12    1    4    4    0    0 -0.25307114546E+02 -0.12220875375E+02  0.18715497773E+02  0.33764918162E+02  0.00000000000E+00 0. -1.
</event>
<event>
 8    1  0.4042158E-011  0.9118800E+02  0.7816164E-02  0.1184000E+00
        -11   -1    0    0    0    0  0.00000000000E+00  0.00000000000E+00  0.45593999997E+02  0.45594000000E+02  0.51100000000E-03 0.  1.
         11   -1    0    0    0    0 -0.00000000000E+00 -0.00000000000E+00 -0.45593999997E+02  0.45594000000E+02  0.51100000000E-03 0. -1.
         23    2    1    2    0    0 -0.35527136788E-14  0.00000000000E+00  0.00000000000E+00  0.91188000000E+02  0.91188000000E+02 0.  0.
    9900012    2    3    3    0    0 -0.26020095690E+02  0.11730674217E+02 -0.32695098039E+02  0.47787268058E+02  0.19999986384E+02 0.  0.
         12    1    3    3    0    0  0.26020095690E+02 -0.11730674217E+02  0.32695098039E+02  0.43400731942E+02  0.00000000000E+00 0. -1.
         11    1    4    4    0    0 -0.60361435098E+00  0.32711087621E+01 -0.37638823000E+01  0.50230780451E+01  0.51100000000E-03 0.  1.
        -11    1    4    4    0    0 -0.83083679151E+00  0.63142225555E+01 -0.32610500009E+01  0.71550082896E+01  0.51100000000E-03 0. -1.
         12    1    4    4    0    0 -0.24585644548E+02  0.21453428997E+01 -0.25670165738E+02  0.35609181723E+02  0.00000000000E+00 0. -1.
</event>
<event>
 8    1  0.4042158E-011  0.9118800E+02  0.7816164E-02  0.1184000E+00
        -11   -1    0    0    0    0  0.00000000000E+00  0.00000000000E+00  0.45593999997E+02  0.45594000000E+02  0.51100000000E-03 0. -1.
         11   -1    0    0    0    0 -0.00000000000E+00 -0.00000000000E+00 -0.45593999997E+02  0.45594000000E+02  0.51100000000E-03 0.  1.
         23    2    1    2    0    0 -0.35527136788E-14  0.00000000000E+00  0.71054273576E-14  0.91188000000E+02  0.91188000000E+02 0.  0.
    9900012    2    3    3    0    0  0.20363552781E+02  0.91326738035E+01 -0.37222886399E+02  0.47787270922E+02  0.19999999442E+02 0.  0.
         12    1    3    3    0    0 -0.20363552781E+02 -0.91326738035E+01  0.37222886399E+02  0.43400729078E+02  0.00000000000E+00 0. -1.
         11    1    4    4    0    0  0.14788236822E+02  0.81359981073E+01 -0.15378112781E+02  0.22833588559E+02  0.51100000000E-03 0. -1.
        -11    1    4    4    0    0  0.25505789832E+01  0.57090385997E+01 -0.13815791455E+02  0.15164915716E+02  0.51100000000E-03 0.  1.
        -12    1    4    4    0    0  0.30247369758E+01 -0.47123629035E+01 -0.80289821631E+01  0.97887666477E+01  0.00000000000E+00 0.  1.
</event>
<event>
 8    1  0.4042158E-011  0.9118800E+02  0.7816164E-02  0.1184000E+00
        -11   -1    0    0    0    0  0.00000000000E+00  0.00000000000E+00  0.45593999997E+02  0.45594000000E+02  0.51100000000E-03 0. -1.
         11   -1    0    0    0    0 -0.00000000000E+00 -0.00000000000E+00 -0.45593999997E+02  0.45594000000E+02  0.51100000000E-03 0.  1.
         23    2    1    2    0    0 -0.44408920985E-15  0.00000000000E+00  0.71054273576E-14  0.91188000000E+02  0.91188000000E+02 0.  0.
    9900012    2    3    3    0    0  0.94129196791E+00  0.28902822869E+02  0.32363002231E+02  0.47787272889E+02  0.20000008411E+02 0.  0.
        -12    1    3    3    0    0 -0.94129196791E+00 -0.28902822869E+02 -0.32363002231E+02  0.43400727111E+02  0.00000000000E+00 0.  1.
         11    1    4    4    0    0  0.99511527484E+00  0.14321843766E+02  0.13214019567E+02  0.19511939336E+02  0.51100000000E-03 0. -1.
        -11    1    4    4    0    0  0.71215540193E+01  0.69529345217E+01  0.66551971129E+01  0.11972947799E+02  0.51100000000E-03 0.  1.
        -12    1    4    4    0    0 -0.71753773262E+01  0.76280445814E+01  0.12493785551E+02  0.16302385755E+02  0.00000000000E+00 0.  1.
</event>
<event>
 8    1  0.4042158E-011  0.9118800E+02  0.7816164E-02  0.1184000E+00
        -11   -1    0    0    0    0  0.00000000000E+00  0.00000000000E+00  0.45593999997E+02  0.45594000000E+02  0.51100000000E-03 0. -1.
         11   -1    0    0    0    0 -0.00000000000E+00 -0.00000000000E+00 -0.45593999997E+02  0.45594000000E+02  0.51100000000E-03 0.  1.
         23    2    1    2    0    0  0.35527136788E-14  0.00000000000E+00  0.00000000000E+00  0.91188000000E+02  0.91188000000E+02 0.  0.
    9900012    2    3    3    0    0 -0.28606695242E+02  0.47908788480E+01 -0.32285100788E+02  0.47787271138E+02  0.20000000428E+02 0.  0.
         12    1    3    3    0    0  0.28606695242E+02 -0.47908788480E+01  0.32285100788E+02  0.43400728862E+02  0.00000000000E+00 0. -1.
         11    1    4    4    0    0 -0.41685016716E+01 -0.10791528189E+01 -0.75827458330E+01  0.87200350700E+01  0.51100000000E-03 0. -1.
        -11    1    4    4    0    0 -0.77210867301E+01  0.55935936880E+00  0.11498120700E+01  0.78262463068E+01  0.51100000000E-03 0.  1.
        -12    1    4    4    0    0 -0.16717106841E+02  0.53106722981E+01 -0.25852167025E+02  0.31240989761E+02  0.00000000000E+00 0.  1.
</event>
<event>
 8    1  0.4042158E-011  0.9118800E+02  0.7816164E-02  0.1184000E+00
        -11   -1    0    0    0    0  0.00000000000E+00  0.00000000000E+00  0.45593999997E+02  0.45594000000E+02  0.51100000000E-03 0. -1.
         11   -1    0    0    0    0 -0.00000000000E+00 -0.00000000000E+00 -0.45593999997E+02  0.45594000000E+02  0.51100000000E-03 0.  1.
         23    2    1    2    0    0  0.00000000000E+00  0.35527136788E-14 -0.17763568394E-14  0.91188000000E+02  0.91188000000E+02 0.  0.
    9900012    2    3    3    0    0 -0.37005852036E+02 -0.17690588953E+02  0.14185674571E+02  0.47787269760E+02  0.19999994142E+02 0.  0.
        -12    1    3    3    0    0  0.37005852036E+02  0.17690588953E+02 -0.14185674571E+02  0.43400730240E+02  0.00000000000E+00 0.  1.
         11    1    4    4    0    0 -0.18520790364E+02 -0.41519652152E+01  0.56112645477E+01  0.19792543569E+02  0.51100000000E-03 0. -1.
        -11    1    4    4    0    0 -0.18764516960E+02 -0.73073093946E+01  0.47903075118E+01  0.20699055864E+02  0.51100000000E-03 0.  1.
        -12    1    4    4    0    0  0.27945528822E+00 -0.62313143432E+01  0.37841025111E+01  0.72956703267E+01  0.00000000000E+00 0.  1.
</event>
<event>
 8    1  0.4042158E-011  0.9118800E+02  0.7816164E-02  0.1184000E+00
        -11   -1    0    0    0    0  0.00000000000E+00  0.00000000000E+00  0.45593999997E+02  0.45594000000E+02  0.51100000000E-03 0. -1.
         11   -1    0    0    0    0 -0.00000000000E+00 -0.00000000000E+00 -0.45593999997E+02  0.45594000000E+02  0.51100000000E-03 0.  1.
         23    2    1    2    0    0 -0.44408920985E-15  0.53290705182E-14  0.00000000000E+00  0.91188000000E+02  0.91188000000E+02 0.  0.
    9900012    2    3    3    0    0 -0.11818158979E+01 -0.14434982613E+02 -0.40912866139E+02  0.47787216279E+02  0.19999750301E+02 0.  0.
         12    1    3    3    0    0  0.11818158979E+01  0.14434982613E+02  0.40912866139E+02  0.43400783721E+02  0.00000000000E+00 0. -1.
         11    1    4    4    0    0 -0.32957854326E+01 -0.13796742998E+02 -0.28979296100E+02  0.32264716358E+02  0.51100000000E-03 0. -1.
        -11    1    4    4    0    0  0.79160031231E-02 -0.43943967863E+01 -0.97493226594E+01  0.10693927172E+02  0.51100000000E-03 0.  1.
        -12    1    4    4    0    0  0.21060535316E+01  0.37561571715E+01 -0.21842473800E+01  0.48285727490E+01  0.00000000000E+00 0.  1.
</event>
<event>
 8    1  0.4042158E-011  0.9118800E+02  0.7816164E-02  0.1184000E+00
        -11   -1    0    0    0    0  0.00000000000E+00  0.00000000000E+00  0.45593999997E+02  0.45594000000E+02  0.51100000000E-03 0.  1.
         11   -1    0    0    0    0 -0.00000000000E+00 -0.00000000000E+00 -0.45593999997E+02  0.45594000000E+02  0.51100000000E-03 0. -1.
         23    2    1    2    0    0  0.00000000000E+00  0.00000000000E+00 -0.35527136788E-14  0.91188000000E+02  0.91188000000E+02 0.  0.
    9900012    2    3    3    0    0 -0.13985629887E+02  0.35438759083E+02  0.20787485593E+02  0.47787273670E+02  0.20000011971E+02 0.  0.
        -12    1    3    3    0    0  0.13985629887E+02 -0.35438759083E+02 -0.20787485593E+02  0.43400726330E+02  0.00000000000E+00 0.  1.
         11    1    4    4    0    0  0.14586392833E+01 -0.44123946533E+00  0.59745789546E+00  0.16368497251E+01  0.51100000000E-03 0.  1.
        -11    1    4    4    0    0 -0.36856039048E+01  0.25569374422E+02  0.11764196927E+02  0.28386139471E+02  0.51100000000E-03 0. -1.
         12    1    4    4    0    0 -0.11758665265E+02  0.10310624127E+02  0.84258307698E+01  0.17764284474E+02  0.00000000000E+00 0. -1.
</event>
<event>
 8    1  0.4042158E-011  0.9118800E+02  0.7816164E-02  0.1184000E+00
        -11   -1    0    0    0    0  0.00000000000E+00  0.00000000000E+00  0.45593999997E+02  0.45594000000E+02  0.51100000000E-03 0. -1.
         11   -1    0    0    0    0 -0.00000000000E+00 -0.00000000000E+00 -0.45593999997E+02  0.45594000000E+02  0.51100000000E-03 0.  1.
         23    2    1    2    0    0 -0.17763568394E-14  0.00000000000E+00  0.35527136788E-14  0.91188000000E+02  0.91188000000E+02 0.  0.
    9900012    2    3    3    0    0 -0.15760857422E+02  0.30371641187E+02  0.26697977137E+02  0.47787271915E+02  0.20000003971E+02 0.  0.
        -12    1    3    3    0    0  0.15760857422E+02 -0.30371641187E+02 -0.26697977137E+02  0.43400728085E+02  0.00000000000E+00 0.  1.
         11    1    4    4    0    0 -0.70873158404E+01  0.92396150138E+01  0.12686918222E+02  0.17220871803E+02  0.51100000000E-03 0. -1.
        -11    1    4    4    0    0  0.36662334869E+01  0.64149348855E+01  0.68303451435E+01  0.10062120681E+02  0.51100000000E-03 0.  1.
         12    1    4    4    0    0 -0.12339775068E+02  0.14717091288E+02  0.71807137713E+01  0.20504279431E+02  0.00000000000E+00 0. -1.
</event>
<event>
 8    1  0.4042158E-011  0.9118800E+02  0.7816164E-02  0.1184000E+00
        -11   -1    0    0    0    0  0.00000000000E+00  0.00000000000E+00  0.45593999997E+02  0.45594000000E+02  0.51100000000E-03 0. -1.
         11   -1    0    0    0    0 -0.00000000000E+00 -0.00000000000E+00 -0.45593999997E+02  0.45594000000E+02  0.51100000000E-03 0.  1.
         23    2    1    2    0    0  0.71054273576E-14  0.00000000000E+00  0.35527136788E-14  0.91188000000E+02  0.91188000000E+02 0.  0.
    9900012    2    3    3    0    0  0.32598743667E+02 -0.13734813770E+02  0.25145568135E+02  0.47787276563E+02  0.20000025163E+02 0.  0.
        -12    1    3    3    0    0 -0.32598743667E+02  0.13734813770E+02 -0.25145568135E+02  0.43400723437E+02  0.00000000000E+00 0.  1.
         11    1    4    4    0    0  0.10259685742E+02 -0.78241112495E+01  0.43916928219E+01  0.13629557384E+02  0.51100000000E-03 0. -1.
        -11    1    4    4    0    0  0.24244021779E+02 -0.49404582318E+01  0.17664985413E+02  0.30401191251E+02  0.51100000000E-03 0.  1.
        -12    1    4    4    0    0 -0.19049638540E+01 -0.97024428872E+00  0.30888899004E+01  0.37565279290E+01  0.00000000000E+00 0.  1.
</event>
<event>
 8    1  0.4042158E-011  0.9118800E+02  0.7816164E-02  0.1184000E+00
        -11   -1    0    0    0    0  0.00000000000E+00  0.00000000000E+00  0.45593999997E+02  0.45594000000E+02  0.51100000000E-03 0.  1.
         11   -1    0    0    0    0 -0.00000000000E+00 -0.00000000000E+00 -0.45593999997E+02  0.45594000000E+02  0.51100000000E-03 0. -1.
         23    2    1    2    0    0  0.00000000000E+00  0.00000000000E+00 -0.88817841970E-15  0.91188000000E+02  0.91188000000E+02 0.  0.
    9900012    2    3    3    0    0  0.84064588075E+01  0.42291745564E+02 -0.49358622010E+01  0.47787273875E+02  0.20000012904E+02 0.  0.
         12    1    3    3    0    0 -0.84064588075E+01 -0.42291745564E+02  0.49358622010E+01  0.43400726125E+02  0.00000000000E+00 0. -1.
         11    1    4    4    0    0 -0.40225086503E+01  0.90627465162E+01  0.30504913761E+01  0.10373979379E+02  0.51100000000E-03 0. -1.
        -11    1    4    4    0    0  0.35665617424E+01  0.18082488052E+02 -0.73816864171E+01  0.19854118753E+02  0.51100000000E-03 0.  1.
        -12    1    4    4    0    0  0.88624057154E+01  0.15146510995E+02 -0.60466716000E+00  0.17559175743E+02  0.00000000000E+00 0.  1.
</event>
<event>
 8    1  0.4042158E-011  0.9118800E+02  0.7816164E-02  0.1184000E+00
        -11   -1    0    0    0    0  0.00000000000E+00  0.00000000000E+00  0.45593999997E+02  0.45594000000E+02  0.51100000000E-03 0. -1.
         11   -1    0    0    0    0 -0.00000000000E+00 -0.00000000000E+00 -0.45593999997E+02  0.45594000000E+02  0.51100000000E-03 0.  1.
         23    2    1    2    0    0  0.00000000000E+00  0.35527136788E-14  0.00000000000E+00  0.91188000000E+02  0.91188000000E+02 0.  0.
    9900012    2    3    3    0    0  0.10177817232E+01 -0.26820681660E+02 -0.34106280710E+02  0.47787271571E+02  0.20000002399E+02 0.  0.
         12    1    3    3    0    0 -0.10177817232E+01  0.26820681660E+02  0.34106280710E+02  0.43400728429E+02  0.00000000000E+00 0. -1.
         11    1    4    4    0    0 -0.42377157633E+01 -0.45609969792E+01 -0.15264577319E+02  0.16485395031E+02  0.51100000000E-03 0.  1.
        -11    1    4    4    0    0  0.17288964910E+01 -0.10350139656E+00 -0.41164004931E+01  0.44659320300E+01  0.51100000000E-03 0. -1.
        -12    1    4    4    0    0  0.35266009955E+01 -0.22156183284E+02 -0.14725302897E+02  0.26835944509E+02  0.00000000000E+00 0.  1.
</event>
<event>
 8    1  0.4042158E-011  0.9118800E+02  0.7816164E-02  0.1184000E+00
        -11   -1    0    0    0    0  0.00000000000E+00  0.00000000000E+00  0.45593999997E+02  0.45594000000E+02  0.51100000000E-03 0. -1.
         11   -1    0    0    0    0 -0.00000000000E+00 -0.00000000000E+00 -0.45593999997E+02  0.45594000000E+02  0.51100000000E-03 0.  1.
         23    2    1    2    0    0  0.00000000000E+00  0.00000000000E+00  0.00000000000E+00  0.91188000000E+02  0.91188000000E+02 0.  0.
    9900012    2    3    3    0    0  0.33160069414E+02  0.19555027254E+02  0.20040926179E+02  0.47787216406E+02  0.19999750879E+02 0.  0.
        -12    1    3    3    0    0 -0.33160069414E+02 -0.19555027254E+02 -0.20040926179E+02  0.43400783594E+02  0.00000000000E+00 0.  1.
         11    1    4    4    0    0  0.58035822240E+01 -0.23280834604E+00 -0.18666310575E+00  0.58112485520E+01  0.51100000000E-03 0. -1.
        -11    1    4    4    0    0  0.36062543979E+01  0.35398955059E+01 -0.21809894518E+01  0.55038755641E+01  0.51100000000E-03 0.  1.
         12    1    4    4    0    0  0.23750232792E+02  0.16247940094E+02  0.22408578737E+02  0.36472092290E+02  0.00000000000E+00 0. -1.
</event>
<event>
 8    1  0.4042158E-011  0.9118800E+02  0.7816164E-02  0.1184000E+00
        -11   -1    0    0    0    0  0.00000000000E+00  0.00000000000E+00  0.45593999997E+02  0.45594000000E+02  0.51100000000E-03 0. -1.
         11   -1    0    0    0    0 -0.00000000000E+00 -0.00000000000E+00 -0.45593999997E+02  0.45594000000E+02  0.51100000000E-03 0.  1.
         23    2    1    2    0    0  0.00000000000E+00  0.00000000000E+00  0.00000000000E+00  0.91188000000E+02  0.91188000000E+02 0.  0.
    9900012    2    3    3    0    0  0.87943248759E+01  0.33758560946E+02  0.25819426690E+02  0.47787269802E+02  0.19999994333E+02 0.  0.
        -12    1    3    3    0    0 -0.87943248759E+01 -0.33758560946E+02 -0.25819426690E+02  0.43400730198E+02  0.00000000000E+00 0.  1.
         11    1    4    4    0    0 -0.12671380309E+01  0.40195864725E+00  0.77879590478E-01  0.13316437343E+01  0.51100000000E-03 0.  1.
        -11    1    4    4    0    0  0.46596977227E+01  0.28724308867E+02  0.26424219329E+02  0.39306972284E+02  0.51100000000E-03 0. -1.
         12    1    4    4    0    0  0.54017651842E+01  0.46322934319E+01 -0.68267222897E+00  0.71486537835E+01  0.00000000000E+00 0. -1.
</event>
<event>
 8    1  0.4042158E-011  0.9118800E+02  0.7816164E-02  0.1184000E+00
        -11   -1    0    0    0    0  0.00000000000E+00  0.00000000000E+00  0.45593999997E+02  0.45594000000E+02  0.51100000000E-03 0. -1.
         11   -1    0    0    0    0 -0.00000000000E+00 -0.00000000000E+00 -0.45593999997E+02  0.45594000000E+02  0.51100000000E-03 0.  1.
         23    2    1    2    0    0  0.35527136788E-14  0.00000000000E+00 -0.35527136788E-14  0.91188000000E+02  0.91188000000E+02 0.  0.
    9900012    2    3    3    0    0  0.26026849678E+02  0.22832138938E+02 -0.26170956089E+02  0.47787280936E+02  0.20000045101E+02 0.  0.
         12    1    3    3    0    0 -0.26026849678E+02 -0.22832138938E+02  0.26170956089E+02  0.43400719064E+02  0.00000000000E+00 0. -1.
         11    1    4    4    0    0  0.15802891254E+02  0.67142078888E+01 -0.13502455458E+02  0.21843265855E+02  0.51100000000E-03 0. -1.
        -11    1    4    4    0    0  0.12316115402E+02  0.15839538285E+02 -0.12848668310E+02  0.23825741316E+02  0.51100000000E-03 0.  1.
         12    1    4    4    0    0 -0.20921569781E+01  0.27839276402E+00  0.18016767833E+00  0.21182737652E+01  0.00000000000E+00 0. -1.
</event>
<event>
 8    1  0.4042158E-011  0.9118800E+02  0.7816164E-02  0.1184000E+00
        -11   -1    0    0    0    0  0.00000000000E+00  0.00000000000E+00  0.45593999997E+02  0.45594000000E+02  0.51100000000E-03 0. -1.
         11   -1    0    0    0    0 -0.00000000000E+00 -0.00000000000E+00 -0.45593999997E+02  0.45594000000E+02  0.51100000000E-03 0.  1.
         23    2    1    2    0    0  0.00000000000E+00  0.22204460493E-15 -0.71054273576E-14  0.91188000000E+02  0.91188000000E+02 0.  0.
    9900012    2    3    3    0    0 -0.78164268484E+01  0.41723677405E+00  0.42689020090E+02  0.47787273607E+02  0.20000011683E+02 0.  0.
        -12    1    3    3    0    0  0.78164268484E+01 -0.41723677405E+00 -0.42689020090E+02  0.43400726393E+02  0.00000000000E+00 0.  1.
         11    1    4    4    0    0 -0.83549679923E+01  0.28964319456E+01  0.35624050661E+02  0.36705146695E+02  0.51100000000E-03 0. -1.
        -11    1    4    4    0    0  0.26338225810E+01 -0.38078768131E+01  0.72411453227E+01  0.85948317643E+01  0.51100000000E-03 0.  1.
         12    1    4    4    0    0 -0.20952814371E+01  0.13286816415E+01 -0.17617589313E+00  0.24872951475E+01  0.00000000000E+00 0. -1.
</event>
<event>
 8    1  0.4042158E-011  0.9118800E+02  0.7816164E-02  0.1184000E+00
        -11   -1    0    0    0    0  0.00000000000E+00  0.00000000000E+00  0.45593999997E+02  0.45594000000E+02  0.51100000000E-03 0. -1.
         11   -1    0    0    0    0 -0.00000000000E+00 -0.00000000000E+00 -0.45593999997E+02  0.45594000000E+02  0.51100000000E-03 0.  1.
         23    2    1    2    0    0  0.00000000000E+00  0.72164496601E-15  0.00000000000E+00  0.91188000000E+02  0.91188000000E+02 0.  0.
    9900012    2    3    3    0    0  0.21777633398E+02  0.48592197410E+00 -0.37538278016E+02  0.47787265525E+02  0.19999974836E+02 0.  0.
         12    1    3    3    0    0 -0.21777633398E+02 -0.48592197410E+00  0.37538278016E+02  0.43400734475E+02  0.00000000000E+00 0. -1.
         11    1    4    4    0    0  0.11930850118E+02  0.70247566369E+01 -0.94950665086E+01  0.16788349490E+02  0.51100000000E-03 0.  1.
        -11    1    4    4    0    0  0.11303364454E+01 -0.19294417713E+01 -0.15243845955E+01  0.27063175506E+01  0.51100000000E-03 0. -1.
        -12    1    4    4    0    0  0.87164468343E+01 -0.46093928915E+01 -0.26518826911E+02  0.28292598484E+02  0.00000000000E+00 0.  1.
</event>
<event>
 8    1  0.4042158E-011  0.9118800E+02  0.7816164E-02  0.1184000E+00
        -11   -1    0    0    0    0  0.00000000000E+00  0.00000000000E+00  0.45593999997E+02  0.45594000000E+02  0.51100000000E-03 0. -1.
         11   -1    0    0    0    0 -0.00000000000E+00 -0.00000000000E+00 -0.45593999997E+02  0.45594000000E+02  0.51100000000E-03 0.  1.
         23    2    1    2    0    0 -0.17763568394E-14  0.17763568394E-14 -0.71054273576E-14  0.91188000000E+02  0.91188000000E+02 0.  0.
    9900012    2    3    3    0    0  0.10453370506E+02  0.15896416462E+02  0.39008382454E+02  0.47787275202E+02  0.20000018958E+02 0.  0.
        -12    1    3    3    0    0 -0.10453370506E+02 -0.15896416462E+02 -0.39008382454E+02  0.43400724798E+02  0.00000000000E+00 0.  1.
         11    1    4    4    0    0  0.22952896972E+01  0.10961925417E+02  0.17882204576E+02  0.21099891100E+02  0.51100000000E-03 0. -1.
        -11    1    4    4    0    0 -0.34452205467E+01  0.29451296503E+01  0.57170019426E+01  0.72957141354E+01  0.51100000000E-03 0.  1.
         12    1    4    4    0    0  0.11603301356E+02  0.19893613938E+01  0.15409175936E+02  0.19391669967E+02  0.00000000000E+00 0. -1.
</event>
<event>
 8    1  0.4042158E-011  0.9118800E+02  0.7816164E-02  0.1184000E+00
        -11   -1    0    0    0    0  0.00000000000E+00  0.00000000000E+00  0.45593999997E+02  0.45594000000E+02  0.51100000000E-03 0. -1.
         11   -1    0    0    0    0 -0.00000000000E+00 -0.00000000000E+00 -0.45593999997E+02  0.45594000000E+02  0.51100000000E-03 0.  1.
         23    2    1    2    0    0  0.17763568394E-14  0.17763568394E-14  0.71054273576E-14  0.91188000000E+02  0.91188000000E+02 0.  0.
    9900012    2    3    3    0    0 -0.11264063755E+02 -0.87883008201E+01  0.40981863914E+02  0.47787233492E+02  0.19999828783E+02 0.  0.
        -12    1    3    3    0    0  0.11264063755E+02  0.87883008201E+01 -0.40981863914E+02  0.43400766508E+02  0.00000000000E+00 0.  1.
         11    1    4    4    0    0 -0.13716425186E+01 -0.37820197559E+01  0.65635183970E+00  0.40762574295E+01  0.51100000000E-03 0.  1.
        -11    1    4    4    0    0 -0.12675705465E+01 -0.75894769434E+01  0.21692671963E+02  0.23016926653E+02  0.51100000000E-03 0. -1.
        -12    1    4    4    0    0 -0.86248506896E+01  0.25831958792E+01  0.18632840111E+02  0.20694049410E+02  0.00000000000E+00 0.  1.
</event>
<event>
 8    1  0.4042158E-011  0.9118800E+02  0.7816164E-02  0.1184000E+00
        -11   -1    0    0    0    0  0.00000000000E+00  0.00000000000E+00  0.45593999997E+02  0.45594000000E+02  0.51100000000E-03 0. -1.
         11   -1    0    0    0    0 -0.00000000000E+00 -0.00000000000E+00 -0.45593999997E+02  0.45594000000E+02  0.51100000000E-03 0.  1.
         23    2    1    2    0    0 -0.17763568394E-14  0.17763568394E-14  0.71054273576E-14  0.91188000000E+02  0.91188000000E+02 0.  0.
    9900012    2    3    3    0    0  0.12635170262E+02 -0.91082250446E+01 -0.40509461208E+02  0.47787265693E+02  0.19999975602E+02 0.  0.
         12    1    3    3    0    0 -0.12635170262E+02  0.91082250446E+01  0.40509461208E+02  0.43400734307E+02  0.00000000000E+00 0. -1.
         11    1    4    4    0    0  0.95571810841E+01  0.14203100604E+01 -0.19309290459E+02  0.21591796805E+02  0.51100000000E-03 0. -1.
        -11    1    4    4    0    0 -0.18528561773E+01 -0.10911712583E+01 -0.11792596797E+02  0.11987037591E+02  0.51100000000E-03 0.  1.
         12    1    4    4    0    0  0.49308453548E+01 -0.94373638467E+01 -0.94075739517E+01  0.14208431298E+02  0.00000000000E+00 0. -1.
</event>
<event>
 8    1  0.4042158E-011  0.9118800E+02  0.7816164E-02  0.1184000E+00
        -11   -1    0    0    0    0  0.00000000000E+00  0.00000000000E+00  0.45593999997E+02  0.45594000000E+02  0.51100000000E-03 0. -1.
         11   -1    0    0    0    0 -0.00000000000E+00 -0.00000000000E+00 -0.45593999997E+02  0.45594000000E+02  0.51100000000E-03 0.  1.
         23    2    1    2    0    0  0.35527136788E-14  0.35527136788E-14  0.71054273576E-14  0.91188000000E+02  0.91188000000E+02 0.  0.
    9900012    2    3    3    0    0 -0.23374346557E+02 -0.22385357898E+02 -0.28916414336E+02  0.47787270245E+02  0.19999996356E+02 0.  0.
         12    1    3    3    0    0  0.23374346557E+02  0.22385357898E+02  0.28916414336E+02  0.43400729755E+02  0.00000000000E+00 0. -1.
         11    1    4    4    0    0 -0.11618038400E+02 -0.10734534093E+02 -0.17538767002E+02  0.23618157987E+02  0.51100000000E-03 0. -1.
        -11    1    4    4    0    0 -0.10463766542E+02 -0.13283070427E+02 -0.13161089109E+02  0.21427660558E+02  0.51100000000E-03 0.  1.
         12    1    4    4    0    0 -0.12925416149E+01  0.16322466222E+01  0.17834417747E+01  0.27414517004E+01  0.00000000000E+00 0. -1.
</event>
<event>
 8    1  0.4042158E-011  0.9118800E+02  0.7816164E-02  0.1184000E+00
        -11   -1    0    0    0    0  0.00000000000E+00  0.00000000000E+00  0.45593999997E+02  0.45594000000E+02  0.51100000000E-03 0. -1.
         11   -1    0    0    0    0 -0.00000000000E+00 -0.00000000000E+00 -0.45593999997E+02  0.45594000000E+02  0.51100000000E-03 0.  1.
         23    2    1    2    0    0  0.00000000000E+00  0.00000000000E+00  0.00000000000E+00  0.91188000000E+02  0.91188000000E+02 0.  0.
    9900012    2    3    3    0    0  0.28855579670E+02  0.24581209037E+02  0.21136293635E+02  0.47787271614E+02  0.20000002598E+02 0.  0.
        -12    1    3    3    0    0 -0.28855579670E+02 -0.24581209037E+02 -0.21136293635E+02  0.43400728386E+02  0.00000000000E+00 0.  1.
         11    1    4    4    0    0  0.13553216700E+01 -0.17686142788E+01  0.55752033132E+01  0.60039808078E+01  0.51100000000E-03 0. -1.
        -11    1    4    4    0    0  0.24174510280E+01  0.59370456908E+01  0.19926577029E+01  0.67129178447E+01  0.51100000000E-03 0.  1.
         12    1    4    4    0    0  0.25082806972E+02  0.20412777625E+02  0.13568432619E+02  0.35070372962E+02  0.00000000000E+00 0. -1.
</event>
<event>
 8    1  0.4042158E-011  0.9118800E+02  0.7816164E-02  0.1184000E+00
        -11   -1    0    0    0    0  0.00000000000E+00  0.00000000000E+00  0.45593999997E+02  0.45594000000E+02  0.51100000000E-03 0. -1.
         11   -1    0    0    0    0 -0.00000000000E+00 -0.00000000000E+00 -0.45593999997E+02  0.45594000000E+02  0.51100000000E-03 0.  1.
         23    2    1    2    0    0 -0.44408920985E-15  0.00000000000E+00  0.00000000000E+00  0.91188000000E+02  0.91188000000E+02 0.  0.
    9900012    2    3    3    0    0  0.20347628629E+01 -0.16817583813E+02  0.39958127239E+02  0.47787270540E+02  0.19999997702E+02 0.  0.
        -12    1    3    3    0    0 -0.20347628629E+01  0.16817583813E+02 -0.39958127239E+02  0.43400729460E+02  0.00000000000E+00 0.  1.
         11    1    4    4    0    0  0.33127877407E+01 -0.60660391128E+01  0.12448572877E+02  0.14238622126E+02  0.51100000000E-03 0. -1.
        -11    1    4    4    0    0 -0.68970286166E+01 -0.67915266641E+01  0.23897083126E+02  0.25783025819E+02  0.51100000000E-03 0.  1.
        -12    1    4    4    0    0  0.56190037388E+01 -0.39600180359E+01  0.36124712357E+01  0.77656225951E+01  0.00000000000E+00 0.  1.
</event>
<event>
 8    1  0.4042158E-011  0.9118800E+02  0.7816164E-02  0.1184000E+00
        -11   -1    0    0    0    0  0.00000000000E+00  0.00000000000E+00  0.45593999997E+02  0.45594000000E+02  0.51100000000E-03 0. -1.
         11   -1    0    0    0    0 -0.00000000000E+00 -0.00000000000E+00 -0.45593999997E+02  0.45594000000E+02  0.51100000000E-03 0.  1.
         23    2    1    2    0    0  0.00000000000E+00 -0.17763568394E-14  0.35527136788E-14  0.91188000000E+02  0.91188000000E+02 0.  0.
    9900012    2    3    3    0    0 -0.36160515380E+02  0.81166498258E+01 -0.22586736542E+02  0.47787267926E+02  0.19999985782E+02 0.  0.
         12    1    3    3    0    0  0.36160515380E+02 -0.81166498258E+01  0.22586736542E+02  0.43400732074E+02  0.00000000000E+00 0. -1.
         11    1    4    4    0    0 -0.64808356939E+01  0.45746523959E+01 -0.92002968587E+01  0.12148009647E+02  0.51100000000E-03 0. -1.
        -11    1    4    4    0    0 -0.17279509614E+02  0.22257508534E+01 -0.15096171248E+02  0.23052761352E+02  0.51100000000E-03 0.  1.
         12    1    4    4    0    0 -0.12400170072E+02  0.13162465765E+01  0.17097315645E+01  0.12586496927E+02  0.00000000000E+00 0. -1.
</event>
<event>
 8    1  0.4042158E-011  0.9118800E+02  0.7816164E-02  0.1184000E+00
        -11   -1    0    0    0    0  0.00000000000E+00  0.00000000000E+00  0.45593999997E+02  0.45594000000E+02  0.51100000000E-03 0. -1.
         11   -1    0    0    0    0 -0.00000000000E+00 -0.00000000000E+00 -0.45593999997E+02  0.45594000000E+02  0.51100000000E-03 0.  1.
         23    2    1    2    0    0 -0.71054273576E-14  0.00000000000E+00  0.00000000000E+00  0.91188000000E+02  0.91188000000E+02 0.  0.
    9900012    2    3    3    0    0  0.40882134816E+02 -0.14544873770E+02  0.84950546499E+00  0.47787263144E+02  0.19999963981E+02 0.  0.
        -12    1    3    3    0    0 -0.40882134816E+02  0.14544873770E+02 -0.84950546499E+00  0.43400736856E+02  0.00000000000E+00 0.  1.
         11    1    4    4    0    0  0.14317216518E+02 -0.10092222807E+02  0.12092904481E+01  0.17558417743E+02  0.51100000000E-03 0. -1.
        -11    1    4    4    0    0  0.83428611416E+01 -0.68168619506E+01 -0.40085601861E+01  0.11495281376E+02  0.51100000000E-03 0.  1.
        -12    1    4    4    0    0  0.18222057156E+02  0.23642109878E+01  0.36487752030E+01  0.18733564025E+02  0.00000000000E+00 0.  1.
</event>
<event>
 8    1  0.4042158E-011  0.9118800E+02  0.7816164E-02  0.1184000E+00
        -11   -1    0    0    0    0  0.00000000000E+00  0.00000000000E+00  0.45593999997E+02  0.45594000000E+02  0.51100000000E-03 0. -1.
         11   -1    0    0    0    0 -0.00000000000E+00 -0.00000000000E+00 -0.45593999997E+02  0.45594000000E+02  0.51100000000E-03 0.  1.
         23    2    1    2    0    0  0.00000000000E+00  0.88817841970E-15  0.71054273576E-14  0.91188000000E+02  0.91188000000E+02 0.  0.
    9900012    2    3    3    0    0 -0.79786184345E+00  0.73615758817E+01  0.42764398882E+02  0.47787271956E+02  0.20000004158E+02 0.  0.
        -12    1    3    3    0    0  0.79786184345E+00 -0.73615758817E+01 -0.42764398882E+02  0.43400728044E+02  0.00000000000E+00 0.  1.
         11    1    4    4    0    0  0.26443226912E+00  0.12277089906E+02  0.15355407014E+02  0.19661774737E+02  0.51100000000E-03 0. -1.
        -11    1    4    4    0    0  0.28721696364E+00 -0.13500437500E+01  0.19876622097E+01  0.24198993847E+01  0.51100000000E-03 0.  1.
         12    1    4    4    0    0 -0.13495110762E+01 -0.35654702747E+01  0.25421329658E+02  0.25705597834E+02  0.00000000000E+00 0. -1.
</event>
<event>
 8    1  0.4042158E-011  0.9118800E+02  0.7816164E-02  0.1184000E+00
        -11   -1    0    0    0    0  0.00000000000E+00  0.00000000000E+00  0.45593999997E+02  0.45594000000E+02  0.51100000000E-03 0. -1.
         11   -1    0    0    0    0 -0.00000000000E+00 -0.00000000000E+00 -0.45593999997E+02  0.45594000000E+02  0.51100000000E-03 0.  1.
         23    2    1    2    0    0  0.00000000000E+00  0.22204460493E-15  0.00000000000E+00  0.91188000000E+02  0.91188000000E+02 0.  0.
    9900012    2    3    3    0    0  0.36654439037E+02  0.14105138288E+01  0.23196679757E+02  0.47787269567E+02  0.19999993262E+02 0.  0.
        -12    1    3    3    0    0 -0.36654439037E+02 -0.14105138288E+01 -0.23196679757E+02  0.43400730433E+02  0.00000000000E+00 0.  1.
         11    1    4    4    0    0  0.18251279400E+02 -0.27788258271E+01  0.15978314538E+02  0.24415929400E+02  0.51100000000E-03 0. -1.
        -11    1    4    4    0    0  0.58887413522E+01  0.24411391654E+01  0.85506458456E+01  0.10665363556E+02  0.51100000000E-03 0.  1.
         12    1    4    4    0    0  0.12514418285E+02  0.17482004904E+01 -0.13322806267E+01  0.12705976611E+02  0.00000000000E+00 0. -1.
</event>
<event>
 8    1  0.4042158E-011  0.9118800E+02  0.7816164E-02  0.1184000E+00
        -11   -1    0    0    0    0  0.00000000000E+00  0.00000000000E+00  0.45593999997E+02  0.45594000000E+02  0.51100000000E-03 0. -1.
         11   -1    0    0    0    0 -0.00000000000E+00 -0.00000000000E+00 -0.45593999997E+02  0.45594000000E+02  0.51100000000E-03 0.  1.
         23    2    1    2    0    0 -0.17763568394E-14  0.17763568394E-14  0.00000000000E+00  0.91188000000E+02  0.91188000000E+02 0.  0.
    9900012    2    3    3    0    0  0.11135731140E+02 -0.14791639062E+02  0.39253357136E+02  0.47787272580E+02  0.20000006999E+02 0.  0.
        -12    1    3    3    0    0 -0.11135731140E+02  0.14791639062E+02 -0.39253357136E+02  0.43400727420E+02  0.00000000000E+00 0.  1.
         11    1    4    4    0    0  0.61678951308E+01 -0.14908996729E+01  0.10333965348E+02  0.12126687604E+02  0.51100000000E-03 0. -1.
        -11    1    4    4    0    0  0.82672803918E+01 -0.14976977849E+02  0.22717055314E+02  0.28438044816E+02  0.51100000000E-03 0.  1.
         12    1    4    4    0    0 -0.32994443827E+01  0.16762384598E+01  0.62023364744E+01  0.72225401591E+01  0.00000000000E+00 0. -1.
</event>
<event>
 8    1  0.4042158E-011  0.9118800E+02  0.7816164E-02  0.1184000E+00
        -11   -1    0    0    0    0  0.00000000000E+00  0.00000000000E+00  0.45593999997E+02  0.45594000000E+02  0.51100000000E-03 0. -1.
         11   -1    0    0    0    0 -0.00000000000E+00 -0.00000000000E+00 -0.45593999997E+02  0.45594000000E+02  0.51100000000E-03 0.  1.
         23    2    1    2    0    0  0.00000000000E+00 -0.22204460493E-15  0.00000000000E+00  0.91188000000E+02  0.91188000000E+02 0.  0.
    9900012    2    3    3    0    0  0.11994046169E+02  0.16220121015E+01 -0.41678956637E+02  0.47787268519E+02  0.19999988486E+02 0.  0.
         12    1    3    3    0    0 -0.11994046169E+02 -0.16220121015E+01  0.41678956637E+02  0.43400731481E+02  0.00000000000E+00 0. -1.
         11    1    4    4    0    0  0.72238801302E+01  0.19604015755E+01 -0.85697273928E+01  0.11378393837E+02  0.51100000000E-03 0. -1.
        -11    1    4    4    0    0  0.61827913587E+01 -0.63865187874E+01 -0.18084592905E+02  0.20151104983E+02  0.51100000000E-03 0.  1.
        -12    1    4    4    0    0 -0.14126253200E+01  0.60481293134E+01 -0.15024636338E+02  0.16257769699E+02  0.00000000000E+00 0.  1.
</event>
<event>
 8    1  0.4042158E-011  0.9118800E+02  0.7816164E-02  0.1184000E+00
        -11   -1    0    0    0    0  0.00000000000E+00  0.00000000000E+00  0.45593999997E+02  0.45594000000E+02  0.51100000000E-03 0. -1.
         11   -1    0    0    0    0 -0.00000000000E+00 -0.00000000000E+00 -0.45593999997E+02  0.45594000000E+02  0.51100000000E-03 0.  1.
         23    2    1    2    0    0  0.00000000000E+00  0.71054273576E-14  0.71054273576E-14  0.91188000000E+02  0.91188000000E+02 0.  0.
    9900012    2    3    3    0    0  0.86483798524E+01  0.26641455452E+02  0.33152090855E+02  0.47787277072E+02  0.20000027481E+02 0.  0.
        -12    1    3    3    0    0 -0.86483798524E+01 -0.26641455452E+02 -0.33152090855E+02  0.43400722928E+02  0.00000000000E+00 0.  1.
         11    1    4    4    0    0 -0.38074513857E+01  0.12575230833E+02  0.93675336950E+01  0.16136412376E+02  0.51100000000E-03 0. -1.
        -11    1    4    4    0    0  0.30512996095E+01  0.77159038796E+01  0.15566800460E+02  0.17640036248E+02  0.51100000000E-03 0.  1.
        -12    1    4    4    0    0  0.94045316286E+01  0.63503207389E+01  0.82177566993E+01  0.14010828448E+02  0.00000000000E+00 0.  1.
</event>
<event>
 8    1  0.4042158E-011  0.9118800E+02  0.7816164E-02  0.1184000E+00
        -11   -1    0    0    0    0  0.00000000000E+00  0.00000000000E+00  0.45593999997E+02  0.45594000000E+02  0.51100000000E-03 0.  1.
         11   -1    0    0    0    0 -0.00000000000E+00 -0.00000000000E+00 -0.45593999997E+02  0.45594000000E+02  0.51100000000E-03 0. -1.
         23    2    1    2    0    0 -0.33306690739E-15  0.71054273576E-14  0.83266726847E-16  0.91188000000E+02  0.91188000000E+02 0.  0.
    9900012    2    3    3    0    0  0.13443700141E+00 -0.43400413889E+02 -0.99795631038E-01  0.47787263160E+02  0.19999964052E+02 0.  0.
         12    1    3    3    0    0 -0.13443700141E+00  0.43400413889E+02  0.99795631038E-01  0.43400736840E+02  0.00000000000E+00 0. -1.
         11    1    4    4    0    0 -0.29625521519E+01 -0.96977810771E+01 -0.26678766876E+01  0.10485286804E+02  0.51100000000E-03 0. -1.
        -11    1    4    4    0    0  0.62619711371E+01 -0.49080880920E+01 -0.13509660243E+01  0.80701128059E+01  0.51100000000E-03 0.  1.
        -12    1    4    4    0    0 -0.31649819838E+01 -0.28794544720E+02  0.39190470809E+01  0.29231863550E+02  0.00000000000E+00 0.  1.
</event>
<event>
 8    1  0.4042158E-011  0.9118800E+02  0.7816164E-02  0.1184000E+00
        -11   -1    0    0    0    0  0.00000000000E+00  0.00000000000E+00  0.45593999997E+02  0.45594000000E+02  0.51100000000E-03 0. -1.
         11   -1    0    0    0    0 -0.00000000000E+00 -0.00000000000E+00 -0.45593999997E+02  0.45594000000E+02  0.51100000000E-03 0.  1.
         23    2    1    2    0    0  0.00000000000E+00  0.00000000000E+00  0.00000000000E+00  0.91188000000E+02  0.91188000000E+02 0.  0.
    9900012    2    3    3    0    0  0.83295005710E+01 -0.26300418536E+02 -0.33504190001E+02  0.47787270254E+02  0.19999996395E+02 0.  0.
         12    1    3    3    0    0 -0.83295005710E+01  0.26300418536E+02  0.33504190001E+02  0.43400729746E+02  0.00000000000E+00 0. -1.
         11    1    4    4    0    0 -0.25237137914E+01 -0.25827715351E+01 -0.34882804438E+01  0.50207510215E+01  0.51100000000E-03 0. -1.
        -11    1    4    4    0    0 -0.28830083797E+01 -0.67307962707E+01 -0.27340615094E+01  0.78160378935E+01  0.51100000000E-03 0.  1.
         12    1    4    4    0    0  0.13736222742E+02 -0.16986850730E+02 -0.27281848047E+02  0.34950481339E+02  0.00000000000E+00 0. -1.
</event>
<event>
 8    1  0.4042158E-011  0.9118800E+02  0.7816164E-02  0.1184000E+00
        -11   -1    0    0    0    0  0.00000000000E+00  0.00000000000E+00  0.45593999997E+02  0.45594000000E+02  0.51100000000E-03 0. -1.
         11   -1    0    0    0    0 -0.00000000000E+00 -0.00000000000E+00 -0.45593999997E+02  0.45594000000E+02  0.51100000000E-03 0.  1.
         23    2    1    2    0    0 -0.35527136788E-14  0.35527136788E-14 -0.35527136788E-14  0.91188000000E+02  0.91188000000E+02 0.  0.
    9900012    2    3    3    0    0 -0.30192918543E+02 -0.20201422286E+02 -0.23746838643E+02  0.47787284130E+02  0.20000059663E+02 0.  0.
         12    1    3    3    0    0  0.30192918543E+02  0.20201422286E+02  0.23746838643E+02  0.43400715870E+02  0.00000000000E+00 0. -1.
         11    1    4    4    0    0 -0.18246181108E+01 -0.53609055971E+01 -0.73534328434E+01  0.92812453321E+01  0.51100000000E-03 0. -1.
        -11    1    4    4    0    0 -0.28209735001E+01  0.21957888029E+01  0.24146703013E+00  0.35829717475E+01  0.51100000000E-03 0.  1.
        -12    1    4    4    0    0 -0.25547326932E+02 -0.17036305492E+02 -0.16634872829E+02  0.34923067051E+02  0.00000000000E+00 0.  1.
</event>
<event>
 8    1  0.4042158E-011  0.9118800E+02  0.7816164E-02  0.1184000E+00
        -11   -1    0    0    0    0  0.00000000000E+00  0.00000000000E+00  0.45593999997E+02  0.45594000000E+02  0.51100000000E-03 0.  1.
         11   -1    0    0    0    0 -0.00000000000E+00 -0.00000000000E+00 -0.45593999997E+02  0.45594000000E+02  0.51100000000E-03 0. -1.
         23    2    1    2    0    0  0.00000000000E+00 -0.35527136788E-14 -0.17763568394E-14  0.91188000000E+02  0.91188000000E+02 0.  0.
    9900012    2    3    3    0    0 -0.26535847896E+02  0.30480971401E+02  0.15823482547E+02  0.47787269118E+02  0.19999991219E+02 0.  0.
        -12    1    3    3    0    0  0.26535847896E+02 -0.30480971401E+02 -0.15823482547E+02  0.43400730882E+02  0.00000000000E+00 0.  1.
         11    1    4    4    0    0 -0.51942527380E+01  0.84107099895E+01  0.29976552661E+01  0.10329871315E+02  0.51100000000E-03 0. -1.
        -11    1    4    4    0    0  0.34119482390E+00  0.10100434507E+02  0.60549635250E+01  0.11781246738E+02  0.51100000000E-03 0.  1.
         12    1    4    4    0    0 -0.21682789982E+02  0.11969826904E+02  0.67708637561E+01  0.25676151065E+02  0.00000000000E+00 0. -1.
</event>
<event>
 8    1  0.4042158E-011  0.9118800E+02  0.7816164E-02  0.1184000E+00
        -11   -1    0    0    0    0  0.00000000000E+00  0.00000000000E+00  0.45593999997E+02  0.45594000000E+02  0.51100000000E-03 0. -1.
         11   -1    0    0    0    0 -0.00000000000E+00 -0.00000000000E+00 -0.45593999997E+02  0.45594000000E+02  0.51100000000E-03 0.  1.
         23    2    1    2    0    0  0.00000000000E+00 -0.22204460493E-15  0.00000000000E+00  0.91188000000E+02  0.91188000000E+02 0.  0.
    9900012    2    3    3    0    0  0.33841311449E+02  0.14688594775E+01  0.27133585436E+02  0.47787269967E+02  0.19999995089E+02 0.  0.
        -12    1    3    3    0    0 -0.33841311449E+02 -0.14688594775E+01 -0.27133585436E+02  0.43400730033E+02  0.00000000000E+00 0.  1.
         11    1    4    4    0    0 -0.16681548477E+00  0.80962253447E+00  0.47033734545E+01  0.47754620895E+01  0.51100000000E-03 0. -1.
        -11    1    4    4    0    0  0.19562931669E+02 -0.14325053137E+01  0.20356808039E+02  0.28269418118E+02  0.51100000000E-03 0.  1.
        -12    1    4    4    0    0  0.14445195265E+02  0.20917422567E+01  0.20734039425E+01  0.14742389760E+02  0.00000000000E+00 0.  1.
</event>
<event>
 8    1  0.4042158E-011  0.9118800E+02  0.7816164E-02  0.1184000E+00
        -11   -1    0    0    0    0  0.00000000000E+00  0.00000000000E+00  0.45593999997E+02  0.45594000000E+02  0.51100000000E-03 0. -1.
         11   -1    0    0    0    0 -0.00000000000E+00 -0.00000000000E+00 -0.45593999997E+02  0.45594000000E+02  0.51100000000E-03 0.  1.
         23    2    1    2    0    0  0.00000000000E+00  0.71054273576E-14  0.00000000000E+00  0.91188000000E+02  0.91188000000E+02 0.  0.
    9900012    2    3    3    0    0 -0.13480295956E+02  0.34626705345E+02 -0.22425352771E+02  0.47787267874E+02  0.19999985547E+02 0.  0.
         12    1    3    3    0    0  0.13480295956E+02 -0.34626705345E+02  0.22425352771E+02  0.43400732126E+02  0.00000000000E+00 0. -1.
         11    1    4    4    0    0  0.13612580901E+01  0.33597631297E+01 -0.30881459305E+01  0.47621085062E+01  0.51100000000E-03 0.  1.
        -11    1    4    4    0    0 -0.92495330103E+01  0.18560733954E+02 -0.20279579445E+01  0.20836682066E+02  0.51100000000E-03 0. -1.
         12    1    4    4    0    0 -0.55920210354E+01  0.12706208261E+02 -0.17309248896E+02  0.22188477302E+02  0.00000000000E+00 0. -1.
</event>
<event>
 8    1  0.4042158E-011  0.9118800E+02  0.7816164E-02  0.1184000E+00
        -11   -1    0    0    0    0  0.00000000000E+00  0.00000000000E+00  0.45593999997E+02  0.45594000000E+02  0.51100000000E-03 0. -1.
         11   -1    0    0    0    0 -0.00000000000E+00 -0.00000000000E+00 -0.45593999997E+02  0.45594000000E+02  0.51100000000E-03 0.  1.
         23    2    1    2    0    0  0.00000000000E+00  0.88817841970E-15 -0.35527136788E-14  0.91188000000E+02  0.91188000000E+02 0.  0.
    9900012    2    3    3    0    0  0.29353212295E+02 -0.12045459585E+01 -0.31946221260E+02  0.47787273557E+02  0.20000011455E+02 0.  0.
         12    1    3    3    0    0 -0.29353212295E+02  0.12045459585E+01  0.31946221260E+02  0.43400726443E+02  0.00000000000E+00 0. -1.
         11    1    4    4    0    0  0.89486403799E+01  0.39841175048E+01 -0.15613179401E+02  0.18431568794E+02  0.51100000000E-03 0. -1.
        -11    1    4    4    0    0  0.55055561509E+01  0.25438962791E+01 -0.94163078878E+01  0.11200420140E+02  0.51100000000E-03 0.  1.
        -12    1    4    4    0    0  0.14899015764E+02 -0.77325597424E+01 -0.69167339716E+01  0.18155284623E+02  0.00000000000E+00 0.  1.
</event>
<event>
 8    1  0.4340722E-011  0.9118800E+02  0.7816164E-02  0.1184000E+00
        -11   -1    0    0    0    0  0.00000000000E+00  0.00000000000E+00  0.45593999997E+02  0.45594000000E+02  0.51100000000E-03 0. -1.
         11   -1    0    0    0    0 -0.00000000000E+00 -0.00000000000E+00 -0.45593999997E+02  0.45594000000E+02  0.51100000000E-03 0.  1.
         23    2    1    2    0    0  0.88817841970E-15  0.00000000000E+00  0.00000000000E+00  0.91188000000E+02  0.91188000000E+02 0.  0.
    9900012    2    3    3    0    0 -0.52686948192E+01 -0.68418980458E+01  0.42532957420E+02  0.47787272116E+02  0.20000004888E+02 0.  0.
        -12    1    3    3    0    0  0.52686948192E+01  0.68418980458E+01 -0.42532957420E+02  0.43400727884E+02  0.00000000000E+00 0.  1.
         11    1    4    4    0    0  0.52613590792E+00 -0.78640728195E+01  0.30097011048E+02  0.31111903422E+02  0.51100000000E-03 0. -1.
        -11    1    4    4    0    0 -0.48471944053E+01 -0.11048134936E+01  0.13294457703E+02  0.14193608151E+02  0.51100000000E-03 0.  1.
        -12    1    4    4    0    0 -0.94763632188E+00  0.21269882674E+01 -0.85851133123E+00  0.24817605432E+01  0.00000000000E+00 0.  1.
</event>
<event>
 8    1  0.4042158E-011  0.9118800E+02  0.7816164E-02  0.1184000E+00
        -11   -1    0    0    0    0  0.00000000000E+00  0.00000000000E+00  0.45593999997E+02  0.45594000000E+02  0.51100000000E-03 0. -1.
         11   -1    0    0    0    0 -0.00000000000E+00 -0.00000000000E+00 -0.45593999997E+02  0.45594000000E+02  0.51100000000E-03 0.  1.
         23    2    1    2    0    0 -0.35527136788E-14  0.00000000000E+00  0.00000000000E+00  0.91188000000E+02  0.91188000000E+02 0.  0.
    9900012    2    3    3    0    0 -0.18105357974E+02  0.60357543198E+01 -0.38979342042E+02  0.47787269320E+02  0.19999992137E+02 0.  0.
         12    1    3    3    0    0  0.18105357974E+02 -0.60357543198E+01  0.38979342042E+02  0.43400730680E+02  0.00000000000E+00 0. -1.
         11    1    4    4    0    0 -0.31779068424E+01 -0.59051513278E+00 -0.52092611168E+01  0.61305955392E+01  0.51100000000E-03 0. -1.
        -11    1    4    4    0    0  0.15177541644E+01  0.47685318574E+01 -0.12352201111E+01  0.51544391317E+01  0.51100000000E-03 0.  1.
        -12    1    4    4    0    0 -0.16445205296E+02  0.18577375953E+01 -0.32534860814E+02  0.36502234649E+02  0.00000000000E+00 0.  1.
</event>
<event>
 8    1  0.4042158E-011  0.9118800E+02  0.7816164E-02  0.1184000E+00
        -11   -1    0    0    0    0  0.00000000000E+00  0.00000000000E+00  0.45593999997E+02  0.45594000000E+02  0.51100000000E-03 0. -1.
         11   -1    0    0    0    0 -0.00000000000E+00 -0.00000000000E+00 -0.45593999997E+02  0.45594000000E+02  0.51100000000E-03 0.  1.
         23    2    1    2    0    0  0.00000000000E+00 -0.71054273576E-14  0.35527136788E-14  0.91188000000E+02  0.91188000000E+02 0.  0.
    9900012    2    3    3    0    0  0.83279318390E+01  0.32302527712E+02  0.27763585144E+02  0.47787258009E+02  0.19999940565E+02 0.  0.
        -12    1    3    3    0    0 -0.83279318390E+01 -0.32302527712E+02 -0.27763585144E+02  0.43400741991E+02  0.00000000000E+00 0.  1.
         11    1    4    4    0    0  0.42440687056E+01  0.22636926316E+02  0.25139295254E+02  0.34094379571E+02  0.51100000000E-03 0. -1.
        -11    1    4    4    0    0  0.19514263442E+01  0.99141311487E+01  0.42882508585E+01  0.10976664197E+02  0.51100000000E-03 0.  1.
        -12    1    4    4    0    0  0.21324367891E+01 -0.24852975196E+00 -0.16639609682E+01  0.27162142406E+01  0.00000000000E+00 0.  1.
</event>
<event>
 8    1  0.4042158E-011  0.9118800E+02  0.7816164E-02  0.1184000E+00
        -11   -1    0    0    0    0  0.00000000000E+00  0.00000000000E+00  0.45593999997E+02  0.45594000000E+02  0.51100000000E-03 0. -1.
         11   -1    0    0    0    0 -0.00000000000E+00 -0.00000000000E+00 -0.45593999997E+02  0.45594000000E+02  0.51100000000E-03 0.  1.
         23    2    1    2    0    0  0.00000000000E+00  0.88817841970E-15  0.00000000000E+00  0.91188000000E+02  0.91188000000E+02 0.  0.
    9900012    2    3    3    0    0 -0.21564672961E+02 -0.31528034841E+01 -0.37531966600E+02  0.47787264907E+02  0.19999972018E+02 0.  0.
         12    1    3    3    0    0  0.21564672961E+02  0.31528034841E+01  0.37531966600E+02  0.43400735093E+02  0.00000000000E+00 0. -1.
         11    1    4    4    0    0 -0.11854889411E+02  0.16488144822E+01 -0.23077177012E+02  0.25996405352E+02  0.51100000000E-03 0. -1.
        -11    1    4    4    0    0 -0.78719591201E+01  0.21867414953E+01 -0.11206130487E+02  0.13868198856E+02  0.51100000000E-03 0.  1.
         12    1    4    4    0    0 -0.18378244307E+01 -0.69883594615E+01 -0.32486591009E+01  0.79226606992E+01  0.00000000000E+00 0. -1.
</event>
<event>
 8    1  0.4042158E-011  0.9118800E+02  0.7816164E-02  0.1184000E+00
        -11   -1    0    0    0    0  0.00000000000E+00  0.00000000000E+00  0.45593999997E+02  0.45594000000E+02  0.51100000000E-03 0. -1.
         11   -1    0    0    0    0 -0.00000000000E+00 -0.00000000000E+00 -0.45593999997E+02  0.45594000000E+02  0.51100000000E-03 0.  1.
         23    2    1    2    0    0 -0.88817841970E-15  0.00000000000E+00  0.00000000000E+00  0.91188000000E+02  0.91188000000E+02 0.  0.
    9900012    2    3    3    0    0 -0.76350968873E+01  0.32507640939E+02  0.27723309369E+02  0.47787270671E+02  0.19999998298E+02 0.  0.
        -12    1    3    3    0    0  0.76350968873E+01 -0.32507640939E+02 -0.27723309369E+02  0.43400729329E+02  0.00000000000E+00 0.  1.
         11    1    4    4    0    0  0.21155948904E+01  0.46632360848E+01  0.47455959728E+01  0.69815609946E+01  0.51100000000E-03 0. -1.
        -11    1    4    4    0    0  0.17088978876E+01 -0.12126513249E+01  0.32346851253E+01  0.38540943615E+01  0.51100000000E-03 0.  1.
         12    1    4    4    0    0 -0.11459589665E+02  0.29057056179E+02  0.19743028271E+02  0.36951615315E+02  0.00000000000E+00 0. -1.
</event>
<event>
 8    1  0.4042158E-011  0.9118800E+02  0.7816164E-02  0.1184000E+00
        -11   -1    0    0    0    0  0.00000000000E+00  0.00000000000E+00  0.45593999997E+02  0.45594000000E+02  0.51100000000E-03 0. -1.
         11   -1    0    0    0    0 -0.00000000000E+00 -0.00000000000E+00 -0.45593999997E+02  0.45594000000E+02  0.51100000000E-03 0.  1.
         23    2    1    2    0    0  0.00000000000E+00 -0.71054273576E-14  0.66613381478E-15  0.91188000000E+02  0.91188000000E+02 0.  0.
    9900012    2    3    3    0    0 -0.36129450274E+01 -0.43245534850E+02 -0.62768453078E+00  0.47787266780E+02  0.19999980554E+02 0.  0.
         12    1    3    3    0    0  0.36129450274E+01  0.43245534850E+02  0.62768453078E+00  0.43400733220E+02  0.00000000000E+00 0. -1.
         11    1    4    4    0    0  0.52209553106E+01 -0.65516403242E+01 -0.15623610416E+01  0.85219327372E+01  0.51100000000E-03 0. -1.
        -11    1    4    4    0    0 -0.47621809089E+01 -0.26758625834E+02 -0.39582357349E+01  0.27465797893E+02  0.51100000000E-03 0.  1.
        -12    1    4    4    0    0 -0.40717194290E+01 -0.99352686917E+01  0.48929122458E+01  0.11799536149E+02  0.00000000000E+00 0.  1.
</event>
<event>
 8    1  0.4042158E-011  0.9118800E+02  0.7816164E-02  0.1184000E+00
        -11   -1    0    0    0    0  0.00000000000E+00  0.00000000000E+00  0.45593999997E+02  0.45594000000E+02  0.51100000000E-03 0. -1.
         11   -1    0    0    0    0 -0.00000000000E+00 -0.00000000000E+00 -0.45593999997E+02  0.45594000000E+02  0.51100000000E-03 0.  1.
         23    2    1    2    0    0  0.00000000000E+00  0.00000000000E+00  0.00000000000E+00  0.91188000000E+02  0.91188000000E+02 0.  0.
    9900012    2    3    3    0    0  0.15219515571E+02 -0.13424971539E+02 -0.38363523687E+02  0.47787268846E+02  0.19999989974E+02 0.  0.
         12    1    3    3    0    0 -0.15219515571E+02  0.13424971539E+02  0.38363523687E+02  0.43400731154E+02  0.00000000000E+00 0. -1.
         11    1    4    4    0    0  0.35701232368E+00 -0.73950697730E+01 -0.71992465868E+01  0.10326842035E+02  0.51100000000E-03 0. -1.
        -11    1    4    4    0    0  0.76674434646E-01  0.15422521803E+01 -0.11998088125E+02  0.12097046733E+02  0.51100000000E-03 0.  1.
         12    1    4    4    0    0  0.14785828813E+02 -0.75721539464E+01 -0.19166188976E+02  0.25363380077E+02  0.00000000000E+00 0. -1.
</event>
<event>
 8    1  0.4042158E-011  0.9118800E+02  0.7816164E-02  0.1184000E+00
        -11   -1    0    0    0    0  0.00000000000E+00  0.00000000000E+00  0.45593999997E+02  0.45594000000E+02  0.51100000000E-03 0. -1.
         11   -1    0    0    0    0 -0.00000000000E+00 -0.00000000000E+00 -0.45593999997E+02  0.45594000000E+02  0.51100000000E-03 0.  1.
         23    2    1    2    0    0  0.71054273576E-14 -0.17763568394E-14  0.35527136788E-14  0.91188000000E+02  0.91188000000E+02 0.  0.
    9900012    2    3    3    0    0 -0.32066947985E+02  0.91832763753E+01 -0.27766915188E+02  0.47787270776E+02  0.19999998777E+02 0.  0.
         12    1    3    3    0    0  0.32066947985E+02 -0.91832763753E+01  0.27766915188E+02  0.43400729224E+02  0.00000000000E+00 0. -1.
         11    1    4    4    0    0 -0.15676745212E+00  0.77927081804E+00 -0.36142644237E+00  0.87319435194E+00  0.51100000000E-03 0.  1.
        -11    1    4    4    0    0 -0.53412941221E+00 -0.31980032279E+01 -0.70383507926E+01  0.77492516423E+01  0.51100000000E-03 0. -1.
        -12    1    4    4    0    0 -0.31376051121E+02  0.11602008785E+02 -0.20367137953E+02  0.39164824782E+02  0.00000000000E+00 0.  1.
</event>
<event>
 8    1  0.4042158E-011  0.9118800E+02  0.7816164E-02  0.1184000E+00
        -11   -1    0    0    0    0  0.00000000000E+00  0.00000000000E+00  0.45593999997E+02  0.45594000000E+02  0.51100000000E-03 0. -1.
         11   -1    0    0    0    0 -0.00000000000E+00 -0.00000000000E+00 -0.45593999997E+02  0.45594000000E+02  0.51100000000E-03 0.  1.
         23    2    1    2    0    0  0.00000000000E+00  0.17763568394E-14  0.00000000000E+00  0.91188000000E+02  0.91188000000E+02 0.  0.
    9900012    2    3    3    0    0  0.96701335945E+01  0.13239343069E+02  0.40184964525E+02  0.47787273479E+02  0.20000011100E+02 0.  0.
        -12    1    3    3    0    0 -0.96701335945E+01 -0.13239343069E+02 -0.40184964525E+02  0.43400726521E+02  0.00000000000E+00 0.  1.
         11    1    4    4    0    0  0.60970045275E+01  0.51343940837E+00  0.10844318069E+02  0.12451358114E+02  0.51100000000E-03 0. -1.
        -11    1    4    4    0    0  0.68683640510E+01  0.12539664704E+02  0.15416055893E+02  0.21025517716E+02  0.51100000000E-03 0.  1.
        -12    1    4    4    0    0 -0.32952349840E+01  0.18623895656E+00  0.13924590563E+02  0.14310397650E+02  0.00000000000E+00 0.  1.
</event>
<event>
 8    1  0.4042158E-011  0.9118800E+02  0.7816164E-02  0.1184000E+00
        -11   -1    0    0    0    0  0.00000000000E+00  0.00000000000E+00  0.45593999997E+02  0.45594000000E+02  0.51100000000E-03 0. -1.
         11   -1    0    0    0    0 -0.00000000000E+00 -0.00000000000E+00 -0.45593999997E+02  0.45594000000E+02  0.51100000000E-03 0.  1.
         23    2    1    2    0    0  0.00000000000E+00  0.44408920985E-15  0.00000000000E+00  0.91188000000E+02  0.91188000000E+02 0.  0.
    9900012    2    3    3    0    0 -0.75084147728E+01  0.38135194044E+01 -0.42575858124E+02  0.47787275148E+02  0.20000018712E+02 0.  0.
         12    1    3    3    0    0  0.75084147728E+01 -0.38135194044E+01  0.42575858124E+02  0.43400724852E+02  0.00000000000E+00 0. -1.
         11    1    4    4    0    0 -0.17824272451E+01  0.42146254747E+00 -0.12533820030E+02  0.12666938161E+02  0.51100000000E-03 0. -1.
        -11    1    4    4    0    0  0.14126756923E+01 -0.60369810160E+01 -0.81768264105E+01  0.10261641331E+02  0.51100000000E-03 0.  1.
         12    1    4    4    0    0 -0.71386632200E+01  0.94290378729E+01 -0.21865211683E+02  0.24858695656E+02  0.00000000000E+00 0. -1.
</event>
<event>
 8    1  0.4042158E-011  0.9118800E+02  0.7816164E-02  0.1184000E+00
        -11   -1    0    0    0    0  0.00000000000E+00  0.00000000000E+00  0.45593999997E+02  0.45594000000E+02  0.51100000000E-03 0. -1.
         11   -1    0    0    0    0 -0.00000000000E+00 -0.00000000000E+00 -0.45593999997E+02  0.45594000000E+02  0.51100000000E-03 0.  1.
         23    2    1    2    0    0  0.31918911958E-15  0.17763568394E-14 -0.71054273576E-14  0.91188000000E+02  0.91188000000E+02 0.  0.
    9900012    2    3    3    0    0 -0.95061727054E-01 -0.81948194729E+01  0.42619938611E+02  0.47787271087E+02  0.20000000196E+02 0.  0.
        -12    1    3    3    0    0  0.95061727054E-01  0.81948194729E+01 -0.42619938611E+02  0.43400728913E+02  0.00000000000E+00 0.  1.
         11    1    4    4    0    0  0.16842261631E+00  0.48972029776E+01  0.14400917918E+02  0.15211752046E+02  0.51100000000E-03 0. -1.
        -11    1    4    4    0    0  0.25716884827E+01 -0.10264416957E+02  0.25828416139E+02  0.27911985197E+02  0.51100000000E-03 0.  1.
        -12    1    4    4    0    0 -0.28351728260E+01 -0.28276054935E+01  0.23906045542E+01  0.46635338440E+01  0.00000000000E+00 0.  1.
</event>
<event>
 8    1  0.4042158E-011  0.9118800E+02  0.7816164E-02  0.1184000E+00
        -11   -1    0    0    0    0  0.00000000000E+00  0.00000000000E+00  0.45593999997E+02  0.45594000000E+02  0.51100000000E-03 0.  1.
         11   -1    0    0    0    0 -0.00000000000E+00 -0.00000000000E+00 -0.45593999997E+02  0.45594000000E+02  0.51100000000E-03 0. -1.
         23    2    1    2    0    0  0.00000000000E+00  0.00000000000E+00  0.00000000000E+00  0.91188000000E+02  0.91188000000E+02 0.  0.
    9900012    2    3    3    0    0 -0.10486773919E+02 -0.42020630361E+02 -0.28137887923E+01  0.47787271774E+02  0.20000003328E+02 0.  0.
        -12    1    3    3    0    0  0.10486773919E+02  0.42020630361E+02  0.28137887923E+01  0.43400728226E+02  0.00000000000E+00 0.  1.
         11    1    4    4    0    0 -0.36442355000E+01 -0.30574164136E+01 -0.29158640150E+01  0.55794722618E+01  0.51100000000E-03 0. -1.
        -11    1    4    4    0    0 -0.59855108288E+01 -0.86869365905E+01 -0.46859513589E+01  0.11543281492E+02  0.51100000000E-03 0.  1.
        -12    1    4    4    0    0 -0.85702759056E+00 -0.30276277357E+02  0.47880265816E+01  0.30664518020E+02  0.00000000000E+00 0.  1.
</event>
<event>
 8    1  0.4042158E-011  0.9118800E+02  0.7816164E-02  0.1184000E+00
        -11   -1    0    0    0    0  0.00000000000E+00  0.00000000000E+00  0.45593999997E+02  0.45594000000E+02  0.51100000000E-03 0. -1.
         11   -1    0    0    0    0 -0.00000000000E+00 -0.00000000000E+00 -0.45593999997E+02  0.45594000000E+02  0.51100000000E-03 0.  1.
         23    2    1    2    0    0  0.00000000000E+00  0.35527136788E-14  0.71054273576E-14  0.91188000000E+02  0.91188000000E+02 0.  0.
    9900012    2    3    3    0    0 -0.10534877865E+02 -0.26165843345E+02 -0.32984673246E+02  0.47787266380E+02  0.19999978735E+02 0.  0.
         12    1    3    3    0    0  0.10534877865E+02  0.26165843345E+02  0.32984673246E+02  0.43400733620E+02  0.00000000000E+00 0. -1.
         11    1    4    4    0    0  0.21876282052E+01 -0.10390251324E+02 -0.49130563580E+01  0.11699622334E+02  0.51100000000E-03 0.  1.
        -11    1    4    4    0    0 -0.43156043257E+00 -0.29154295513E+01 -0.11280746862E+00  0.29493558046E+01  0.51100000000E-03 0. -1.
        -12    1    4    4    0    0 -0.12290945638E+02 -0.12860162470E+02 -0.27958809419E+02  0.33138288241E+02  0.00000000000E+00 0.  1.
</event>
<event>
 8    1  0.4042158E-011  0.9118800E+02  0.7816164E-02  0.1184000E+00
        -11   -1    0    0    0    0  0.00000000000E+00  0.00000000000E+00  0.45593999997E+02  0.45594000000E+02  0.51100000000E-03 0. -1.
         11   -1    0    0    0    0 -0.00000000000E+00 -0.00000000000E+00 -0.45593999997E+02  0.45594000000E+02  0.51100000000E-03 0.  1.
         23    2    1    2    0    0  0.00000000000E+00  0.00000000000E+00  0.00000000000E+00  0.91188000000E+02  0.91188000000E+02 0.  0.
    9900012    2    3    3    0    0  0.15098812110E+02  0.16626342324E+02 -0.37137767906E+02  0.47787271997E+02  0.20000004341E+02 0.  0.
         12    1    3    3    0    0 -0.15098812110E+02 -0.16626342324E+02  0.37137767906E+02  0.43400728003E+02  0.00000000000E+00 0. -1.
         11    1    4    4    0    0  0.73232418372E+00 -0.21849711366E+01 -0.10742924617E+01  0.25425385213E+01  0.51100000000E-03 0. -1.
        -11    1    4    4    0    0  0.12847636064E+01 -0.35377908531E+00  0.89535901846E+00  0.16054423685E+01  0.51100000000E-03 0.  1.
        -12    1    4    4    0    0  0.13081724320E+02  0.19165092546E+02 -0.36958834463E+02  0.43639291107E+02  0.00000000000E+00 0.  1.
</event>
<event>
 8    1  0.4042158E-011  0.9118800E+02  0.7816164E-02  0.1184000E+00
        -11   -1    0    0    0    0  0.00000000000E+00  0.00000000000E+00  0.45593999997E+02  0.45594000000E+02  0.51100000000E-03 0. -1.
         11   -1    0    0    0    0 -0.00000000000E+00 -0.00000000000E+00 -0.45593999997E+02  0.45594000000E+02  0.51100000000E-03 0.  1.
         23    2    1    2    0    0 -0.35527136788E-14 -0.33306690739E-15  0.00000000000E+00  0.91188000000E+02  0.91188000000E+02 0.  0.
    9900012    2    3    3    0    0 -0.23347772492E+02  0.82202623022E+00 -0.36576342571E+02  0.47787273701E+02  0.20000012110E+02 0.  0.
         12    1    3    3    0    0  0.23347772492E+02 -0.82202623022E+00  0.36576342571E+02  0.43400726299E+02  0.00000000000E+00 0. -1.
         11    1    4    4    0    0 -0.31953238850E+01  0.40916348135E+01 -0.97469175268E+00  0.52821959876E+01  0.51100000000E-03 0. -1.
        -11    1    4    4    0    0 -0.38413497494E+00  0.18997491919E+01 -0.75857784349E+01  0.78294726128E+01  0.51100000000E-03 0.  1.
         12    1    4    4    0    0 -0.19768313632E+02 -0.51693577752E+01 -0.28015872384E+02  0.34675605100E+02  0.00000000000E+00 0. -1.
</event>
<event>
 8    1  0.4042158E-011  0.9118800E+02  0.7816164E-02  0.1184000E+00
        -11   -1    0    0    0    0  0.00000000000E+00  0.00000000000E+00  0.45593999997E+02  0.45594000000E+02  0.51100000000E-03 0. -1.
         11   -1    0    0    0    0 -0.00000000000E+00 -0.00000000000E+00 -0.45593999997E+02  0.45594000000E+02  0.51100000000E-03 0.  1.
         23    2    1    2    0    0  0.00000000000E+00  0.17763568394E-14  0.00000000000E+00  0.91188000000E+02  0.91188000000E+02 0.  0.
    9900012    2    3    3    0    0 -0.12679359539E+02 -0.12960486975E+02  0.39432014161E+02  0.47787261276E+02  0.19999955463E+02 0.  0.
        -12    1    3    3    0    0  0.12679359539E+02  0.12960486975E+02 -0.39432014161E+02  0.43400738724E+02  0.00000000000E+00 0.  1.
         11    1    4    4    0    0 -0.14927390543E+01 -0.17534631022E+01 -0.10123062541E+01  0.25154854299E+01  0.51100000000E-03 0. -1.
        -11    1    4    4    0    0  0.28176111303E-02 -0.86996791621E+01  0.14557629138E+02  0.16959038648E+02  0.51100000000E-03 0.  1.
         12    1    4    4    0    0 -0.11189438096E+02 -0.25073447105E+01  0.25886691277E+02  0.28312737199E+02  0.00000000000E+00 0. -1.
</event>
<event>
 8    1  0.4042158E-011  0.9118800E+02  0.7816164E-02  0.1184000E+00
        -11   -1    0    0    0    0  0.00000000000E+00  0.00000000000E+00  0.45593999997E+02  0.45594000000E+02  0.51100000000E-03 0. -1.
         11   -1    0    0    0    0 -0.00000000000E+00 -0.00000000000E+00 -0.45593999997E+02  0.45594000000E+02  0.51100000000E-03 0.  1.
         23    2    1    2    0    0  0.00000000000E+00 -0.88817841970E-15 -0.71054273576E-14  0.91188000000E+02  0.91188000000E+02 0.  0.
    9900012    2    3    3    0    0  0.18843155163E+02 -0.53679833812E+01  0.38726521841E+02  0.47787271481E+02  0.20000001989E+02 0.  0.
        -12    1    3    3    0    0 -0.18843155163E+02  0.53679833812E+01 -0.38726521841E+02  0.43400728519E+02  0.00000000000E+00 0.  1.
         11    1    4    4    0    0  0.13023740495E+02 -0.31476848539E+01  0.21748237567E+02  0.25544306097E+02  0.51100000000E-03 0. -1.
        -11    1    4    4    0    0  0.68548886799E+00 -0.29531624098E+01 -0.12589744546E+01  0.32826940378E+01  0.51100000000E-03 0.  1.
         12    1    4    4    0    0  0.51339258007E+01  0.73286388252E+00  0.18237258728E+02  0.18960271346E+02  0.00000000000E+00 0. -1.
</event>
<event>
 8    1  0.4042158E-011  0.9118800E+02  0.7816164E-02  0.1184000E+00
        -11   -1    0    0    0    0  0.00000000000E+00  0.00000000000E+00  0.45593999997E+02  0.45594000000E+02  0.51100000000E-03 0. -1.
         11   -1    0    0    0    0 -0.00000000000E+00 -0.00000000000E+00 -0.45593999997E+02  0.45594000000E+02  0.51100000000E-03 0.  1.
         23    2    1    2    0    0  0.35527136788E-14  0.00000000000E+00  0.00000000000E+00  0.91188000000E+02  0.91188000000E+02 0.  0.
    9900012    2    3    3    0    0  0.31072061874E+02  0.29842698625E+02 -0.52501348217E+01  0.47787267218E+02  0.19999982555E+02 0.  0.
         12    1    3    3    0    0 -0.31072061874E+02 -0.29842698625E+02  0.52501348217E+01  0.43400732782E+02  0.00000000000E+00 0. -1.
         11    1    4    4    0    0  0.27168007447E+02  0.22117186890E+02 -0.74883044095E+01  0.35823808951E+02  0.51100000000E-03 0. -1.
        -11    1    4    4    0    0  0.48991312528E+01  0.88696587606E+01  0.13945479511E+01  0.10228249988E+02  0.51100000000E-03 0.  1.
         12    1    4    4    0    0 -0.99507682604E+00 -0.11441470256E+01  0.84362163673E+00  0.17352082791E+01  0.00000000000E+00 0. -1.
</event>
<event>
 8    1  0.4042158E-011  0.9118800E+02  0.7816164E-02  0.1184000E+00
        -11   -1    0    0    0    0  0.00000000000E+00  0.00000000000E+00  0.45593999997E+02  0.45594000000E+02  0.51100000000E-03 0. -1.
         11   -1    0    0    0    0 -0.00000000000E+00 -0.00000000000E+00 -0.45593999997E+02  0.45594000000E+02  0.51100000000E-03 0.  1.
         23    2    1    2    0    0  0.00000000000E+00 -0.88817841970E-15  0.00000000000E+00  0.91188000000E+02  0.91188000000E+02 0.  0.
    9900012    2    3    3    0    0 -0.40688744412E+02  0.74090280640E+01  0.13158870657E+02  0.47787268490E+02  0.19999988353E+02 0.  0.
        -12    1    3    3    0    0  0.40688744412E+02 -0.74090280640E+01 -0.13158870657E+02  0.43400731510E+02  0.00000000000E+00 0.  1.
         11    1    4    4    0    0 -0.45812952160E+01  0.33489509386E+01  0.26328520238E+01  0.62558491258E+01  0.51100000000E-03 0. -1.
        -11    1    4    4    0    0 -0.12328370427E+01 -0.40987040303E+01  0.19464273284E+01  0.47018976496E+01  0.51100000000E-03 0.  1.
        -12    1    4    4    0    0 -0.34874612153E+02  0.81587811558E+01  0.85795913049E+01  0.36829521714E+02  0.00000000000E+00 0.  1.
</event>
<event>
 8    1  0.4042158E-011  0.9118800E+02  0.7816164E-02  0.1184000E+00
        -11   -1    0    0    0    0  0.00000000000E+00  0.00000000000E+00  0.45593999997E+02  0.45594000000E+02  0.51100000000E-03 0. -1.
         11   -1    0    0    0    0 -0.00000000000E+00 -0.00000000000E+00 -0.45593999997E+02  0.45594000000E+02  0.51100000000E-03 0.  1.
         23    2    1    2    0    0  0.00000000000E+00  0.35527136788E-14  0.00000000000E+00  0.91188000000E+02  0.91188000000E+02 0.  0.
    9900012    2    3    3    0    0 -0.33639573984E+02 -0.19801497756E+02 -0.18971092982E+02  0.47787278575E+02  0.20000034337E+02 0.  0.
         12    1    3    3    0    0  0.33639573984E+02  0.19801497756E+02  0.18971092982E+02  0.43400721425E+02  0.00000000000E+00 0. -1.
         11    1    4    4    0    0 -0.15048799361E+02 -0.15616232055E+02 -0.10499042988E+02  0.24094874346E+02  0.51100000000E-03 0. -1.
        -11    1    4    4    0    0 -0.33937985998E+01 -0.26327554078E+01 -0.71736515537E+01  0.83612527081E+01  0.51100000000E-03 0.  1.
         12    1    4    4    0    0 -0.15196976023E+02 -0.15525102927E+01 -0.12983984402E+01  0.15331151521E+02  0.00000000000E+00 0. -1.
</event>
<event>
 8    1  0.4042158E-011  0.9118800E+02  0.7816164E-02  0.1184000E+00
        -11   -1    0    0    0    0  0.00000000000E+00  0.00000000000E+00  0.45593999997E+02  0.45594000000E+02  0.51100000000E-03 0. -1.
         11   -1    0    0    0    0 -0.00000000000E+00 -0.00000000000E+00 -0.45593999997E+02  0.45594000000E+02  0.51100000000E-03 0.  1.
         23    2    1    2    0    0  0.00000000000E+00  0.00000000000E+00 -0.71054273576E-14  0.91188000000E+02  0.91188000000E+02 0.  0.
    9900012    2    3    3    0    0  0.97717640244E+01 -0.13424920476E+01  0.42265068447E+02  0.47787243464E+02  0.19999874249E+02 0.  0.
        -12    1    3    3    0    0 -0.97717640244E+01  0.13424920476E+01 -0.42265068447E+02  0.43400756536E+02  0.00000000000E+00 0.  1.
         11    1    4    4    0    0 -0.18626576154E+01 -0.15987268893E+01  0.27775836187E+01  0.37068034854E+01  0.51100000000E-03 0. -1.
        -11    1    4    4    0    0  0.97877057545E+01  0.24969158819E+01  0.92272780612E+01  0.13681243859E+02  0.51100000000E-03 0.  1.
         12    1    4    4    0    0  0.18467158853E+01 -0.22406810402E+01  0.30260206767E+02  0.30399196119E+02  0.00000000000E+00 0. -1.
</event>
<event>
 8    1  0.4042158E-011  0.9118800E+02  0.7816164E-02  0.1184000E+00
        -11   -1    0    0    0    0  0.00000000000E+00  0.00000000000E+00  0.45593999997E+02  0.45594000000E+02  0.51100000000E-03 0. -1.
         11   -1    0    0    0    0 -0.00000000000E+00 -0.00000000000E+00 -0.45593999997E+02  0.45594000000E+02  0.51100000000E-03 0.  1.
         23    2    1    2    0    0  0.00000000000E+00  0.00000000000E+00  0.00000000000E+00  0.91188000000E+02  0.91188000000E+02 0.  0.
    9900012    2    3    3    0    0 -0.42117729221E+02 -0.80823138109E+01 -0.66630633231E+01  0.47787270466E+02  0.19999997362E+02 0.  0.
         12    1    3    3    0    0  0.42117729221E+02  0.80823138109E+01  0.66630633231E+01  0.43400729534E+02  0.00000000000E+00 0. -1.
         11    1    4    4    0    0 -0.21345658310E+02 -0.17524015054E+01 -0.33367162409E+01  0.21675832516E+02  0.51100000000E-03 0. -1.
        -11    1    4    4    0    0 -0.11299743169E+02 -0.89269044534E+00  0.49890210427E+01  0.12384321667E+02  0.51100000000E-03 0.  1.
        -12    1    4    4    0    0 -0.94723277410E+01 -0.54372218602E+01 -0.83153681248E+01  0.13727116283E+02  0.00000000000E+00 0.  1.
</event>
<event>
 8    1  0.4042158E-011  0.9118800E+02  0.7816164E-02  0.1184000E+00
        -11   -1    0    0    0    0  0.00000000000E+00  0.00000000000E+00  0.45593999997E+02  0.45594000000E+02  0.51100000000E-03 0. -1.
         11   -1    0    0    0    0 -0.00000000000E+00 -0.00000000000E+00 -0.45593999997E+02  0.45594000000E+02  0.51100000000E-03 0.  1.
         23    2    1    2    0    0  0.35527136788E-14 -0.35527136788E-14  0.35527136788E-14  0.91188000000E+02  0.91188000000E+02 0.  0.
    9900012    2    3    3    0    0 -0.25571578991E+02  0.21421830555E+02 -0.27763694890E+02  0.47787271545E+02  0.20000002284E+02 0.  0.
         12    1    3    3    0    0  0.25571578991E+02 -0.21421830555E+02  0.27763694890E+02  0.43400728455E+02  0.00000000000E+00 0. -1.
         11    1    4    4    0    0 -0.55053790139E+01  0.11825734201E+01 -0.67866396345E+01  0.88185121064E+01  0.51100000000E-03 0. -1.
        -11    1    4    4    0    0 -0.16222390978E+02  0.12893859434E+02 -0.22446330786E+02  0.30549228241E+02  0.51100000000E-03 0.  1.
         12    1    4    4    0    0 -0.38438089994E+01  0.73453977008E+01  0.14692755297E+01  0.84195311977E+01  0.00000000000E+00 0. -1.
</event>
<event>
 8    1  0.4042158E-011  0.9118800E+02  0.7816164E-02  0.1184000E+00
        -11   -1    0    0    0    0  0.00000000000E+00  0.00000000000E+00  0.45593999997E+02  0.45594000000E+02  0.51100000000E-03 0. -1.
         11   -1    0    0    0    0 -0.00000000000E+00 -0.00000000000E+00 -0.45593999997E+02  0.45594000000E+02  0.51100000000E-03 0.  1.
         23    2    1    2    0    0  0.00000000000E+00  0.00000000000E+00  0.00000000000E+00  0.91188000000E+02  0.91188000000E+02 0.  0.
    9900012    2    3    3    0    0  0.15254321893E+02 -0.13977549715E+02  0.38151767209E+02  0.47787267591E+02  0.19999984256E+02 0.  0.
        -12    1    3    3    0    0 -0.15254321893E+02  0.13977549715E+02 -0.38151767209E+02  0.43400732409E+02  0.00000000000E+00 0.  1.
         11    1    4    4    0    0  0.66520538082E+01 -0.21678053134E+00  0.18203722775E+02  0.19382268618E+02  0.51100000000E-03 0. -1.
        -11    1    4    4    0    0  0.57703401585E+01  0.38432008035E+00  0.52563048644E+01  0.78149388070E+01  0.51100000000E-03 0.  1.
        -12    1    4    4    0    0  0.28319279265E+01 -0.14145089264E+02  0.14691739570E+02  0.20590060166E+02  0.00000000000E+00 0.  1.
</event>
<event>
 8    1  0.4042158E-011  0.9118800E+02  0.7816164E-02  0.1184000E+00
        -11   -1    0    0    0    0  0.00000000000E+00  0.00000000000E+00  0.45593999997E+02  0.45594000000E+02  0.51100000000E-03 0. -1.
         11   -1    0    0    0    0 -0.00000000000E+00 -0.00000000000E+00 -0.45593999997E+02  0.45594000000E+02  0.51100000000E-03 0.  1.
         23    2    1    2    0    0  0.00000000000E+00  0.00000000000E+00  0.00000000000E+00  0.91188000000E+02  0.91188000000E+02 0.  0.
    9900012    2    3    3    0    0 -0.19903404880E+02 -0.90740451296E+01  0.37485189270E+02  0.47787271487E+02  0.20000002019E+02 0.  0.
        -12    1    3    3    0    0  0.19903404880E+02  0.90740451296E+01 -0.37485189270E+02  0.43400728513E+02  0.00000000000E+00 0.  1.
         11    1    4    4    0    0 -0.10120722117E+02 -0.89982992903E+01  0.21004945396E+02  0.24992121511E+02  0.51100000000E-03 0. -1.
        -11    1    4    4    0    0 -0.62191354257E+01 -0.38367903993E+01  0.22421805540E+01  0.76436888941E+01  0.51100000000E-03 0.  1.
        -12    1    4    4    0    0 -0.35635473376E+01  0.37610445601E+01  0.14238063320E+02  0.15151461082E+02  0.00000000000E+00 0.  1.
</event>
<event>
 8    1  0.4042158E-011  0.9118800E+02  0.7816164E-02  0.1184000E+00
        -11   -1    0    0    0    0  0.00000000000E+00  0.00000000000E+00  0.45593999997E+02  0.45594000000E+02  0.51100000000E-03 0. -1.
         11   -1    0    0    0    0 -0.00000000000E+00 -0.00000000000E+00 -0.45593999997E+02  0.45594000000E+02  0.51100000000E-03 0.  1.
         23    2    1    2    0    0 -0.71054273576E-14  0.17763568394E-14 -0.35527136788E-14  0.91188000000E+02  0.91188000000E+02 0.  0.
    9900012    2    3    3    0    0  0.36733436470E+02 -0.87987435795E+01 -0.21374288510E+02  0.47787268983E+02  0.19999990603E+02 0.  0.
         12    1    3    3    0    0 -0.36733436470E+02  0.87987435795E+01  0.21374288510E+02  0.43400731017E+02  0.00000000000E+00 0. -1.
         11    1    4    4    0    0  0.25053003508E+02 -0.13403540672E+02 -0.12754804771E+02  0.31144709540E+02  0.51100000000E-03 0.  1.
        -11    1    4    4    0    0 -0.53012309670E+00  0.18519803515E+00  0.51813559882E+00  0.76406385188E+00  0.51100000000E-03 0. -1.
        -12    1    4    4    0    0  0.12210556059E+02  0.44195990573E+01 -0.91376193377E+01  0.15878495592E+02  0.00000000000E+00 0.  1.
</event>
<event>
 8    1  0.4042158E-011  0.9118800E+02  0.7816164E-02  0.1184000E+00
        -11   -1    0    0    0    0  0.00000000000E+00  0.00000000000E+00  0.45593999997E+02  0.45594000000E+02  0.51100000000E-03 0.  1.
         11   -1    0    0    0    0 -0.00000000000E+00 -0.00000000000E+00 -0.45593999997E+02  0.45594000000E+02  0.51100000000E-03 0. -1.
         23    2    1    2    0    0  0.00000000000E+00  0.35527136788E-14  0.00000000000E+00  0.91188000000E+02  0.91188000000E+02 0.  0.
    9900012    2    3    3    0    0 -0.33675418645E+02 -0.23434882818E+02  0.14156053829E+02  0.47787292476E+02  0.20000097713E+02 0.  0.
         12    1    3    3    0    0  0.33675418645E+02  0.23434882818E+02 -0.14156053829E+02  0.43400707524E+02  0.00000000000E+00 0. -1.
         11    1    4    4    0    0 -0.75360148467E+00 -0.40501239794E+01 -0.25168790766E+01  0.48276391739E+01  0.51100000000E-03 0. -1.
        -11    1    4    4    0    0 -0.14412852949E+02 -0.91901281187E+01  0.19476196318E+01  0.17204127628E+02  0.51100000000E-03 0.  1.
         12    1    4    4    0    0 -0.18508964211E+02 -0.10194630720E+02  0.14725313274E+02  0.25755525673E+02  0.00000000000E+00 0. -1.
</event>
<event>
 8    1  0.4042158E-011  0.9118800E+02  0.7816164E-02  0.1184000E+00
        -11   -1    0    0    0    0  0.00000000000E+00  0.00000000000E+00  0.45593999997E+02  0.45594000000E+02  0.51100000000E-03 0. -1.
         11   -1    0    0    0    0 -0.00000000000E+00 -0.00000000000E+00 -0.45593999997E+02  0.45594000000E+02  0.51100000000E-03 0.  1.
         23    2    1    2    0    0 -0.35527136788E-14  0.00000000000E+00  0.00000000000E+00  0.91188000000E+02  0.91188000000E+02 0.  0.
    9900012    2    3    3    0    0 -0.29260760627E+02 -0.50565284964E+01 -0.31652208950E+02  0.47787275071E+02  0.20000018359E+02 0.  0.
         12    1    3    3    0    0  0.29260760627E+02  0.50565284964E+01  0.31652208950E+02  0.43400724929E+02  0.00000000000E+00 0. -1.
         11    1    4    4    0    0 -0.35028476966E+01 -0.48311560069E+00 -0.18349786435E+01  0.39837783011E+01  0.51100000000E-03 0. -1.
        -11    1    4    4    0    0 -0.47289436720E+01  0.64416238416E+01 -0.48297069635E+01  0.93372102677E+01  0.51100000000E-03 0.  1.
        -12    1    4    4    0    0 -0.21028969259E+02 -0.11015036737E+02 -0.24987523343E+02  0.34466286502E+02  0.00000000000E+00 0.  1.
</event>
<event>
 8    1  0.4925491E-011  0.9118800E+02  0.7816164E-02  0.1184000E+00
        -11   -1    0    0    0    0  0.00000000000E+00  0.00000000000E+00  0.45593999997E+02  0.45594000000E+02  0.51100000000E-03 0.  1.
         11   -1    0    0    0    0 -0.00000000000E+00 -0.00000000000E+00 -0.45593999997E+02  0.45594000000E+02  0.51100000000E-03 0. -1.
         23    2    1    2    0    0  0.00000000000E+00 -0.30531133177E-15  0.00000000000E+00  0.91188000000E+02  0.91188000000E+02 0.  0.
    9900012    2    3    3    0    0  0.38472936612E+02  0.12273417352E+00  0.20085847768E+02  0.47787271944E+02  0.20000004100E+02 0.  0.
        -12    1    3    3    0    0 -0.38472936612E+02 -0.12273417352E+00 -0.20085847768E+02  0.43400728056E+02  0.00000000000E+00 0.  1.
         11    1    4    4    0    0  0.22912867743E+02  0.20863173263E+01  0.64179140201E+01  0.23886017852E+02  0.51100000000E-03 0. -1.
        -11    1    4    4    0    0  0.10326089330E+02 -0.23912842123E+01  0.15729627581E+01  0.10715436208E+02  0.51100000000E-03 0.  1.
        -12    1    4    4    0    0  0.52339795398E+01  0.42770105953E+00  0.12094970990E+02  0.13185817884E+02  0.00000000000E+00 0.  1.
</event>
<event>
 8    1  0.4042158E-011  0.9118800E+02  0.7816164E-02  0.1184000E+00
        -11   -1    0    0    0    0  0.00000000000E+00  0.00000000000E+00  0.45593999997E+02  0.45594000000E+02  0.51100000000E-03 0. -1.
         11   -1    0    0    0    0 -0.00000000000E+00 -0.00000000000E+00 -0.45593999997E+02  0.45594000000E+02  0.51100000000E-03 0.  1.
         23    2    1    2    0    0  0.00000000000E+00  0.00000000000E+00  0.00000000000E+00  0.91188000000E+02  0.91188000000E+02 0.  0.
    9900012    2    3    3    0    0  0.94308419619E+01 -0.36020603512E+02 -0.22297952300E+02  0.47787270348E+02  0.19999996827E+02 0.  0.
         12    1    3    3    0    0 -0.94308419619E+01  0.36020603512E+02  0.22297952300E+02  0.43400729652E+02  0.00000000000E+00 0. -1.
         11    1    4    4    0    0  0.29111895166E+01 -0.14521499509E+02 -0.12940483655E+02  0.19667361030E+02  0.51100000000E-03 0. -1.
        -11    1    4    4    0    0  0.46687700453E+00 -0.74940244868E+01  0.33899985749E+01  0.82383534608E+01  0.51100000000E-03 0.  1.
        -12    1    4    4    0    0  0.60527754408E+01 -0.14005079517E+02 -0.12747467220E+02  0.19881555858E+02  0.00000000000E+00 0.  1.
</event>
<event>
 8    1  0.4042158E-011  0.9118800E+02  0.7816164E-02  0.1184000E+00
        -11   -1    0    0    0    0  0.00000000000E+00  0.00000000000E+00  0.45593999997E+02  0.45594000000E+02  0.51100000000E-03 0. -1.
         11   -1    0    0    0    0 -0.00000000000E+00 -0.00000000000E+00 -0.45593999997E+02  0.45594000000E+02  0.51100000000E-03 0.  1.
         23    2    1    2    0    0 -0.88817841970E-15  0.00000000000E+00  0.00000000000E+00  0.91188000000E+02  0.91188000000E+02 0.  0.
    9900012    2    3    3    0    0  0.44062229620E+01 -0.38522473418E+02 -0.19499408925E+02  0.47787277569E+02  0.20000029750E+02 0.  0.
         12    1    3    3    0    0 -0.44062229620E+01  0.38522473418E+02  0.19499408925E+02  0.43400722431E+02  0.00000000000E+00 0. -1.
         11    1    4    4    0    0 -0.21587444197E+01 -0.14971784477E+01 -0.22743500238E+01  0.34748221632E+01  0.51100000000E-03 0. -1.
        -11    1    4    4    0    0 -0.45767409395E+01 -0.17267964839E+02 -0.10180117919E+02  0.20561224877E+02  0.51100000000E-03 0.  1.
         12    1    4    4    0    0  0.11141708321E+02 -0.19757330131E+02 -0.70449409828E+01  0.23751230530E+02  0.00000000000E+00 0. -1.
</event>
<event>
 8    1  0.4042158E-011  0.9118800E+02  0.7816164E-02  0.1184000E+00
        -11   -1    0    0    0    0  0.00000000000E+00  0.00000000000E+00  0.45593999997E+02  0.45594000000E+02  0.51100000000E-03 0. -1.
         11   -1    0    0    0    0 -0.00000000000E+00 -0.00000000000E+00 -0.45593999997E+02  0.45594000000E+02  0.51100000000E-03 0.  1.
         23    2    1    2    0    0  0.00000000000E+00  0.00000000000E+00  0.00000000000E+00  0.91188000000E+02  0.91188000000E+02 0.  0.
    9900012    2    3    3    0    0  0.25255510340E+02  0.32305585707E+01  0.35147494799E+02  0.47787266114E+02  0.19999977518E+02 0.  0.
        -12    1    3    3    0    0 -0.25255510340E+02 -0.32305585707E+01 -0.35147494799E+02  0.43400733886E+02  0.00000000000E+00 0.  1.
         11    1    4    4    0    0  0.84654498753E+01  0.18057925153E+01  0.60741917877E+00  0.86771934702E+01  0.51100000000E-03 0. -1.
        -11    1    4    4    0    0  0.94350654444E+01 -0.26496875160E+01  0.16184066851E+02  0.18919971564E+02  0.51100000000E-03 0.  1.
        -12    1    4    4    0    0  0.73549950202E+01  0.40744535714E+01  0.18356008770E+02  0.20190101080E+02  0.00000000000E+00 0.  1.
</event>
<event>
 8    1  0.4042158E-011  0.9118800E+02  0.7816164E-02  0.1184000E+00
        -11   -1    0    0    0    0  0.00000000000E+00  0.00000000000E+00  0.45593999997E+02  0.45594000000E+02  0.51100000000E-03 0. -1.
         11   -1    0    0    0    0 -0.00000000000E+00 -0.00000000000E+00 -0.45593999997E+02  0.45594000000E+02  0.51100000000E-03 0.  1.
         23    2    1    2    0    0 -0.71054273576E-14  0.00000000000E+00 -0.35527136788E-14  0.91188000000E+02  0.91188000000E+02 0.  0.
    9900012    2    3    3    0    0  0.31859553204E+02 -0.10813408334E+02  0.27416451703E+02  0.47787277032E+02  0.20000027300E+02 0.  0.
        -12    1    3    3    0    0 -0.31859553204E+02  0.10813408334E+02 -0.27416451703E+02  0.43400722968E+02  0.00000000000E+00 0.  1.
         11    1    4    4    0    0  0.14270440092E+02 -0.11463215360E+01  0.39165033538E+01  0.14842456410E+02  0.51100000000E-03 0. -1.
        -11    1    4    4    0    0  0.16310736594E+02 -0.85734571373E+01  0.13597737522E+02  0.22900715306E+02  0.51100000000E-03 0.  1.
        -12    1    4    4    0    0  0.12783765176E+01 -0.10936296606E+01  0.99022108265E+01  0.10044105316E+02  0.00000000000E+00 0.  1.
</event>
<event>
 8    1  0.4042158E-011  0.9118800E+02  0.7816164E-02  0.1184000E+00
        -11   -1    0    0    0    0  0.00000000000E+00  0.00000000000E+00  0.45593999997E+02  0.45594000000E+02  0.51100000000E-03 0. -1.
         11   -1    0    0    0    0 -0.00000000000E+00 -0.00000000000E+00 -0.45593999997E+02  0.45594000000E+02  0.51100000000E-03 0.  1.
         23    2    1    2    0    0 -0.17763568394E-14  0.00000000000E+00  0.00000000000E+00  0.91188000000E+02  0.91188000000E+02 0.  0.
    9900012    2    3    3    0    0 -0.13808737214E+02 -0.62195277127E+01 -0.40672592029E+02  0.47787268545E+02  0.19999988605E+02 0.  0.
         12    1    3    3    0    0  0.13808737214E+02  0.62195277127E+01  0.40672592029E+02  0.43400731455E+02  0.00000000000E+00 0. -1.
         11    1    4    4    0    0  0.39106494813E+01 -0.40360800931E+01 -0.66633222355E+01  0.87168219758E+01  0.51100000000E-03 0. -1.
        -11    1    4    4    0    0 -0.51301500630E+01 -0.31623797350E+01 -0.68784425575E+01  0.91450564534E+01  0.51100000000E-03 0.  1.
        -12    1    4    4    0    0 -0.12589236632E+02  0.97893211544E+00 -0.27130827236E+02  0.29925390116E+02  0.00000000000E+00 0.  1.
</event>
<event>
 8    1  0.4042158E-011  0.9118800E+02  0.7816164E-02  0.1184000E+00
        -11   -1    0    0    0    0  0.00000000000E+00  0.00000000000E+00  0.45593999997E+02  0.45594000000E+02  0.51100000000E-03 0. -1.
         11   -1    0    0    0    0 -0.00000000000E+00 -0.00000000000E+00 -0.45593999997E+02  0.45594000000E+02  0.51100000000E-03 0.  1.
         23    2    1    2    0    0  0.00000000000E+00  0.00000000000E+00  0.71054273576E-14  0.91188000000E+02  0.91188000000E+02 0.  0.
    9900012    2    3    3    0    0  0.17012419465E+02  0.90232190557E+01  0.38894506315E+02  0.47787268212E+02  0.19999987086E+02 0.  0.
        -12    1    3    3    0    0 -0.17012419465E+02 -0.90232190557E+01 -0.38894506315E+02  0.43400731788E+02  0.00000000000E+00 0.  1.
         11    1    4    4    0    0  0.94535787313E+01  0.53310002920E+01  0.21823278758E+02  0.24373042711E+02  0.51100000000E-03 0. -1.
        -11    1    4    4    0    0  0.97293938351E+01 -0.19430327487E+01  0.95763985797E+01  0.13789267228E+02  0.51100000000E-03 0.  1.
        -12    1    4    4    0    0 -0.21705531010E+01  0.56352515124E+01  0.74948289772E+01  0.96249582737E+01  0.00000000000E+00 0.  1.
</event>
<event>
 8    1  0.4042158E-011  0.9118800E+02  0.7816164E-02  0.1184000E+00
        -11   -1    0    0    0    0  0.00000000000E+00  0.00000000000E+00  0.45593999997E+02  0.45594000000E+02  0.51100000000E-03 0. -1.
         11   -1    0    0    0    0 -0.00000000000E+00 -0.00000000000E+00 -0.45593999997E+02  0.45594000000E+02  0.51100000000E-03 0.  1.
         23    2    1    2    0    0  0.00000000000E+00  0.00000000000E+00 -0.71054273576E-14  0.91188000000E+02  0.91188000000E+02 0.  0.
    9900012    2    3    3    0    0 -0.60180736992E+01 -0.96161585452E+01 -0.41891950258E+02  0.47787271750E+02  0.20000003216E+02 0.  0.
         12    1    3    3    0    0  0.60180736992E+01  0.96161585452E+01  0.41891950258E+02  0.43400728250E+02  0.00000000000E+00 0. -1.
         11    1    4    4    0    0 -0.88616301483E+01 -0.35202215279E+01 -0.15830308980E+02  0.18480236231E+02  0.51100000000E-03 0. -1.
        -11    1    4    4    0    0 -0.16345408983E+01 -0.26050835925E+00 -0.19125089698E+02  0.19196578986E+02  0.51100000000E-03 0.  1.
         12    1    4    4    0    0  0.44780973474E+01 -0.58354286580E+01 -0.69365515806E+01  0.10110456533E+02  0.00000000000E+00 0. -1.
</event>
<event>
 8    1  0.4042158E-011  0.9118800E+02  0.7816164E-02  0.1184000E+00
        -11   -1    0    0    0    0  0.00000000000E+00  0.00000000000E+00  0.45593999997E+02  0.45594000000E+02  0.51100000000E-03 0. -1.
         11   -1    0    0    0    0 -0.00000000000E+00 -0.00000000000E+00 -0.45593999997E+02  0.45594000000E+02  0.51100000000E-03 0.  1.
         23    2    1    2    0    0  0.00000000000E+00  0.71054273576E-14  0.00000000000E+00  0.91188000000E+02  0.91188000000E+02 0.  0.
    9900012    2    3    3    0    0  0.23989674125E+02 -0.33548539352E+02 -0.13513502655E+02  0.47787266006E+02  0.19999977026E+02 0.  0.
         12    1    3    3    0    0 -0.23989674125E+02  0.33548539352E+02  0.13513502655E+02  0.43400733994E+02  0.00000000000E+00 0. -1.
         11    1    4    4    0    0  0.67422133979E+01 -0.52144829712E+01 -0.94782714627E+01  0.12746995895E+02  0.51100000000E-03 0. -1.
        -11    1    4    4    0    0  0.15050811008E+02 -0.17078280388E+02 -0.56616787582E+01  0.23457390726E+02  0.51100000000E-03 0.  1.
        -12    1    4    4    0    0  0.21966497186E+01 -0.11255775992E+02  0.16264475657E+01  0.11582879385E+02  0.00000000000E+00 0.  1.
</event>
<event>
 8    1  0.4042158E-011  0.9118800E+02  0.7816164E-02  0.1184000E+00
        -11   -1    0    0    0    0  0.00000000000E+00  0.00000000000E+00  0.45593999997E+02  0.45594000000E+02  0.51100000000E-03 0. -1.
         11   -1    0    0    0    0 -0.00000000000E+00 -0.00000000000E+00 -0.45593999997E+02  0.45594000000E+02  0.51100000000E-03 0.  1.
         23    2    1    2    0    0  0.35527136788E-14  0.00000000000E+00  0.00000000000E+00  0.91188000000E+02  0.91188000000E+02 0.  0.
    9900012    2    3    3    0    0  0.21580797804E+02  0.17322104325E+02 -0.33434070290E+02  0.47787272031E+02  0.20000004499E+02 0.  0.
         12    1    3    3    0    0 -0.21580797804E+02 -0.17322104325E+02  0.33434070290E+02  0.43400727969E+02  0.00000000000E+00 0. -1.
         11    1    4    4    0    0  0.16055348118E+02  0.27444687458E+01 -0.13187367667E+02  0.20957408669E+02  0.51100000000E-03 0. -1.
        -11    1    4    4    0    0  0.75588973746E+01  0.12878055192E+02 -0.17653503263E+02  0.23122011434E+02  0.51100000000E-03 0.  1.
        -12    1    4    4    0    0 -0.20334476892E+01  0.16995803872E+01 -0.25931993601E+01  0.37078519278E+01  0.00000000000E+00 0.  1.
</event>
<event>
 8    1  0.4042158E-011  0.9118800E+02  0.7816164E-02  0.1184000E+00
        -11   -1    0    0    0    0  0.00000000000E+00  0.00000000000E+00  0.45593999997E+02  0.45594000000E+02  0.51100000000E-03 0. -1.
         11   -1    0    0    0    0 -0.00000000000E+00 -0.00000000000E+00 -0.45593999997E+02  0.45594000000E+02  0.51100000000E-03 0.  1.
         23    2    1    2    0    0 -0.17763568394E-14  0.00000000000E+00  0.00000000000E+00  0.91188000000E+02  0.91188000000E+02 0.  0.
    9900012    2    3    3    0    0 -0.13062201929E+02 -0.25659650337E+02  0.32474370513E+02  0.47787268268E+02  0.19999987342E+02 0.  0.
        -12    1    3    3    0    0  0.13062201929E+02  0.25659650337E+02 -0.32474370513E+02  0.43400731732E+02  0.00000000000E+00 0.  1.
         11    1    4    4    0    0  0.11971519556E+01 -0.47423801274E+01  0.11264340759E+02  0.12280419987E+02  0.51100000000E-03 0. -1.
        -11    1    4    4    0    0 -0.52338749987E+01  0.45774935545E+00  0.44358764203E+01  0.68760440554E+01  0.51100000000E-03 0.  1.
        -12    1    4    4    0    0 -0.90254788860E+01 -0.21375019565E+02  0.16774153334E+02  0.28630804225E+02  0.00000000000E+00 0.  1.
</event>
<event>
 8    1  0.4042158E-011  0.9118800E+02  0.7816164E-02  0.1184000E+00
        -11   -1    0    0    0    0  0.00000000000E+00  0.00000000000E+00  0.45593999997E+02  0.45594000000E+02  0.51100000000E-03 0. -1.
         11   -1    0    0    0    0 -0.00000000000E+00 -0.00000000000E+00 -0.45593999997E+02  0.45594000000E+02  0.51100000000E-03 0.  1.
         23    2    1    2    0    0 -0.88817841970E-15  0.88817841970E-15  0.71054273576E-14  0.91188000000E+02  0.91188000000E+02 0.  0.
    9900012    2    3    3    0    0  0.78702168884E+01  0.69163930696E+01  0.42117056728E+02  0.47787271039E+02  0.19999999974E+02 0.  0.
        -12    1    3    3    0    0 -0.78702168884E+01 -0.69163930696E+01 -0.42117056728E+02  0.43400728961E+02  0.00000000000E+00 0.  1.
         11    1    4    4    0    0  0.97295546236E+01  0.73066915669E+01  0.38471744957E+02  0.40350057436E+02  0.51100000000E-03 0. -1.
        -11    1    4    4    0    0  0.21661805919E+01  0.31547867556E+00  0.41548153049E+00  0.22281136225E+01  0.51100000000E-03 0.  1.
        -12    1    4    4    0    0 -0.40255183271E+01 -0.70577717290E+00  0.32298302405E+01  0.52090999801E+01  0.00000000000E+00 0.  1.
</event>
<event>
 8    1  0.4277586E-011  0.9118800E+02  0.7816164E-02  0.1184000E+00
        -11   -1    0    0    0    0  0.00000000000E+00  0.00000000000E+00  0.45593999997E+02  0.45594000000E+02  0.51100000000E-03 0. -1.
         11   -1    0    0    0    0 -0.00000000000E+00 -0.00000000000E+00 -0.45593999997E+02  0.45594000000E+02  0.51100000000E-03 0.  1.
         23    2    1    2    0    0  0.00000000000E+00  0.00000000000E+00  0.00000000000E+00  0.91188000000E+02  0.91188000000E+02 0.  0.
    9900012    2    3    3    0    0 -0.14495518012E+02 -0.34662412160E+02  0.21726025867E+02  0.47787273518E+02  0.20000011277E+02 0.  0.
        -12    1    3    3    0    0  0.14495518012E+02  0.34662412160E+02 -0.21726025867E+02  0.43400726482E+02  0.00000000000E+00 0.  1.
         11    1    4    4    0    0 -0.52487719458E+01 -0.99571537217E+01  0.11273340028E+02  0.15930559087E+02  0.51100000000E-03 0. -1.
        -11    1    4    4    0    0 -0.79527129478E+01 -0.22529091708E+02  0.13853080891E+02  0.27617267549E+02  0.51100000000E-03 0.  1.
        -12    1    4    4    0    0 -0.12940331179E+01 -0.21761667307E+01 -0.34003950525E+01  0.42394468817E+01  0.00000000000E+00 0.  1.
</event>
<event>
 8    1  0.4042158E-011  0.9118800E+02  0.7816164E-02  0.1184000E+00
        -11   -1    0    0    0    0  0.00000000000E+00  0.00000000000E+00  0.45593999997E+02  0.45594000000E+02  0.51100000000E-03 0. -1.
         11   -1    0    0    0    0 -0.00000000000E+00 -0.00000000000E+00 -0.45593999997E+02  0.45594000000E+02  0.51100000000E-03 0.  1.
         23    2    1    2    0    0  0.17763568394E-14  0.44408920985E-15  0.00000000000E+00  0.91188000000E+02  0.91188000000E+02 0.  0.
    9900012    2    3    3    0    0  0.87455799229E+01  0.31405830385E+01 -0.42394274609E+02  0.47787274780E+02  0.20000017031E+02 0.  0.
         12    1    3    3    0    0 -0.87455799229E+01 -0.31405830385E+01  0.42394274609E+02  0.43400725220E+02  0.00000000000E+00 0. -1.
         11    1    4    4    0    0  0.33700922361E+01 -0.37810199872E+01 -0.75853477921E+01  0.91209174545E+01  0.51100000000E-03 0. -1.
        -11    1    4    4    0    0  0.99144431444E+01  0.56750803705E+01 -0.29132338349E+02  0.31292105362E+02  0.51100000000E-03 0.  1.
         12    1    4    4    0    0 -0.45389554575E+01  0.12465226552E+01 -0.56765884681E+01  0.73742519628E+01  0.00000000000E+00 0. -1.
</event>
<event>
 8    1  0.4425788E-011  0.9118800E+02  0.7816164E-02  0.1184000E+00
        -11   -1    0    0    0    0  0.00000000000E+00  0.00000000000E+00  0.45593999997E+02  0.45594000000E+02  0.51100000000E-03 0. -1.
         11   -1    0    0    0    0 -0.00000000000E+00 -0.00000000000E+00 -0.45593999997E+02  0.45594000000E+02  0.51100000000E-03 0.  1.
         23    2    1    2    0    0  0.00000000000E+00  0.00000000000E+00  0.00000000000E+00  0.91188000000E+02  0.91188000000E+02 0.  0.
    9900012    2    3    3    0    0  0.33502504544E+01  0.93312927630E+01  0.42253116502E+02  0.47787273544E+02  0.20000011398E+02 0.  0.
        -12    1    3    3    0    0 -0.33502504544E+01 -0.93312927630E+01 -0.42253116502E+02  0.43400726456E+02  0.00000000000E+00 0.  1.
         11    1    4    4    0    0  0.25636833139E+01  0.92661300616E+01  0.24852504312E+02  0.26647337752E+02  0.51100000000E-03 0. -1.
        -11    1    4    4    0    0 -0.19872757504E+00  0.59824737550E+01  0.93047256335E+01  0.11063787970E+02  0.51100000000E-03 0.  1.
        -12    1    4    4    0    0  0.98529471560E+00 -0.59173110536E+01  0.80958865569E+01  0.10076147822E+02  0.00000000000E+00 0.  1.
</event>
<event>
 8    1  0.4042158E-011  0.9118800E+02  0.7816164E-02  0.1184000E+00
        -11   -1    0    0    0    0  0.00000000000E+00  0.00000000000E+00  0.45593999997E+02  0.45594000000E+02  0.51100000000E-03 0. -1.
         11   -1    0    0    0    0 -0.00000000000E+00 -0.00000000000E+00 -0.45593999997E+02  0.45594000000E+02  0.51100000000E-03 0.  1.
         23    2    1    2    0    0  0.00000000000E+00  0.00000000000E+00  0.00000000000E+00  0.91188000000E+02  0.91188000000E+02 0.  0.
    9900012    2    3    3    0    0 -0.42118202675E+02  0.40977257032E+01  0.96378800474E+01  0.47787273228E+02  0.20000009956E+02 0.  0.
        -12    1    3    3    0    0  0.42118202675E+02 -0.40977257032E+01 -0.96378800474E+01  0.43400726772E+02  0.00000000000E+00 0.  1.
         11    1    4    4    0    0 -0.49611594907E+01  0.21251302372E+01  0.32246409705E+01  0.62870972370E+01  0.51100000000E-03 0. -1.
        -11    1    4    4    0    0 -0.30900270511E+02 -0.36153048926E+01  0.28667745641E+00  0.31112366212E+02  0.51100000000E-03 0.  1.
        -12    1    4    4    0    0 -0.62567726739E+01  0.55879003585E+01  0.61265616205E+01  0.10387809779E+02  0.00000000000E+00 0.  1.
</event>
<event>
 8    1  0.4042158E-011  0.9118800E+02  0.7816164E-02  0.1184000E+00
        -11   -1    0    0    0    0  0.00000000000E+00  0.00000000000E+00  0.45593999997E+02  0.45594000000E+02  0.51100000000E-03 0. -1.
         11   -1    0    0    0    0 -0.00000000000E+00 -0.00000000000E+00 -0.45593999997E+02  0.45594000000E+02  0.51100000000E-03 0.  1.
         23    2    1    2    0    0  0.00000000000E+00  0.35527136788E-14 -0.17763568394E-14  0.91188000000E+02  0.91188000000E+02 0.  0.
    9900012    2    3    3    0    0  0.33274649121E+02 -0.26379691016E+02  0.89740352192E+01  0.47787266361E+02  0.19999978647E+02 0.  0.
        -12    1    3    3    0    0 -0.33274649121E+02  0.26379691016E+02 -0.89740352192E+01  0.43400733639E+02  0.00000000000E+00 0.  1.
         11    1    4    4    0    0  0.66198807599E+01 -0.97613209599E+01 -0.16665482575E+01  0.11911489895E+02  0.51100000000E-03 0. -1.
        -11    1    4    4    0    0  0.58972445980E+01 -0.69773691924E+01 -0.25169316879E+01  0.94760814728E+01  0.51100000000E-03 0.  1.
         12    1    4    4    0    0  0.20757523764E+02 -0.96410008638E+01  0.13157515165E+02  0.26399694994E+02  0.00000000000E+00 0. -1.
</event>
<event>
 8    1  0.4042158E-011  0.9118800E+02  0.7816164E-02  0.1184000E+00
        -11   -1    0    0    0    0  0.00000000000E+00  0.00000000000E+00  0.45593999997E+02  0.45594000000E+02  0.51100000000E-03 0. -1.
         11   -1    0    0    0    0 -0.00000000000E+00 -0.00000000000E+00 -0.45593999997E+02  0.45594000000E+02  0.51100000000E-03 0.  1.
         23    2    1    2    0    0 -0.35527136788E-14  0.00000000000E+00 -0.71054273576E-14  0.91188000000E+02  0.91188000000E+02 0.  0.
    9900012    2    3    3    0    0  0.16947194839E+02 -0.11803979271E+02  0.38171744172E+02  0.47787269676E+02  0.19999993759E+02 0.  0.
        -12    1    3    3    0    0 -0.16947194839E+02  0.11803979271E+02 -0.38171744172E+02  0.43400730324E+02  0.00000000000E+00 0.  1.
         11    1    4    4    0    0  0.18479058642E+02 -0.70240355888E+01  0.24169747221E+02  0.31224819699E+02  0.51100000000E-03 0.  1.
        -11    1    4    4    0    0  0.21159462577E+01 -0.41454537165E+01  0.10413403829E+02  0.11406182299E+02  0.51100000000E-03 0. -1.
        -12    1    4    4    0    0 -0.36478100612E+01 -0.63448996543E+00  0.35885931230E+01  0.51562676774E+01  0.00000000000E+00 0.  1.
</event>
<event>
 8    1  0.4042158E-011  0.9118800E+02  0.7816164E-02  0.1184000E+00
        -11   -1    0    0    0    0  0.00000000000E+00  0.00000000000E+00  0.45593999997E+02  0.45594000000E+02  0.51100000000E-03 0.  1.
         11   -1    0    0    0    0 -0.00000000000E+00 -0.00000000000E+00 -0.45593999997E+02  0.45594000000E+02  0.51100000000E-03 0. -1.
         23    2    1    2    0    0 -0.11102230246E-15  0.00000000000E+00  0.00000000000E+00  0.91188000000E+02  0.91188000000E+02 0.  0.
    9900012    2    3    3    0    0  0.51155736708E+00 -0.43096781279E+02  0.51018826134E+01  0.47787268972E+02  0.19999990549E+02 0.  0.
        -12    1    3    3    0    0 -0.51155736708E+00  0.43096781279E+02 -0.51018826134E+01  0.43400731028E+02  0.00000000000E+00 0.  1.
         11    1    4    4    0    0 -0.66414145224E+01 -0.11535442848E+02  0.53075731397E+00  0.13321281175E+02  0.51100000000E-03 0. -1.
        -11    1    4    4    0    0  0.22208247550E+01 -0.67584985083E+01  0.57541719538E+01  0.91498557264E+01  0.51100000000E-03 0.  1.
         12    1    4    4    0    0  0.49321471344E+01 -0.24802839923E+02 -0.11830466543E+01  0.25316132070E+02  0.00000000000E+00 0. -1.
</event>
<event>
 8    1  0.4042158E-011  0.9118800E+02  0.7816164E-02  0.1184000E+00
        -11   -1    0    0    0    0  0.00000000000E+00  0.00000000000E+00  0.45593999997E+02  0.45594000000E+02  0.51100000000E-03 0.  1.
         11   -1    0    0    0    0 -0.00000000000E+00 -0.00000000000E+00 -0.45593999997E+02  0.45594000000E+02  0.51100000000E-03 0. -1.
         23    2    1    2    0    0  0.00000000000E+00  0.00000000000E+00 -0.35527136788E-14  0.91188000000E+02  0.91188000000E+02 0.  0.
    9900012    2    3    3    0    0 -0.27091299800E+02 -0.21888278282E+02  0.25895704951E+02  0.47787276666E+02  0.20000025631E+02 0.  0.
        -12    1    3    3    0    0  0.27091299800E+02  0.21888278282E+02 -0.25895704951E+02  0.43400723334E+02  0.00000000000E+00 0.  1.
         11    1    4    4    0    0 -0.45061460506E+01 -0.82213089947E+01  0.14508688526E+01  0.94868485022E+01  0.51100000000E-03 0. -1.
        -11    1    4    4    0    0 -0.94314093739E+01 -0.91305132073E+01  0.19554542245E+02  0.23552024900E+02  0.51100000000E-03 0.  1.
         12    1    4    4    0    0 -0.13153744376E+02 -0.45364560800E+01  0.48902938532E+01  0.14748403264E+02  0.00000000000E+00 0. -1.
</event>
<event>
 8    1  0.4042158E-011  0.9118800E+02  0.7816164E-02  0.1184000E+00
        -11   -1    0    0    0    0  0.00000000000E+00  0.00000000000E+00  0.45593999997E+02  0.45594000000E+02  0.51100000000E-03 0. -1.
         11   -1    0    0    0    0 -0.00000000000E+00 -0.00000000000E+00 -0.45593999997E+02  0.45594000000E+02  0.51100000000E-03 0.  1.
         23    2    1    2    0    0  0.35527136788E-14  0.00000000000E+00  0.00000000000E+00  0.91188000000E+02  0.91188000000E+02 0.  0.
    9900012    2    3    3    0    0  0.17093478021E+02 -0.80650513073E+01  0.39069056262E+02  0.47787271888E+02  0.20000003847E+02 0.  0.
        -12    1    3    3    0    0 -0.17093478021E+02  0.80650513073E+01 -0.39069056262E+02  0.43400728112E+02  0.00000000000E+00 0.  1.
         11    1    4    4    0    0  0.71024425389E+01 -0.72641943252E+01  0.20609903065E+02  0.22977843977E+02  0.51100000000E-03 0. -1.
        -11    1    4    4    0    0 -0.89833305308E-01 -0.15171865036E+00  0.13597557295E+02  0.13598700424E+02  0.51100000000E-03 0.  1.
         12    1    4    4    0    0  0.10080868788E+02 -0.64913833173E+00  0.48615959022E+01  0.11210727488E+02  0.00000000000E+00 0. -1.
</event>
<event>
 8    1  0.4042158E-011  0.9118800E+02  0.7816164E-02  0.1184000E+00
        -11   -1    0    0    0    0  0.00000000000E+00  0.00000000000E+00  0.45593999997E+02  0.45594000000E+02  0.51100000000E-03 0. -1.
         11   -1    0    0    0    0 -0.00000000000E+00 -0.00000000000E+00 -0.45593999997E+02  0.45594000000E+02  0.51100000000E-03 0.  1.
         23    2    1    2    0    0  0.66613381478E-15  0.00000000000E+00 -0.71054273576E-14  0.91188000000E+02  0.91188000000E+02 0.  0.
    9900012    2    3    3    0    0 -0.83702346941E+00 -0.39452024894E+01  0.43212938989E+02  0.47787270431E+02  0.19999997205E+02 0.  0.
        -12    1    3    3    0    0  0.83702346941E+00  0.39452024894E+01 -0.43212938989E+02  0.43400729569E+02  0.00000000000E+00 0.  1.
         11    1    4    4    0    0  0.38513656448E+00 -0.67929199347E+01  0.83635792540E+01  0.10781537442E+02  0.51100000000E-03 0. -1.
        -11    1    4    4    0    0  0.22758410724E+01 -0.15905918354E+00  0.48397376357E+00  0.23321627893E+01  0.51100000000E-03 0.  1.
         12    1    4    4    0    0 -0.34980011063E+01  0.30067766288E+01  0.34365385972E+02  0.34673570200E+02  0.00000000000E+00 0. -1.
</event>
<event>
 8    1  0.4042158E-011  0.9118800E+02  0.7816164E-02  0.1184000E+00
        -11   -1    0    0    0    0  0.00000000000E+00  0.00000000000E+00  0.45593999997E+02  0.45594000000E+02  0.51100000000E-03 0. -1.
         11   -1    0    0    0    0 -0.00000000000E+00 -0.00000000000E+00 -0.45593999997E+02  0.45594000000E+02  0.51100000000E-03 0.  1.
         23    2    1    2    0    0  0.17763568394E-14  0.00000000000E+00  0.00000000000E+00  0.91188000000E+02  0.91188000000E+02 0.  0.
    9900012    2    3    3    0    0 -0.14150115596E+02  0.39351167656E+02 -0.11613901328E+02  0.47787275682E+02  0.20000021143E+02 0.  0.
         12    1    3    3    0    0  0.14150115596E+02 -0.39351167656E+02  0.11613901328E+02  0.43400724318E+02  0.00000000000E+00 0. -1.
         11    1    4    4    0    0 -0.36131003541E+01  0.57259399905E+01 -0.81077874307E+01  0.10563006212E+02  0.51100000000E-03 0. -1.
        -11    1    4    4    0    0 -0.57040456419E+01  0.42600846537E+01 -0.21348498908E+01  0.74324990588E+01  0.51100000000E-03 0.  1.
        -12    1    4    4    0    0 -0.48329696000E+01  0.29365143012E+02 -0.13712640070E+01  0.29791770411E+02  0.00000000000E+00 0.  1.
</event>
<event>
 8    1  0.4042158E-011  0.9118800E+02  0.7816164E-02  0.1184000E+00
        -11   -1    0    0    0    0  0.00000000000E+00  0.00000000000E+00  0.45593999997E+02  0.45594000000E+02  0.51100000000E-03 0. -1.
         11   -1    0    0    0    0 -0.00000000000E+00 -0.00000000000E+00 -0.45593999997E+02  0.45594000000E+02  0.51100000000E-03 0.  1.
         23    2    1    2    0    0 -0.17763568394E-14  0.00000000000E+00  0.35527136788E-14  0.91188000000E+02  0.91188000000E+02 0.  0.
    9900012    2    3    3    0    0 -0.93432071568E+01 -0.31289925155E+02  0.28587913854E+02  0.47787265505E+02  0.19999974743E+02 0.  0.
        -12    1    3    3    0    0  0.93432071568E+01  0.31289925155E+02 -0.28587913854E+02  0.43400734495E+02  0.00000000000E+00 0.  1.
         11    1    4    4    0    0 -0.65122486193E+01 -0.73208622172E+01  0.75408147969E+01  0.12363991821E+02  0.51100000000E-03 0. -1.
        -11    1    4    4    0    0 -0.72370456686E+00 -0.10229033627E+01 -0.23005279545E+01  0.26196390438E+01  0.51100000000E-03 0.  1.
         12    1    4    4    0    0 -0.21072539707E+01 -0.22946159576E+02  0.23347627011E+02  0.32803634640E+02  0.00000000000E+00 0. -1.
</event>
<event>
 8    1  0.4042158E-011  0.9118800E+02  0.7816164E-02  0.1184000E+00
        -11   -1    0    0    0    0  0.00000000000E+00  0.00000000000E+00  0.45593999997E+02  0.45594000000E+02  0.51100000000E-03 0. -1.
         11   -1    0    0    0    0 -0.00000000000E+00 -0.00000000000E+00 -0.45593999997E+02  0.45594000000E+02  0.51100000000E-03 0.  1.
         23    2    1    2    0    0  0.00000000000E+00  0.88817841970E-15  0.71054273576E-14  0.91188000000E+02  0.91188000000E+02 0.  0.
    9900012    2    3    3    0    0 -0.17378276874E+02 -0.27220181443E+01 -0.39676309477E+02  0.47787269319E+02  0.19999992135E+02 0.  0.
         12    1    3    3    0    0  0.17378276874E+02  0.27220181443E+01  0.39676309477E+02  0.43400730681E+02  0.00000000000E+00 0. -1.
         11    1    4    4    0    0  0.77008579305E+00  0.27181478697E+01 -0.13148460218E+01  0.31161162193E+01  0.51100000000E-03 0. -1.
        -11    1    4    4    0    0 -0.34135556177E+01 -0.42656639265E+01 -0.27555822326E+01  0.61189447122E+01  0.51100000000E-03 0.  1.
        -12    1    4    4    0    0 -0.14734807049E+02 -0.11745020875E+01 -0.35605881223E+02  0.38552208388E+02  0.00000000000E+00 0.  1.
</event>
<event>
 8    1  0.4042158E-011  0.9118800E+02  0.7816164E-02  0.1184000E+00
        -11   -1    0    0    0    0  0.00000000000E+00  0.00000000000E+00  0.45593999997E+02  0.45594000000E+02  0.51100000000E-03 0. -1.
         11   -1    0    0    0    0 -0.00000000000E+00 -0.00000000000E+00 -0.45593999997E+02  0.45594000000E+02  0.51100000000E-03 0.  1.
         23    2    1    2    0    0  0.00000000000E+00 -0.44408920985E-15 -0.35527136788E-14  0.91188000000E+02  0.91188000000E+02 0.  0.
    9900012    2    3    3    0    0 -0.37073530660E+02 -0.30914304744E+01 -0.22352170407E+02  0.47787272588E+02  0.20000007037E+02 0.  0.
         12    1    3    3    0    0  0.37073530660E+02  0.30914304744E+01  0.22352170407E+02  0.43400727412E+02  0.00000000000E+00 0. -1.
         11    1    4    4    0    0 -0.27697360118E+02 -0.49491934015E+01 -0.25145941699E+02  0.37735350230E+02  0.51100000000E-03 0.  1.
        -11    1    4    4    0    0 -0.44029377943E+01  0.15428976439E+01  0.11564496219E+01  0.48066381545E+01  0.51100000000E-03 0. -1.
        -12    1    4    4    0    0 -0.49732327485E+01  0.31486528323E+00  0.16373216702E+01  0.52452842029E+01  0.00000000000E+00 0.  1.
</event>
<event>
 8    1  0.4042158E-011  0.9118800E+02  0.7816164E-02  0.1184000E+00
        -11   -1    0    0    0    0  0.00000000000E+00  0.00000000000E+00  0.45593999997E+02  0.45594000000E+02  0.51100000000E-03 0. -1.
         11   -1    0    0    0    0 -0.00000000000E+00 -0.00000000000E+00 -0.45593999997E+02  0.45594000000E+02  0.51100000000E-03 0.  1.
         23    2    1    2    0    0  0.88817841970E-15  0.00000000000E+00  0.00000000000E+00  0.91188000000E+02  0.91188000000E+02 0.  0.
    9900012    2    3    3    0    0  0.66569748179E+01  0.26477019539E+02 -0.33738320606E+02  0.47787283937E+02  0.20000058784E+02 0.  0.
         12    1    3    3    0    0 -0.66569748179E+01 -0.26477019539E+02  0.33738320606E+02  0.43400716063E+02  0.00000000000E+00 0. -1.
         11    1    4    4    0    0 -0.15671334525E+01  0.16519688074E+02 -0.11926818489E+02  0.20435385997E+02  0.51100000000E-03 0. -1.
        -11    1    4    4    0    0  0.58143279946E+01  0.96249255645E+01 -0.22202877842E+02  0.24888016933E+02  0.51100000000E-03 0.  1.
         12    1    4    4    0    0  0.24097802758E+01  0.33240590126E+00  0.39137572441E+00  0.24638810074E+01  0.00000000000E+00 0. -1.
</event>
<event>
 8    1  0.4042158E-011  0.9118800E+02  0.7816164E-02  0.1184000E+00
        -11   -1    0    0    0    0  0.00000000000E+00  0.00000000000E+00  0.45593999997E+02  0.45594000000E+02  0.51100000000E-03 0.  1.
         11   -1    0    0    0    0 -0.00000000000E+00 -0.00000000000E+00 -0.45593999997E+02  0.45594000000E+02  0.51100000000E-03 0. -1.
         23    2    1    2    0    0  0.35527136788E-14  0.00000000000E+00 -0.35527136788E-14  0.91188000000E+02  0.91188000000E+02 0.  0.
    9900012    2    3    3    0    0  0.22835051436E+02  0.29607151460E+02 -0.22036404163E+02  0.47787238484E+02  0.19999851544E+02 0.  0.
         12    1    3    3    0    0 -0.22835051436E+02 -0.29607151460E+02  0.22036404163E+02  0.43400761516E+02  0.00000000000E+00 0. -1.
         11    1    4    4    0    0  0.13076700827E+02  0.18343659429E+02 -0.13375805260E+02  0.26199276944E+02  0.51100000000E-03 0. -1.
        -11    1    4    4    0    0  0.11023679379E+02  0.12841326815E+02 -0.94886778387E+01  0.19402478934E+02  0.51100000000E-03 0.  1.
         12    1    4    4    0    0 -0.12653287690E+01 -0.15778347835E+01  0.82807893558E+00  0.21854826060E+01  0.00000000000E+00 0. -1.
</event>
<event>
 8    1  0.4042158E-011  0.9118800E+02  0.7816164E-02  0.1184000E+00
        -11   -1    0    0    0    0  0.00000000000E+00  0.00000000000E+00  0.45593999997E+02  0.45594000000E+02  0.51100000000E-03 0. -1.
         11   -1    0    0    0    0 -0.00000000000E+00 -0.00000000000E+00 -0.45593999997E+02  0.45594000000E+02  0.51100000000E-03 0.  1.
         23    2    1    2    0    0  0.00000000000E+00  0.00000000000E+00  0.71054273576E-14  0.91188000000E+02  0.91188000000E+02 0.  0.
    9900012    2    3    3    0    0  0.53507141971E+01 -0.87076125715E+01 -0.42180260328E+02  0.47787227882E+02  0.19999803203E+02 0.  0.
         12    1    3    3    0    0 -0.53507141971E+01  0.87076125715E+01  0.42180260328E+02  0.43400772118E+02  0.00000000000E+00 0. -1.
         11    1    4    4    0    0 -0.32557097832E+01  0.63114364391E+00 -0.12395008838E+01  0.35403885654E+01  0.51100000000E-03 0. -1.
        -11    1    4    4    0    0  0.27935017687E+01 -0.10061610805E+02 -0.20837157715E+02  0.23307226476E+02  0.51100000000E-03 0.  1.
        -12    1    4    4    0    0  0.58129222117E+01  0.72285458953E+00 -0.20103601730E+02  0.20939612840E+02  0.00000000000E+00 0.  1.
</event>
<event>
 8    1  0.4042158E-011  0.9118800E+02  0.7816164E-02  0.1184000E+00
        -11   -1    0    0    0    0  0.00000000000E+00  0.00000000000E+00  0.45593999997E+02  0.45594000000E+02  0.51100000000E-03 0. -1.
         11   -1    0    0    0    0 -0.00000000000E+00 -0.00000000000E+00 -0.45593999997E+02  0.45594000000E+02  0.51100000000E-03 0.  1.
         23    2    1    2    0    0  0.35527136788E-14 -0.88817841970E-15  0.00000000000E+00  0.91188000000E+02  0.91188000000E+02 0.  0.
    9900012    2    3    3    0    0 -0.28180923636E+02 -0.67655012760E+01  0.32306151573E+02  0.47787263901E+02  0.19999967429E+02 0.  0.
        -12    1    3    3    0    0  0.28180923636E+02  0.67655012760E+01 -0.32306151573E+02  0.43400736099E+02  0.00000000000E+00 0.  1.
         11    1    4    4    0    0 -0.19384709547E+02 -0.65814346293E+01  0.13995037995E+02  0.24798051027E+02  0.51100000000E-03 0. -1.
        -11    1    4    4    0    0 -0.34018549751E+01  0.18356331088E+01  0.76286127477E-01  0.38662625385E+01  0.51100000000E-03 0.  1.
         12    1    4    4    0    0 -0.53943591137E+01 -0.20196997555E+01  0.18234827451E+02  0.19122950335E+02  0.00000000000E+00 0. -1.
</event>
<event>
 8    1  0.4042158E-011  0.9118800E+02  0.7816164E-02  0.1184000E+00
        -11   -1    0    0    0    0  0.00000000000E+00  0.00000000000E+00  0.45593999997E+02  0.45594000000E+02  0.51100000000E-03 0. -1.
         11   -1    0    0    0    0 -0.00000000000E+00 -0.00000000000E+00 -0.45593999997E+02  0.45594000000E+02  0.51100000000E-03 0.  1.
         23    2    1    2    0    0  0.00000000000E+00  0.00000000000E+00 -0.35527136788E-14  0.91188000000E+02  0.91188000000E+02 0.  0.
    9900012    2    3    3    0    0  0.23942109802E+02  0.18503036074E+02  0.31113294043E+02  0.47787262311E+02  0.19999960182E+02 0.  0.
        -12    1    3    3    0    0 -0.23942109802E+02 -0.18503036074E+02 -0.31113294043E+02  0.43400737689E+02  0.00000000000E+00 0.  1.
         11    1    4    4    0    0  0.63050988056E+01  0.66448384109E+01  0.34938817329E+01  0.98038440563E+01  0.51100000000E-03 0. -1.
        -11    1    4    4    0    0  0.14132675250E+02  0.12533278070E+02  0.12989989813E+02  0.22924995191E+02  0.51100000000E-03 0.  1.
         12    1    4    4    0    0  0.35043357473E+01 -0.67508040766E+00  0.14629422497E+02  0.15058423064E+02  0.00000000000E+00 0. -1.
</event>
<event>
 8    1  0.4042158E-011  0.9118800E+02  0.7816164E-02  0.1184000E+00
        -11   -1    0    0    0    0  0.00000000000E+00  0.00000000000E+00  0.45593999997E+02  0.45594000000E+02  0.51100000000E-03 0. -1.
         11   -1    0    0    0    0 -0.00000000000E+00 -0.00000000000E+00 -0.45593999997E+02  0.45594000000E+02  0.51100000000E-03 0.  1.
         23    2    1    2    0    0  0.00000000000E+00  0.71054273576E-14 -0.17763568394E-14  0.91188000000E+02  0.91188000000E+02 0.  0.
    9900012    2    3    3    0    0 -0.26225772830E+02  0.32726219271E+02  0.11172623330E+02  0.47787261522E+02  0.19999956585E+02 0.  0.
        -12    1    3    3    0    0  0.26225772830E+02 -0.32726219271E+02 -0.11172623330E+02  0.43400738478E+02  0.00000000000E+00 0.  1.
         11    1    4    4    0    0 -0.14042492386E+02  0.15230758744E+02  0.10994739281E+02  0.23453185209E+02  0.51100000000E-03 0. -1.
        -11    1    4    4    0    0 -0.60437226200E+01  0.45689893543E+01  0.51762875022E+01  0.91758487015E+01  0.51100000000E-03 0.  1.
        -12    1    4    4    0    0 -0.61395578249E+01  0.12926471172E+02 -0.49984034530E+01  0.15158227612E+02  0.00000000000E+00 0.  1.
</event>
<event>
 8    1  0.4042158E-011  0.9118800E+02  0.7816164E-02  0.1184000E+00
        -11   -1    0    0    0    0  0.00000000000E+00  0.00000000000E+00  0.45593999997E+02  0.45594000000E+02  0.51100000000E-03 0. -1.
         11   -1    0    0    0    0 -0.00000000000E+00 -0.00000000000E+00 -0.45593999997E+02  0.45594000000E+02  0.51100000000E-03 0.  1.
         23    2    1    2    0    0  0.00000000000E+00 -0.44408920985E-15  0.00000000000E+00  0.91188000000E+02  0.91188000000E+02 0.  0.
    9900012    2    3    3    0    0 -0.15929254545E+01  0.25815172542E+01 -0.43294592169E+02  0.47787270122E+02  0.19999995794E+02 0.  0.
         12    1    3    3    0    0  0.15929254545E+01 -0.25815172542E+01  0.43294592169E+02  0.43400729878E+02  0.00000000000E+00 0. -1.
         11    1    4    4    0    0 -0.90883846798E+00 -0.26291778228E+01 -0.12145651436E+01  0.30354130088E+01  0.51100000000E-03 0. -1.
        -11    1    4    4    0    0 -0.47153999255E+01 -0.21184630746E+01 -0.27154998058E+02  0.27642662716E+02  0.51100000000E-03 0.  1.
        -12    1    4    4    0    0  0.40313129390E+01  0.73291581516E+01 -0.14925028968E+02  0.17109194397E+02  0.00000000000E+00 0.  1.
</event>
<event>
 8    1  0.4042158E-011  0.9118800E+02  0.7816164E-02  0.1184000E+00
        -11   -1    0    0    0    0  0.00000000000E+00  0.00000000000E+00  0.45593999997E+02  0.45594000000E+02  0.51100000000E-03 0. -1.
         11   -1    0    0    0    0 -0.00000000000E+00 -0.00000000000E+00 -0.45593999997E+02  0.45594000000E+02  0.51100000000E-03 0.  1.
         23    2    1    2    0    0  0.88817841970E-15  0.35527136788E-14  0.71054273576E-14  0.91188000000E+02  0.91188000000E+02 0.  0.
    9900012    2    3    3    0    0  0.61124260189E+01 -0.22672195329E+02 -0.36499766783E+02  0.47787272263E+02  0.20000005557E+02 0.  0.
         12    1    3    3    0    0 -0.61124260189E+01  0.22672195329E+02  0.36499766783E+02  0.43400727737E+02  0.00000000000E+00 0. -1.
         11    1    4    4    0    0 -0.37528615215E+01 -0.92472071310E+01 -0.16473110931E+02  0.19260275006E+02  0.51100000000E-03 0. -1.
        -11    1    4    4    0    0  0.44595406945E+01 -0.14076498833E+02 -0.15868917818E+02  0.21676205285E+02  0.51100000000E-03 0.  1.
         12    1    4    4    0    0  0.54057468459E+01  0.65151063568E+00 -0.41577380349E+01  0.68507919716E+01  0.00000000000E+00 0. -1.
</event>
<event>
 8    1  0.4042158E-011  0.9118800E+02  0.7816164E-02  0.1184000E+00
        -11   -1    0    0    0    0  0.00000000000E+00  0.00000000000E+00  0.45593999997E+02  0.45594000000E+02  0.51100000000E-03 0. -1.
         11   -1    0    0    0    0 -0.00000000000E+00 -0.00000000000E+00 -0.45593999997E+02  0.45594000000E+02  0.51100000000E-03 0.  1.
         23    2    1    2    0    0 -0.88817841970E-15  0.71054273576E-14 -0.35527136788E-14  0.91188000000E+02  0.91188000000E+02 0.  0.
    9900012    2    3    3    0    0  0.76748993752E+01 -0.32032537658E+02 -0.28260151247E+02  0.47787266161E+02  0.19999977737E+02 0.  0.
         12    1    3    3    0    0 -0.76748993752E+01  0.32032537658E+02  0.28260151247E+02  0.43400733839E+02  0.00000000000E+00 0. -1.
         11    1    4    4    0    0  0.23943555022E+01 -0.30940951249E+01 -0.90186188103E+01  0.98306585954E+01  0.51100000000E-03 0. -1.
        -11    1    4    4    0    0  0.27164649670E+00 -0.18883959886E+01  0.23201213807E+01  0.30037967160E+01  0.51100000000E-03 0.  1.
        -12    1    4    4    0    0  0.50088973763E+01 -0.27050046544E+02 -0.21561653817E+02  0.34952810850E+02  0.00000000000E+00 0.  1.
</event>
<event>
 8    1  0.4042158E-011  0.9118800E+02  0.7816164E-02  0.1184000E+00
        -11   -1    0    0    0    0  0.00000000000E+00  0.00000000000E+00  0.45593999997E+02  0.45594000000E+02  0.51100000000E-03 0. -1.
         11   -1    0    0    0    0 -0.00000000000E+00 -0.00000000000E+00 -0.45593999997E+02  0.45594000000E+02  0.51100000000E-03 0.  1.
         23    2    1    2    0    0  0.00000000000E+00  0.00000000000E+00  0.00000000000E+00  0.91188000000E+02  0.91188000000E+02 0.  0.
    9900012    2    3    3    0    0 -0.23113809553E+02 -0.56307731430E+01  0.36299717081E+02  0.47787271222E+02  0.20000000810E+02 0.  0.
        -12    1    3    3    0    0  0.23113809553E+02  0.56307731430E+01 -0.36299717081E+02  0.43400728778E+02  0.00000000000E+00 0.  1.
         11    1    4    4    0    0 -0.72959991733E+01 -0.26411676224E+00  0.95613255708E+01  0.12029975417E+02  0.51100000000E-03 0. -1.
        -11    1    4    4    0    0  0.36266730308E+01 -0.80987460714E+00  0.51135954297E+01  0.63211955065E+01  0.51100000000E-03 0.  1.
        -12    1    4    4    0    0 -0.19444483411E+02 -0.45567817736E+01  0.21624796081E+02  0.29436100299E+02  0.00000000000E+00 0.  1.
</event>
<event>
 8    1  0.4042158E-011  0.9118800E+02  0.7816164E-02  0.1184000E+00
        -11   -1    0    0    0    0  0.00000000000E+00  0.00000000000E+00  0.45593999997E+02  0.45594000000E+02  0.51100000000E-03 0. -1.
         11   -1    0    0    0    0 -0.00000000000E+00 -0.00000000000E+00 -0.45593999997E+02  0.45594000000E+02  0.51100000000E-03 0.  1.
         23    2    1    2    0    0  0.71054273576E-14 -0.22204460493E-15 -0.88817841970E-15  0.91188000000E+02  0.91188000000E+02 0.  0.
    9900012    2    3    3    0    0  0.43166633188E+02  0.11870410862E+01 -0.43423321510E+01  0.47787272634E+02  0.20000007249E+02 0.  0.
         12    1    3    3    0    0 -0.43166633188E+02 -0.11870410862E+01  0.43423321510E+01  0.43400727366E+02  0.00000000000E+00 0. -1.
         11    1    4    4    0    0  0.17902590262E+02 -0.36634455473E+01 -0.24395834292E+01  0.18435702832E+02  0.51100000000E-03 0. -1.
        -11    1    4    4    0    0  0.47975931253E+01 -0.36842637306E+00 -0.61487104707E+01  0.78076423139E+01  0.51100000000E-03 0.  1.
        -12    1    4    4    0    0  0.20466449801E+02  0.52189130066E+01  0.42459617489E+01  0.21543927488E+02  0.00000000000E+00 0.  1.
</event>
<event>
 8    1  0.4042158E-011  0.9118800E+02  0.7816164E-02  0.1184000E+00
        -11   -1    0    0    0    0  0.00000000000E+00  0.00000000000E+00  0.45593999997E+02  0.45594000000E+02  0.51100000000E-03 0. -1.
         11   -1    0    0    0    0 -0.00000000000E+00 -0.00000000000E+00 -0.45593999997E+02  0.45594000000E+02  0.51100000000E-03 0.  1.
         23    2    1    2    0    0  0.44408920985E-15  0.00000000000E+00 -0.35527136788E-14  0.91188000000E+02  0.91188000000E+02 0.  0.
    9900012    2    3    3    0    0  0.23845972936E+01 -0.36197097096E+02  0.23826606839E+02  0.47787270330E+02  0.19999996742E+02 0.  0.
        -12    1    3    3    0    0 -0.23845972936E+01  0.36197097096E+02 -0.23826606839E+02  0.43400729670E+02  0.00000000000E+00 0.  1.
         11    1    4    4    0    0 -0.10201159716E+01 -0.81150205000E+01  0.10979331357E+02  0.13690869644E+02  0.51100000000E-03 0. -1.
        -11    1    4    4    0    0 -0.40562673701E+01 -0.12720614499E+02  0.10228421149E+02  0.16819272804E+02  0.51100000000E-03 0.  1.
        -12    1    4    4    0    0  0.74609806352E+01 -0.15361462098E+02  0.26188543330E+01  0.17277127881E+02  0.00000000000E+00 0.  1.
</event>
<event>
 8    1  0.4042158E-011  0.9118800E+02  0.7816164E-02  0.1184000E+00
        -11   -1    0    0    0    0  0.00000000000E+00  0.00000000000E+00  0.45593999997E+02  0.45594000000E+02  0.51100000000E-03 0. -1.
         11   -1    0    0    0    0 -0.00000000000E+00 -0.00000000000E+00 -0.45593999997E+02  0.45594000000E+02  0.51100000000E-03 0.  1.
         23    2    1    2    0    0  0.00000000000E+00  0.00000000000E+00  0.00000000000E+00  0.91188000000E+02  0.91188000000E+02 0.  0.
    9900012    2    3    3    0    0  0.10710292687E+02 -0.21423478311E+02 -0.36193198047E+02  0.47787269854E+02  0.19999994571E+02 0.  0.
         12    1    3    3    0    0 -0.10710292687E+02  0.21423478311E+02  0.36193198047E+02  0.43400730146E+02  0.00000000000E+00 0. -1.
         11    1    4    4    0    0  0.68790714431E+01 -0.90772417989E+01 -0.10389316993E+02  0.15416090634E+02  0.51100000000E-03 0. -1.
        -11    1    4    4    0    0 -0.32677947684E+01  0.15010946571E+01 -0.77024631063E+01  0.85005709210E+01  0.51100000000E-03 0.  1.
        -12    1    4    4    0    0  0.70990160128E+01 -0.13847331169E+02 -0.18101417947E+02  0.23870608298E+02  0.00000000000E+00 0.  1.
</event>
<event>
 8    1  0.4042158E-011  0.9118800E+02  0.7816164E-02  0.1184000E+00
        -11   -1    0    0    0    0  0.00000000000E+00  0.00000000000E+00  0.45593999997E+02  0.45594000000E+02  0.51100000000E-03 0. -1.
         11   -1    0    0    0    0 -0.00000000000E+00 -0.00000000000E+00 -0.45593999997E+02  0.45594000000E+02  0.51100000000E-03 0.  1.
         23    2    1    2    0    0  0.00000000000E+00  0.35527136788E-14  0.35527136788E-14  0.91188000000E+02  0.91188000000E+02 0.  0.
    9900012    2    3    3    0    0  0.29670366351E+02  0.24369264960E+02 -0.20234412969E+02  0.47787272100E+02  0.20000004812E+02 0.  0.
         12    1    3    3    0    0 -0.29670366351E+02 -0.24369264960E+02  0.20234412969E+02  0.43400727900E+02  0.00000000000E+00 0. -1.
         11    1    4    4    0    0  0.50652280413E+01  0.87689122208E+01 -0.85092630005E+01  0.13227165748E+02  0.51100000000E-03 0. -1.
        -11    1    4    4    0    0  0.17666680202E+02  0.16450248163E+02 -0.13056121327E+02  0.27444208102E+02  0.51100000000E-03 0.  1.
         12    1    4    4    0    0  0.69384581074E+01 -0.84989542426E+00  0.13309713587E+01  0.71158982495E+01  0.00000000000E+00 0. -1.
</event>
<event>
 8    1  0.4042158E-011  0.9118800E+02  0.7816164E-02  0.1184000E+00
        -11   -1    0    0    0    0  0.00000000000E+00  0.00000000000E+00  0.45593999997E+02  0.45594000000E+02  0.51100000000E-03 0. -1.
         11   -1    0    0    0    0 -0.00000000000E+00 -0.00000000000E+00 -0.45593999997E+02  0.45594000000E+02  0.51100000000E-03 0.  1.
         23    2    1    2    0    0  0.00000000000E+00  0.00000000000E+00  0.00000000000E+00  0.91188000000E+02  0.91188000000E+02 0.  0.
    9900012    2    3    3    0    0  0.24409080259E+02 -0.62695360292E+01 -0.35334272833E+02  0.47787295884E+02  0.20000113254E+02 0.  0.
         12    1    3    3    0    0 -0.24409080259E+02  0.62695360292E+01  0.35334272833E+02  0.43400704116E+02  0.00000000000E+00 0. -1.
         11    1    4    4    0    0  0.35338762863E+01  0.39135720627E+01 -0.33653724669E+01  0.62554024650E+01  0.51100000000E-03 0.  1.
        -11    1    4    4    0    0  0.80281127204E+01  0.25368203411E+01 -0.95396781215E+01  0.12723659466E+02  0.51100000000E-03 0. -1.
         12    1    4    4    0    0  0.12847091252E+02 -0.12719928433E+02 -0.22429222245E+02  0.28808233953E+02  0.00000000000E+00 0. -1.
</event>
<event>
 8    1  0.4042158E-011  0.9118800E+02  0.7816164E-02  0.1184000E+00
        -11   -1    0    0    0    0  0.00000000000E+00  0.00000000000E+00  0.45593999997E+02  0.45594000000E+02  0.51100000000E-03 0. -1.
         11   -1    0    0    0    0 -0.00000000000E+00 -0.00000000000E+00 -0.45593999997E+02  0.45594000000E+02  0.51100000000E-03 0.  1.
         23    2    1    2    0    0  0.17763568394E-14  0.00000000000E+00  0.00000000000E+00  0.91188000000E+02  0.91188000000E+02 0.  0.
    9900012    2    3    3    0    0  0.10572960664E+02 -0.20171525791E+02 -0.36945168517E+02  0.47787269284E+02  0.19999991973E+02 0.  0.
         12    1    3    3    0    0 -0.10572960664E+02  0.20171525791E+02  0.36945168517E+02  0.43400730716E+02  0.00000000000E+00 0. -1.
         11    1    4    4    0    0  0.32388100463E+01  0.13939793944E+01 -0.34330824330E+00  0.35427291569E+01  0.51100000000E-03 0. -1.
        -11    1    4    4    0    0  0.34435565075E+01 -0.19940504993E+01 -0.23992057734E+01  0.46465586640E+01  0.51100000000E-03 0.  1.
        -12    1    4    4    0    0  0.38905941106E+01 -0.19571454687E+02 -0.34202654500E+02  0.39597981463E+02  0.00000000000E+00 0.  1.
</event>
<event>
 8    1  0.4042158E-011  0.9118800E+02  0.7816164E-02  0.1184000E+00
        -11   -1    0    0    0    0  0.00000000000E+00  0.00000000000E+00  0.45593999997E+02  0.45594000000E+02  0.51100000000E-03 0. -1.
         11   -1    0    0    0    0 -0.00000000000E+00 -0.00000000000E+00 -0.45593999997E+02  0.45594000000E+02  0.51100000000E-03 0.  1.
         23    2    1    2    0    0 -0.35527136788E-14 -0.71054273576E-14  0.35527136788E-14  0.91188000000E+02  0.91188000000E+02 0.  0.
    9900012    2    3    3    0    0 -0.14210199473E+02 -0.38350735053E+02  0.14522830574E+02  0.47787294291E+02  0.20000105989E+02 0.  0.
        -12    1    3    3    0    0  0.14210199473E+02  0.38350735053E+02 -0.14522830574E+02  0.43400705709E+02  0.00000000000E+00 0.  1.
         11    1    4    4    0    0 -0.15303893208E+01 -0.36834079724E+01  0.95763793363E+00  0.41020307700E+01  0.51100000000E-03 0. -1.
        -11    1    4    4    0    0 -0.99729863707E+01 -0.36063439741E+02  0.94972183082E+01  0.38603488171E+02  0.51100000000E-03 0.  1.
        -12    1    4    4    0    0 -0.27068237819E+01  0.13961126600E+01  0.40679743319E+01  0.50817753503E+01  0.00000000000E+00 0.  1.
</event>
<event>
 8    1  0.4042158E-011  0.9118800E+02  0.7816164E-02  0.1184000E+00
        -11   -1    0    0    0    0  0.00000000000E+00  0.00000000000E+00  0.45593999997E+02  0.45594000000E+02  0.51100000000E-03 0. -1.
         11   -1    0    0    0    0 -0.00000000000E+00 -0.00000000000E+00 -0.45593999997E+02  0.45594000000E+02  0.51100000000E-03 0.  1.
         23    2    1    2    0    0  0.00000000000E+00  0.00000000000E+00  0.35527136788E-14  0.91188000000E+02  0.91188000000E+02 0.  0.
    9900012    2    3    3    0    0 -0.17628137100E+02 -0.29208690351E+02  0.26827683271E+02  0.47787269599E+02  0.19999993409E+02 0.  0.
        -12    1    3    3    0    0  0.17628137100E+02  0.29208690351E+02 -0.26827683271E+02  0.43400730401E+02  0.00000000000E+00 0.  1.
         11    1    4    4    0    0 -0.50584684267E+01 -0.13158749363E+02  0.12699955087E+02  0.18974447215E+02  0.51100000000E-03 0. -1.
        -11    1    4    4    0    0 -0.10971236383E+02 -0.15137013422E+02  0.47945744251E+01  0.19299874281E+02  0.51100000000E-03 0.  1.
         12    1    4    4    0    0 -0.15984322911E+01 -0.91292756678E+00  0.93331537587E+01  0.95129481032E+01  0.00000000000E+00 0. -1.
</event>
<event>
 8    1  0.7247540E-011  0.9118800E+02  0.7816164E-02  0.1184000E+00
        -11   -1    0    0    0    0  0.00000000000E+00  0.00000000000E+00  0.45593999997E+02  0.45594000000E+02  0.51100000000E-03 0. -1.
         11   -1    0    0    0    0 -0.00000000000E+00 -0.00000000000E+00 -0.45593999997E+02  0.45594000000E+02  0.51100000000E-03 0.  1.
         23    2    1    2    0    0  0.00000000000E+00  0.00000000000E+00  0.00000000000E+00  0.91188000000E+02  0.91188000000E+02 0.  0.
    9900012    2    3    3    0    0 -0.25041646016E+01  0.75119600497E+01  0.42672275978E+02  0.47787268195E+02  0.19999987006E+02 0.  0.
        -12    1    3    3    0    0  0.25041646016E+01 -0.75119600497E+01 -0.42672275978E+02  0.43400731805E+02  0.00000000000E+00 0.  1.
         11    1    4    4    0    0 -0.30799499117E+01  0.11150923638E+02  0.29513801545E+02  0.31700057908E+02  0.51100000000E-03 0. -1.
        -11    1    4    4    0    0  0.27796156242E+01 -0.29308919496E+01  0.13166733775E+02  0.13772409709E+02  0.51100000000E-03 0.  1.
        -12    1    4    4    0    0 -0.22038303142E+01 -0.70807163862E+00 -0.82593422905E-02  0.23148005780E+01  0.00000000000E+00 0.  1.
</event>
<event>
 8    1  0.4042158E-011  0.9118800E+02  0.7816164E-02  0.1184000E+00
        -11   -1    0    0    0    0  0.00000000000E+00  0.00000000000E+00  0.45593999997E+02  0.45594000000E+02  0.51100000000E-03 0. -1.
         11   -1    0    0    0    0 -0.00000000000E+00 -0.00000000000E+00 -0.45593999997E+02  0.45594000000E+02  0.51100000000E-03 0.  1.
         23    2    1    2    0    0  0.27755575616E-15  0.88817841970E-15  0.00000000000E+00  0.91188000000E+02  0.91188000000E+02 0.  0.
    9900012    2    3    3    0    0 -0.25571138921E+00  0.50527558863E+01 -0.43104839411E+02  0.47787275225E+02  0.20000019060E+02 0.  0.
         12    1    3    3    0    0  0.25571138921E+00 -0.50527558863E+01  0.43104839411E+02  0.43400724775E+02  0.00000000000E+00 0. -1.
         11    1    4    4    0    0  0.83812178121E+00 -0.11721590508E+00  0.11481012173E+01  0.14262974286E+01  0.51100000000E-03 0. -1.
        -11    1    4    4    0    0  0.96011112735E+00  0.39962640944E+01 -0.31200129996E+01  0.51600795990E+01  0.51100000000E-03 0.  1.
        -12    1    4    4    0    0 -0.20539442978E+01  0.11737076969E+01 -0.41132927629E+02  0.41200898197E+02  0.00000000000E+00 0.  1.
</event>
<event>
 8    1  0.4042158E-011  0.9118800E+02  0.7816164E-02  0.1184000E+00
        -11   -1    0    0    0    0  0.00000000000E+00  0.00000000000E+00  0.45593999997E+02  0.45594000000E+02  0.51100000000E-03 0.  1.
         11   -1    0    0    0    0 -0.00000000000E+00 -0.00000000000E+00 -0.45593999997E+02  0.45594000000E+02  0.51100000000E-03 0. -1.
         23    2    1    2    0    0  0.00000000000E+00 -0.71054273576E-14  0.00000000000E+00  0.91188000000E+02  0.91188000000E+02 0.  0.
    9900012    2    3    3    0    0  0.13422509270E+01 -0.43124540620E+02 -0.47004424736E+01  0.47787288016E+02  0.20000077381E+02 0.  0.
         12    1    3    3    0    0 -0.13422509270E+01  0.43124540620E+02  0.47004424736E+01  0.43400711984E+02  0.00000000000E+00 0. -1.
         11    1    4    4    0    0  0.97453308299E+00  0.87195251680E+00 -0.13652680014E+01  0.18904954108E+01  0.51100000000E-03 0. -1.
        -11    1    4    4    0    0  0.36062803988E+00  0.69920123642E+00 -0.81097933187E+00  0.11298772898E+01  0.51100000000E-03 0.  1.
        -12    1    4    4    0    0  0.70898041519E-02 -0.44695694373E+02 -0.25241951404E+01  0.44766915316E+02  0.00000000000E+00 0.  1.
</event>
<event>
 8    1  0.4042158E-011  0.9118800E+02  0.7816164E-02  0.1184000E+00
        -11   -1    0    0    0    0  0.00000000000E+00  0.00000000000E+00  0.45593999997E+02  0.45594000000E+02  0.51100000000E-03 0. -1.
         11   -1    0    0    0    0 -0.00000000000E+00 -0.00000000000E+00 -0.45593999997E+02  0.45594000000E+02  0.51100000000E-03 0.  1.
         23    2    1    2    0    0  0.00000000000E+00  0.00000000000E+00  0.00000000000E+00  0.91188000000E+02  0.91188000000E+02 0.  0.
    9900012    2    3    3    0    0  0.17001332820E+02 -0.10614836639E+02  0.38495497771E+02  0.47787269324E+02  0.19999992158E+02 0.  0.
        -12    1    3    3    0    0 -0.17001332820E+02  0.10614836639E+02 -0.38495497771E+02  0.43400730676E+02  0.00000000000E+00 0.  1.
         11    1    4    4    0    0  0.13411953881E+02 -0.10164886209E+02  0.14841437015E+02  0.22438218991E+02  0.51100000000E-03 0. -1.
        -11    1    4    4    0    0 -0.10153467205E+01 -0.11740898048E+01  0.36032356554E+00  0.15935021700E+01  0.51100000000E-03 0.  1.
         12    1    4    4    0    0  0.46047256590E+01  0.72413937494E+00  0.23293737191E+02  0.23755548163E+02  0.00000000000E+00 0. -1.
</event>
<event>
 8    1  0.4042158E-011  0.9118800E+02  0.7816164E-02  0.1184000E+00
        -11   -1    0    0    0    0  0.00000000000E+00  0.00000000000E+00  0.45593999997E+02  0.45594000000E+02  0.51100000000E-03 0. -1.
         11   -1    0    0    0    0 -0.00000000000E+00 -0.00000000000E+00 -0.45593999997E+02  0.45594000000E+02  0.51100000000E-03 0.  1.
         23    2    1    2    0    0 -0.35527136788E-14  0.00000000000E+00  0.00000000000E+00  0.91188000000E+02  0.91188000000E+02 0.  0.
    9900012    2    3    3    0    0 -0.30575013481E+02 -0.10841336635E+01 -0.30783381414E+02  0.47787269978E+02  0.19999995136E+02 0.  0.
         12    1    3    3    0    0  0.30575013481E+02  0.10841336635E+01  0.30783381414E+02  0.43400730022E+02  0.00000000000E+00 0. -1.
         11    1    4    4    0    0 -0.15457234507E+02  0.49284702116E+01 -0.11266292738E+02  0.19752095321E+02  0.51100000000E-03 0. -1.
        -11    1    4    4    0    0 -0.15687131258E+02 -0.18462417873E+01 -0.16620996314E+02  0.22929287267E+02  0.51100000000E-03 0.  1.
         12    1    4    4    0    0  0.56935228359E+00 -0.41663620878E+01 -0.28960923624E+01  0.51058873902E+01  0.00000000000E+00 0. -1.
</event>
<event>
 8    1  0.4042158E-011  0.9118800E+02  0.7816164E-02  0.1184000E+00
        -11   -1    0    0    0    0  0.00000000000E+00  0.00000000000E+00  0.45593999997E+02  0.45594000000E+02  0.51100000000E-03 0. -1.
         11   -1    0    0    0    0 -0.00000000000E+00 -0.00000000000E+00 -0.45593999997E+02  0.45594000000E+02  0.51100000000E-03 0.  1.
         23    2    1    2    0    0 -0.35527136788E-14  0.00000000000E+00  0.00000000000E+00  0.91188000000E+02  0.91188000000E+02 0.  0.
    9900012    2    3    3    0    0  0.21232265703E+02  0.32933766023E+02 -0.18659622293E+02  0.47787267800E+02  0.19999985207E+02 0.  0.
         12    1    3    3    0    0 -0.21232265703E+02 -0.32933766023E+02  0.18659622293E+02  0.43400732200E+02  0.00000000000E+00 0. -1.
         11    1    4    4    0    0 -0.10077109638E+01  0.91938615225E+01 -0.69347031457E+01  0.11559960167E+02  0.51100000000E-03 0. -1.
        -11    1    4    4    0    0  0.56968300214E+01  0.12888289609E+02 -0.76263019865E+01  0.16022557960E+02  0.51100000000E-03 0.  1.
        -12    1    4    4    0    0  0.16543146646E+02  0.10851614892E+02 -0.40986171609E+01  0.20204749673E+02  0.00000000000E+00 0.  1.
</event>
<event>
 8    1  0.4042158E-011  0.9118800E+02  0.7816164E-02  0.1184000E+00
        -11   -1    0    0    0    0  0.00000000000E+00  0.00000000000E+00  0.45593999997E+02  0.45594000000E+02  0.51100000000E-03 0. -1.
         11   -1    0    0    0    0 -0.00000000000E+00 -0.00000000000E+00 -0.45593999997E+02  0.45594000000E+02  0.51100000000E-03 0.  1.
         23    2    1    2    0    0  0.00000000000E+00 -0.17763568394E-14 -0.71054273576E-14  0.91188000000E+02  0.91188000000E+02 0.  0.
    9900012    2    3    3    0    0 -0.17523655713E+02  0.15606907988E+02 -0.36509817944E+02  0.47787298476E+02  0.20000125069E+02 0.  0.
         12    1    3    3    0    0  0.17523655713E+02 -0.15606907988E+02  0.36509817944E+02  0.43400701524E+02  0.00000000000E+00 0. -1.
         11    1    4    4    0    0 -0.93671319705E+01  0.82309164411E+01 -0.22307430046E+02  0.25556067427E+02  0.51100000000E-03 0. -1.
        -11    1    4    4    0    0 -0.77084563759E+01  0.10931354067E+02 -0.99534075437E+01  0.16672885876E+02  0.51100000000E-03 0.  1.
         12    1    4    4    0    0 -0.44806736690E+00 -0.35553625196E+01 -0.42489803546E+01  0.55583451733E+01  0.00000000000E+00 0. -1.
</event>
<event>
 8    1  0.4042158E-011  0.9118800E+02  0.7816164E-02  0.1184000E+00
        -11   -1    0    0    0    0  0.00000000000E+00  0.00000000000E+00  0.45593999997E+02  0.45594000000E+02  0.51100000000E-03 0. -1.
         11   -1    0    0    0    0 -0.00000000000E+00 -0.00000000000E+00 -0.45593999997E+02  0.45594000000E+02  0.51100000000E-03 0.  1.
         23    2    1    2    0    0  0.00000000000E+00  0.11102230246E-15  0.00000000000E+00  0.91188000000E+02  0.91188000000E+02 0.  0.
    9900012    2    3    3    0    0  0.38621886822E+02  0.89716804334E+00 -0.19777969051E+02  0.47787272909E+02  0.20000008502E+02 0.  0.
         12    1    3    3    0    0 -0.38621886822E+02 -0.89716804334E+00  0.19777969051E+02  0.43400727091E+02  0.00000000000E+00 0. -1.
         11    1    4    4    0    0  0.44564128866E+00 -0.13131106844E+01  0.21573853026E+00  0.14033528431E+01  0.51100000000E-03 0. -1.
        -11    1    4    4    0    0  0.15956039012E+02  0.33390993497E+01 -0.17627061768E+02  0.24009541276E+02  0.51100000000E-03 0.  1.
         12    1    4    4    0    0  0.22220206521E+02 -0.11288206219E+01 -0.23666458135E+01  0.22374378790E+02  0.00000000000E+00 0. -1.
</event>
<event>
 8    1  0.4042158E-011  0.9118800E+02  0.7816164E-02  0.1184000E+00
        -11   -1    0    0    0    0  0.00000000000E+00  0.00000000000E+00  0.45593999997E+02  0.45594000000E+02  0.51100000000E-03 0. -1.
         11   -1    0    0    0    0 -0.00000000000E+00 -0.00000000000E+00 -0.45593999997E+02  0.45594000000E+02  0.51100000000E-03 0.  1.
         23    2    1    2    0    0  0.35527136788E-14 -0.17763568394E-14  0.00000000000E+00  0.91188000000E+02  0.91188000000E+02 0.  0.
    9900012    2    3    3    0    0 -0.24408954843E+02  0.70469095709E+01 -0.35187599083E+02  0.47787272583E+02  0.20000007016E+02 0.  0.
         12    1    3    3    0    0  0.24408954843E+02 -0.70469095709E+01  0.35187599083E+02  0.43400727417E+02  0.00000000000E+00 0. -1.
         11    1    4    4    0    0  0.95550045315E+00 -0.73458868491E+00 -0.20912371147E+01  0.24136848557E+01  0.51100000000E-03 0. -1.
        -11    1    4    4    0    0 -0.13599449341E+02  0.10022993039E+02 -0.27211573174E+02  0.32029285454E+02  0.51100000000E-03 0.  1.
        -12    1    4    4    0    0 -0.11765005956E+02 -0.22414947836E+01 -0.58847887947E+01  0.13344302273E+02  0.00000000000E+00 0.  1.
</event>
<event>
 8    1  0.4042158E-011  0.9118800E+02  0.7816164E-02  0.1184000E+00
        -11   -1    0    0    0    0  0.00000000000E+00  0.00000000000E+00  0.45593999997E+02  0.45594000000E+02  0.51100000000E-03 0. -1.
         11   -1    0    0    0    0 -0.00000000000E+00 -0.00000000000E+00 -0.45593999997E+02  0.45594000000E+02  0.51100000000E-03 0.  1.
         23    2    1    2    0    0  0.35527136788E-14  0.17763568394E-14  0.00000000000E+00  0.91188000000E+02  0.91188000000E+02 0.  0.
    9900012    2    3    3    0    0  0.24976140740E+02  0.10241855905E+02 -0.33984111723E+02  0.47787273413E+02  0.20000010801E+02 0.  0.
         12    1    3    3    0    0 -0.24976140740E+02 -0.10241855905E+02  0.33984111723E+02  0.43400726587E+02  0.00000000000E+00 0. -1.
         11    1    4    4    0    0  0.21352129468E+02  0.46101520686E+01 -0.16147044336E+02  0.27164203945E+02  0.51100000000E-03 0. -1.
        -11    1    4    4    0    0  0.56857260586E+01  0.33541479253E+01 -0.83099047314E+01  0.10612836851E+02  0.51100000000E-03 0.  1.
         12    1    4    4    0    0 -0.20617147866E+01  0.22775559115E+01 -0.95271626557E+01  0.10010232618E+02  0.00000000000E+00 0. -1.
</event>
<event>
 8    1  0.4042158E-011  0.9118800E+02  0.7816164E-02  0.1184000E+00
        -11   -1    0    0    0    0  0.00000000000E+00  0.00000000000E+00  0.45593999997E+02  0.45594000000E+02  0.51100000000E-03 0. -1.
         11   -1    0    0    0    0 -0.00000000000E+00 -0.00000000000E+00 -0.45593999997E+02  0.45594000000E+02  0.51100000000E-03 0.  1.
         23    2    1    2    0    0  0.00000000000E+00  0.00000000000E+00  0.00000000000E+00  0.91188000000E+02  0.91188000000E+02 0.  0.
    9900012    2    3    3    0    0 -0.30465678364E+01 -0.39013221246E+01  0.43117533032E+02  0.47787267925E+02  0.19999985776E+02 0.  0.
        -12    1    3    3    0    0  0.30465678364E+01  0.39013221246E+01 -0.43117533032E+02  0.43400732075E+02  0.00000000000E+00 0.  1.
         11    1    4    4    0    0 -0.47067854885E+01  0.14050585253E+01  0.11854654500E+02  0.12832024496E+02  0.51100000000E-03 0. -1.
        -11    1    4    4    0    0 -0.29115132360E+01 -0.54460029287E+01  0.41059602321E+01  0.74158456639E+01  0.51100000000E-03 0.  1.
        -12    1    4    4    0    0  0.45717308881E+01  0.13962227871E+00  0.27156918300E+02  0.27539397765E+02  0.00000000000E+00 0.  1.
</event>
<event>
 8    1  0.4042158E-011  0.9118800E+02  0.7816164E-02  0.1184000E+00
        -11   -1    0    0    0    0  0.00000000000E+00  0.00000000000E+00  0.45593999997E+02  0.45594000000E+02  0.51100000000E-03 0. -1.
         11   -1    0    0    0    0 -0.00000000000E+00 -0.00000000000E+00 -0.45593999997E+02  0.45594000000E+02  0.51100000000E-03 0.  1.
         23    2    1    2    0    0  0.00000000000E+00 -0.35527136788E-14  0.00000000000E+00  0.91188000000E+02  0.91188000000E+02 0.  0.
    9900012    2    3    3    0    0 -0.18414896750E+02 -0.21572663964E+02  0.32850188316E+02  0.47787272757E+02  0.20000007809E+02 0.  0.
        -12    1    3    3    0    0  0.18414896750E+02  0.21572663964E+02 -0.32850188316E+02  0.43400727243E+02  0.00000000000E+00 0.  1.
         11    1    4    4    0    0 -0.19396363059E+02 -0.92314442525E+01  0.20372040132E+02  0.29605041501E+02  0.51100000000E-03 0.  1.
        -11    1    4    4    0    0 -0.17686903307E+01 -0.62182533854E+01  0.68920183591E+01  0.94495956514E+01  0.51100000000E-03 0. -1.
        -12    1    4    4    0    0  0.27501566400E+01 -0.61229663265E+01  0.55861298247E+01  0.87326356044E+01  0.00000000000E+00 0.  1.
</event>
<event>
 8    1  0.4042158E-011  0.9118800E+02  0.7816164E-02  0.1184000E+00
        -11   -1    0    0    0    0  0.00000000000E+00  0.00000000000E+00  0.45593999997E+02  0.45594000000E+02  0.51100000000E-03 0. -1.
         11   -1    0    0    0    0 -0.00000000000E+00 -0.00000000000E+00 -0.45593999997E+02  0.45594000000E+02  0.51100000000E-03 0.  1.
         23    2    1    2    0    0  0.88817841970E-15 -0.17763568394E-14  0.00000000000E+00  0.91188000000E+02  0.91188000000E+02 0.  0.
    9900012    2    3    3    0    0  0.55660411205E+01  0.73403307358E+01 -0.42411811598E+02  0.47787273830E+02  0.20000012701E+02 0.  0.
         12    1    3    3    0    0 -0.55660411205E+01 -0.73403307358E+01  0.42411811598E+02  0.43400726170E+02  0.00000000000E+00 0. -1.
         11    1    4    4    0    0 -0.29577204202E+01  0.36755862962E+01 -0.76551779438E+01  0.89922074219E+01  0.51100000000E-03 0. -1.
        -11    1    4    4    0    0 -0.12444128593E+01  0.67917469578E+01 -0.12259234267E+02  0.14070011201E+02  0.51100000000E-03 0.  1.
        -12    1    4    4    0    0  0.97681744000E+01 -0.31270025182E+01 -0.22497399387E+02  0.24725055208E+02  0.00000000000E+00 0.  1.
</event>
<event>
 8    1  0.4042158E-011  0.9118800E+02  0.7816164E-02  0.1184000E+00
        -11   -1    0    0    0    0  0.00000000000E+00  0.00000000000E+00  0.45593999997E+02  0.45594000000E+02  0.51100000000E-03 0. -1.
         11   -1    0    0    0    0 -0.00000000000E+00 -0.00000000000E+00 -0.45593999997E+02  0.45594000000E+02  0.51100000000E-03 0.  1.
         23    2    1    2    0    0  0.00000000000E+00 -0.35527136788E-14  0.00000000000E+00  0.91188000000E+02  0.91188000000E+02 0.  0.
    9900012    2    3    3    0    0 -0.36706560631E+02 -0.22876034962E+02  0.35970434997E+01  0.47787270849E+02  0.19999999109E+02 0.  0.
        -12    1    3    3    0    0  0.36706560631E+02  0.22876034962E+02 -0.35970434997E+01  0.43400729151E+02  0.00000000000E+00 0.  1.
         11    1    4    4    0    0 -0.59403799145E+01  0.81911048212E+00  0.33570699006E+01  0.68723339623E+01  0.51100000000E-03 0. -1.
        -11    1    4    4    0    0 -0.23320152915E+01 -0.63434305398E+01 -0.31037597364E+01  0.74371184672E+01  0.51100000000E-03 0.  1.
         12    1    4    4    0    0 -0.28434165425E+02 -0.17351714904E+02  0.33437333355E+01  0.33477818420E+02  0.00000000000E+00 0. -1.
</event>
<event>
 8    1  0.4042158E-011  0.9118800E+02  0.7816164E-02  0.1184000E+00
        -11   -1    0    0    0    0  0.00000000000E+00  0.00000000000E+00  0.45593999997E+02  0.45594000000E+02  0.51100000000E-03 0.  1.
         11   -1    0    0    0    0 -0.00000000000E+00 -0.00000000000E+00 -0.45593999997E+02  0.45594000000E+02  0.51100000000E-03 0. -1.
         23    2    1    2    0    0 -0.35527136788E-14  0.00000000000E+00  0.35527136788E-14  0.91188000000E+02  0.91188000000E+02 0.  0.
    9900012    2    3    3    0    0  0.26858559758E+02 -0.25856132404E+02 -0.22219387459E+02  0.47787274267E+02  0.20000014691E+02 0.  0.
         12    1    3    3    0    0 -0.26858559758E+02  0.25856132404E+02  0.22219387459E+02  0.43400725733E+02  0.00000000000E+00 0. -1.
         11    1    4    4    0    0  0.83540240765E+00 -0.26146599228E+01  0.19086990398E+01  0.33432732434E+01  0.51100000000E-03 0. -1.
        -11    1    4    4    0    0  0.15040462863E+02 -0.52704920102E+01 -0.75198455180E+01  0.17622192998E+02  0.51100000000E-03 0.  1.
        -12    1    4    4    0    0  0.10982694486E+02 -0.17970980471E+02 -0.16608240980E+02  0.26821808025E+02  0.00000000000E+00 0.  1.
</event>
<event>
 8    1  0.4042158E-011  0.9118800E+02  0.7816164E-02  0.1184000E+00
        -11   -1    0    0    0    0  0.00000000000E+00  0.00000000000E+00  0.45593999997E+02  0.45594000000E+02  0.51100000000E-03 0.  1.
         11   -1    0    0    0    0 -0.00000000000E+00 -0.00000000000E+00 -0.45593999997E+02  0.45594000000E+02  0.51100000000E-03 0. -1.
         23    2    1    2    0    0  0.00000000000E+00  0.00000000000E+00 -0.17763568394E-14  0.91188000000E+02  0.91188000000E+02 0.  0.
    9900012    2    3    3    0    0  0.18226467959E+02  0.36971453486E+02 -0.13584217137E+02  0.47787268872E+02  0.19999990097E+02 0.  0.
         12    1    3    3    0    0 -0.18226467959E+02 -0.36971453486E+02  0.13584217137E+02  0.43400731128E+02  0.00000000000E+00 0. -1.
         11    1    4    4    0    0  0.16606614002E+01  0.58449699022E+01  0.27072055403E+01  0.66520997844E+01  0.51100000000E-03 0. -1.
        -11    1    4    4    0    0  0.68687442769E+00  0.15371648209E+02 -0.60531320590E+01  0.16534804901E+02  0.51100000000E-03 0.  1.
        -12    1    4    4    0    0  0.15878932131E+02  0.15754835376E+02 -0.10238290619E+02  0.24600364187E+02  0.00000000000E+00 0.  1.
</event>
<event>
 8    1  0.4042158E-011  0.9118800E+02  0.7816164E-02  0.1184000E+00
        -11   -1    0    0    0    0  0.00000000000E+00  0.00000000000E+00  0.45593999997E+02  0.45594000000E+02  0.51100000000E-03 0. -1.
         11   -1    0    0    0    0 -0.00000000000E+00 -0.00000000000E+00 -0.45593999997E+02  0.45594000000E+02  0.51100000000E-03 0.  1.
         23    2    1    2    0    0 -0.88817841970E-15  0.00000000000E+00  0.35527136788E-14  0.91188000000E+02  0.91188000000E+02 0.  0.
    9900012    2    3    3    0    0 -0.59639402031E+01 -0.36440720911E+02  0.22806333170E+02  0.47787267795E+02  0.19999985184E+02 0.  0.
        -12    1    3    3    0    0  0.59639402031E+01  0.36440720911E+02 -0.22806333170E+02  0.43400732205E+02  0.00000000000E+00 0.  1.
         11    1    4    4    0    0 -0.59499426196E+01 -0.23740643220E+02  0.15249197434E+02  0.28836747048E+02  0.51100000000E-03 0. -1.
        -11    1    4    4    0    0  0.40587715172E+01 -0.11539036437E+02  0.81147069084E+01  0.14678946031E+02  0.51100000000E-03 0.  1.
        -12    1    4    4    0    0 -0.40727691007E+01 -0.11610412548E+01 -0.55757117213E+00  0.42715747161E+01  0.00000000000E+00 0.  1.
</event>
<event>
 8    1  0.4042158E-011  0.9118800E+02  0.7816164E-02  0.1184000E+00
        -11   -1    0    0    0    0  0.00000000000E+00  0.00000000000E+00  0.45593999997E+02  0.45594000000E+02  0.51100000000E-03 0. -1.
         11   -1    0    0    0    0 -0.00000000000E+00 -0.00000000000E+00 -0.45593999997E+02  0.45594000000E+02  0.51100000000E-03 0.  1.
         23    2    1    2    0    0  0.00000000000E+00  0.00000000000E+00  0.00000000000E+00  0.91188000000E+02  0.91188000000E+02 0.  0.
    9900012    2    3    3    0    0  0.11503977152E+02 -0.33464259063E+01 -0.41714326953E+02  0.47787249663E+02  0.19999902513E+02 0.  0.
         12    1    3    3    0    0 -0.11503977152E+02  0.33464259063E+01  0.41714326953E+02  0.43400750337E+02  0.00000000000E+00 0. -1.
         11    1    4    4    0    0 -0.12424505926E+01 -0.25627439635E+01 -0.55357688039E+00  0.29013423998E+01  0.51100000000E-03 0. -1.
        -11    1    4    4    0    0 -0.31792781826E+00  0.16582171978E+01 -0.18784380450E+02  0.18860109001E+02  0.51100000000E-03 0.  1.
         12    1    4    4    0    0  0.13064355563E+02 -0.24418991405E+01 -0.22376369623E+02  0.26025798262E+02  0.00000000000E+00 0. -1.
</event>
<event>
 8    1  0.4042158E-011  0.9118800E+02  0.7816164E-02  0.1184000E+00
        -11   -1    0    0    0    0  0.00000000000E+00  0.00000000000E+00  0.45593999997E+02  0.45594000000E+02  0.51100000000E-03 0. -1.
         11   -1    0    0    0    0 -0.00000000000E+00 -0.00000000000E+00 -0.45593999997E+02  0.45594000000E+02  0.51100000000E-03 0.  1.
         23    2    1    2    0    0  0.00000000000E+00  0.00000000000E+00  0.00000000000E+00  0.91188000000E+02  0.91188000000E+02 0.  0.
    9900012    2    3    3    0    0  0.35052920488E+02 -0.25190092479E+02 -0.45139441397E+01  0.47787266302E+02  0.19999978375E+02 0.  0.
         12    1    3    3    0    0 -0.35052920488E+02  0.25190092479E+02  0.45139441397E+01  0.43400733698E+02  0.00000000000E+00 0. -1.
         11    1    4    4    0    0  0.48382745787E+01 -0.75848908707E+01  0.54211704925E+01  0.10503740295E+02  0.51100000000E-03 0. -1.
        -11    1    4    4    0    0  0.12789353006E+02 -0.55960008004E+01 -0.13236535482E+00  0.13960669616E+02  0.51100000000E-03 0.  1.
         12    1    4    4    0    0  0.17425292904E+02 -0.12009200808E+02 -0.98027492773E+01  0.23322856391E+02  0.00000000000E+00 0. -1.
</event>
<event>
 8    1  0.4042158E-011  0.9118800E+02  0.7816164E-02  0.1184000E+00
        -11   -1    0    0    0    0  0.00000000000E+00  0.00000000000E+00  0.45593999997E+02  0.45594000000E+02  0.51100000000E-03 0. -1.
         11   -1    0    0    0    0 -0.00000000000E+00 -0.00000000000E+00 -0.45593999997E+02  0.45594000000E+02  0.51100000000E-03 0.  1.
         23    2    1    2    0    0 -0.71054273576E-14  0.22204460493E-15 -0.17763568394E-14  0.91188000000E+02  0.91188000000E+02 0.  0.
    9900012    2    3    3    0    0  0.40588925856E+02 -0.14902521113E+01 -0.15295144941E+02  0.47787271754E+02  0.20000003234E+02 0.  0.
         12    1    3    3    0    0 -0.40588925856E+02  0.14902521113E+01  0.15295144941E+02  0.43400728246E+02  0.00000000000E+00 0. -1.
         11    1    4    4    0    0  0.22506478171E+02 -0.93431488931E+00 -0.81544643305E+01  0.23956414438E+02  0.51100000000E-03 0. -1.
        -11    1    4    4    0    0  0.18767491422E+02  0.10509991368E+01 -0.93665839993E+01  0.21001338756E+02  0.51100000000E-03 0.  1.
         12    1    4    4    0    0 -0.68504373647E+00 -0.16069363587E+01  0.22259033887E+01  0.28295185593E+01  0.00000000000E+00 0. -1.
</event>
<event>
 8    1  0.4042158E-011  0.9118800E+02  0.7816164E-02  0.1184000E+00
        -11   -1    0    0    0    0  0.00000000000E+00  0.00000000000E+00  0.45593999997E+02  0.45594000000E+02  0.51100000000E-03 0.  1.
         11   -1    0    0    0    0 -0.00000000000E+00 -0.00000000000E+00 -0.45593999997E+02  0.45594000000E+02  0.51100000000E-03 0. -1.
         23    2    1    2    0    0  0.00000000000E+00  0.00000000000E+00  0.88817841970E-15  0.91188000000E+02  0.91188000000E+02 0.  0.
    9900012    2    3    3    0    0 -0.36853720153E+02 -0.22281554210E+02 -0.53813335363E+01  0.47787273073E+02  0.20000009250E+02 0.  0.
        -12    1    3    3    0    0  0.36853720153E+02  0.22281554210E+02  0.53813335363E+01  0.43400726927E+02  0.00000000000E+00 0.  1.
         11    1    4    4    0    0 -0.82525738676E+01  0.34298296044E+00  0.33817747314E+01  0.89251898213E+01  0.51100000000E-03 0.  1.
        -11    1    4    4    0    0  0.85208450276E+00 -0.71021784323E+00  0.39818893068E-01  0.11099744096E+01  0.51100000000E-03 0. -1.
         12    1    4    4    0    0 -0.29453230788E+02 -0.21914319328E+02 -0.88029271608E+01  0.37752108842E+02  0.00000000000E+00 0. -1.
</event>
<event>
 8    1  0.4042158E-011  0.9118800E+02  0.7816164E-02  0.1184000E+00
        -11   -1    0    0    0    0  0.00000000000E+00  0.00000000000E+00  0.45593999997E+02  0.45594000000E+02  0.51100000000E-03 0. -1.
         11   -1    0    0    0    0 -0.00000000000E+00 -0.00000000000E+00 -0.45593999997E+02  0.45594000000E+02  0.51100000000E-03 0.  1.
         23    2    1    2    0    0  0.00000000000E+00  0.35527136788E-14  0.17763568394E-14  0.91188000000E+02  0.91188000000E+02 0.  0.
    9900012    2    3    3    0    0 -0.31832836138E+02  0.28026742016E+02 -0.92084537348E+01  0.47787270227E+02  0.19999996272E+02 0.  0.
         12    1    3    3    0    0  0.31832836138E+02 -0.28026742016E+02  0.92084537348E+01  0.43400729773E+02  0.00000000000E+00 0. -1.
         11    1    4    4    0    0 -0.24171719154E+02  0.19959047906E+02 -0.95318191377E+01  0.32764175200E+02  0.51100000000E-03 0. -1.
        -11    1    4    4    0    0 -0.62363503500E+01  0.13138437084E+00 -0.21357797607E+01  0.65932452547E+01  0.51100000000E-03 0.  1.
         12    1    4    4    0    0 -0.14247666339E+01  0.79363097397E+01  0.24591451636E+01  0.84298497721E+01  0.00000000000E+00 0. -1.
</event>
<event>
 8    1  0.4042158E-011  0.9118800E+02  0.7816164E-02  0.1184000E+00
        -11   -1    0    0    0    0  0.00000000000E+00  0.00000000000E+00  0.45593999997E+02  0.45594000000E+02  0.51100000000E-03 0.  1.
         11   -1    0    0    0    0 -0.00000000000E+00 -0.00000000000E+00 -0.45593999997E+02  0.45594000000E+02  0.51100000000E-03 0. -1.
         23    2    1    2    0    0  0.00000000000E+00 -0.35527136788E-14 -0.17763568394E-14  0.91188000000E+02  0.91188000000E+02 0.  0.
    9900012    2    3    3    0    0  0.40118884584E+02  0.13456179634E+02 -0.96452180653E+01  0.47787263807E+02  0.19999967002E+02 0.  0.
         12    1    3    3    0    0 -0.40118884584E+02 -0.13456179634E+02  0.96452180653E+01  0.43400736193E+02  0.00000000000E+00 0. -1.
         11    1    4    4    0    0  0.34234288003E+02  0.15898760791E+02 -0.39329532447E+01  0.37950298961E+02  0.51100000000E-03 0.  1.
        -11    1    4    4    0    0  0.20632409786E+01  0.14691059604E+01 -0.20040933666E+01  0.32298028024E+01  0.51100000000E-03 0. -1.
        -12    1    4    4    0    0  0.38213556019E+01 -0.39116871172E+01 -0.37081714539E+01  0.66071620436E+01  0.00000000000E+00 0.  1.
</event>
<event>
 8    1  0.4042158E-011  0.9118800E+02  0.7816164E-02  0.1184000E+00
        -11   -1    0    0    0    0  0.00000000000E+00  0.00000000000E+00  0.45593999997E+02  0.45594000000E+02  0.51100000000E-03 0.  1.
         11   -1    0    0    0    0 -0.00000000000E+00 -0.00000000000E+00 -0.45593999997E+02  0.45594000000E+02  0.51100000000E-03 0. -1.
         23    2    1    2    0    0 -0.71054273576E-14  0.00000000000E+00 -0.44408920985E-15  0.91188000000E+02  0.91188000000E+02 0.  0.
    9900012    2    3    3    0    0 -0.42717160890E+02 -0.66119528756E+01 -0.38922091998E+01  0.47787273649E+02  0.20000011876E+02 0.  0.
         12    1    3    3    0    0  0.42717160890E+02  0.66119528756E+01  0.38922091998E+01  0.43400726351E+02  0.00000000000E+00 0. -1.
         11    1    4    4    0    0 -0.21715047718E+01  0.78384441024E+00 -0.44470711110E+01  0.50106174032E+01  0.51100000000E-03 0. -1.
        -11    1    4    4    0    0 -0.75306126165E+01 -0.39473741840E+01  0.40138395113E+01  0.94022761719E+01  0.51100000000E-03 0.  1.
         12    1    4    4    0    0 -0.33015043502E+02 -0.34484231018E+01 -0.34589776001E+01  0.33374380074E+02  0.00000000000E+00 0. -1.
</event>
<event>
 8    1  0.4042158E-011  0.9118800E+02  0.7816164E-02  0.1184000E+00
        -11   -1    0    0    0    0  0.00000000000E+00  0.00000000000E+00  0.45593999997E+02  0.45594000000E+02  0.51100000000E-03 0. -1.
         11   -1    0    0    0    0 -0.00000000000E+00 -0.00000000000E+00 -0.45593999997E+02  0.45594000000E+02  0.51100000000E-03 0.  1.
         23    2    1    2    0    0  0.17763568394E-14  0.00000000000E+00  0.71054273576E-14  0.91188000000E+02  0.91188000000E+02 0.  0.
    9900012    2    3    3    0    0 -0.15110381576E+02 -0.55888971827E+01 -0.40299681058E+02  0.47787266176E+02  0.19999977803E+02 0.  0.
         12    1    3    3    0    0  0.15110381576E+02  0.55888971827E+01  0.40299681058E+02  0.43400733824E+02  0.00000000000E+00 0. -1.
         11    1    4    4    0    0 -0.31545035684E+01 -0.28517627494E+01  0.15679236777E+00  0.42553528232E+01  0.51100000000E-03 0. -1.
        -11    1    4    4    0    0 -0.11970440763E+01 -0.46989575353E+01 -0.16489871430E+02  0.17188047489E+02  0.51100000000E-03 0.  1.
        -12    1    4    4    0    0 -0.10758833931E+02  0.19618231021E+01 -0.23966601995E+02  0.26343865864E+02  0.00000000000E+00 0.  1.
</event>
<event>
 8    1  0.4042158E-011  0.9118800E+02  0.7816164E-02  0.1184000E+00
        -11   -1    0    0    0    0  0.00000000000E+00  0.00000000000E+00  0.45593999997E+02  0.45594000000E+02  0.51100000000E-03 0. -1.
         11   -1    0    0    0    0 -0.00000000000E+00 -0.00000000000E+00 -0.45593999997E+02  0.45594000000E+02  0.51100000000E-03 0.  1.
         23    2    1    2    0    0  0.00000000000E+00  0.00000000000E+00  0.35527136788E-14  0.91188000000E+02  0.91188000000E+02 0.  0.
    9900012    2    3    3    0    0 -0.34240238278E+02  0.18798165256E+02 -0.18917129171E+02  0.47787277536E+02  0.20000029599E+02 0.  0.
         12    1    3    3    0    0  0.34240238278E+02 -0.18798165256E+02  0.18917129171E+02  0.43400722464E+02  0.00000000000E+00 0. -1.
         11    1    4    4    0    0 -0.14864143542E+02  0.83689003303E+01 -0.14615083929E+02  0.22462901293E+02  0.51100000000E-03 0. -1.
        -11    1    4    4    0    0 -0.15906453074E+02  0.11518673250E+02 -0.69426478945E+01  0.20830157054E+02  0.51100000000E-03 0.  1.
         12    1    4    4    0    0 -0.34696416619E+01 -0.10894083244E+01  0.26406026524E+01  0.44942191899E+01  0.00000000000E+00 0. -1.
</event>
<event>
 8    1  0.4042158E-011  0.9118800E+02  0.7816164E-02  0.1184000E+00
        -11   -1    0    0    0    0  0.00000000000E+00  0.00000000000E+00  0.45593999997E+02  0.45594000000E+02  0.51100000000E-03 0. -1.
         11   -1    0    0    0    0 -0.00000000000E+00 -0.00000000000E+00 -0.45593999997E+02  0.45594000000E+02  0.51100000000E-03 0.  1.
         23    2    1    2    0    0  0.35527136788E-14  0.00000000000E+00  0.71054273576E-14  0.91188000000E+02  0.91188000000E+02 0.  0.
    9900012    2    3    3    0    0 -0.22836167775E+02  0.19516170494E+02 -0.31324935428E+02  0.47787273635E+02  0.20000011813E+02 0.  0.
         12    1    3    3    0    0  0.22836167775E+02 -0.19516170494E+02  0.31324935428E+02  0.43400726365E+02  0.00000000000E+00 0. -1.
         11    1    4    4    0    0 -0.42030551566E+01  0.22665005347E+01 -0.13528736487E+00  0.47771330581E+01  0.51100000000E-03 0. -1.
        -11    1    4    4    0    0 -0.21227174289E+02  0.14093307729E+02 -0.27707340657E+02  0.37641877976E+02  0.51100000000E-03 0.  1.
        -12    1    4    4    0    0  0.25940616704E+01  0.31563622307E+01 -0.34823074069E+01  0.53682626014E+01  0.00000000000E+00 0.  1.
</event>
<event>
 8    1  0.4042158E-011  0.9118800E+02  0.7816164E-02  0.1184000E+00
        -11   -1    0    0    0    0  0.00000000000E+00  0.00000000000E+00  0.45593999997E+02  0.45594000000E+02  0.51100000000E-03 0. -1.
         11   -1    0    0    0    0 -0.00000000000E+00 -0.00000000000E+00 -0.45593999997E+02  0.45594000000E+02  0.51100000000E-03 0.  1.
         23    2    1    2    0    0  0.00000000000E+00  0.55511151231E-15  0.00000000000E+00  0.91188000000E+02  0.91188000000E+02 0.  0.
    9900012    2    3    3    0    0  0.19217005873E+02 -0.65377650670E+00  0.38908891361E+02  0.47787279207E+02  0.20000037215E+02 0.  0.
        -12    1    3    3    0    0 -0.19217005873E+02  0.65377650670E+00 -0.38908891361E+02  0.43400720793E+02  0.00000000000E+00 0.  1.
         11    1    4    4    0    0  0.35996312519E+01 -0.60769715475E+01  0.29715885550E+01  0.76627193046E+01  0.51100000000E-03 0. -1.
        -11    1    4    4    0    0  0.95177128978E-01 -0.69023708669E+00  0.43207076664E+01  0.43765284097E+01  0.51100000000E-03 0.  1.
         12    1    4    4    0    0  0.15522197492E+02  0.61134321275E+01  0.31616595139E+02  0.35748031492E+02  0.00000000000E+00 0. -1.
</event>
<event>
 8    1  0.4042158E-011  0.9118800E+02  0.7816164E-02  0.1184000E+00
        -11   -1    0    0    0    0  0.00000000000E+00  0.00000000000E+00  0.45593999997E+02  0.45594000000E+02  0.51100000000E-03 0. -1.
         11   -1    0    0    0    0 -0.00000000000E+00 -0.00000000000E+00 -0.45593999997E+02  0.45594000000E+02  0.51100000000E-03 0.  1.
         23    2    1    2    0    0  0.00000000000E+00 -0.44408920985E-15  0.00000000000E+00  0.91188000000E+02  0.91188000000E+02 0.  0.
    9900012    2    3    3    0    0  0.34478924594E+02  0.35412887820E+01  0.26120611169E+02  0.47787270798E+02  0.19999998876E+02 0.  0.
        -12    1    3    3    0    0 -0.34478924594E+02 -0.35412887820E+01 -0.26120611169E+02  0.43400729202E+02  0.00000000000E+00 0.  1.
         11    1    4    4    0    0  0.25212546130E+02  0.45428065826E+01  0.25700121850E+02  0.36287819407E+02  0.51100000000E-03 0. -1.
        -11    1    4    4    0    0  0.74951418862E+01  0.12921966916E+01  0.24167334814E+01  0.79804464264E+01  0.51100000000E-03 0.  1.
        -12    1    4    4    0    0  0.17712365782E+01 -0.22937144922E+01 -0.19962441614E+01  0.35190049644E+01  0.00000000000E+00 0.  1.
</event>
<event>
 8    1  0.4042158E-011  0.9118800E+02  0.7816164E-02  0.1184000E+00
        -11   -1    0    0    0    0  0.00000000000E+00  0.00000000000E+00  0.45593999997E+02  0.45594000000E+02  0.51100000000E-03 0. -1.
         11   -1    0    0    0    0 -0.00000000000E+00 -0.00000000000E+00 -0.45593999997E+02  0.45594000000E+02  0.51100000000E-03 0.  1.
         23    2    1    2    0    0  0.00000000000E+00  0.35527136788E-14 -0.44408920985E-15  0.91188000000E+02  0.91188000000E+02 0.  0.
    9900012    2    3    3    0    0  0.37741029296E+02  0.21362785364E+02  0.16939202225E+01  0.47787271244E+02  0.20000000910E+02 0.  0.
         12    1    3    3    0    0 -0.37741029296E+02 -0.21362785364E+02 -0.16939202225E+01  0.43400728756E+02  0.00000000000E+00 0. -1.
         11    1    4    4    0    0  0.15368452910E+02  0.11782011622E+02  0.53003989756E+01  0.20077334790E+02  0.51100000000E-03 0. -1.
        -11    1    4    4    0    0  0.14126159828E+02  0.12063348429E+02 -0.43089194388E+01  0.19069335431E+02  0.51100000000E-03 0.  1.
         12    1    4    4    0    0  0.82464165582E+01 -0.24825746861E+01  0.70244068567E+00  0.86406010231E+01  0.00000000000E+00 0. -1.
</event>
<event>
 8    1  0.4042158E-011  0.9118800E+02  0.7816164E-02  0.1184000E+00
        -11   -1    0    0    0    0  0.00000000000E+00  0.00000000000E+00  0.45593999997E+02  0.45594000000E+02  0.51100000000E-03 0. -1.
         11   -1    0    0    0    0 -0.00000000000E+00 -0.00000000000E+00 -0.45593999997E+02  0.45594000000E+02  0.51100000000E-03 0.  1.
         23    2    1    2    0    0  0.88817841970E-15 -0.17763568394E-14  0.00000000000E+00  0.91188000000E+02  0.91188000000E+02 0.  0.
    9900012    2    3    3    0    0  0.43495174643E+01 -0.12080136748E+02  0.41458114471E+02  0.47787271187E+02  0.20000000651E+02 0.  0.
        -12    1    3    3    0    0 -0.43495174643E+01  0.12080136748E+02 -0.41458114471E+02  0.43400728813E+02  0.00000000000E+00 0.  1.
         11    1    4    4    0    0 -0.52909691621E+01 -0.73380302603E+01  0.23196260545E+02  0.24897942612E+02  0.51100000000E-03 0. -1.
        -11    1    4    4    0    0 -0.14866900636E+01 -0.83968840862E+00  0.98234152025E+00  0.19698525560E+01  0.51100000000E-03 0.  1.
        -12    1    4    4    0    0  0.11127176690E+02 -0.39024180793E+01  0.17279512406E+02  0.20919476020E+02  0.00000000000E+00 0.  1.
</event>
<event>
 8    1  0.4042158E-011  0.9118800E+02  0.7816164E-02  0.1184000E+00
        -11   -1    0    0    0    0  0.00000000000E+00  0.00000000000E+00  0.45593999997E+02  0.45594000000E+02  0.51100000000E-03 0.  1.
         11   -1    0    0    0    0 -0.00000000000E+00 -0.00000000000E+00 -0.45593999997E+02  0.45594000000E+02  0.51100000000E-03 0. -1.
         23    2    1    2    0    0  0.00000000000E+00  0.00000000000E+00  0.00000000000E+00  0.91188000000E+02  0.91188000000E+02 0.  0.
    9900012    2    3    3    0    0  0.26536219032E+02 -0.53691165230E+01  0.33920858480E+02  0.47787274513E+02  0.20000015814E+02 0.  0.
        -12    1    3    3    0    0 -0.26536219032E+02  0.53691165230E+01 -0.33920858480E+02  0.43400725487E+02  0.00000000000E+00 0.  1.
         11    1    4    4    0    0  0.84293346437E+01 -0.68809614506E+01  0.88728665110E+01  0.14040266144E+02  0.51100000000E-03 0. -1.
        -11    1    4    4    0    0  0.12795632937E+02 -0.54013359260E+01  0.15840300437E+02  0.21066982941E+02  0.51100000000E-03 0.  1.
        -12    1    4    4    0    0  0.53112514520E+01  0.69131808535E+01  0.92076915318E+01  0.12680025428E+02  0.00000000000E+00 0.  1.
</event>
<event>
 8    1  0.4042158E-011  0.9118800E+02  0.7816164E-02  0.1184000E+00
        -11   -1    0    0    0    0  0.00000000000E+00  0.00000000000E+00  0.45593999997E+02  0.45594000000E+02  0.51100000000E-03 0. -1.
         11   -1    0    0    0    0 -0.00000000000E+00 -0.00000000000E+00 -0.45593999997E+02  0.45594000000E+02  0.51100000000E-03 0.  1.
         23    2    1    2    0    0  0.00000000000E+00  0.00000000000E+00  0.35527136788E-14  0.91188000000E+02  0.91188000000E+02 0.  0.
    9900012    2    3    3    0    0  0.35039152747E+02  0.17763369747E+02 -0.18448408875E+02  0.47787270513E+02  0.19999997577E+02 0.  0.
         12    1    3    3    0    0 -0.35039152747E+02 -0.17763369747E+02  0.18448408875E+02  0.43400729487E+02  0.00000000000E+00 0. -1.
         11    1    4    4    0    0  0.14249876229E+01  0.39596924502E-01  0.17885559394E+01  0.22871576796E+01  0.51100000000E-03 0. -1.
        -11    1    4    4    0    0  0.25406564452E+01 -0.13030732674E+01  0.13404175794E+01  0.31543073187E+01  0.51100000000E-03 0.  1.
        -12    1    4    4    0    0  0.31073508679E+02  0.19026846089E+02 -0.21577382394E+02  0.42345805515E+02  0.00000000000E+00 0.  1.
</event>
<event>
 8    1  0.4042158E-011  0.9118800E+02  0.7816164E-02  0.1184000E+00
        -11   -1    0    0    0    0  0.00000000000E+00  0.00000000000E+00  0.45593999997E+02  0.45594000000E+02  0.51100000000E-03 0. -1.
         11   -1    0    0    0    0 -0.00000000000E+00 -0.00000000000E+00 -0.45593999997E+02  0.45594000000E+02  0.51100000000E-03 0.  1.
         23    2    1    2    0    0  0.71054273576E-14  0.44408920985E-15  0.00000000000E+00  0.91188000000E+02  0.91188000000E+02 0.  0.
    9900012    2    3    3    0    0  0.34991326190E+02  0.30922962680E+01  0.25488583972E+02  0.47787272844E+02  0.20000008206E+02 0.  0.
        -12    1    3    3    0    0 -0.34991326190E+02 -0.30922962680E+01 -0.25488583972E+02  0.43400727156E+02  0.00000000000E+00 0.  1.
         11    1    4    4    0    0  0.93067385122E+01  0.59614539030E+01  0.41006965200E+01  0.11788554898E+02  0.51100000000E-03 0. -1.
        -11    1    4    4    0    0  0.20662757974E+02  0.53263724329E+00  0.97039826171E+01  0.22834196908E+02  0.51100000000E-03 0.  1.
        -12    1    4    4    0    0  0.50218297032E+01 -0.34017948783E+01  0.11683904835E+02  0.13164521038E+02  0.00000000000E+00 0.  1.
</event>
<event>
 8    1  0.4042158E-011  0.9118800E+02  0.7816164E-02  0.1184000E+00
        -11   -1    0    0    0    0  0.00000000000E+00  0.00000000000E+00  0.45593999997E+02  0.45594000000E+02  0.51100000000E-03 0. -1.
         11   -1    0    0    0    0 -0.00000000000E+00 -0.00000000000E+00 -0.45593999997E+02  0.45594000000E+02  0.51100000000E-03 0.  1.
         23    2    1    2    0    0 -0.17763568394E-14  0.00000000000E+00 -0.71054273576E-14  0.91188000000E+02  0.91188000000E+02 0.  0.
    9900012    2    3    3    0    0 -0.95837770260E+01 -0.88420313425E+01  0.41395568279E+02  0.47787269897E+02  0.19999994768E+02 0.  0.
        -12    1    3    3    0    0  0.95837770260E+01  0.88420313425E+01 -0.41395568279E+02  0.43400730103E+02  0.00000000000E+00 0.  1.
         11    1    4    4    0    0 -0.94005070455E+01 -0.83853657684E+01  0.22356176699E+02  0.25660914416E+02  0.51100000000E-03 0. -1.
        -11    1    4    4    0    0  0.22886967398E+01 -0.51526836153E+01  0.12438788367E+02  0.13656930018E+02  0.51100000000E-03 0.  1.
         12    1    4    4    0    0 -0.24719667203E+01  0.46960180412E+01  0.66006032126E+01  0.84694254634E+01  0.00000000000E+00 0. -1.
</event>
<event>
 8    1  0.4042158E-011  0.9118800E+02  0.7816164E-02  0.1184000E+00
        -11   -1    0    0    0    0  0.00000000000E+00  0.00000000000E+00  0.45593999997E+02  0.45594000000E+02  0.51100000000E-03 0. -1.
         11   -1    0    0    0    0 -0.00000000000E+00 -0.00000000000E+00 -0.45593999997E+02  0.45594000000E+02  0.51100000000E-03 0.  1.
         23    2    1    2    0    0  0.17763568394E-14  0.35527136788E-14  0.71054273576E-14  0.91188000000E+02  0.91188000000E+02 0.  0.
    9900012    2    3    3    0    0 -0.14348285923E+02 -0.22051606946E+02 -0.34517772390E+02  0.47787270875E+02  0.19999999226E+02 0.  0.
         12    1    3    3    0    0  0.14348285923E+02  0.22051606946E+02  0.34517772390E+02  0.43400729125E+02  0.00000000000E+00 0. -1.
         11    1    4    4    0    0  0.20854238871E+01 -0.53651633884E+00 -0.23829192489E+01  0.32117202523E+01  0.51100000000E-03 0. -1.
        -11    1    4    4    0    0 -0.11975789478E+02 -0.69264944811E+01 -0.22867180171E+02  0.26726462329E+02  0.51100000000E-03 0.  1.
        -12    1    4    4    0    0 -0.44579203321E+01 -0.14588596126E+02 -0.92676729707E+01  0.17849088293E+02  0.00000000000E+00 0.  1.
</event>
<event>
 8    1  0.4042158E-011  0.9118800E+02  0.7816164E-02  0.1184000E+00
        -11   -1    0    0    0    0  0.00000000000E+00  0.00000000000E+00  0.45593999997E+02  0.45594000000E+02  0.51100000000E-03 0. -1.
         11   -1    0    0    0    0 -0.00000000000E+00 -0.00000000000E+00 -0.45593999997E+02  0.45594000000E+02  0.51100000000E-03 0.  1.
         23    2    1    2    0    0  0.00000000000E+00  0.00000000000E+00  0.00000000000E+00  0.91188000000E+02  0.91188000000E+02 0.  0.
    9900012    2    3    3    0    0 -0.23630969853E+01  0.25349670931E+02  0.35148728373E+02  0.47787272473E+02  0.20000006512E+02 0.  0.
        -12    1    3    3    0    0  0.23630969853E+01 -0.25349670931E+02 -0.35148728373E+02  0.43400727527E+02  0.00000000000E+00 0.  1.
         11    1    4    4    0    0 -0.18230495523E+01  0.48091565044E+01  0.11705634144E+02  0.12785670375E+02  0.51100000000E-03 0. -1.
        -11    1    4    4    0    0 -0.60324366113E+01  0.78686208728E+01  0.17182386320E+02  0.19837839747E+02  0.51100000000E-03 0.  1.
        -12    1    4    4    0    0  0.54923891783E+01  0.12671893553E+02  0.62607079085E+01  0.15163762351E+02  0.00000000000E+00 0.  1.
</event>
<event>
 8    1  0.4042158E-011  0.9118800E+02  0.7816164E-02  0.1184000E+00
        -11   -1    0    0    0    0  0.00000000000E+00  0.00000000000E+00  0.45593999997E+02  0.45594000000E+02  0.51100000000E-03 0. -1.
         11   -1    0    0    0    0 -0.00000000000E+00 -0.00000000000E+00 -0.45593999997E+02  0.45594000000E+02  0.51100000000E-03 0.  1.
         23    2    1    2    0    0  0.35527136788E-14  0.35527136788E-14 -0.71054273576E-14  0.91188000000E+02  0.91188000000E+02 0.  0.
    9900012    2    3    3    0    0  0.18194717126E+02  0.19578697271E+02 -0.34194297086E+02  0.47787273378E+02  0.20000010638E+02 0.  0.
         12    1    3    3    0    0 -0.18194717126E+02 -0.19578697271E+02  0.34194297086E+02  0.43400726622E+02  0.00000000000E+00 0. -1.
         11    1    4    4    0    0  0.74179570913E+01  0.31015560359E+00 -0.63503782357E+01  0.97698304952E+01  0.51100000000E-03 0. -1.
        -11    1    4    4    0    0  0.31863728373E+00 -0.15401767053E+01 -0.55841562771E+01  0.58014201356E+01  0.51100000000E-03 0.  1.
        -12    1    4    4    0    0  0.10458122751E+02  0.20808718372E+02 -0.22259762574E+02  0.32216022747E+02  0.00000000000E+00 0.  1.
</event>
<event>
 8    1  0.4042158E-011  0.9118800E+02  0.7816164E-02  0.1184000E+00
        -11   -1    0    0    0    0  0.00000000000E+00  0.00000000000E+00  0.45593999997E+02  0.45594000000E+02  0.51100000000E-03 0. -1.
         11   -1    0    0    0    0 -0.00000000000E+00 -0.00000000000E+00 -0.45593999997E+02  0.45594000000E+02  0.51100000000E-03 0.  1.
         23    2    1    2    0    0  0.35527136788E-14  0.00000000000E+00  0.71054273576E-14  0.91188000000E+02  0.91188000000E+02 0.  0.
    9900012    2    3    3    0    0 -0.24265088621E+02  0.14592996381E+02 -0.32891854197E+02  0.47787261047E+02  0.19999954416E+02 0.  0.
         12    1    3    3    0    0  0.24265088621E+02 -0.14592996381E+02  0.32891854197E+02  0.43400738953E+02  0.00000000000E+00 0. -1.
         11    1    4    4    0    0 -0.34800807718E+01  0.70859108170E+01 -0.74714205030E+01  0.10869370675E+02  0.51100000000E-03 0. -1.
        -11    1    4    4    0    0 -0.13084193714E+01  0.58228320684E+01 -0.11377029776E+02  0.12847339854E+02  0.51100000000E-03 0.  1.
         12    1    4    4    0    0 -0.19476588478E+02  0.16842534959E+01 -0.14043403918E+02  0.24070550517E+02  0.00000000000E+00 0. -1.
</event>
<event>
 8    1  0.4042158E-011  0.9118800E+02  0.7816164E-02  0.1184000E+00
        -11   -1    0    0    0    0  0.00000000000E+00  0.00000000000E+00  0.45593999997E+02  0.45594000000E+02  0.51100000000E-03 0. -1.
         11   -1    0    0    0    0 -0.00000000000E+00 -0.00000000000E+00 -0.45593999997E+02  0.45594000000E+02  0.51100000000E-03 0.  1.
         23    2    1    2    0    0 -0.35527136788E-14  0.00000000000E+00 -0.35527136788E-14  0.91188000000E+02  0.91188000000E+02 0.  0.
    9900012    2    3    3    0    0  0.31691400521E+02  0.83793500177E+01  0.28444068959E+02  0.47787269216E+02  0.19999991661E+02 0.  0.
        -12    1    3    3    0    0 -0.31691400521E+02 -0.83793500177E+01 -0.28444068959E+02  0.43400730784E+02  0.00000000000E+00 0.  1.
         11    1    4    4    0    0  0.16637299021E+02 -0.14299245615E+01  0.11941410324E+02  0.20529044882E+02  0.51100000000E-03 0. -1.
        -11    1    4    4    0    0  0.14830786842E+02  0.46630655943E+01  0.84379413431E+01  0.17688846018E+02  0.51100000000E-03 0.  1.
        -12    1    4    4    0    0  0.22331465796E+00  0.51462089849E+01  0.80647172917E+01  0.95693783156E+01  0.00000000000E+00 0.  1.
</event>
<event>
 8    1  0.4042158E-011  0.9118800E+02  0.7816164E-02  0.1184000E+00
        -11   -1    0    0    0    0  0.00000000000E+00  0.00000000000E+00  0.45593999997E+02  0.45594000000E+02  0.51100000000E-03 0.  1.
         11   -1    0    0    0    0 -0.00000000000E+00 -0.00000000000E+00 -0.45593999997E+02  0.45594000000E+02  0.51100000000E-03 0. -1.
         23    2    1    2    0    0  0.00000000000E+00  0.00000000000E+00  0.35527136788E-14  0.91188000000E+02  0.91188000000E+02 0.  0.
    9900012    2    3    3    0    0  0.33765909968E+02 -0.18945434671E+02  0.19610129770E+02  0.47787270047E+02  0.19999995452E+02 0.  0.
        -12    1    3    3    0    0 -0.33765909968E+02  0.18945434671E+02 -0.19610129770E+02  0.43400729953E+02  0.00000000000E+00 0.  1.
         11    1    4    4    0    0  0.37895934288E+01 -0.20247270713E+01 -0.16702813621E+01  0.46098132455E+01  0.51100000000E-03 0. -1.
        -11    1    4    4    0    0  0.67583142563E+01  0.15646737992E+01  0.51514721759E+00  0.69561765793E+01  0.51100000000E-03 0.  1.
         12    1    4    4    0    0  0.23218002283E+02 -0.18485381398E+02  0.20765263915E+02  0.36221280222E+02  0.00000000000E+00 0. -1.
</event>
<event>
 8    1  0.4042158E-011  0.9118800E+02  0.7816164E-02  0.1184000E+00
        -11   -1    0    0    0    0  0.00000000000E+00  0.00000000000E+00  0.45593999997E+02  0.45594000000E+02  0.51100000000E-03 0. -1.
         11   -1    0    0    0    0 -0.00000000000E+00 -0.00000000000E+00 -0.45593999997E+02  0.45594000000E+02  0.51100000000E-03 0.  1.
         23    2    1    2    0    0  0.12212453271E-14  0.35527136788E-14  0.71054273576E-14  0.91188000000E+02  0.91188000000E+02 0.  0.
    9900012    2    3    3    0    0 -0.66803137637E+00 -0.23446058810E+02  0.36516565565E+02  0.47787268436E+02  0.19999988106E+02 0.  0.
        -12    1    3    3    0    0  0.66803137637E+00  0.23446058810E+02 -0.36516565565E+02  0.43400731564E+02  0.00000000000E+00 0.  1.
         11    1    4    4    0    0 -0.27465643221E+01 -0.64860410546E+00  0.24377355640E+01  0.37291899660E+01  0.51100000000E-03 0. -1.
        -11    1    4    4    0    0 -0.64209123166E+01 -0.53353026145E+01  0.81932142822E+01  0.11697107741E+02  0.51100000000E-03 0.  1.
        -12    1    4    4    0    0  0.84994452623E+01 -0.17462152090E+02  0.25885615719E+02  0.32360970729E+02  0.00000000000E+00 0.  1.
</event>
<event>
 8    1  0.4042158E-011  0.9118800E+02  0.7816164E-02  0.1184000E+00
        -11   -1    0    0    0    0  0.00000000000E+00  0.00000000000E+00  0.45593999997E+02  0.45594000000E+02  0.51100000000E-03 0. -1.
         11   -1    0    0    0    0 -0.00000000000E+00 -0.00000000000E+00 -0.45593999997E+02  0.45594000000E+02  0.51100000000E-03 0.  1.
         23    2    1    2    0    0 -0.88817841970E-15  0.00000000000E+00  0.35527136788E-14  0.91188000000E+02  0.91188000000E+02 0.  0.
    9900012    2    3    3    0    0  0.58233152965E+01  0.29305463578E+02 -0.31478605916E+02  0.47787264672E+02  0.19999970947E+02 0.  0.
         12    1    3    3    0    0 -0.58233152965E+01 -0.29305463578E+02  0.31478605916E+02  0.43400735328E+02  0.00000000000E+00 0. -1.
         11    1    4    4    0    0 -0.12204775892E+01 -0.83685577087E+00 -0.82284828587E+01  0.83604918243E+01  0.51100000000E-03 0.  1.
        -11    1    4    4    0    0 -0.15484464471E+01  0.65778249261E+01 -0.51207609584E+01  0.84786591046E+01  0.51100000000E-03 0. -1.
         12    1    4    4    0    0  0.85922393329E+01  0.23564494423E+02 -0.18129362099E+02  0.30948113743E+02  0.00000000000E+00 0. -1.
</event>
<event>
 8    1  0.4042158E-011  0.9118800E+02  0.7816164E-02  0.1184000E+00
        -11   -1    0    0    0    0  0.00000000000E+00  0.00000000000E+00  0.45593999997E+02  0.45594000000E+02  0.51100000000E-03 0. -1.
         11   -1    0    0    0    0 -0.00000000000E+00 -0.00000000000E+00 -0.45593999997E+02  0.45594000000E+02  0.51100000000E-03 0.  1.
         23    2    1    2    0    0  0.71054273576E-14  0.00000000000E+00 -0.35527136788E-14  0.91188000000E+02  0.91188000000E+02 0.  0.
    9900012    2    3    3    0    0  0.36412542745E+02 -0.16416607162E+02 -0.16977778368E+02  0.47787271686E+02  0.20000002925E+02 0.  0.
         12    1    3    3    0    0 -0.36412542745E+02  0.16416607162E+02  0.16977778368E+02  0.43400728314E+02  0.00000000000E+00 0. -1.
         11    1    4    4    0    0  0.60534945532E+00 -0.31609939233E+01  0.14016066738E+01  0.35103891630E+01  0.51100000000E-03 0. -1.
        -11    1    4    4    0    0  0.14312100394E+02 -0.11500931747E+02 -0.11387778334E+02  0.21605303617E+02  0.51100000000E-03 0.  1.
         12    1    4    4    0    0  0.21495092896E+02 -0.17546814917E+01 -0.69916067082E+01  0.22671578906E+02  0.00000000000E+00 0. -1.
</event>
<event>
 8    1  0.4042158E-011  0.9118800E+02  0.7816164E-02  0.1184000E+00
        -11   -1    0    0    0    0  0.00000000000E+00  0.00000000000E+00  0.45593999997E+02  0.45594000000E+02  0.51100000000E-03 0. -1.
         11   -1    0    0    0    0 -0.00000000000E+00 -0.00000000000E+00 -0.45593999997E+02  0.45594000000E+02  0.51100000000E-03 0.  1.
         23    2    1    2    0    0  0.35527136788E-14  0.00000000000E+00 -0.44408920985E-15  0.91188000000E+02  0.91188000000E+02 0.  0.
    9900012    2    3    3    0    0  0.23713734775E+02 -0.36297230881E+02  0.19484967307E+01  0.47787230121E+02  0.19999813413E+02 0.  0.
        -12    1    3    3    0    0 -0.23713734775E+02  0.36297230881E+02 -0.19484967307E+01  0.43400769879E+02  0.00000000000E+00 0.  1.
         11    1    4    4    0    0  0.24438873745E+01 -0.15719835679E+01  0.40524406960E+01  0.49865813633E+01  0.51100000000E-03 0. -1.
        -11    1    4    4    0    0  0.33603054480E+01 -0.87539294284E+00 -0.28581991075E+01  0.44974735027E+01  0.51100000000E-03 0.  1.
        -12    1    4    4    0    0  0.17909541952E+02 -0.33849854370E+02  0.75425514215E+00  0.38303175255E+02  0.00000000000E+00 0.  1.
</event>
<event>
 8    1  0.4042158E-011  0.9118800E+02  0.7816164E-02  0.1184000E+00
        -11   -1    0    0    0    0  0.00000000000E+00  0.00000000000E+00  0.45593999997E+02  0.45594000000E+02  0.51100000000E-03 0. -1.
         11   -1    0    0    0    0 -0.00000000000E+00 -0.00000000000E+00 -0.45593999997E+02  0.45594000000E+02  0.51100000000E-03 0.  1.
         23    2    1    2    0    0  0.35527136788E-14  0.00000000000E+00 -0.35527136788E-14  0.91188000000E+02  0.91188000000E+02 0.  0.
    9900012    2    3    3    0    0  0.26013896359E+02  0.25866754258E+02 -0.23190723125E+02  0.47787292417E+02  0.20000097445E+02 0.  0.
         12    1    3    3    0    0 -0.26013896359E+02 -0.25866754258E+02  0.23190723125E+02  0.43400707583E+02  0.00000000000E+00 0. -1.
         11    1    4    4    0    0  0.30813551713E+01  0.56033170850E+01 -0.31769008377E+01  0.71403509186E+01  0.51100000000E-03 0. -1.
        -11    1    4    4    0    0  0.12590080416E+02  0.28953865061E+00 -0.97321143698E+01  0.15915652921E+02  0.51100000000E-03 0.  1.
        -12    1    4    4    0    0  0.10342460771E+02  0.19973898523E+02 -0.10281707918E+02  0.24731288578E+02  0.00000000000E+00 0.  1.
</event>
<event>
 8    1  0.4042158E-011  0.9118800E+02  0.7816164E-02  0.1184000E+00
        -11   -1    0    0    0    0  0.00000000000E+00  0.00000000000E+00  0.45593999997E+02  0.45594000000E+02  0.51100000000E-03 0. -1.
         11   -1    0    0    0    0 -0.00000000000E+00 -0.00000000000E+00 -0.45593999997E+02  0.45594000000E+02  0.51100000000E-03 0.  1.
         23    2    1    2    0    0  0.00000000000E+00  0.00000000000E+00  0.88817841970E-15  0.91188000000E+02  0.91188000000E+02 0.  0.
    9900012    2    3    3    0    0  0.39876653705E+02  0.15962370055E+02 -0.62192115677E+01  0.47787270040E+02  0.19999995422E+02 0.  0.
         12    1    3    3    0    0 -0.39876653705E+02 -0.15962370055E+02  0.62192115677E+01  0.43400729960E+02  0.00000000000E+00 0. -1.
         11    1    4    4    0    0  0.31404946571E+01  0.42619730625E+01 -0.59386091494E+01  0.79557652032E+01  0.51100000000E-03 0. -1.
        -11    1    4    4    0    0  0.41402721180E+01  0.22773700849E+01 -0.33049901289E+01  0.57663877539E+01  0.51100000000E-03 0.  1.
        -12    1    4    4    0    0  0.32595886930E+02  0.94230269080E+01  0.30243877106E+01  0.34065117083E+02  0.00000000000E+00 0.  1.
</event>
<event>
 8    1  0.4042158E-011  0.9118800E+02  0.7816164E-02  0.1184000E+00
        -11   -1    0    0    0    0  0.00000000000E+00  0.00000000000E+00  0.45593999997E+02  0.45594000000E+02  0.51100000000E-03 0. -1.
         11   -1    0    0    0    0 -0.00000000000E+00 -0.00000000000E+00 -0.45593999997E+02  0.45594000000E+02  0.51100000000E-03 0.  1.
         23    2    1    2    0    0  0.00000000000E+00  0.00000000000E+00  0.00000000000E+00  0.91188000000E+02  0.91188000000E+02 0.  0.
    9900012    2    3    3    0    0  0.50369586896E+01 -0.42153458335E+02 -0.90187654840E+01  0.47787272664E+02  0.20000007386E+02 0.  0.
        -12    1    3    3    0    0 -0.50369586896E+01  0.42153458335E+02  0.90187654840E+01  0.43400727336E+02  0.00000000000E+00 0.  1.
         11    1    4    4    0    0 -0.39372831884E+00 -0.41911758783E+01 -0.24029733562E+01  0.48471907786E+01  0.51100000000E-03 0. -1.
        -11    1    4    4    0    0  0.49306938240E+01 -0.36198060848E+02 -0.47930354703E+00  0.36535477045E+02  0.51100000000E-03 0.  1.
        -12    1    4    4    0    0  0.49999318441E+00 -0.17642216084E+01 -0.61364885808E+01  0.64046048410E+01  0.00000000000E+00 0.  1.
</event>
<event>
 8    1  0.4042158E-011  0.9118800E+02  0.7816164E-02  0.1184000E+00
        -11   -1    0    0    0    0  0.00000000000E+00  0.00000000000E+00  0.45593999997E+02  0.45594000000E+02  0.51100000000E-03 0. -1.
         11   -1    0    0    0    0 -0.00000000000E+00 -0.00000000000E+00 -0.45593999997E+02  0.45594000000E+02  0.51100000000E-03 0.  1.
         23    2    1    2    0    0  0.00000000000E+00  0.17763568394E-14  0.00000000000E+00  0.91188000000E+02  0.91188000000E+02 0.  0.
    9900012    2    3    3    0    0 -0.21602778774E+02  0.15733670183E+02  0.34196413298E+02  0.47787272925E+02  0.20000008574E+02 0.  0.
        -12    1    3    3    0    0  0.21602778774E+02 -0.15733670183E+02 -0.34196413298E+02  0.43400727075E+02  0.00000000000E+00 0.  1.
         11    1    4    4    0    0 -0.70304935440E+01  0.10513944213E+02  0.69867408045E+01  0.14449408629E+02  0.51100000000E-03 0. -1.
        -11    1    4    4    0    0 -0.81914335587E+01  0.87338924575E+01  0.16592194753E+02  0.20461705407E+02  0.51100000000E-03 0.  1.
        -12    1    4    4    0    0 -0.63808516713E+01 -0.35141664876E+01  0.10617477741E+02  0.12876158889E+02  0.00000000000E+00 0.  1.
</event>
<event>
 8    1  0.4042158E-011  0.9118800E+02  0.7816164E-02  0.1184000E+00
        -11   -1    0    0    0    0  0.00000000000E+00  0.00000000000E+00  0.45593999997E+02  0.45594000000E+02  0.51100000000E-03 0. -1.
         11   -1    0    0    0    0 -0.00000000000E+00 -0.00000000000E+00 -0.45593999997E+02  0.45594000000E+02  0.51100000000E-03 0.  1.
         23    2    1    2    0    0  0.88817841970E-15 -0.27755575616E-16  0.71054273576E-14  0.91188000000E+02  0.91188000000E+02 0.  0.
    9900012    2    3    3    0    0  0.67273504758E+01  0.18602006448E+00 -0.42875766917E+02  0.47787271474E+02  0.20000001957E+02 0.  0.
         12    1    3    3    0    0 -0.67273504758E+01 -0.18602006448E+00  0.42875766917E+02  0.43400728526E+02  0.00000000000E+00 0. -1.
         11    1    4    4    0    0  0.91841853446E+01  0.45864400961E+01 -0.31421838664E+02  0.33056264739E+02  0.51100000000E-03 0. -1.
        -11    1    4    4    0    0 -0.21139898386E+01  0.18184257692E+01 -0.52244469884E+01  0.59220327517E+01  0.51100000000E-03 0.  1.
         12    1    4    4    0    0 -0.34284503023E+00 -0.62188458008E+01 -0.62294812645E+01  0.88089739830E+01  0.00000000000E+00 0. -1.
</event>
<event>
 8    1  0.4042158E-011  0.9118800E+02  0.7816164E-02  0.1184000E+00
        -11   -1    0    0    0    0  0.00000000000E+00  0.00000000000E+00  0.45593999997E+02  0.45594000000E+02  0.51100000000E-03 0. -1.
         11   -1    0    0    0    0 -0.00000000000E+00 -0.00000000000E+00 -0.45593999997E+02  0.45594000000E+02  0.51100000000E-03 0.  1.
         23    2    1    2    0    0  0.00000000000E+00  0.00000000000E+00  0.00000000000E+00  0.91188000000E+02  0.91188000000E+02 0.  0.
    9900012    2    3    3    0    0 -0.29055025882E+02 -0.21374795520E+02 -0.24136002206E+02  0.47787274027E+02  0.20000013598E+02 0.  0.
         12    1    3    3    0    0  0.29055025882E+02  0.21374795520E+02  0.24136002206E+02  0.43400725973E+02  0.00000000000E+00 0. -1.
         11    1    4    4    0    0 -0.37444594274E+01 -0.77593729904E+01 -0.25526732734E+01  0.89858214265E+01  0.51100000000E-03 0. -1.
        -11    1    4    4    0    0 -0.33819025458E+01 -0.71085852024E+01 -0.11179257757E+02  0.13672785110E+02  0.51100000000E-03 0.  1.
         12    1    4    4    0    0 -0.21928663908E+02 -0.65068373275E+01 -0.10404071175E+02  0.25128667490E+02  0.00000000000E+00 0. -1.
</event>
<event>
 8    1  0.4042158E-011  0.9118800E+02  0.7816164E-02  0.1184000E+00
        -11   -1    0    0    0    0  0.00000000000E+00  0.00000000000E+00  0.45593999997E+02  0.45594000000E+02  0.51100000000E-03 0. -1.
         11   -1    0    0    0    0 -0.00000000000E+00 -0.00000000000E+00 -0.45593999997E+02  0.45594000000E+02  0.51100000000E-03 0.  1.
         23    2    1    2    0    0  0.35527136788E-14  0.00000000000E+00  0.35527136788E-14  0.91188000000E+02  0.91188000000E+02 0.  0.
    9900012    2    3    3    0    0 -0.30606879081E+02  0.16629149932E+02 -0.25890422928E+02  0.47787266435E+02  0.19999978986E+02 0.  0.
         12    1    3    3    0    0  0.30606879081E+02 -0.16629149932E+02  0.25890422928E+02  0.43400733565E+02  0.00000000000E+00 0. -1.
         11    1    4    4    0    0 -0.88667525851E+01  0.23520323017E+01 -0.11738176549E+02  0.14897521482E+02  0.51100000000E-03 0. -1.
        -11    1    4    4    0    0 -0.18524051597E+02  0.11232344280E+02 -0.17074808101E+02  0.27583602330E+02  0.51100000000E-03 0.  1.
         12    1    4    4    0    0 -0.32160748996E+01  0.30447733505E+01  0.29225617222E+01  0.53061426230E+01  0.00000000000E+00 0. -1.
</event>
<event>
 8    1  0.4042158E-011  0.9118800E+02  0.7816164E-02  0.1184000E+00
        -11   -1    0    0    0    0  0.00000000000E+00  0.00000000000E+00  0.45593999997E+02  0.45594000000E+02  0.51100000000E-03 0. -1.
         11   -1    0    0    0    0 -0.00000000000E+00 -0.00000000000E+00 -0.45593999997E+02  0.45594000000E+02  0.51100000000E-03 0.  1.
         23    2    1    2    0    0  0.00000000000E+00  0.00000000000E+00  0.00000000000E+00  0.91188000000E+02  0.91188000000E+02 0.  0.
    9900012    2    3    3    0    0 -0.20946820504E+02 -0.40979005279E+01 -0.37789708857E+02  0.47787260681E+02  0.19999952748E+02 0.  0.
         12    1    3    3    0    0  0.20946820504E+02  0.40979005279E+01  0.37789708857E+02  0.43400739319E+02  0.00000000000E+00 0. -1.
         11    1    4    4    0    0 -0.11169888042E+02 -0.91636831590E+00 -0.92429478544E+01  0.14527154404E+02  0.51100000000E-03 0. -1.
        -11    1    4    4    0    0 -0.13170162563E+02 -0.16795668644E+01 -0.20900173462E+02  0.24760682095E+02  0.51100000000E-03 0.  1.
        -12    1    4    4    0    0  0.33932301009E+01 -0.15019653476E+01 -0.76465875403E+01  0.84994241826E+01  0.00000000000E+00 0.  1.
</event>
<event>
 8    1  0.4042158E-011  0.9118800E+02  0.7816164E-02  0.1184000E+00
        -11   -1    0    0    0    0  0.00000000000E+00  0.00000000000E+00  0.45593999997E+02  0.45594000000E+02  0.51100000000E-03 0. -1.
         11   -1    0    0    0    0 -0.00000000000E+00 -0.00000000000E+00 -0.45593999997E+02  0.45594000000E+02  0.51100000000E-03 0.  1.
         23    2    1    2    0    0  0.00000000000E+00 -0.22204460493E-15 -0.71054273576E-14  0.91188000000E+02  0.91188000000E+02 0.  0.
    9900012    2    3    3    0    0 -0.11767273069E+02 -0.42201534584E+00 -0.41772913688E+02  0.47787272697E+02  0.20000007537E+02 0.  0.
         12    1    3    3    0    0  0.11767273069E+02  0.42201534584E+00  0.41772913688E+02  0.43400727303E+02  0.00000000000E+00 0. -1.
         11    1    4    4    0    0 -0.49804321446E+01  0.50399389766E+01 -0.14490735535E+02  0.16130316359E+02  0.51100000000E-03 0. -1.
        -11    1    4    4    0    0 -0.84851908091E+01 -0.18967617667E+01 -0.26136996984E+02  0.27545213375E+02  0.51100000000E-03 0.  1.
         12    1    4    4    0    0  0.16983498848E+01 -0.35651925557E+01 -0.11451811689E+01  0.41117429638E+01  0.00000000000E+00 0. -1.
</event>
<event>
 8    1  0.4042158E-011  0.9118800E+02  0.7816164E-02  0.1184000E+00
        -11   -1    0    0    0    0  0.00000000000E+00  0.00000000000E+00  0.45593999997E+02  0.45594000000E+02  0.51100000000E-03 0. -1.
         11   -1    0    0    0    0 -0.00000000000E+00 -0.00000000000E+00 -0.45593999997E+02  0.45594000000E+02  0.51100000000E-03 0.  1.
         23    2    1    2    0    0  0.00000000000E+00  0.00000000000E+00  0.00000000000E+00  0.91188000000E+02  0.91188000000E+02 0.  0.
    9900012    2    3    3    0    0 -0.93314315563E+01  0.41267914197E+02  0.96699187653E+01  0.47787266297E+02  0.19999978355E+02 0.  0.
        -12    1    3    3    0    0  0.93314315563E+01 -0.41267914197E+02 -0.96699187653E+01  0.43400733703E+02  0.00000000000E+00 0.  1.
         11    1    4    4    0    0 -0.23308109932E+01  0.11110055600E+02 -0.92866203866E+00  0.11389838839E+02  0.51100000000E-03 0. -1.
        -11    1    4    4    0    0 -0.57500849744E+00 -0.13907892590E+01 -0.13829909018E+01  0.20439162485E+01  0.51100000000E-03 0.  1.
         12    1    4    4    0    0 -0.64256120656E+01  0.31548647855E+02  0.11981571706E+02  0.34353511210E+02  0.00000000000E+00 0. -1.
</event>
<event>
 8    1  0.4042158E-011  0.9118800E+02  0.7816164E-02  0.1184000E+00
        -11   -1    0    0    0    0  0.00000000000E+00  0.00000000000E+00  0.45593999997E+02  0.45594000000E+02  0.51100000000E-03 0. -1.
         11   -1    0    0    0    0 -0.00000000000E+00 -0.00000000000E+00 -0.45593999997E+02  0.45594000000E+02  0.51100000000E-03 0.  1.
         23    2    1    2    0    0  0.88817841970E-15  0.00000000000E+00  0.00000000000E+00  0.91188000000E+02  0.91188000000E+02 0.  0.
    9900012    2    3    3    0    0 -0.47462337892E+01 -0.33575626980E+02  0.27088268496E+02  0.47787265532E+02  0.19999974864E+02 0.  0.
        -12    1    3    3    0    0  0.47462337892E+01  0.33575626980E+02 -0.27088268496E+02  0.43400734468E+02  0.00000000000E+00 0.  1.
         11    1    4    4    0    0  0.29998307973E+01  0.20016523194E+00  0.51712137406E+01  0.59816805953E+01  0.51100000000E-03 0. -1.
        -11    1    4    4    0    0 -0.30974407092E+01 -0.39966316742E+01  0.10974657247E+01  0.51741313246E+01  0.51100000000E-03 0.  1.
         12    1    4    4    0    0 -0.46486238773E+01 -0.29779160538E+02  0.20819589031E+02  0.36631453612E+02  0.00000000000E+00 0. -1.
</event>
<event>
 8    1  0.4042158E-011  0.9118800E+02  0.7816164E-02  0.1184000E+00
        -11   -1    0    0    0    0  0.00000000000E+00  0.00000000000E+00  0.45593999997E+02  0.45594000000E+02  0.51100000000E-03 0. -1.
         11   -1    0    0    0    0 -0.00000000000E+00 -0.00000000000E+00 -0.45593999997E+02  0.45594000000E+02  0.51100000000E-03 0.  1.
         23    2    1    2    0    0  0.00000000000E+00  0.00000000000E+00  0.00000000000E+00  0.91188000000E+02  0.91188000000E+02 0.  0.
    9900012    2    3    3    0    0  0.21562396780E+02  0.95247336403E+01 -0.36441261288E+02  0.47787273853E+02  0.20000012806E+02 0.  0.
         12    1    3    3    0    0 -0.21562396780E+02 -0.95247336403E+01  0.36441261288E+02  0.43400726147E+02  0.00000000000E+00 0. -1.
         11    1    4    4    0    0  0.84900395164E+01  0.39323111148E+01 -0.39186137981E+01  0.10143932968E+02  0.51100000000E-03 0. -1.
        -11    1    4    4    0    0  0.78253707760E+01  0.10457220178E-01 -0.55235833281E+01  0.95784398614E+01  0.51100000000E-03 0.  1.
         12    1    4    4    0    0  0.52469864871E+01  0.55819653054E+01 -0.26999064162E+02  0.28064901024E+02  0.00000000000E+00 0. -1.
</event>
<event>
 8    1  0.4042158E-011  0.9118800E+02  0.7816164E-02  0.1184000E+00
        -11   -1    0    0    0    0  0.00000000000E+00  0.00000000000E+00  0.45593999997E+02  0.45594000000E+02  0.51100000000E-03 0.  1.
         11   -1    0    0    0    0 -0.00000000000E+00 -0.00000000000E+00 -0.45593999997E+02  0.45594000000E+02  0.51100000000E-03 0. -1.
         23    2    1    2    0    0 -0.71054273576E-14  0.00000000000E+00  0.17763568394E-14  0.91188000000E+02  0.91188000000E+02 0.  0.
    9900012    2    3    3    0    0  0.41215510962E+02 -0.48208059174E+01 -0.12714710749E+02  0.47787281308E+02  0.20000046797E+02 0.  0.
         12    1    3    3    0    0 -0.41215510962E+02  0.48208059174E+01  0.12714710749E+02  0.43400718692E+02  0.00000000000E+00 0. -1.
         11    1    4    4    0    0  0.11353785610E+02 -0.46625245000E+01 -0.37320331345E+01  0.12828704298E+02  0.51100000000E-03 0. -1.
        -11    1    4    4    0    0  0.18224407578E+02 -0.63465991239E+01 -0.53878204928E+00  0.19305404382E+02  0.51100000000E-03 0.  1.
         12    1    4    4    0    0  0.11637317775E+02  0.61883177064E+01 -0.84438955651E+01  0.15653172628E+02  0.00000000000E+00 0. -1.
</event>
<event>
 8    1  0.4042158E-011  0.9118800E+02  0.7816164E-02  0.1184000E+00
        -11   -1    0    0    0    0  0.00000000000E+00  0.00000000000E+00  0.45593999997E+02  0.45594000000E+02  0.51100000000E-03 0.  1.
         11   -1    0    0    0    0 -0.00000000000E+00 -0.00000000000E+00 -0.45593999997E+02  0.45594000000E+02  0.51100000000E-03 0. -1.
         23    2    1    2    0    0  0.00000000000E+00 -0.44408920985E-15  0.00000000000E+00  0.91188000000E+02  0.91188000000E+02 0.  0.
    9900012    2    3    3    0    0 -0.41627697366E+02 -0.24470679154E+01 -0.12032044976E+02  0.47787269181E+02  0.19999991502E+02 0.  0.
         12    1    3    3    0    0  0.41627697366E+02  0.24470679154E+01  0.12032044976E+02  0.43400730819E+02  0.00000000000E+00 0. -1.
         11    1    4    4    0    0 -0.34270769573E+01  0.35259605021E+01  0.14521122026E+01  0.51269761111E+01  0.51100000000E-03 0. -1.
        -11    1    4    4    0    0 -0.37701546687E+01  0.10101089907E+01  0.18605265995E+01  0.43238808827E+01  0.51100000000E-03 0.  1.
        -12    1    4    4    0    0 -0.34430465740E+02 -0.69831374083E+01 -0.15344683778E+02  0.38336412187E+02  0.00000000000E+00 0.  1.
</event>
<event>
 8    1  0.4042158E-011  0.9118800E+02  0.7816164E-02  0.1184000E+00
        -11   -1    0    0    0    0  0.00000000000E+00  0.00000000000E+00  0.45593999997E+02  0.45594000000E+02  0.51100000000E-03 0. -1.
         11   -1    0    0    0    0 -0.00000000000E+00 -0.00000000000E+00 -0.45593999997E+02  0.45594000000E+02  0.51100000000E-03 0.  1.
         23    2    1    2    0    0 -0.17763568394E-14  0.00000000000E+00  0.00000000000E+00  0.91188000000E+02  0.91188000000E+02 0.  0.
    9900012    2    3    3    0    0 -0.11874343706E+02 -0.16456411722E+02 -0.38364173701E+02  0.47787270179E+02  0.19999996055E+02 0.  0.
         12    1    3    3    0    0  0.11874343706E+02  0.16456411722E+02  0.38364173701E+02  0.43400729821E+02  0.00000000000E+00 0. -1.
         11    1    4    4    0    0  0.27139579865E+01 -0.45598376121E+01 -0.10679044668E+02  0.11924750827E+02  0.51100000000E-03 0. -1.
        -11    1    4    4    0    0  0.18419146912E+01  0.11050240170E+00 -0.51373835795E+00  0.19154080171E+01  0.51100000000E-03 0.  1.
         12    1    4    4    0    0 -0.16430216383E+02 -0.12007076512E+02 -0.27171390675E+02  0.33947111335E+02  0.00000000000E+00 0. -1.
</event>
<event>
 8    1  0.4042158E-011  0.9118800E+02  0.7816164E-02  0.1184000E+00
        -11   -1    0    0    0    0  0.00000000000E+00  0.00000000000E+00  0.45593999997E+02  0.45594000000E+02  0.51100000000E-03 0. -1.
         11   -1    0    0    0    0 -0.00000000000E+00 -0.00000000000E+00 -0.45593999997E+02  0.45594000000E+02  0.51100000000E-03 0.  1.
         23    2    1    2    0    0  0.00000000000E+00 -0.11102230246E-15  0.00000000000E+00  0.91188000000E+02  0.91188000000E+02 0.  0.
    9900012    2    3    3    0    0 -0.12313433064E+02 -0.90438791421E+00  0.41607508590E+02  0.47787270485E+02  0.19999997450E+02 0.  0.
        -12    1    3    3    0    0  0.12313433064E+02  0.90438791421E+00 -0.41607508590E+02  0.43400729515E+02  0.00000000000E+00 0.  1.
         11    1    4    4    0    0 -0.30393173508E+01  0.34086714484E+01  0.28105611458E+01  0.53624383649E+01  0.51100000000E-03 0. -1.
        -11    1    4    4    0    0  0.12438823238E+01 -0.29716416481E+01  0.13279414549E+01  0.34844405704E+01  0.51100000000E-03 0.  1.
         12    1    4    4    0    0 -0.10517998037E+02 -0.13414177146E+01  0.37469005990E+02  0.38940391550E+02  0.00000000000E+00 0. -1.
</event>
<event>
 8    1  0.4042158E-011  0.9118800E+02  0.7816164E-02  0.1184000E+00
        -11   -1    0    0    0    0  0.00000000000E+00  0.00000000000E+00  0.45593999997E+02  0.45594000000E+02  0.51100000000E-03 0.  1.
         11   -1    0    0    0    0 -0.00000000000E+00 -0.00000000000E+00 -0.45593999997E+02  0.45594000000E+02  0.51100000000E-03 0. -1.
         23    2    1    2    0    0  0.00000000000E+00  0.00000000000E+00  0.00000000000E+00  0.91188000000E+02  0.91188000000E+02 0.  0.
    9900012    2    3    3    0    0 -0.21007840091E+02 -0.35506860719E+02  0.13474296378E+02  0.47787272284E+02  0.20000005651E+02 0.  0.
        -12    1    3    3    0    0  0.21007840091E+02  0.35506860719E+02 -0.13474296378E+02  0.43400727716E+02  0.00000000000E+00 0.  1.
         11    1    4    4    0    0 -0.42797235474E+01 -0.16742484687E+02  0.57154675511E+01  0.18201466883E+02  0.51100000000E-03 0. -1.
        -11    1    4    4    0    0 -0.16203387480E+01 -0.11701895510E+02  0.22775298655E+01  0.12031084686E+02  0.51100000000E-03 0.  1.
         12    1    4    4    0    0 -0.15107777795E+02 -0.70624805232E+01  0.54812989615E+01  0.17554720714E+02  0.00000000000E+00 0. -1.
</event>
<event>
 8    1  0.4042158E-011  0.9118800E+02  0.7816164E-02  0.1184000E+00
        -11   -1    0    0    0    0  0.00000000000E+00  0.00000000000E+00  0.45593999997E+02  0.45594000000E+02  0.51100000000E-03 0. -1.
         11   -1    0    0    0    0 -0.00000000000E+00 -0.00000000000E+00 -0.45593999997E+02  0.45594000000E+02  0.51100000000E-03 0.  1.
         23    2    1    2    0    0  0.00000000000E+00  0.00000000000E+00  0.22204460493E-15  0.91188000000E+02  0.91188000000E+02 0.  0.
    9900012    2    3    3    0    0  0.25562279981E+02 -0.35055572652E+02 -0.11401576956E+01  0.47787270843E+02  0.19999999083E+02 0.  0.
         12    1    3    3    0    0 -0.25562279981E+02  0.35055572652E+02  0.11401576956E+01  0.43400729157E+02  0.00000000000E+00 0. -1.
         11    1    4    4    0    0  0.58942817603E+01 -0.36419806364E+01 -0.36817303828E+01  0.78461276626E+01  0.51100000000E-03 0. -1.
        -11    1    4    4    0    0  0.65756540712E+01 -0.15408639345E+01  0.28334206458E+01  0.73240535870E+01  0.51100000000E-03 0.  1.
        -12    1    4    4    0    0  0.13092344149E+02 -0.29872728081E+02 -0.29184795859E+00  0.32617089594E+02  0.00000000000E+00 0.  1.
</event>
<event>
 8    1  0.4042158E-011  0.9118800E+02  0.7816164E-02  0.1184000E+00
        -11   -1    0    0    0    0  0.00000000000E+00  0.00000000000E+00  0.45593999997E+02  0.45594000000E+02  0.51100000000E-03 0. -1.
         11   -1    0    0    0    0 -0.00000000000E+00 -0.00000000000E+00 -0.45593999997E+02  0.45594000000E+02  0.51100000000E-03 0.  1.
         23    2    1    2    0    0  0.00000000000E+00  0.17763568394E-14  0.00000000000E+00  0.91188000000E+02  0.91188000000E+02 0.  0.
    9900012    2    3    3    0    0  0.30190007228E+02  0.11090416605E+02 -0.29140854691E+02  0.47787270870E+02  0.19999999205E+02 0.  0.
         12    1    3    3    0    0 -0.30190007228E+02 -0.11090416605E+02  0.29140854691E+02  0.43400729130E+02  0.00000000000E+00 0. -1.
         11    1    4    4    0    0 -0.15549333082E+01  0.99906438086E+00 -0.79760992719E+00  0.20129900862E+01  0.51100000000E-03 0. -1.
        -11    1    4    4    0    0  0.33031416984E+01 -0.30261974194E+01 -0.22752467317E+01  0.50244764754E+01  0.51100000000E-03 0.  1.
        -12    1    4    4    0    0  0.28441798838E+02  0.13117549644E+02 -0.26067998032E+02  0.40749804308E+02  0.00000000000E+00 0.  1.
</event>
<event>
 8    1  0.4042158E-011  0.9118800E+02  0.7816164E-02  0.1184000E+00
        -11   -1    0    0    0    0  0.00000000000E+00  0.00000000000E+00  0.45593999997E+02  0.45594000000E+02  0.51100000000E-03 0. -1.
         11   -1    0    0    0    0 -0.00000000000E+00 -0.00000000000E+00 -0.45593999997E+02  0.45594000000E+02  0.51100000000E-03 0.  1.
         23    2    1    2    0    0  0.00000000000E+00  0.00000000000E+00  0.00000000000E+00  0.91188000000E+02  0.91188000000E+02 0.  0.
    9900012    2    3    3    0    0  0.64959312917E+01  0.86111062768E+01 -0.42038968802E+02  0.47787272212E+02  0.20000005322E+02 0.  0.
         12    1    3    3    0    0 -0.64959312917E+01 -0.86111062768E+01  0.42038968802E+02  0.43400727788E+02  0.00000000000E+00 0. -1.
         11    1    4    4    0    0 -0.37295654100E+00 -0.27541661875E+01 -0.64684485956E+00  0.28535830990E+01  0.51100000000E-03 0. -1.
        -11    1    4    4    0    0  0.61850585839E+01  0.55559729699E+01 -0.10016439307E+02  0.13017405347E+02  0.51100000000E-03 0.  1.
        -12    1    4    4    0    0  0.68382924876E+00  0.58092994943E+01 -0.31375684635E+02  0.31916283765E+02  0.00000000000E+00 0.  1.
</event>
<event>
 8    1  0.4042158E-011  0.9118800E+02  0.7816164E-02  0.1184000E+00
        -11   -1    0    0    0    0  0.00000000000E+00  0.00000000000E+00  0.45593999997E+02  0.45594000000E+02  0.51100000000E-03 0. -1.
         11   -1    0    0    0    0 -0.00000000000E+00 -0.00000000000E+00 -0.45593999997E+02  0.45594000000E+02  0.51100000000E-03 0.  1.
         23    2    1    2    0    0  0.00000000000E+00  0.00000000000E+00  0.00000000000E+00  0.91188000000E+02  0.91188000000E+02 0.  0.
    9900012    2    3    3    0    0  0.11880350371E+02 -0.16154282257E+02 -0.38490516261E+02  0.47787269566E+02  0.19999993259E+02 0.  0.
         12    1    3    3    0    0 -0.11880350371E+02  0.16154282257E+02  0.38490516261E+02  0.43400730434E+02  0.00000000000E+00 0. -1.
         11    1    4    4    0    0  0.43689844060E+00 -0.10965736659E+02 -0.15224616845E+02  0.18767717471E+02  0.51100000000E-03 0. -1.
        -11    1    4    4    0    0 -0.16018786559E+01  0.54666570187E+00 -0.78324679044E+01  0.80132647749E+01  0.51100000000E-03 0.  1.
        -12    1    4    4    0    0  0.13045330587E+02 -0.57352112997E+01 -0.15433431512E+02  0.21006287321E+02  0.00000000000E+00 0.  1.
</event>
<event>
 8    1  0.4042158E-011  0.9118800E+02  0.7816164E-02  0.1184000E+00
        -11   -1    0    0    0    0  0.00000000000E+00  0.00000000000E+00  0.45593999997E+02  0.45594000000E+02  0.51100000000E-03 0. -1.
         11   -1    0    0    0    0 -0.00000000000E+00 -0.00000000000E+00 -0.45593999997E+02  0.45594000000E+02  0.51100000000E-03 0.  1.
         23    2    1    2    0    0  0.00000000000E+00  0.00000000000E+00  0.00000000000E+00  0.91188000000E+02  0.91188000000E+02 0.  0.
    9900012    2    3    3    0    0  0.22720638231E+02 -0.29260633809E+02 -0.22609991290E+02  0.47787264999E+02  0.19999972435E+02 0.  0.
         12    1    3    3    0    0 -0.22720638231E+02  0.29260633809E+02  0.22609991290E+02  0.43400735001E+02  0.00000000000E+00 0. -1.
         11    1    4    4    0    0  0.56392637341E+01 -0.92775748289E+01  0.22942325450E+00  0.10859434859E+02  0.51100000000E-03 0. -1.
        -11    1    4    4    0    0  0.72900619929E+00  0.16905555563E+01 -0.10845509669E+01  0.21367449985E+01  0.51100000000E-03 0.  1.
        -12    1    4    4    0    0  0.16352368298E+02 -0.21673614536E+02 -0.21754863578E+02  0.34791085141E+02  0.00000000000E+00 0.  1.
</event>
<event>
 8    1  0.4042158E-011  0.9118800E+02  0.7816164E-02  0.1184000E+00
        -11   -1    0    0    0    0  0.00000000000E+00  0.00000000000E+00  0.45593999997E+02  0.45594000000E+02  0.51100000000E-03 0. -1.
         11   -1    0    0    0    0 -0.00000000000E+00 -0.00000000000E+00 -0.45593999997E+02  0.45594000000E+02  0.51100000000E-03 0.  1.
         23    2    1    2    0    0  0.00000000000E+00 -0.44408920985E-15  0.71054273576E-14  0.91188000000E+02  0.91188000000E+02 0.  0.
    9900012    2    3    3    0    0  0.18003037265E+02 -0.38011834058E+01  0.39307313519E+02  0.47787271410E+02  0.20000001668E+02 0.  0.
        -12    1    3    3    0    0 -0.18003037265E+02  0.38011834058E+01 -0.39307313519E+02  0.43400728590E+02  0.00000000000E+00 0.  1.
         11    1    4    4    0    0  0.29466858671E+01 -0.26157888837E+01  0.49570749514E+01  0.63322903769E+01  0.51100000000E-03 0. -1.
        -11    1    4    4    0    0  0.13344502035E+02  0.51427938162E+01  0.13758575715E+02  0.19844960790E+02  0.51100000000E-03 0.  1.
         12    1    4    4    0    0  0.17118493626E+01 -0.63281883383E+01  0.20591662852E+02  0.21610020243E+02  0.00000000000E+00 0. -1.
</event>
<event>
 8    1  0.4042158E-011  0.9118800E+02  0.7816164E-02  0.1184000E+00
        -11   -1    0    0    0    0  0.00000000000E+00  0.00000000000E+00  0.45593999997E+02  0.45594000000E+02  0.51100000000E-03 0. -1.
         11   -1    0    0    0    0 -0.00000000000E+00 -0.00000000000E+00 -0.45593999997E+02  0.45594000000E+02  0.51100000000E-03 0.  1.
         23    2    1    2    0    0  0.55511151231E-16 -0.88817841970E-15  0.00000000000E+00  0.91188000000E+02  0.91188000000E+02 0.  0.
    9900012    2    3    3    0    0  0.40956804618E+00 -0.67248461564E+01 -0.42874611640E+02  0.47787266998E+02  0.19999981552E+02 0.  0.
         12    1    3    3    0    0 -0.40956804618E+00  0.67248461564E+01  0.42874611640E+02  0.43400733002E+02  0.00000000000E+00 0. -1.
         11    1    4    4    0    0 -0.11739976054E+01  0.45128459168E+01 -0.30382553069E+01  0.55655228161E+01  0.51100000000E-03 0. -1.
        -11    1    4    4    0    0 -0.71732182814E+00 -0.31648072497E+00 -0.14677084879E+02  0.14698011139E+02  0.51100000000E-03 0.  1.
         12    1    4    4    0    0  0.23008874797E+01 -0.10921211348E+02 -0.25159271454E+02  0.27523733043E+02  0.00000000000E+00 0. -1.
</event>
<event>
 8    1  0.4042158E-011  0.9118800E+02  0.7816164E-02  0.1184000E+00
        -11   -1    0    0    0    0  0.00000000000E+00  0.00000000000E+00  0.45593999997E+02  0.45594000000E+02  0.51100000000E-03 0. -1.
         11   -1    0    0    0    0 -0.00000000000E+00 -0.00000000000E+00 -0.45593999997E+02  0.45594000000E+02  0.51100000000E-03 0.  1.
         23    2    1    2    0    0  0.00000000000E+00  0.17763568394E-14 -0.71054273576E-14  0.91188000000E+02  0.91188000000E+02 0.  0.
    9900012    2    3    3    0    0 -0.15965922290E+02  0.91860930497E+01 -0.39297943703E+02  0.47787270059E+02  0.19999995509E+02 0.  0.
         12    1    3    3    0    0  0.15965922290E+02 -0.91860930497E+01  0.39297943703E+02  0.43400729941E+02  0.00000000000E+00 0. -1.
         11    1    4    4    0    0 -0.12828739469E+02  0.31093648206E-01 -0.21296795171E+02  0.24862240607E+02  0.51100000000E-03 0. -1.
        -11    1    4    4    0    0  0.13587437177E+01 -0.20273660110E+00 -0.92370191067E+01  0.93386192159E+01  0.51100000000E-03 0.  1.
        -12    1    4    4    0    0 -0.44959265384E+01  0.93577360026E+01 -0.87641294253E+01  0.13586410237E+02  0.00000000000E+00 0.  1.
</event>
<event>
 8    1  0.4042158E-011  0.9118800E+02  0.7816164E-02  0.1184000E+00
        -11   -1    0    0    0    0  0.00000000000E+00  0.00000000000E+00  0.45593999997E+02  0.45594000000E+02  0.51100000000E-03 0. -1.
         11   -1    0    0    0    0 -0.00000000000E+00 -0.00000000000E+00 -0.45593999997E+02  0.45594000000E+02  0.51100000000E-03 0.  1.
         23    2    1    2    0    0 -0.71054273576E-14 -0.71054273576E-14  0.17763568394E-14  0.91188000000E+02  0.91188000000E+02 0.  0.
    9900012    2    3    3    0    0  0.28964000154E+02  0.29222503410E+02 -0.13811418600E+02  0.47787270810E+02  0.19999998931E+02 0.  0.
         12    1    3    3    0    0 -0.28964000154E+02 -0.29222503410E+02  0.13811418600E+02  0.43400729190E+02  0.00000000000E+00 0. -1.
         11    1    4    4    0    0  0.63881921054E+01  0.23433512510E+01 -0.17938681242E+01  0.70369209580E+01  0.51100000000E-03 0. -1.
        -11    1    4    4    0    0  0.19482586762E+02  0.28125150260E+02 -0.13889890376E+02  0.36925930171E+02  0.51100000000E-03 0.  1.
        -12    1    4    4    0    0  0.30932212867E+01 -0.12459981005E+01  0.18723399004E+01  0.38244196812E+01  0.00000000000E+00 0.  1.
</event>
<event>
 8    1  0.4042158E-011  0.9118800E+02  0.7816164E-02  0.1184000E+00
        -11   -1    0    0    0    0  0.00000000000E+00  0.00000000000E+00  0.45593999997E+02  0.45594000000E+02  0.51100000000E-03 0.  1.
         11   -1    0    0    0    0 -0.00000000000E+00 -0.00000000000E+00 -0.45593999997E+02  0.45594000000E+02  0.51100000000E-03 0. -1.
         23    2    1    2    0    0  0.00000000000E+00  0.00000000000E+00  0.17763568394E-14  0.91188000000E+02  0.91188000000E+02 0.  0.
    9900012    2    3    3    0    0 -0.41162373271E+02  0.57316168417E+01  0.12507229246E+02  0.47787272030E+02  0.20000004494E+02 0.  0.
        -12    1    3    3    0    0  0.41162373271E+02 -0.57316168417E+01 -0.12507229246E+02  0.43400727970E+02  0.00000000000E+00 0.  1.
         11    1    4    4    0    0 -0.34384109140E+02  0.70348839283E+00  0.55066497190E+01  0.34829370489E+02  0.51100000000E-03 0. -1.
        -11    1    4    4    0    0 -0.23283658525E+01 -0.16282529001E+01  0.24284726825E+01  0.37376429579E+01  0.51100000000E-03 0.  1.
         12    1    4    4    0    0 -0.44498982788E+01  0.66563813490E+01  0.45721068444E+01  0.92202585837E+01  0.00000000000E+00 0. -1.
</event>
<event>
 8    1  0.4042158E-011  0.9118800E+02  0.7816164E-02  0.1184000E+00
        -11   -1    0    0    0    0  0.00000000000E+00  0.00000000000E+00  0.45593999997E+02  0.45594000000E+02  0.51100000000E-03 0. -1.
         11   -1    0    0    0    0 -0.00000000000E+00 -0.00000000000E+00 -0.45593999997E+02  0.45594000000E+02  0.51100000000E-03 0.  1.
         23    2    1    2    0    0  0.00000000000E+00  0.66613381478E-15  0.00000000000E+00  0.91188000000E+02  0.91188000000E+02 0.  0.
    9900012    2    3    3    0    0 -0.39687968190E+02  0.88881837734E+00  0.17541335938E+02  0.47787270932E+02  0.19999999487E+02 0.  0.
        -12    1    3    3    0    0  0.39687968190E+02 -0.88881837734E+00 -0.17541335938E+02  0.43400729068E+02  0.00000000000E+00 0.  1.
         11    1    4    4    0    0 -0.40404185775E+01 -0.29913915370E+01  0.72857660730E+01  0.88518807686E+01  0.51100000000E-03 0. -1.
        -11    1    4    4    0    0 -0.15390598057E+02 -0.34242119654E+01  0.20869678605E+01  0.15904438728E+02  0.51100000000E-03 0.  1.
         12    1    4    4    0    0 -0.20256951555E+02  0.73044218798E+01  0.81686020041E+01  0.23030951435E+02  0.00000000000E+00 0. -1.
</event>
<event>
 8    1  0.4042158E-011  0.9118800E+02  0.7816164E-02  0.1184000E+00
        -11   -1    0    0    0    0  0.00000000000E+00  0.00000000000E+00  0.45593999997E+02  0.45594000000E+02  0.51100000000E-03 0. -1.
         11   -1    0    0    0    0 -0.00000000000E+00 -0.00000000000E+00 -0.45593999997E+02  0.45594000000E+02  0.51100000000E-03 0.  1.
         23    2    1    2    0    0  0.00000000000E+00 -0.35527136788E-14 -0.35527136788E-14  0.91188000000E+02  0.91188000000E+02 0.  0.
    9900012    2    3    3    0    0  0.87805654745E+01  0.30938584831E+02 -0.29143249483E+02  0.47787270146E+02  0.19999995904E+02 0.  0.
         12    1    3    3    0    0 -0.87805654745E+01 -0.30938584831E+02  0.29143249483E+02  0.43400729854E+02  0.00000000000E+00 0. -1.
         11    1    4    4    0    0  0.81451347531E+01  0.10256105868E+02 -0.11354079262E+02  0.17333379471E+02  0.51100000000E-03 0. -1.
        -11    1    4    4    0    0  0.35257395798E+01  0.10952489676E+02 -0.19924501199E+01  0.11677231154E+02  0.51100000000E-03 0.  1.
        -12    1    4    4    0    0 -0.28903088584E+01  0.97299892868E+01 -0.15796720101E+02  0.18776659521E+02  0.00000000000E+00 0.  1.
</event>
<event>
 8    1  0.4042158E-011  0.9118800E+02  0.7816164E-02  0.1184000E+00
        -11   -1    0    0    0    0  0.00000000000E+00  0.00000000000E+00  0.45593999997E+02  0.45594000000E+02  0.51100000000E-03 0. -1.
         11   -1    0    0    0    0 -0.00000000000E+00 -0.00000000000E+00 -0.45593999997E+02  0.45594000000E+02  0.51100000000E-03 0.  1.
         23    2    1    2    0    0  0.00000000000E+00  0.00000000000E+00 -0.17763568394E-14  0.91188000000E+02  0.91188000000E+02 0.  0.
    9900012    2    3    3    0    0  0.27050093946E+02  0.31711641466E+02 -0.12094938599E+02  0.47787270436E+02  0.19999997225E+02 0.  0.
         12    1    3    3    0    0 -0.27050093946E+02 -0.31711641466E+02  0.12094938599E+02  0.43400729564E+02  0.00000000000E+00 0. -1.
         11    1    4    4    0    0  0.13779719807E+01 -0.67333996480E+00  0.13350316903E+01  0.20333478215E+01  0.51100000000E-03 0. -1.
        -11    1    4    4    0    0  0.92580476997E+01  0.43976422382E+01  0.89165621247E+00  0.10288136640E+02  0.51100000000E-03 0.  1.
        -12    1    4    4    0    0  0.16414074265E+02  0.27987339193E+02 -0.14321626502E+02  0.35465785974E+02  0.00000000000E+00 0.  1.
</event>
<event>
 8    1  0.4042158E-011  0.9118800E+02  0.7816164E-02  0.1184000E+00
        -11   -1    0    0    0    0  0.00000000000E+00  0.00000000000E+00  0.45593999997E+02  0.45594000000E+02  0.51100000000E-03 0. -1.
         11   -1    0    0    0    0 -0.00000000000E+00 -0.00000000000E+00 -0.45593999997E+02  0.45594000000E+02  0.51100000000E-03 0.  1.
         23    2    1    2    0    0  0.00000000000E+00 -0.71054273576E-14  0.00000000000E+00  0.91188000000E+02  0.91188000000E+02 0.  0.
    9900012    2    3    3    0    0  0.15092733211E+02  0.29692634468E+02  0.27824108145E+02  0.47787261164E+02  0.19999954952E+02 0.  0.
        -12    1    3    3    0    0 -0.15092733211E+02 -0.29692634468E+02 -0.27824108145E+02  0.43400738836E+02  0.00000000000E+00 0.  1.
         11    1    4    4    0    0  0.17277296141E+02  0.22519054100E+02  0.15422852829E+02  0.32302896916E+02  0.51100000000E-03 0. -1.
        -11    1    4    4    0    0  0.94936743399E-01 -0.79785387825E+00  0.21795745692E+01  0.23229570293E+01  0.51100000000E-03 0.  1.
         12    1    4    4    0    0 -0.22794996730E+01  0.79714342459E+01  0.10221680747E+02  0.13161407219E+02  0.00000000000E+00 0. -1.
</event>
<event>
 8    1  0.4042158E-011  0.9118800E+02  0.7816164E-02  0.1184000E+00
        -11   -1    0    0    0    0  0.00000000000E+00  0.00000000000E+00  0.45593999997E+02  0.45594000000E+02  0.51100000000E-03 0. -1.
         11   -1    0    0    0    0 -0.00000000000E+00 -0.00000000000E+00 -0.45593999997E+02  0.45594000000E+02  0.51100000000E-03 0.  1.
         23    2    1    2    0    0  0.00000000000E+00 -0.35527136788E-14 -0.35527136788E-14  0.91188000000E+02  0.91188000000E+02 0.  0.
    9900012    2    3    3    0    0 -0.26918131666E+02 -0.20119848329E+02 -0.27463234384E+02  0.47787270144E+02  0.19999995895E+02 0.  0.
         12    1    3    3    0    0  0.26918131666E+02  0.20119848329E+02  0.27463234384E+02  0.43400729856E+02  0.00000000000E+00 0. -1.
         11    1    4    4    0    0 -0.20849800112E+01 -0.73818629125E+00 -0.23384859844E+00  0.22241281608E+01  0.51100000000E-03 0. -1.
        -11    1    4    4    0    0 -0.24235737997E+02 -0.14388789876E+02 -0.14123894431E+02  0.31526063257E+02  0.51100000000E-03 0.  1.
         12    1    4    4    0    0 -0.59741365813E+00 -0.49928721615E+01 -0.13105491355E+02  0.14037078726E+02  0.00000000000E+00 0. -1.
</event>
<event>
 8    1  0.4042158E-011  0.9118800E+02  0.7816164E-02  0.1184000E+00
        -11   -1    0    0    0    0  0.00000000000E+00  0.00000000000E+00  0.45593999997E+02  0.45594000000E+02  0.51100000000E-03 0. -1.
         11   -1    0    0    0    0 -0.00000000000E+00 -0.00000000000E+00 -0.45593999997E+02  0.45594000000E+02  0.51100000000E-03 0.  1.
         23    2    1    2    0    0  0.00000000000E+00  0.00000000000E+00  0.00000000000E+00  0.91188000000E+02  0.91188000000E+02 0.  0.
    9900012    2    3    3    0    0  0.81751965478E+01 -0.36754874056E+02 -0.21583884292E+02  0.47787324123E+02  0.20000242003E+02 0.  0.
        -12    1    3    3    0    0 -0.81751965478E+01  0.36754874056E+02  0.21583884292E+02  0.43400675877E+02  0.00000000000E+00 0.  1.
         11    1    4    4    0    0  0.51122977201E+01 -0.15811982958E+02 -0.15957233931E+02  0.23038830440E+02  0.51100000000E-03 0. -1.
        -11    1    4    4    0    0  0.14428481185E+01 -0.52024856309E+00 -0.38979946981E+01  0.41888939099E+01  0.51100000000E-03 0.  1.
         12    1    4    4    0    0  0.16200507091E+01 -0.20422642535E+02 -0.17286556628E+01  0.20559599773E+02  0.00000000000E+00 0. -1.
</event>
<event>
 8    1  0.4042158E-011  0.9118800E+02  0.7816164E-02  0.1184000E+00
        -11   -1    0    0    0    0  0.00000000000E+00  0.00000000000E+00  0.45593999997E+02  0.45594000000E+02  0.51100000000E-03 0. -1.
         11   -1    0    0    0    0 -0.00000000000E+00 -0.00000000000E+00 -0.45593999997E+02  0.45594000000E+02  0.51100000000E-03 0.  1.
         23    2    1    2    0    0  0.88817841970E-15  0.00000000000E+00  0.00000000000E+00  0.91188000000E+02  0.91188000000E+02 0.  0.
    9900012    2    3    3    0    0 -0.26701102433E+01 -0.28999933089E+02 -0.32179147260E+02  0.47787272745E+02  0.20000007754E+02 0.  0.
         12    1    3    3    0    0  0.26701102433E+01  0.28999933089E+02  0.32179147260E+02  0.43400727255E+02  0.00000000000E+00 0. -1.
         11    1    4    4    0    0 -0.66954665470E+01 -0.14504098834E+02 -0.19797024197E+02  0.25438559758E+02  0.51100000000E-03 0. -1.
        -11    1    4    4    0    0 -0.27841085141E+00 -0.13490052039E+02 -0.11734544268E+02  0.17881793703E+02  0.51100000000E-03 0.  1.
        -12    1    4    4    0    0  0.43037671551E+01 -0.10057822164E+01 -0.64757879544E+00  0.44669192839E+01  0.00000000000E+00 0.  1.
</event>
<event>
 8    1  0.6448631E-011  0.9118800E+02  0.7816164E-02  0.1184000E+00
        -11   -1    0    0    0    0  0.00000000000E+00  0.00000000000E+00  0.45593999997E+02  0.45594000000E+02  0.51100000000E-03 0. -1.
         11   -1    0    0    0    0 -0.00000000000E+00 -0.00000000000E+00 -0.45593999997E+02  0.45594000000E+02  0.51100000000E-03 0.  1.
         23    2    1    2    0    0 -0.35527136788E-14  0.00000000000E+00  0.00000000000E+00  0.91188000000E+02  0.91188000000E+02 0.  0.
    9900012    2    3    3    0    0 -0.16571178717E+02  0.24419252042E+02  0.31823260084E+02  0.47787265942E+02  0.19999976736E+02 0.  0.
        -12    1    3    3    0    0  0.16571178717E+02 -0.24419252042E+02 -0.31823260084E+02  0.43400734058E+02  0.00000000000E+00 0.  1.
         11    1    4    4    0    0 -0.12362634511E+02  0.15449866666E+02  0.14226096610E+02  0.24370370064E+02  0.51100000000E-03 0. -1.
        -11    1    4    4    0    0 -0.82933861259E+01  0.52767079744E+01  0.98834418210E+01  0.13939380294E+02  0.51100000000E-03 0.  1.
        -12    1    4    4    0    0  0.40848419196E+01  0.36926774022E+01  0.77137216534E+01  0.94775155843E+01  0.00000000000E+00 0.  1.
</event>
<event>
 8    1  0.5143569E-011  0.9118800E+02  0.7816164E-02  0.1184000E+00
        -11   -1    0    0    0    0  0.00000000000E+00  0.00000000000E+00  0.45593999997E+02  0.45594000000E+02  0.51100000000E-03 0. -1.
         11   -1    0    0    0    0 -0.00000000000E+00 -0.00000000000E+00 -0.45593999997E+02  0.45594000000E+02  0.51100000000E-03 0.  1.
         23    2    1    2    0    0  0.14432899320E-14  0.00000000000E+00  0.00000000000E+00  0.91188000000E+02  0.91188000000E+02 0.  0.
    9900012    2    3    3    0    0  0.50725921503E+00 -0.15276646743E+02  0.40620094755E+02  0.47787247177E+02  0.19999891180E+02 0.  0.
        -12    1    3    3    0    0 -0.50725921503E+00  0.15276646743E+02 -0.40620094755E+02  0.43400752823E+02  0.00000000000E+00 0.  1.
         11    1    4    4    0    0 -0.76991017060E+00 -0.14832025367E+01  0.12313591694E+02  0.12426471426E+02  0.51100000000E-03 0. -1.
        -11    1    4    4    0    0  0.84383645718E+01 -0.99391926105E+01  0.18208110060E+02  0.22394839107E+02  0.51100000000E-03 0.  1.
        -12    1    4    4    0    0 -0.71611951862E+01 -0.38542515960E+01  0.10098393001E+02  0.12965936644E+02  0.00000000000E+00 0.  1.
</event>
<event>
 8    1  0.4042158E-011  0.9118800E+02  0.7816164E-02  0.1184000E+00
        -11   -1    0    0    0    0  0.00000000000E+00  0.00000000000E+00  0.45593999997E+02  0.45594000000E+02  0.51100000000E-03 0. -1.
         11   -1    0    0    0    0 -0.00000000000E+00 -0.00000000000E+00 -0.45593999997E+02  0.45594000000E+02  0.51100000000E-03 0.  1.
         23    2    1    2    0    0  0.17763568394E-14  0.35527136788E-14  0.00000000000E+00  0.91188000000E+02  0.91188000000E+02 0.  0.
    9900012    2    3    3    0    0 -0.14909232141E+02  0.20599186427E+02  0.35171174896E+02  0.47787271573E+02  0.20000002408E+02 0.  0.
        -12    1    3    3    0    0  0.14909232141E+02 -0.20599186427E+02 -0.35171174896E+02  0.43400728427E+02  0.00000000000E+00 0.  1.
         11    1    4    4    0    0 -0.45738063538E+01  0.50270548711E+01  0.37994619342E+01  0.77863275355E+01  0.51100000000E-03 0. -1.
        -11    1    4    4    0    0 -0.13605166218E+02  0.16299228374E+02  0.24971120554E+02  0.32776855483E+02  0.51100000000E-03 0.  1.
         12    1    4    4    0    0  0.32697404306E+01 -0.72709681767E+00  0.64005924076E+01  0.72240885538E+01  0.00000000000E+00 0. -1.
</event>
<event>
 8    1  0.4042158E-011  0.9118800E+02  0.7816164E-02  0.1184000E+00
        -11   -1    0    0    0    0  0.00000000000E+00  0.00000000000E+00  0.45593999997E+02  0.45594000000E+02  0.51100000000E-03 0. -1.
         11   -1    0    0    0    0 -0.00000000000E+00 -0.00000000000E+00 -0.45593999997E+02  0.45594000000E+02  0.51100000000E-03 0.  1.
         23    2    1    2    0    0  0.17763568394E-14  0.00000000000E+00  0.00000000000E+00  0.91188000000E+02  0.91188000000E+02 0.  0.
    9900012    2    3    3    0    0 -0.54906727135E+01  0.13530320701E+02 -0.40870602014E+02  0.47787272194E+02  0.20000005242E+02 0.  0.
         12    1    3    3    0    0  0.54906727135E+01 -0.13530320701E+02  0.40870602014E+02  0.43400727806E+02  0.00000000000E+00 0. -1.
         11    1    4    4    0    0 -0.44581221839E+01 -0.49606871342E+00 -0.10147796501E+02  0.11094985879E+02  0.51100000000E-03 0. -1.
        -11    1    4    4    0    0 -0.44236012585E+01  0.32808786467E+01 -0.21309769382E+02  0.22009967837E+02  0.51100000000E-03 0.  1.
         12    1    4    4    0    0  0.33910507289E+01  0.10745510768E+02 -0.94130361307E+01  0.14682318478E+02  0.00000000000E+00 0. -1.
</event>
<event>
 8    1  0.4042158E-011  0.9118800E+02  0.7816164E-02  0.1184000E+00
        -11   -1    0    0    0    0  0.00000000000E+00  0.00000000000E+00  0.45593999997E+02  0.45594000000E+02  0.51100000000E-03 0. -1.
         11   -1    0    0    0    0 -0.00000000000E+00 -0.00000000000E+00 -0.45593999997E+02  0.45594000000E+02  0.51100000000E-03 0.  1.
         23    2    1    2    0    0  0.17763568394E-14  0.00000000000E+00  0.35527136788E-14  0.91188000000E+02  0.91188000000E+02 0.  0.
    9900012    2    3    3    0    0 -0.12227024042E+02 -0.34062009348E+02 -0.23956269170E+02  0.47787269243E+02  0.19999991785E+02 0.  0.
         12    1    3    3    0    0  0.12227024042E+02  0.34062009348E+02  0.23956269170E+02  0.43400730757E+02  0.00000000000E+00 0. -1.
         11    1    4    4    0    0 -0.34633326596E+01 -0.18505620008E-01 -0.37420078590E+00  0.34835387264E+01  0.51100000000E-03 0. -1.
        -11    1    4    4    0    0 -0.64572354601E+01 -0.12197987166E+02 -0.28387132450E+01  0.14090602323E+02  0.51100000000E-03 0.  1.
         12    1    4    4    0    0 -0.23064559221E+01 -0.21845516562E+02 -0.20743355139E+02  0.30213128193E+02  0.00000000000E+00 0. -1.
</event>
<event>
 8    1  0.4042158E-011  0.9118800E+02  0.7816164E-02  0.1184000E+00
        -11   -1    0    0    0    0  0.00000000000E+00  0.00000000000E+00  0.45593999997E+02  0.45594000000E+02  0.51100000000E-03 0. -1.
         11   -1    0    0    0    0 -0.00000000000E+00 -0.00000000000E+00 -0.45593999997E+02  0.45594000000E+02  0.51100000000E-03 0.  1.
         23    2    1    2    0    0 -0.35527136788E-14  0.00000000000E+00  0.00000000000E+00  0.91188000000E+02  0.91188000000E+02 0.  0.
    9900012    2    3    3    0    0  0.25171568971E+02  0.31218703427E+02 -0.16595430637E+02  0.47787266755E+02  0.19999980444E+02 0.  0.
         12    1    3    3    0    0 -0.25171568971E+02 -0.31218703427E+02  0.16595430637E+02  0.43400733245E+02  0.00000000000E+00 0. -1.
         11    1    4    4    0    0  0.94844420585E+01  0.33071627068E+01 -0.37249760696E+01  0.10712955396E+02  0.51100000000E-03 0.  1.
        -11    1    4    4    0    0  0.16584893628E+02  0.19508531171E+02 -0.62983445109E+01  0.26368743408E+02  0.51100000000E-03 0. -1.
         12    1    4    4    0    0 -0.89776671525E+00  0.84030095494E+01 -0.65721100568E+01  0.10705567951E+02  0.00000000000E+00 0. -1.
</event>
<event>
 8    1  0.4042158E-011  0.9118800E+02  0.7816164E-02  0.1184000E+00
        -11   -1    0    0    0    0  0.00000000000E+00  0.00000000000E+00  0.45593999997E+02  0.45594000000E+02  0.51100000000E-03 0. -1.
         11   -1    0    0    0    0 -0.00000000000E+00 -0.00000000000E+00 -0.45593999997E+02  0.45594000000E+02  0.51100000000E-03 0.  1.
         23    2    1    2    0    0  0.00000000000E+00  0.00000000000E+00  0.00000000000E+00  0.91188000000E+02  0.91188000000E+02 0.  0.
    9900012    2    3    3    0    0 -0.22814733845E+02 -0.89224058888E+01  0.35825989709E+02  0.47787274823E+02  0.20000017226E+02 0.  0.
        -12    1    3    3    0    0  0.22814733845E+02  0.89224058888E+01 -0.35825989709E+02  0.43400725177E+02  0.00000000000E+00 0.  1.
         11    1    4    4    0    0 -0.10496440824E+02 -0.79730269518E+00  0.17439748448E+02  0.20370463612E+02  0.51100000000E-03 0. -1.
        -11    1    4    4    0    0 -0.12200505078E+02 -0.17719473699E+01  0.64960702106E+01  0.13935244888E+02  0.51100000000E-03 0.  1.
        -12    1    4    4    0    0 -0.11778794352E+00 -0.63531558238E+01  0.11890171050E+02  0.13481566323E+02  0.00000000000E+00 0.  1.
</event>
<event>
 8    1  0.4042158E-011  0.9118800E+02  0.7816164E-02  0.1184000E+00
        -11   -1    0    0    0    0  0.00000000000E+00  0.00000000000E+00  0.45593999997E+02  0.45594000000E+02  0.51100000000E-03 0. -1.
         11   -1    0    0    0    0 -0.00000000000E+00 -0.00000000000E+00 -0.45593999997E+02  0.45594000000E+02  0.51100000000E-03 0.  1.
         23    2    1    2    0    0  0.44408920985E-15  0.00000000000E+00  0.71054273576E-14  0.91188000000E+02  0.91188000000E+02 0.  0.
    9900012    2    3    3    0    0  0.37507555797E+01  0.15664374192E+02  0.40301146656E+02  0.47787271803E+02  0.20000003458E+02 0.  0.
        -12    1    3    3    0    0 -0.37507555797E+01 -0.15664374192E+02 -0.40301146656E+02  0.43400728197E+02  0.00000000000E+00 0.  1.
         11    1    4    4    0    0 -0.42418471803E+01  0.11578983984E+01  0.14464784149E+02  0.15118332479E+02  0.51100000000E-03 0. -1.
        -11    1    4    4    0    0  0.75039830240E+00 -0.96662460513E+00 -0.46249892505E+00  0.13081919799E+01  0.51100000000E-03 0.  1.
         12    1    4    4    0    0  0.72422044577E+01  0.15473100398E+02  0.26298861432E+02  0.31360747344E+02  0.00000000000E+00 0. -1.
</event>
<event>
 8    1  0.4042158E-011  0.9118800E+02  0.7816164E-02  0.1184000E+00
        -11   -1    0    0    0    0  0.00000000000E+00  0.00000000000E+00  0.45593999997E+02  0.45594000000E+02  0.51100000000E-03 0. -1.
         11   -1    0    0    0    0 -0.00000000000E+00 -0.00000000000E+00 -0.45593999997E+02  0.45594000000E+02  0.51100000000E-03 0.  1.
         23    2    1    2    0    0 -0.17763568394E-14  0.00000000000E+00  0.00000000000E+00  0.91188000000E+02  0.91188000000E+02 0.  0.
    9900012    2    3    3    0    0 -0.11063215116E+02  0.13685659572E+02 -0.39672802997E+02  0.47787270695E+02  0.19999998405E+02 0.  0.
         12    1    3    3    0    0  0.11063215116E+02 -0.13685659572E+02  0.39672802997E+02  0.43400729305E+02  0.00000000000E+00 0. -1.
         11    1    4    4    0    0 -0.54313899532E+01  0.54407442029E+01 -0.10314431339E+02  0.12864260119E+02  0.51100000000E-03 0. -1.
        -11    1    4    4    0    0 -0.26935373396E+01 -0.39993786092E+01 -0.15338580894E+02  0.16078626706E+02  0.51100000000E-03 0.  1.
        -12    1    4    4    0    0 -0.29382878231E+01  0.12244293978E+02 -0.14019790765E+02  0.18844383870E+02  0.00000000000E+00 0.  1.
</event>
<event>
 8    1  0.4042158E-011  0.9118800E+02  0.7816164E-02  0.1184000E+00
        -11   -1    0    0    0    0  0.00000000000E+00  0.00000000000E+00  0.45593999997E+02  0.45594000000E+02  0.51100000000E-03 0. -1.
         11   -1    0    0    0    0 -0.00000000000E+00 -0.00000000000E+00 -0.45593999997E+02  0.45594000000E+02  0.51100000000E-03 0.  1.
         23    2    1    2    0    0  0.44408920985E-15 -0.17763568394E-14 -0.71054273576E-14  0.91188000000E+02  0.91188000000E+02 0.  0.
    9900012    2    3    3    0    0 -0.39871972503E+01  0.94380715318E+01 -0.42174025280E+02  0.47787270232E+02  0.19999996294E+02 0.  0.
         12    1    3    3    0    0  0.39871972503E+01 -0.94380715318E+01  0.42174025280E+02  0.43400729768E+02  0.00000000000E+00 0. -1.
         11    1    4    4    0    0  0.12590362607E+00  0.42836960544E+01 -0.51087924549E+01  0.66682579597E+01  0.51100000000E-03 0. -1.
        -11    1    4    4    0    0 -0.72975409922E+01 -0.21806540611E+01 -0.83086952590E+01  0.11271369652E+02  0.51100000000E-03 0.  1.
         12    1    4    4    0    0  0.31844401158E+01  0.73350295386E+01 -0.28756537566E+02  0.29847642620E+02  0.00000000000E+00 0. -1.
</event>
<event>
 8    1  0.4042158E-011  0.9118800E+02  0.7816164E-02  0.1184000E+00
        -11   -1    0    0    0    0  0.00000000000E+00  0.00000000000E+00  0.45593999997E+02  0.45594000000E+02  0.51100000000E-03 0. -1.
         11   -1    0    0    0    0 -0.00000000000E+00 -0.00000000000E+00 -0.45593999997E+02  0.45594000000E+02  0.51100000000E-03 0.  1.
         23    2    1    2    0    0 -0.44408920985E-15 -0.71054273576E-14  0.00000000000E+00  0.91188000000E+02  0.91188000000E+02 0.  0.
    9900012    2    3    3    0    0 -0.36208044195E+01 -0.42378458831E+02 -0.86359361489E+01  0.47787269698E+02  0.19999993862E+02 0.  0.
         12    1    3    3    0    0  0.36208044195E+01  0.42378458831E+02  0.86359361489E+01  0.43400730302E+02  0.00000000000E+00 0. -1.
         11    1    4    4    0    0 -0.32730922002E+01 -0.14976232124E+02  0.15581521139E+01  0.15408715049E+02  0.51100000000E-03 0. -1.
        -11    1    4    4    0    0 -0.22187237982E+01  0.87857148221E+00 -0.91286474007E+00  0.25549844299E+01  0.51100000000E-03 0.  1.
         12    1    4    4    0    0  0.18710115789E+01 -0.28280798190E+02 -0.92812235228E+01  0.29823570220E+02  0.00000000000E+00 0. -1.
</event>
<event>
 8    1  0.4042158E-011  0.9118800E+02  0.7816164E-02  0.1184000E+00
        -11   -1    0    0    0    0  0.00000000000E+00  0.00000000000E+00  0.45593999997E+02  0.45594000000E+02  0.51100000000E-03 0. -1.
         11   -1    0    0    0    0 -0.00000000000E+00 -0.00000000000E+00 -0.45593999997E+02  0.45594000000E+02  0.51100000000E-03 0.  1.
         23    2    1    2    0    0  0.00000000000E+00  0.00000000000E+00  0.35527136788E-14  0.91188000000E+02  0.91188000000E+02 0.  0.
    9900012    2    3    3    0    0 -0.26741929932E+02 -0.16692471102E+02 -0.29830423998E+02  0.47787267242E+02  0.19999982664E+02 0.  0.
         12    1    3    3    0    0  0.26741929932E+02  0.16692471102E+02  0.29830423998E+02  0.43400732758E+02  0.00000000000E+00 0. -1.
         11    1    4    4    0    0 -0.16756333826E+02 -0.15371871923E+02 -0.23165571106E+02  0.32460943526E+02  0.51100000000E-03 0. -1.
        -11    1    4    4    0    0 -0.69682958982E+01  0.50529033294E-01 -0.89187637222E+01  0.11318305858E+02  0.51100000000E-03 0.  1.
         12    1    4    4    0    0 -0.30173002079E+01 -0.13711282124E+01  0.22539108296E+01  0.40080178577E+01  0.00000000000E+00 0. -1.
</event>
<event>
 8    1  0.4042158E-011  0.9118800E+02  0.7816164E-02  0.1184000E+00
        -11   -1    0    0    0    0  0.00000000000E+00  0.00000000000E+00  0.45593999997E+02  0.45594000000E+02  0.51100000000E-03 0. -1.
         11   -1    0    0    0    0 -0.00000000000E+00 -0.00000000000E+00 -0.45593999997E+02  0.45594000000E+02  0.51100000000E-03 0.  1.
         23    2    1    2    0    0  0.00000000000E+00  0.00000000000E+00  0.00000000000E+00  0.91188000000E+02  0.91188000000E+02 0.  0.
    9900012    2    3    3    0    0  0.33896745725E+02 -0.54359249435E+01 -0.26553431959E+02  0.47787269597E+02  0.19999993400E+02 0.  0.
         12    1    3    3    0    0 -0.33896745725E+02  0.54359249435E+01  0.26553431959E+02  0.43400730403E+02  0.00000000000E+00 0. -1.
         11    1    4    4    0    0 -0.33821128400E+00  0.13004972544E+01  0.10139178201E+01  0.16833625837E+01  0.51100000000E-03 0. -1.
        -11    1    4    4    0    0  0.60608482976E+01 -0.63469641353E+01 -0.63768089415E+01  0.10848111742E+02  0.51100000000E-03 0.  1.
         12    1    4    4    0    0  0.28174108711E+02 -0.38945806256E+00 -0.21190540838E+02  0.35255795272E+02  0.00000000000E+00 0. -1.
</event>
<event>
 8    1  0.4042158E-011  0.9118800E+02  0.7816164E-02  0.1184000E+00
        -11   -1    0    0    0    0  0.00000000000E+00  0.00000000000E+00  0.45593999997E+02  0.45594000000E+02  0.51100000000E-03 0. -1.
         11   -1    0    0    0    0 -0.00000000000E+00 -0.00000000000E+00 -0.45593999997E+02  0.45594000000E+02  0.51100000000E-03 0.  1.
         23    2    1    2    0    0  0.88817841970E-15  0.00000000000E+00  0.00000000000E+00  0.91188000000E+02  0.91188000000E+02 0.  0.
    9900012    2    3    3    0    0 -0.48888974200E+01  0.74578285784E+01 -0.42474738796E+02  0.47787263130E+02  0.19999963914E+02 0.  0.
         12    1    3    3    0    0  0.48888974200E+01 -0.74578285784E+01  0.42474738796E+02  0.43400736870E+02  0.00000000000E+00 0. -1.
         11    1    4    4    0    0  0.67670200945E+00  0.33771829726E+01 -0.36248549863E+01  0.50002864291E+01  0.51100000000E-03 0. -1.
        -11    1    4    4    0    0 -0.10275011183E+02  0.56959751880E+01 -0.33396941185E+02  0.35403046040E+02  0.51100000000E-03 0.  1.
        -12    1    4    4    0    0  0.47094117539E+01 -0.16153295823E+01 -0.54529426251E+01  0.73839306605E+01  0.00000000000E+00 0.  1.
</event>
<event>
 8    1  0.4042158E-011  0.9118800E+02  0.7816164E-02  0.1184000E+00
        -11   -1    0    0    0    0  0.00000000000E+00  0.00000000000E+00  0.45593999997E+02  0.45594000000E+02  0.51100000000E-03 0. -1.
         11   -1    0    0    0    0 -0.00000000000E+00 -0.00000000000E+00 -0.45593999997E+02  0.45594000000E+02  0.51100000000E-03 0.  1.
         23    2    1    2    0    0 -0.11102230246E-14 -0.71054273576E-14  0.00000000000E+00  0.91188000000E+02  0.91188000000E+02 0.  0.
    9900012    2    3    3    0    0 -0.68973432175E+00  0.42500330223E+02  0.87675242666E+01  0.47787270925E+02  0.19999999456E+02 0.  0.
        -12    1    3    3    0    0  0.68973432175E+00 -0.42500330223E+02 -0.87675242666E+01  0.43400729075E+02  0.00000000000E+00 0.  1.
         11    1    4    4    0    0 -0.15626787096E+01  0.12555686031E+02 -0.26311503631E+01  0.12923241426E+02  0.51100000000E-03 0.  1.
        -11    1    4    4    0    0 -0.64346852414E+01  0.14085595815E+02  0.54562708334E+01  0.16418893851E+02  0.51100000000E-03 0. -1.
        -12    1    4    4    0    0  0.73076296293E+01  0.15859048376E+02  0.59424037962E+01  0.18445135648E+02  0.00000000000E+00 0.  1.
</event>
<event>
 8    1  0.4042158E-011  0.9118800E+02  0.7816164E-02  0.1184000E+00
        -11   -1    0    0    0    0  0.00000000000E+00  0.00000000000E+00  0.45593999997E+02  0.45594000000E+02  0.51100000000E-03 0. -1.
         11   -1    0    0    0    0 -0.00000000000E+00 -0.00000000000E+00 -0.45593999997E+02  0.45594000000E+02  0.51100000000E-03 0.  1.
         23    2    1    2    0    0  0.00000000000E+00  0.00000000000E+00 -0.71054273576E-14  0.91188000000E+02  0.91188000000E+02 0.  0.
    9900012    2    3    3    0    0 -0.17982117708E+02 -0.93898095750E+01  0.38367910933E+02  0.47787289517E+02  0.20000084223E+02 0.  0.
        -12    1    3    3    0    0  0.17982117708E+02  0.93898095750E+01 -0.38367910933E+02  0.43400710483E+02  0.00000000000E+00 0.  1.
         11    1    4    4    0    0 -0.20472021636E+01  0.49412727314E+00  0.57391703277E+00  0.21827916718E+01  0.51100000000E-03 0. -1.
        -11    1    4    4    0    0 -0.77134715690E+01  0.22382721903E+00  0.28690332971E+02  0.29709980621E+02  0.51100000000E-03 0.  1.
        -12    1    4    4    0    0 -0.82214439750E+01 -0.10107764067E+02  0.91036609287E+01  0.15894517224E+02  0.00000000000E+00 0.  1.
</event>
<event>
 8    1  0.4042158E-011  0.9118800E+02  0.7816164E-02  0.1184000E+00
        -11   -1    0    0    0    0  0.00000000000E+00  0.00000000000E+00  0.45593999997E+02  0.45594000000E+02  0.51100000000E-03 0. -1.
         11   -1    0    0    0    0 -0.00000000000E+00 -0.00000000000E+00 -0.45593999997E+02  0.45594000000E+02  0.51100000000E-03 0.  1.
         23    2    1    2    0    0  0.35527136788E-14  0.00000000000E+00  0.00000000000E+00  0.91188000000E+02  0.91188000000E+02 0.  0.
    9900012    2    3    3    0    0  0.24840127197E+02  0.13096316656E+02  0.33091955789E+02  0.47787274579E+02  0.20000016114E+02 0.  0.
        -12    1    3    3    0    0 -0.24840127197E+02 -0.13096316656E+02 -0.33091955789E+02  0.43400725421E+02  0.00000000000E+00 0.  1.
         11    1    4    4    0    0  0.68847976982E+01  0.12487446416E+02  0.21733376305E+02  0.25993776240E+02  0.51100000000E-03 0. -1.
        -11    1    4    4    0    0  0.54946576764E+01  0.18565937893E+01  0.19112212016E+01  0.61066332969E+01  0.51100000000E-03 0.  1.
        -12    1    4    4    0    0  0.12460671823E+02 -0.12477235486E+01  0.94473582827E+01  0.15686865042E+02  0.00000000000E+00 0.  1.
</event>
<event>
 8    1  0.4042158E-011  0.9118800E+02  0.7816164E-02  0.1184000E+00
        -11   -1    0    0    0    0  0.00000000000E+00  0.00000000000E+00  0.45593999997E+02  0.45594000000E+02  0.51100000000E-03 0. -1.
         11   -1    0    0    0    0 -0.00000000000E+00 -0.00000000000E+00 -0.45593999997E+02  0.45594000000E+02  0.51100000000E-03 0.  1.
         23    2    1    2    0    0  0.00000000000E+00  0.17763568394E-14 -0.35527136788E-14  0.91188000000E+02  0.91188000000E+02 0.  0.
    9900012    2    3    3    0    0  0.27733856452E+02 -0.14996852910E+02  0.29825335405E+02  0.47787273935E+02  0.20000013181E+02 0.  0.
        -12    1    3    3    0    0 -0.27733856452E+02  0.14996852910E+02 -0.29825335405E+02  0.43400726065E+02  0.00000000000E+00 0.  1.
         11    1    4    4    0    0  0.60973627493E+01 -0.83747811845E+01  0.24539110728E+01  0.10645960370E+02  0.51100000000E-03 0. -1.
        -11    1    4    4    0    0  0.60589404678E+01 -0.57322088042E+01  0.45651485123E+01  0.95083941109E+01  0.51100000000E-03 0.  1.
         12    1    4    4    0    0  0.15577553235E+02 -0.88986292114E+00  0.22806275820E+02  0.27632919455E+02  0.00000000000E+00 0. -1.
</event>
<event>
 8    1  0.4042158E-011  0.9118800E+02  0.7816164E-02  0.1184000E+00
        -11   -1    0    0    0    0  0.00000000000E+00  0.00000000000E+00  0.45593999997E+02  0.45594000000E+02  0.51100000000E-03 0. -1.
         11   -1    0    0    0    0 -0.00000000000E+00 -0.00000000000E+00 -0.45593999997E+02  0.45594000000E+02  0.51100000000E-03 0.  1.
         23    2    1    2    0    0  0.00000000000E+00  0.00000000000E+00  0.00000000000E+00  0.91188000000E+02  0.91188000000E+02 0.  0.
    9900012    2    3    3    0    0  0.37742156494E+02  0.90899714546E+01 -0.19404264635E+02  0.47787269085E+02  0.19999991068E+02 0.  0.
         12    1    3    3    0    0 -0.37742156494E+02 -0.90899714546E+01  0.19404264635E+02  0.43400730915E+02  0.00000000000E+00 0. -1.
         11    1    4    4    0    0  0.16827433862E+01 -0.30436373851E+01 -0.29416669677E+00  0.34902561715E+01  0.51100000000E-03 0. -1.
        -11    1    4    4    0    0  0.18608661697E+01  0.45064486280E+00 -0.52552132240E+01  0.55931359705E+01  0.51100000000E-03 0.  1.
         12    1    4    4    0    0  0.34198546939E+02  0.11682963977E+02 -0.13854884714E+02  0.38703876943E+02  0.00000000000E+00 0. -1.
</event>
<event>
 8    1  0.4042158E-011  0.9118800E+02  0.7816164E-02  0.1184000E+00
        -11   -1    0    0    0    0  0.00000000000E+00  0.00000000000E+00  0.45593999997E+02  0.45594000000E+02  0.51100000000E-03 0. -1.
         11   -1    0    0    0    0 -0.00000000000E+00 -0.00000000000E+00 -0.45593999997E+02  0.45594000000E+02  0.51100000000E-03 0.  1.
         23    2    1    2    0    0 -0.17763568394E-14  0.00000000000E+00 -0.71054273576E-14  0.91188000000E+02  0.91188000000E+02 0.  0.
    9900012    2    3    3    0    0 -0.85902892188E+01 -0.11171100520E+02 -0.41049201420E+02  0.47787268521E+02  0.19999988496E+02 0.  0.
         12    1    3    3    0    0  0.85902892188E+01  0.11171100520E+02  0.41049201420E+02  0.43400731479E+02  0.00000000000E+00 0. -1.
         11    1    4    4    0    0 -0.24427456728E+01 -0.12277448957E+02 -0.22147834998E+02  0.25440702716E+02  0.51100000000E-03 0. -1.
        -11    1    4    4    0    0 -0.52593288351E+01 -0.35202866194E+01 -0.14814914328E+02  0.16110078972E+02  0.51100000000E-03 0.  1.
         12    1    4    4    0    0 -0.88821471093E+00  0.46266350560E+01 -0.40864520935E+01  0.62364868337E+01  0.00000000000E+00 0. -1.
</event>
<event>
 8    1  0.4042158E-011  0.9118800E+02  0.7816164E-02  0.1184000E+00
        -11   -1    0    0    0    0  0.00000000000E+00  0.00000000000E+00  0.45593999997E+02  0.45594000000E+02  0.51100000000E-03 0. -1.
         11   -1    0    0    0    0 -0.00000000000E+00 -0.00000000000E+00 -0.45593999997E+02  0.45594000000E+02  0.51100000000E-03 0.  1.
         23    2    1    2    0    0  0.00000000000E+00  0.00000000000E+00  0.00000000000E+00  0.91188000000E+02  0.91188000000E+02 0.  0.
    9900012    2    3    3    0    0  0.31333813177E+02 -0.26171497925E+02 -0.14726458744E+02  0.47787265685E+02  0.19999975566E+02 0.  0.
         12    1    3    3    0    0 -0.31333813177E+02  0.26171497925E+02  0.14726458744E+02  0.43400734315E+02  0.00000000000E+00 0. -1.
         11    1    4    4    0    0  0.53248734051E+01 -0.85634376382E+01 -0.94353588898E+01  0.13809878298E+02  0.51100000000E-03 0. -1.
        -11    1    4    4    0    0  0.53136955209E+01 -0.93009654808E+01  0.11295756272E+01  0.10771223715E+02  0.51100000000E-03 0.  1.
        -12    1    4    4    0    0  0.20695244251E+02 -0.83070948062E+01 -0.64206754819E+01  0.23206163672E+02  0.00000000000E+00 0.  1.
</event>
<event>
 8    1  0.4042158E-011  0.9118800E+02  0.7816164E-02  0.1184000E+00
        -11   -1    0    0    0    0  0.00000000000E+00  0.00000000000E+00  0.45593999997E+02  0.45594000000E+02  0.51100000000E-03 0. -1.
         11   -1    0    0    0    0 -0.00000000000E+00 -0.00000000000E+00 -0.45593999997E+02  0.45594000000E+02  0.51100000000E-03 0.  1.
         23    2    1    2    0    0  0.00000000000E+00  0.11102230246E-15  0.00000000000E+00  0.91188000000E+02  0.91188000000E+02 0.  0.
    9900012    2    3    3    0    0 -0.38367324767E+02 -0.53194636882E+00 -0.20280256399E+02  0.47787269864E+02  0.19999994620E+02 0.  0.
         12    1    3    3    0    0  0.38367324767E+02  0.53194636882E+00  0.20280256399E+02  0.43400730136E+02  0.00000000000E+00 0. -1.
         11    1    4    4    0    0 -0.84257942878E+01 -0.13480743074E+01 -0.12593139119E+02  0.15211787103E+02  0.51100000000E-03 0. -1.
        -11    1    4    4    0    0 -0.17552779210E+02 -0.60455043904E+00 -0.95106202999E+01  0.19972917613E+02  0.51100000000E-03 0.  1.
         12    1    4    4    0    0 -0.12388751270E+02  0.14206783776E+01  0.18235030205E+01  0.12602565149E+02  0.00000000000E+00 0. -1.
</event>
<event>
 8    1  0.4042158E-011  0.9118800E+02  0.7816164E-02  0.1184000E+00
        -11   -1    0    0    0    0  0.00000000000E+00  0.00000000000E+00  0.45593999997E+02  0.45594000000E+02  0.51100000000E-03 0. -1.
         11   -1    0    0    0    0 -0.00000000000E+00 -0.00000000000E+00 -0.45593999997E+02  0.45594000000E+02  0.51100000000E-03 0.  1.
         23    2    1    2    0    0 -0.35527136788E-14  0.00000000000E+00  0.35527136788E-14  0.91188000000E+02  0.91188000000E+02 0.  0.
    9900012    2    3    3    0    0  0.31850886707E+02  0.50625918139E+01  0.29043321773E+02  0.47787270058E+02  0.19999995502E+02 0.  0.
        -12    1    3    3    0    0 -0.31850886707E+02 -0.50625918139E+01 -0.29043321773E+02  0.43400729942E+02  0.00000000000E+00 0.  1.
         11    1    4    4    0    0  0.49154884008E+01  0.68879788342E+01  0.14013524602E+02  0.16370252004E+02  0.51100000000E-03 0.  1.
        -11    1    4    4    0    0  0.37544363030E+01  0.15469145968E+01  0.32261226885E+01  0.51861936510E+01  0.51100000000E-03 0. -1.
         12    1    4    4    0    0  0.23180962003E+02 -0.33723016171E+01  0.11803674483E+02  0.26230824403E+02  0.00000000000E+00 0. -1.
</event>
<event>
 8    1  0.4042158E-011  0.9118800E+02  0.7816164E-02  0.1184000E+00
        -11   -1    0    0    0    0  0.00000000000E+00  0.00000000000E+00  0.45593999997E+02  0.45594000000E+02  0.51100000000E-03 0. -1.
         11   -1    0    0    0    0 -0.00000000000E+00 -0.00000000000E+00 -0.45593999997E+02  0.45594000000E+02  0.51100000000E-03 0.  1.
         23    2    1    2    0    0  0.00000000000E+00  0.00000000000E+00  0.00000000000E+00  0.91188000000E+02  0.91188000000E+02 0.  0.
    9900012    2    3    3    0    0 -0.23803083904E+02  0.27164391102E+02  0.24065160230E+02  0.47787275534E+02  0.20000020471E+02 0.  0.
        -12    1    3    3    0    0  0.23803083904E+02 -0.27164391102E+02 -0.24065160230E+02  0.43400724466E+02  0.00000000000E+00 0.  1.
         11    1    4    4    0    0 -0.41094598199E+00  0.10422487717E+02  0.11749887173E+01  0.10496557796E+02  0.51100000000E-03 0. -1.
        -11    1    4    4    0    0 -0.35572028283E+01  0.14344640527E+01  0.58321291459E+01  0.69803373641E+01  0.51100000000E-03 0.  1.
         12    1    4    4    0    0 -0.19834935093E+02  0.15307439332E+02  0.17058042367E+02  0.30310380375E+02  0.00000000000E+00 0. -1.
</event>
<event>
 8    1  0.4042158E-011  0.9118800E+02  0.7816164E-02  0.1184000E+00
        -11   -1    0    0    0    0  0.00000000000E+00  0.00000000000E+00  0.45593999997E+02  0.45594000000E+02  0.51100000000E-03 0.  1.
         11   -1    0    0    0    0 -0.00000000000E+00 -0.00000000000E+00 -0.45593999997E+02  0.45594000000E+02  0.51100000000E-03 0. -1.
         23    2    1    2    0    0  0.00000000000E+00  0.00000000000E+00 -0.88817841970E-15  0.91188000000E+02  0.91188000000E+02 0.  0.
    9900012    2    3    3    0    0  0.64857367109E+01 -0.42235145705E+02  0.75991586130E+01  0.47787314233E+02  0.20000196913E+02 0.  0.
        -12    1    3    3    0    0 -0.64857367109E+01  0.42235145705E+02 -0.75991586130E+01  0.43400685767E+02  0.00000000000E+00 0.  1.
         11    1    4    4    0    0  0.64470710412E+01 -0.92622140946E+01  0.28494277365E+01  0.11639268604E+02  0.51100000000E-03 0. -1.
        -11    1    4    4    0    0 -0.97962468964E+00 -0.12865565845E+02  0.87914910528E+01  0.15613224018E+02  0.51100000000E-03 0.  1.
         12    1    4    4    0    0  0.10182903593E+01 -0.20107365765E+02 -0.40417601763E+01  0.20534821611E+02  0.00000000000E+00 0. -1.
</event>
<event>
 8    1  0.4042158E-011  0.9118800E+02  0.7816164E-02  0.1184000E+00
        -11   -1    0    0    0    0  0.00000000000E+00  0.00000000000E+00  0.45593999997E+02  0.45594000000E+02  0.51100000000E-03 0.  1.
         11   -1    0    0    0    0 -0.00000000000E+00 -0.00000000000E+00 -0.45593999997E+02  0.45594000000E+02  0.51100000000E-03 0. -1.
         23    2    1    2    0    0  0.00000000000E+00  0.00000000000E+00  0.00000000000E+00  0.91188000000E+02  0.91188000000E+02 0.  0.
    9900012    2    3    3    0    0 -0.10384698845E+02  0.37490692220E+02  0.19241399746E+02  0.47787246120E+02  0.19999886358E+02 0.  0.
        -12    1    3    3    0    0  0.10384698845E+02 -0.37490692220E+02 -0.19241399746E+02  0.43400753880E+02  0.00000000000E+00 0.  1.
         11    1    4    4    0    0  0.39462310520E+01  0.14294350736E+02  0.33614455265E+01  0.15205279306E+02  0.51100000000E-03 0. -1.
        -11    1    4    4    0    0 -0.17346381816E+01  0.97251396912E+01  0.70363748599E+01  0.12128391611E+02  0.51100000000E-03 0.  1.
        -12    1    4    4    0    0 -0.12596291715E+02  0.13471201792E+02  0.88435793594E+01  0.20453575203E+02  0.00000000000E+00 0.  1.
</event>
<event>
 8    1  0.4042158E-011  0.9118800E+02  0.7816164E-02  0.1184000E+00
        -11   -1    0    0    0    0  0.00000000000E+00  0.00000000000E+00  0.45593999997E+02  0.45594000000E+02  0.51100000000E-03 0. -1.
         11   -1    0    0    0    0 -0.00000000000E+00 -0.00000000000E+00 -0.45593999997E+02  0.45594000000E+02  0.51100000000E-03 0.  1.
         23    2    1    2    0    0 -0.71054273576E-14  0.00000000000E+00 -0.35527136788E-14  0.91188000000E+02  0.91188000000E+02 0.  0.
    9900012    2    3    3    0    0 -0.32023524503E+02  0.81938180689E+01  0.28124341272E+02  0.47787270189E+02  0.19999996100E+02 0.  0.
        -12    1    3    3    0    0  0.32023524503E+02 -0.81938180689E+01 -0.28124341272E+02  0.43400729811E+02  0.00000000000E+00 0.  1.
         11    1    4    4    0    0 -0.27717326047E+01 -0.23325645895E+01  0.22007419832E+01  0.42387055493E+01  0.51100000000E-03 0. -1.
        -11    1    4    4    0    0 -0.96085359564E+01 -0.27697656824E+01  0.13416183073E+02  0.16732887787E+02  0.51100000000E-03 0.  1.
         12    1    4    4    0    0 -0.19643255942E+02  0.13296148341E+02  0.12507416215E+02  0.26815676853E+02  0.00000000000E+00 0. -1.
</event>
<event>
 8    1  0.4042158E-011  0.9118800E+02  0.7816164E-02  0.1184000E+00
        -11   -1    0    0    0    0  0.00000000000E+00  0.00000000000E+00  0.45593999997E+02  0.45594000000E+02  0.51100000000E-03 0. -1.
         11   -1    0    0    0    0 -0.00000000000E+00 -0.00000000000E+00 -0.45593999997E+02  0.45594000000E+02  0.51100000000E-03 0.  1.
         23    2    1    2    0    0  0.00000000000E+00  0.71054273576E-14 -0.35527136788E-14  0.91188000000E+02  0.91188000000E+02 0.  0.
    9900012    2    3    3    0    0  0.13871977006E+02 -0.35510566844E+02  0.20741110563E+02  0.47787242276E+02  0.19999868833E+02 0.  0.
        -12    1    3    3    0    0 -0.13871977006E+02  0.35510566844E+02 -0.20741110563E+02  0.43400757724E+02  0.00000000000E+00 0.  1.
         11    1    4    4    0    0  0.50309833064E+00 -0.23173038479E+01 -0.21712120609E+01  0.32151465174E+01  0.51100000000E-03 0. -1.
        -11    1    4    4    0    0 -0.20356271029E+01 -0.51374406323E+00  0.14157692148E+01  0.25322151163E+01  0.51100000000E-03 0.  1.
         12    1    4    4    0    0  0.15404505779E+02 -0.32679518933E+02  0.21496553409E+02  0.42039880642E+02  0.00000000000E+00 0. -1.
</event>
<event>
 8    1  0.4042158E-011  0.9118800E+02  0.7816164E-02  0.1184000E+00
        -11   -1    0    0    0    0  0.00000000000E+00  0.00000000000E+00  0.45593999997E+02  0.45594000000E+02  0.51100000000E-03 0. -1.
         11   -1    0    0    0    0 -0.00000000000E+00 -0.00000000000E+00 -0.45593999997E+02  0.45594000000E+02  0.51100000000E-03 0.  1.
         23    2    1    2    0    0  0.17763568394E-14  0.00000000000E+00  0.35527136788E-14  0.91188000000E+02  0.91188000000E+02 0.  0.
    9900012    2    3    3    0    0  0.14367621268E+02 -0.37037160393E+02  0.17476928739E+02  0.47787276169E+02  0.20000023366E+02 0.  0.
        -12    1    3    3    0    0 -0.14367621268E+02  0.37037160393E+02 -0.17476928739E+02  0.43400723831E+02  0.00000000000E+00 0.  1.
         11    1    4    4    0    0  0.62446762602E+01 -0.12080254494E+02  0.34540509179E+01  0.14030644969E+02  0.51100000000E-03 0. -1.
        -11    1    4    4    0    0  0.11039428359E+02 -0.20390701245E+02  0.15795219777E+02  0.28055991228E+02  0.51100000000E-03 0.  1.
        -12    1    4    4    0    0 -0.29164833513E+01 -0.45662046545E+01 -0.17723419555E+01  0.57006399722E+01  0.00000000000E+00 0.  1.
</event>
<event>
 8    1  0.4042158E-011  0.9118800E+02  0.7816164E-02  0.1184000E+00
        -11   -1    0    0    0    0  0.00000000000E+00  0.00000000000E+00  0.45593999997E+02  0.45594000000E+02  0.51100000000E-03 0.  1.
         11   -1    0    0    0    0 -0.00000000000E+00 -0.00000000000E+00 -0.45593999997E+02  0.45594000000E+02  0.51100000000E-03 0. -1.
         23    2    1    2    0    0  0.00000000000E+00  0.00000000000E+00  0.00000000000E+00  0.91188000000E+02  0.91188000000E+02 0.  0.
    9900012    2    3    3    0    0 -0.34121867830E+02  0.23751815987E+02 -0.12456837904E+02  0.47787269160E+02  0.19999991407E+02 0.  0.
         12    1    3    3    0    0  0.34121867830E+02 -0.23751815987E+02  0.12456837904E+02  0.43400730840E+02  0.00000000000E+00 0. -1.
         11    1    4    4    0    0 -0.35005657198E+01  0.11497056257E+01  0.20569427218E+01  0.42198100675E+01  0.51100000000E-03 0. -1.
        -11    1    4    4    0    0 -0.17258272666E+01 -0.23397643941E+01 -0.10625368572E+01  0.30954744399E+01  0.51100000000E-03 0.  1.
         12    1    4    4    0    0 -0.28895474844E+02  0.24941874755E+02 -0.13451243769E+02  0.40471984652E+02  0.00000000000E+00 0. -1.
</event>
<event>
 8    1  0.4042158E-011  0.9118800E+02  0.7816164E-02  0.1184000E+00
        -11   -1    0    0    0    0  0.00000000000E+00  0.00000000000E+00  0.45593999997E+02  0.45594000000E+02  0.51100000000E-03 0. -1.
         11   -1    0    0    0    0 -0.00000000000E+00 -0.00000000000E+00 -0.45593999997E+02  0.45594000000E+02  0.51100000000E-03 0.  1.
         23    2    1    2    0    0  0.00000000000E+00 -0.35527136788E-14  0.00000000000E+00  0.91188000000E+02  0.91188000000E+02 0.  0.
    9900012    2    3    3    0    0  0.65902111711E+01 -0.18537496940E+02 -0.38685314089E+02  0.47787271869E+02  0.20000003762E+02 0.  0.
         12    1    3    3    0    0 -0.65902111711E+01  0.18537496940E+02  0.38685314089E+02  0.43400728131E+02  0.00000000000E+00 0. -1.
         11    1    4    4    0    0 -0.22568587782E+01  0.13024019573E+01 -0.32108765319E+01  0.41351409610E+01  0.51100000000E-03 0. -1.
        -11    1    4    4    0    0 -0.12026759073E+01 -0.13142391367E+02 -0.20980253393E+02  0.24785881321E+02  0.51100000000E-03 0.  1.
         12    1    4    4    0    0  0.10049745857E+02 -0.66975075310E+01 -0.14494184164E+02  0.18866249587E+02  0.00000000000E+00 0. -1.
</event>
<event>
 8    1  0.4042158E-011  0.9118800E+02  0.7816164E-02  0.1184000E+00
        -11   -1    0    0    0    0  0.00000000000E+00  0.00000000000E+00  0.45593999997E+02  0.45594000000E+02  0.51100000000E-03 0. -1.
         11   -1    0    0    0    0 -0.00000000000E+00 -0.00000000000E+00 -0.45593999997E+02  0.45594000000E+02  0.51100000000E-03 0.  1.
         23    2    1    2    0    0  0.35527136788E-14  0.00000000000E+00 -0.71054273576E-14  0.91188000000E+02  0.91188000000E+02 0.  0.
    9900012    2    3    3    0    0  0.19346610804E+02 -0.19094296507E+02 -0.33834034299E+02  0.47787246716E+02  0.19999889076E+02 0.  0.
         12    1    3    3    0    0 -0.19346610804E+02  0.19094296507E+02  0.33834034299E+02  0.43400753284E+02  0.00000000000E+00 0. -1.
         11    1    4    4    0    0  0.10131571587E+02 -0.14393248726E+02 -0.26901738854E+02  0.32148373293E+02  0.51100000000E-03 0. -1.
        -11    1    4    4    0    0  0.83502309567E+01 -0.19441182827E+01 -0.87299392596E+01  0.12235922224E+02  0.51100000000E-03 0.  1.
         12    1    4    4    0    0  0.86480825940E+00 -0.27569294979E+01  0.17976438145E+01  0.34029511995E+01  0.00000000000E+00 0. -1.
</event>
<event>
 8    1  0.4042158E-011  0.9118800E+02  0.7816164E-02  0.1184000E+00
        -11   -1    0    0    0    0  0.00000000000E+00  0.00000000000E+00  0.45593999997E+02  0.45594000000E+02  0.51100000000E-03 0. -1.
         11   -1    0    0    0    0 -0.00000000000E+00 -0.00000000000E+00 -0.45593999997E+02  0.45594000000E+02  0.51100000000E-03 0.  1.
         23    2    1    2    0    0  0.00000000000E+00 -0.35527136788E-14  0.00000000000E+00  0.91188000000E+02  0.91188000000E+02 0.  0.
    9900012    2    3    3    0    0  0.61864624352E+01 -0.30510989863E+02  0.30239545637E+02  0.47787274888E+02  0.20000017526E+02 0.  0.
        -12    1    3    3    0    0 -0.61864624352E+01  0.30510989863E+02 -0.30239545637E+02  0.43400725112E+02  0.00000000000E+00 0.  1.
         11    1    4    4    0    0 -0.12473069908E+01 -0.14025624047E+02  0.16490936177E+02  0.21684669260E+02  0.51100000000E-03 0. -1.
        -11    1    4    4    0    0  0.61065208031E+01 -0.18250427486E+02  0.14111957272E+02  0.23864514201E+02  0.51100000000E-03 0.  1.
         12    1    4    4    0    0  0.13272486229E+01  0.17650616700E+01 -0.36334781224E+00  0.22380914277E+01  0.00000000000E+00 0. -1.
</event>
<event>
 8    1  0.4042158E-011  0.9118800E+02  0.7816164E-02  0.1184000E+00
        -11   -1    0    0    0    0  0.00000000000E+00  0.00000000000E+00  0.45593999997E+02  0.45594000000E+02  0.51100000000E-03 0. -1.
         11   -1    0    0    0    0 -0.00000000000E+00 -0.00000000000E+00 -0.45593999997E+02  0.45594000000E+02  0.51100000000E-03 0.  1.
         23    2    1    2    0    0 -0.88817841970E-15  0.00000000000E+00  0.35527136788E-14  0.91188000000E+02  0.91188000000E+02 0.  0.
    9900012    2    3    3    0    0  0.28060233673E+01 -0.32903024407E+02 -0.28162741616E+02  0.47787276532E+02  0.20000025019E+02 0.  0.
         12    1    3    3    0    0 -0.28060233673E+01  0.32903024407E+02  0.28162741616E+02  0.43400723468E+02  0.00000000000E+00 0. -1.
         11    1    4    4    0    0  0.66105256863E+01 -0.84863096227E+01 -0.10824419223E+01  0.10811483785E+02  0.51100000000E-03 0. -1.
        -11    1    4    4    0    0 -0.75501036119E+00 -0.10036005892E+02 -0.14361044068E+02  0.17536563001E+02  0.51100000000E-03 0.  1.
        -12    1    4    4    0    0 -0.30494919579E+01 -0.14380708892E+02 -0.12719255625E+02  0.19439229745E+02  0.00000000000E+00 0.  1.
</event>
<event>
 8    1  0.4042158E-011  0.9118800E+02  0.7816164E-02  0.1184000E+00
        -11   -1    0    0    0    0  0.00000000000E+00  0.00000000000E+00  0.45593999997E+02  0.45594000000E+02  0.51100000000E-03 0. -1.
         11   -1    0    0    0    0 -0.00000000000E+00 -0.00000000000E+00 -0.45593999997E+02  0.45594000000E+02  0.51100000000E-03 0.  1.
         23    2    1    2    0    0  0.00000000000E+00  0.00000000000E+00 -0.71054273576E-14  0.91188000000E+02  0.91188000000E+02 0.  0.
    9900012    2    3    3    0    0 -0.11126296637E+02  0.16404544473E+02 -0.38609853890E+02  0.47787258374E+02  0.19999942232E+02 0.  0.
         12    1    3    3    0    0  0.11126296637E+02 -0.16404544473E+02  0.38609853890E+02  0.43400741626E+02  0.00000000000E+00 0. -1.
         11    1    4    4    0    0 -0.17408577261E+01  0.11351387472E+00  0.13768769520E+01  0.22224449204E+01  0.51100000000E-03 0. -1.
        -11    1    4    4    0    0  0.19744459736E+01  0.64160590066E+01 -0.10586063389E+02  0.12535110227E+02  0.51100000000E-03 0.  1.
        -12    1    4    4    0    0 -0.11359884885E+02  0.98749715915E+01 -0.29400667454E+02  0.33029703227E+02  0.00000000000E+00 0.  1.
</event>
<event>
 8    1  0.4042158E-011  0.9118800E+02  0.7816164E-02  0.1184000E+00
        -11   -1    0    0    0    0  0.00000000000E+00  0.00000000000E+00  0.45593999997E+02  0.45594000000E+02  0.51100000000E-03 0. -1.
         11   -1    0    0    0    0 -0.00000000000E+00 -0.00000000000E+00 -0.45593999997E+02  0.45594000000E+02  0.51100000000E-03 0.  1.
         23    2    1    2    0    0  0.00000000000E+00  0.00000000000E+00  0.00000000000E+00  0.91188000000E+02  0.91188000000E+02 0.  0.
    9900012    2    3    3    0    0  0.57308888370E+01  0.32079475828E+02  0.28665082179E+02  0.47787276589E+02  0.20000025278E+02 0.  0.
        -12    1    3    3    0    0 -0.57308888370E+01 -0.32079475828E+02 -0.28665082179E+02  0.43400723411E+02  0.00000000000E+00 0.  1.
         11    1    4    4    0    0 -0.12606356961E+01  0.19707923901E+02  0.18875599411E+02  0.27318120730E+02  0.51100000000E-03 0. -1.
        -11    1    4    4    0    0  0.29912111361E+01  0.13482428047E+02  0.71760226831E+01  0.15563370840E+02  0.51100000000E-03 0.  1.
        -12    1    4    4    0    0  0.40003133970E+01 -0.11108761196E+01  0.26134600856E+01  0.49057850184E+01  0.00000000000E+00 0.  1.
</event>
<event>
 8    1  0.4042158E-011  0.9118800E+02  0.7816164E-02  0.1184000E+00
        -11   -1    0    0    0    0  0.00000000000E+00  0.00000000000E+00  0.45593999997E+02  0.45594000000E+02  0.51100000000E-03 0. -1.
         11   -1    0    0    0    0 -0.00000000000E+00 -0.00000000000E+00 -0.45593999997E+02  0.45594000000E+02  0.51100000000E-03 0.  1.
         23    2    1    2    0    0  0.44408920985E-15 -0.71054273576E-14 -0.35527136788E-14  0.91188000000E+02  0.91188000000E+02 0.  0.
    9900012    2    3    3    0    0 -0.30737862286E+01  0.38707153500E+02  0.19388972728E+02  0.47787260867E+02  0.19999953597E+02 0.  0.
        -12    1    3    3    0    0  0.30737862286E+01 -0.38707153500E+02 -0.19388972728E+02  0.43400739133E+02  0.00000000000E+00 0.  1.
         11    1    4    4    0    0  0.25267262567E+01  0.18849370445E+02  0.27564739139E+01  0.19216692235E+02  0.51100000000E-03 0. -1.
        -11    1    4    4    0    0 -0.61116501410E+00  0.79488293611E+01  0.61372492481E+00  0.79958782776E+01  0.51100000000E-03 0.  1.
        -12    1    4    4    0    0 -0.49893474712E+01  0.11908953694E+02  0.16018773889E+02  0.20574690354E+02  0.00000000000E+00 0.  1.
</event>
<event>
 8    1  0.4042158E-011  0.9118800E+02  0.7816164E-02  0.1184000E+00
        -11   -1    0    0    0    0  0.00000000000E+00  0.00000000000E+00  0.45593999997E+02  0.45594000000E+02  0.51100000000E-03 0. -1.
         11   -1    0    0    0    0 -0.00000000000E+00 -0.00000000000E+00 -0.45593999997E+02  0.45594000000E+02  0.51100000000E-03 0.  1.
         23    2    1    2    0    0  0.00000000000E+00  0.00000000000E+00  0.35527136788E-14  0.91188000000E+02  0.91188000000E+02 0.  0.
    9900012    2    3    3    0    0 -0.28510440297E+02  0.28080012007E+02  0.16801511978E+02  0.47787273220E+02  0.20000009921E+02 0.  0.
        -12    1    3    3    0    0  0.28510440297E+02 -0.28080012007E+02 -0.16801511978E+02  0.43400726780E+02  0.00000000000E+00 0.  1.
         11    1    4    4    0    0 -0.98894415008E+01  0.67969161179E+01  0.93056469818E+01  0.15185328048E+02  0.51100000000E-03 0. -1.
        -11    1    4    4    0    0 -0.10577781536E+02  0.45569174207E+01  0.80202741936E+01  0.14034947702E+02  0.51100000000E-03 0.  1.
        -12    1    4    4    0    0 -0.80432172595E+01  0.16726178469E+02 -0.52440919706E+00  0.18566997470E+02  0.00000000000E+00 0.  1.
</event>
<event>
 8    1  0.4042158E-011  0.9118800E+02  0.7816164E-02  0.1184000E+00
        -11   -1    0    0    0    0  0.00000000000E+00  0.00000000000E+00  0.45593999997E+02  0.45594000000E+02  0.51100000000E-03 0. -1.
         11   -1    0    0    0    0 -0.00000000000E+00 -0.00000000000E+00 -0.45593999997E+02  0.45594000000E+02  0.51100000000E-03 0.  1.
         23    2    1    2    0    0  0.00000000000E+00  0.00000000000E+00  0.00000000000E+00  0.91188000000E+02  0.91188000000E+02 0.  0.
    9900012    2    3    3    0    0  0.13252637096E+02 -0.11695730134E+02  0.39638373914E+02  0.47787272127E+02  0.20000004935E+02 0.  0.
        -12    1    3    3    0    0 -0.13252637096E+02  0.11695730134E+02 -0.39638373914E+02  0.43400727873E+02  0.00000000000E+00 0.  1.
         11    1    4    4    0    0  0.34011860468E+01  0.35935865424E+01  0.18722556777E+02  0.19365331479E+02  0.51100000000E-03 0. -1.
        -11    1    4    4    0    0  0.31341799616E+01 -0.17850535933E+01  0.16824048338E+01  0.39799480711E+01  0.51100000000E-03 0.  1.
        -12    1    4    4    0    0  0.67172710879E+01 -0.13504263083E+02  0.19233412303E+02  0.24441992576E+02  0.00000000000E+00 0.  1.
</event>
<event>
 8    1  0.4042158E-011  0.9118800E+02  0.7816164E-02  0.1184000E+00
        -11   -1    0    0    0    0  0.00000000000E+00  0.00000000000E+00  0.45593999997E+02  0.45594000000E+02  0.51100000000E-03 0. -1.
         11   -1    0    0    0    0 -0.00000000000E+00 -0.00000000000E+00 -0.45593999997E+02  0.45594000000E+02  0.51100000000E-03 0.  1.
         23    2    1    2    0    0  0.35527136788E-14  0.88817841970E-15  0.00000000000E+00  0.91188000000E+02  0.91188000000E+02 0.  0.
    9900012    2    3    3    0    0  0.12734575269E+02  0.27565206744E+01  0.41398777957E+02  0.47787232382E+02  0.19999823721E+02 0.  0.
        -12    1    3    3    0    0 -0.12734575269E+02 -0.27565206744E+01 -0.41398777957E+02  0.43400767618E+02  0.00000000000E+00 0.  1.
         11    1    4    4    0    0  0.12795397829E+02  0.73012338059E+01  0.22594420586E+02  0.26972913498E+02  0.51100000000E-03 0. -1.
        -11    1    4    4    0    0  0.37756945811E+01 -0.28051204842E+01  0.10345612793E+02  0.11364694225E+02  0.51100000000E-03 0.  1.
         12    1    4    4    0    0 -0.38365171415E+01 -0.17395926473E+01  0.84587445779E+01  0.94496246587E+01  0.00000000000E+00 0. -1.
</event>
<event>
 8    1  0.4042158E-011  0.9118800E+02  0.7816164E-02  0.1184000E+00
        -11   -1    0    0    0    0  0.00000000000E+00  0.00000000000E+00  0.45593999997E+02  0.45594000000E+02  0.51100000000E-03 0.  1.
         11   -1    0    0    0    0 -0.00000000000E+00 -0.00000000000E+00 -0.45593999997E+02  0.45594000000E+02  0.51100000000E-03 0. -1.
         23    2    1    2    0    0  0.00000000000E+00  0.00000000000E+00  0.00000000000E+00  0.91188000000E+02  0.91188000000E+02 0.  0.
    9900012    2    3    3    0    0  0.80074680394E+01  0.42609492523E+02 -0.19839536412E+01  0.47787257270E+02  0.19999937197E+02 0.  0.
         12    1    3    3    0    0 -0.80074680394E+01 -0.42609492523E+02  0.19839536412E+01  0.43400742730E+02  0.00000000000E+00 0. -1.
         11    1    4    4    0    0 -0.25931776766E+01  0.50665921060E+01 -0.27189012119E+01  0.63077214660E+01  0.51100000000E-03 0. -1.
        -11    1    4    4    0    0  0.30365671041E+01  0.31404799312E+02 -0.10842711797E+01  0.31569887613E+02  0.51100000000E-03 0.  1.
         12    1    4    4    0    0  0.75640786119E+01  0.61381011046E+01  0.18192187504E+01  0.99096481915E+01  0.00000000000E+00 0. -1.
</event>
<event>
 8    1  0.4042158E-011  0.9118800E+02  0.7816164E-02  0.1184000E+00
        -11   -1    0    0    0    0  0.00000000000E+00  0.00000000000E+00  0.45593999997E+02  0.45594000000E+02  0.51100000000E-03 0. -1.
         11   -1    0    0    0    0 -0.00000000000E+00 -0.00000000000E+00 -0.45593999997E+02  0.45594000000E+02  0.51100000000E-03 0.  1.
         23    2    1    2    0    0  0.00000000000E+00  0.00000000000E+00 -0.71054273576E-14  0.91188000000E+02  0.91188000000E+02 0.  0.
    9900012    2    3    3    0    0 -0.16976227637E+02 -0.99913066240E+01 -0.38673048731E+02  0.47787271769E+02  0.20000003302E+02 0.  0.
         12    1    3    3    0    0  0.16976227637E+02  0.99913066240E+01  0.38673048731E+02  0.43400728231E+02  0.00000000000E+00 0. -1.
         11    1    4    4    0    0 -0.88126345546E+01 -0.22563584514E+01 -0.44717285402E+01  0.10136569324E+02  0.51100000000E-03 0. -1.
        -11    1    4    4    0    0  0.14953298391E+00  0.74919865790E+00  0.53958941584E+00  0.93531585098E+00  0.51100000000E-03 0.  1.
        -12    1    4    4    0    0 -0.83131260666E+01 -0.84841468305E+01 -0.34740909607E+02  0.36715386594E+02  0.00000000000E+00 0.  1.
</event>
<event>
 8    1  0.4042158E-011  0.9118800E+02  0.7816164E-02  0.1184000E+00
        -11   -1    0    0    0    0  0.00000000000E+00  0.00000000000E+00  0.45593999997E+02  0.45594000000E+02  0.51100000000E-03 0. -1.
         11   -1    0    0    0    0 -0.00000000000E+00 -0.00000000000E+00 -0.45593999997E+02  0.45594000000E+02  0.51100000000E-03 0.  1.
         23    2    1    2    0    0  0.00000000000E+00  0.35527136788E-14  0.00000000000E+00  0.91188000000E+02  0.91188000000E+02 0.  0.
    9900012    2    3    3    0    0 -0.16049544856E+02 -0.25310730160E+02  0.31391119714E+02  0.47787270188E+02  0.19999996095E+02 0.  0.
        -12    1    3    3    0    0  0.16049544856E+02  0.25310730160E+02 -0.31391119714E+02  0.43400729812E+02  0.00000000000E+00 0.  1.
         11    1    4    4    0    0 -0.18996919697E+01  0.15448493995E+01  0.68993125945E+01  0.73209223315E+01  0.51100000000E-03 0. -1.
        -11    1    4    4    0    0 -0.10480631343E+01 -0.26431082163E+01  0.77268235788E+01  0.82333626336E+01  0.51100000000E-03 0.  1.
        -12    1    4    4    0    0 -0.13101789752E+02 -0.24212471344E+02  0.16764983541E+02  0.32232985223E+02  0.00000000000E+00 0.  1.
</event>
<event>
 8    1  0.4042158E-011  0.9118800E+02  0.7816164E-02  0.1184000E+00
        -11   -1    0    0    0    0  0.00000000000E+00  0.00000000000E+00  0.45593999997E+02  0.45594000000E+02  0.51100000000E-03 0. -1.
         11   -1    0    0    0    0 -0.00000000000E+00 -0.00000000000E+00 -0.45593999997E+02  0.45594000000E+02  0.51100000000E-03 0.  1.
         23    2    1    2    0    0  0.00000000000E+00  0.00000000000E+00  0.00000000000E+00  0.91188000000E+02  0.91188000000E+02 0.  0.
    9900012    2    3    3    0    0  0.13306954141E+02  0.30411338333E+02  0.27958862701E+02  0.47787279600E+02  0.20000039008E+02 0.  0.
        -12    1    3    3    0    0 -0.13306954141E+02 -0.30411338333E+02 -0.27958862701E+02  0.43400720400E+02  0.00000000000E+00 0.  1.
         11    1    4    4    0    0  0.12954208949E+02  0.17497621267E+02  0.23424174433E+02  0.31979215557E+02  0.51100000000E-03 0. -1.
        -11    1    4    4    0    0 -0.18561869291E+00 -0.10535454475E+01  0.81242327725E+00  0.13432960030E+01  0.51100000000E-03 0.  1.
         12    1    4    4    0    0  0.53836388441E+00  0.13967262514E+02  0.37222649906E+01  0.14464768040E+02  0.00000000000E+00 0. -1.
</event>
<event>
 8    1  0.4042158E-011  0.9118800E+02  0.7816164E-02  0.1184000E+00
        -11   -1    0    0    0    0  0.00000000000E+00  0.00000000000E+00  0.45593999997E+02  0.45594000000E+02  0.51100000000E-03 0. -1.
         11   -1    0    0    0    0 -0.00000000000E+00 -0.00000000000E+00 -0.45593999997E+02  0.45594000000E+02  0.51100000000E-03 0.  1.
         23    2    1    2    0    0  0.00000000000E+00  0.44408920985E-15 -0.88817841970E-15  0.91188000000E+02  0.91188000000E+02 0.  0.
    9900012    2    3    3    0    0 -0.43186328909E+02  0.14524828023E+01 -0.40563893949E+01  0.47787274133E+02  0.20000014080E+02 0.  0.
         12    1    3    3    0    0  0.43186328909E+02 -0.14524828023E+01  0.40563893949E+01  0.43400725867E+02  0.00000000000E+00 0. -1.
         11    1    4    4    0    0 -0.62824709890E+01  0.32274886323E+01  0.57704442020E+01  0.91205345868E+01  0.51100000000E-03 0. -1.
        -11    1    4    4    0    0  0.14625197293E+00  0.20287110800E+00 -0.23707645114E+00  0.34460387528E+00  0.51100000000E-03 0.  1.
        -12    1    4    4    0    0 -0.37050109893E+02 -0.19778769380E+01 -0.95897571458E+01  0.38322135670E+02  0.00000000000E+00 0.  1.
</event>
<event>
 8    1  0.4042158E-011  0.9118800E+02  0.7816164E-02  0.1184000E+00
        -11   -1    0    0    0    0  0.00000000000E+00  0.00000000000E+00  0.45593999997E+02  0.45594000000E+02  0.51100000000E-03 0. -1.
         11   -1    0    0    0    0 -0.00000000000E+00 -0.00000000000E+00 -0.45593999997E+02  0.45594000000E+02  0.51100000000E-03 0.  1.
         23    2    1    2    0    0  0.00000000000E+00 -0.10338951917E-14  0.00000000000E+00  0.91188000000E+02  0.91188000000E+02 0.  0.
    9900012    2    3    3    0    0  0.24835246856E+02 -0.48756745539E-02 -0.35592607356E+02  0.47787271797E+02  0.20000003432E+02 0.  0.
         12    1    3    3    0    0 -0.24835246856E+02  0.48756745539E-02  0.35592607356E+02  0.43400728203E+02  0.00000000000E+00 0. -1.
         11    1    4    4    0    0  0.10481981884E+02 -0.69577736128E+01 -0.14795977024E+02  0.19421727375E+02  0.51100000000E-03 0. -1.
        -11    1    4    4    0    0  0.66364448702E+01  0.30718904193E+00 -0.15549394249E+02  0.16909181748E+02  0.51100000000E-03 0.  1.
        -12    1    4    4    0    0  0.77168201019E+01  0.66457088964E+01 -0.52472360824E+01  0.11456362674E+02  0.00000000000E+00 0.  1.
</event>
<event>
 8    1  0.4042158E-011  0.9118800E+02  0.7816164E-02  0.1184000E+00
        -11   -1    0    0    0    0  0.00000000000E+00  0.00000000000E+00  0.45593999997E+02  0.45594000000E+02  0.51100000000E-03 0. -1.
         11   -1    0    0    0    0 -0.00000000000E+00 -0.00000000000E+00 -0.45593999997E+02  0.45594000000E+02  0.51100000000E-03 0.  1.
         23    2    1    2    0    0 -0.13322676296E-14  0.00000000000E+00  0.00000000000E+00  0.91188000000E+02  0.91188000000E+02 0.  0.
    9900012    2    3    3    0    0  0.33723594429E+01  0.53928605499E+01 -0.42932125463E+02  0.47787272473E+02  0.20000006514E+02 0.  0.
         12    1    3    3    0    0 -0.33723594429E+01 -0.53928605499E+01  0.42932125463E+02  0.43400727527E+02  0.00000000000E+00 0. -1.
         11    1    4    4    0    0  0.12081025400E+01  0.54931640331E+00  0.18278779607E+00  0.13396536484E+01  0.51100000000E-03 0. -1.
        -11    1    4    4    0    0  0.91523202095E+01  0.31905640628E+01 -0.19682407091E+02  0.21939503490E+02  0.51100000000E-03 0.  1.
         12    1    4    4    0    0 -0.69880633065E+01  0.16529800837E+01 -0.23432506168E+02  0.24508115334E+02  0.00000000000E+00 0. -1.
</event>
<event>
 8    1  0.4042158E-011  0.9118800E+02  0.7816164E-02  0.1184000E+00
        -11   -1    0    0    0    0  0.00000000000E+00  0.00000000000E+00  0.45593999997E+02  0.45594000000E+02  0.51100000000E-03 0. -1.
         11   -1    0    0    0    0 -0.00000000000E+00 -0.00000000000E+00 -0.45593999997E+02  0.45594000000E+02  0.51100000000E-03 0.  1.
         23    2    1    2    0    0  0.00000000000E+00  0.00000000000E+00 -0.35527136788E-14  0.91188000000E+02  0.91188000000E+02 0.  0.
    9900012    2    3    3    0    0 -0.22062345834E+02 -0.20348621789E+02 -0.31349797991E+02  0.47787270208E+02  0.19999996185E+02 0.  0.
         12    1    3    3    0    0  0.22062345834E+02  0.20348621789E+02  0.31349797991E+02  0.43400729792E+02  0.00000000000E+00 0. -1.
         11    1    4    4    0    0 -0.13477909409E+02 -0.13448516091E+02 -0.11854432468E+02  0.22428646782E+02  0.51100000000E-03 0. -1.
        -11    1    4    4    0    0  0.44322534095E-01 -0.22978950885E+01  0.11085274871E+01  0.25516895923E+01  0.51100000000E-03 0.  1.
        -12    1    4    4    0    0 -0.86287589592E+01 -0.46022106091E+01 -0.20603893011E+02  0.22806933833E+02  0.00000000000E+00 0.  1.
</event>
<event>
 8    1  0.4042158E-011  0.9118800E+02  0.7816164E-02  0.1184000E+00
        -11   -1    0    0    0    0  0.00000000000E+00  0.00000000000E+00  0.45593999997E+02  0.45594000000E+02  0.51100000000E-03 0. -1.
         11   -1    0    0    0    0 -0.00000000000E+00 -0.00000000000E+00 -0.45593999997E+02  0.45594000000E+02  0.51100000000E-03 0.  1.
         23    2    1    2    0    0 -0.17763568394E-14  0.17763568394E-14  0.00000000000E+00  0.91188000000E+02  0.91188000000E+02 0.  0.
    9900012    2    3    3    0    0  0.11367503081E+02  0.84999498159E+01  0.41014069246E+02  0.47787272480E+02  0.20000006545E+02 0.  0.
        -12    1    3    3    0    0 -0.11367503081E+02 -0.84999498159E+01 -0.41014069246E+02  0.43400727520E+02  0.00000000000E+00 0.  1.
         11    1    4    4    0    0  0.20226942438E+01 -0.87980970585E+00  0.11565936953E+02  0.11774389793E+02  0.51100000000E-03 0. -1.
        -11    1    4    4    0    0  0.18583171811E+01  0.83169522867E+01  0.26601551523E+02  0.27933270159E+02  0.51100000000E-03 0.  1.
        -12    1    4    4    0    0  0.74864916557E+01  0.10628072351E+01  0.28465807695E+01  0.80796125282E+01  0.00000000000E+00 0.  1.
</event>
<event>
 8    1  0.4042158E-011  0.9118800E+02  0.7816164E-02  0.1184000E+00
        -11   -1    0    0    0    0  0.00000000000E+00  0.00000000000E+00  0.45593999997E+02  0.45594000000E+02  0.51100000000E-03 0.  1.
         11   -1    0    0    0    0 -0.00000000000E+00 -0.00000000000E+00 -0.45593999997E+02  0.45594000000E+02  0.51100000000E-03 0. -1.
         23    2    1    2    0    0  0.00000000000E+00 -0.71054273576E-14  0.00000000000E+00  0.91188000000E+02  0.91188000000E+02 0.  0.
    9900012    2    3    3    0    0 -0.60504843579E+01 -0.42799088523E+02  0.39054800072E+01  0.47787272893E+02  0.20000008428E+02 0.  0.
        -12    1    3    3    0    0  0.60504843579E+01  0.42799088523E+02 -0.39054800072E+01  0.43400727107E+02  0.00000000000E+00 0.  1.
         11    1    4    4    0    0  0.13921953549E+01 -0.65347243640E+01  0.37641449759E+01  0.76687429270E+01  0.51100000000E-03 0. -1.
        -11    1    4    4    0    0  0.17567936105E+01 -0.22497636833E+02 -0.43078071872E+01  0.22973619434E+02  0.51100000000E-03 0.  1.
         12    1    4    4    0    0 -0.91994733233E+01 -0.13766727326E+02  0.44491422185E+01  0.17144910532E+02  0.00000000000E+00 0. -1.
</event>
<event>
 8    1  0.4042158E-011  0.9118800E+02  0.7816164E-02  0.1184000E+00
        -11   -1    0    0    0    0  0.00000000000E+00  0.00000000000E+00  0.45593999997E+02  0.45594000000E+02  0.51100000000E-03 0. -1.
         11   -1    0    0    0    0 -0.00000000000E+00 -0.00000000000E+00 -0.45593999997E+02  0.45594000000E+02  0.51100000000E-03 0.  1.
         23    2    1    2    0    0 -0.35527136788E-14  0.00000000000E+00  0.00000000000E+00  0.91188000000E+02  0.91188000000E+02 0.  0.
    9900012    2    3    3    0    0  0.25444497188E+02  0.10721285803E+02 -0.33485141313E+02  0.47787273103E+02  0.20000009385E+02 0.  0.
         12    1    3    3    0    0 -0.25444497188E+02 -0.10721285803E+02  0.33485141313E+02  0.43400726897E+02  0.00000000000E+00 0. -1.
         11    1    4    4    0    0  0.43617477604E+01  0.16525329404E+01 -0.24421586279E+01  0.52649641660E+01  0.51100000000E-03 0. -1.
        -11    1    4    4    0    0  0.22409552439E+02  0.61082834074E+01 -0.31612843588E+02  0.39228446907E+02  0.51100000000E-03 0.  1.
         12    1    4    4    0    0 -0.13268030112E+01  0.29604694552E+01  0.56986090290E+00  0.32938620302E+01  0.00000000000E+00 0. -1.
</event>
<event>
 8    1  0.4042158E-011  0.9118800E+02  0.7816164E-02  0.1184000E+00
        -11   -1    0    0    0    0  0.00000000000E+00  0.00000000000E+00  0.45593999997E+02  0.45594000000E+02  0.51100000000E-03 0. -1.
         11   -1    0    0    0    0 -0.00000000000E+00 -0.00000000000E+00 -0.45593999997E+02  0.45594000000E+02  0.51100000000E-03 0.  1.
         23    2    1    2    0    0 -0.35527136788E-14  0.00000000000E+00  0.00000000000E+00  0.91188000000E+02  0.91188000000E+02 0.  0.
    9900012    2    3    3    0    0  0.14856590608E+02 -0.11420249926E+02  0.39146938050E+02  0.47787272454E+02  0.20000006426E+02 0.  0.
        -12    1    3    3    0    0 -0.14856590608E+02  0.11420249926E+02 -0.39146938050E+02  0.43400727546E+02  0.00000000000E+00 0.  1.
         11    1    4    4    0    0  0.23577803134E+01 -0.21715633480E+01  0.57344571974E+01  0.65695368932E+01  0.51100000000E-03 0. -1.
        -11    1    4    4    0    0  0.72243492066E+01 -0.14597193854E+02  0.19501828839E+02  0.25408475322E+02  0.51100000000E-03 0.  1.
         12    1    4    4    0    0  0.52744610882E+01  0.53485072761E+01  0.13910652013E+02  0.15809260238E+02  0.00000000000E+00 0. -1.
</event>
<event>
 8    1  0.4042158E-011  0.9118800E+02  0.7816164E-02  0.1184000E+00
        -11   -1    0    0    0    0  0.00000000000E+00  0.00000000000E+00  0.45593999997E+02  0.45594000000E+02  0.51100000000E-03 0. -1.
         11   -1    0    0    0    0 -0.00000000000E+00 -0.00000000000E+00 -0.45593999997E+02  0.45594000000E+02  0.51100000000E-03 0.  1.
         23    2    1    2    0    0  0.00000000000E+00 -0.44408920985E-15  0.00000000000E+00  0.91188000000E+02  0.91188000000E+02 0.  0.
    9900012    2    3    3    0    0  0.20844694565E+02 -0.22676475084E+01 -0.37999733542E+02  0.47787271135E+02  0.20000000415E+02 0.  0.
         12    1    3    3    0    0 -0.20844694565E+02  0.22676475084E+01  0.37999733542E+02  0.43400728865E+02  0.00000000000E+00 0. -1.
         11    1    4    4    0    0  0.29647749430E+01 -0.68500807872E+00 -0.31330258753E+01  0.43674910334E+01  0.51100000000E-03 0. -1.
        -11    1    4    4    0    0  0.21766636626E+02 -0.83463355989E+00 -0.27769027935E+02  0.35293087083E+02  0.51100000000E-03 0.  1.
         12    1    4    4    0    0 -0.38867170034E+01 -0.74800586978E+00 -0.70976797315E+01  0.81266930185E+01  0.00000000000E+00 0. -1.
</event>
<event>
 8    1  0.4042158E-011  0.9118800E+02  0.7816164E-02  0.1184000E+00
        -11   -1    0    0    0    0  0.00000000000E+00  0.00000000000E+00  0.45593999997E+02  0.45594000000E+02  0.51100000000E-03 0. -1.
         11   -1    0    0    0    0 -0.00000000000E+00 -0.00000000000E+00 -0.45593999997E+02  0.45594000000E+02  0.51100000000E-03 0.  1.
         23    2    1    2    0    0 -0.71054273576E-14  0.44408920985E-15  0.00000000000E+00  0.91188000000E+02  0.91188000000E+02 0.  0.
    9900012    2    3    3    0    0 -0.20136092092E+02 -0.30018715083E+01  0.38329502303E+02  0.47787260558E+02  0.19999952189E+02 0.  0.
        -12    1    3    3    0    0  0.20136092092E+02  0.30018715083E+01 -0.38329502303E+02  0.43400739442E+02  0.00000000000E+00 0.  1.
         11    1    4    4    0    0 -0.23062212115E+02 -0.31102088437E+01  0.29364593141E+02  0.37467564069E+02  0.51100000000E-03 0.  1.
        -11    1    4    4    0    0  0.32782136222E+00  0.15086194979E+01  0.57573887619E+01  0.59607822685E+01  0.51100000000E-03 0. -1.
        -12    1    4    4    0    0  0.25982986607E+01 -0.14002821625E+01  0.32075204004E+01  0.43589142207E+01  0.00000000000E+00 0.  1.
</event>
<event>
 8    1  0.4042158E-011  0.9118800E+02  0.7816164E-02  0.1184000E+00
        -11   -1    0    0    0    0  0.00000000000E+00  0.00000000000E+00  0.45593999997E+02  0.45594000000E+02  0.51100000000E-03 0. -1.
         11   -1    0    0    0    0 -0.00000000000E+00 -0.00000000000E+00 -0.45593999997E+02  0.45594000000E+02  0.51100000000E-03 0.  1.
         23    2    1    2    0    0 -0.71054273576E-14  0.00000000000E+00  0.00000000000E+00  0.91188000000E+02  0.91188000000E+02 0.  0.
    9900012    2    3    3    0    0 -0.34635445092E+02  0.16417718753E+02  0.20358482215E+02  0.47787270238E+02  0.19999996323E+02 0.  0.
        -12    1    3    3    0    0  0.34635445092E+02 -0.16417718753E+02 -0.20358482215E+02  0.43400729762E+02  0.00000000000E+00 0.  1.
         11    1    4    4    0    0 -0.18733834447E+02 -0.10868429396E+01  0.13053395646E+02  0.22858891461E+02  0.51100000000E-03 0. -1.
        -11    1    4    4    0    0 -0.14494292418E+01  0.22927286229E+01  0.17323300800E+01  0.32184495386E+01  0.51100000000E-03 0.  1.
         12    1    4    4    0    0 -0.14452181403E+02  0.15211833070E+02  0.55727564895E+01  0.21709929239E+02  0.00000000000E+00 0. -1.
</event>
<event>
 8    1  0.4042158E-011  0.9118800E+02  0.7816164E-02  0.1184000E+00
        -11   -1    0    0    0    0  0.00000000000E+00  0.00000000000E+00  0.45593999997E+02  0.45594000000E+02  0.51100000000E-03 0.  1.
         11   -1    0    0    0    0 -0.00000000000E+00 -0.00000000000E+00 -0.45593999997E+02  0.45594000000E+02  0.51100000000E-03 0. -1.
         23    2    1    2    0    0 -0.35527136788E-14  0.35527136788E-14 -0.35527136788E-14  0.91188000000E+02  0.91188000000E+02 0.  0.
    9900012    2    3    3    0    0 -0.17655657695E+02  0.25565944286E+02 -0.30303190895E+02  0.47787272653E+02  0.20000007333E+02 0.  0.
         12    1    3    3    0    0  0.17655657695E+02 -0.25565944286E+02  0.30303190895E+02  0.43400727347E+02  0.00000000000E+00 0. -1.
         11    1    4    4    0    0 -0.46562749559E+01  0.53689394629E+01 -0.96523548622E-01  0.71074414861E+01  0.51100000000E-03 0. -1.
        -11    1    4    4    0    0  0.22340847799E+01  0.51295626335E+01 -0.42734974362E+01  0.70403358025E+01  0.51100000000E-03 0.  1.
         12    1    4    4    0    0 -0.15233467519E+02  0.15067442190E+02 -0.25933169910E+02  0.33639495364E+02  0.00000000000E+00 0. -1.
</event>
<event>
 8    1  0.4042158E-011  0.9118800E+02  0.7816164E-02  0.1184000E+00
        -11   -1    0    0    0    0  0.00000000000E+00  0.00000000000E+00  0.45593999997E+02  0.45594000000E+02  0.51100000000E-03 0. -1.
         11   -1    0    0    0    0 -0.00000000000E+00 -0.00000000000E+00 -0.45593999997E+02  0.45594000000E+02  0.51100000000E-03 0.  1.
         23    2    1    2    0    0  0.00000000000E+00  0.00000000000E+00  0.00000000000E+00  0.91188000000E+02  0.91188000000E+02 0.  0.
    9900012    2    3    3    0    0 -0.27172122007E+02  0.33049034172E+02 -0.72842701973E+01  0.47787268827E+02  0.19999989889E+02 0.  0.
         12    1    3    3    0    0  0.27172122007E+02 -0.33049034172E+02  0.72842701973E+01  0.43400731173E+02  0.00000000000E+00 0. -1.
         11    1    4    4    0    0 -0.23264018911E+01 -0.83306139183E+00  0.17260257109E+01  0.30141834810E+01  0.51100000000E-03 0. -1.
        -11    1    4    4    0    0 -0.11500883085E+02  0.72795060890E+01  0.21891711043E+00  0.13612841202E+02  0.51100000000E-03 0.  1.
        -12    1    4    4    0    0 -0.13344837031E+02  0.26602589475E+02 -0.92292130187E+01  0.31160244144E+02  0.00000000000E+00 0.  1.
</event>
<event>
 8    1  0.4042158E-011  0.9118800E+02  0.7816164E-02  0.1184000E+00
        -11   -1    0    0    0    0  0.00000000000E+00  0.00000000000E+00  0.45593999997E+02  0.45594000000E+02  0.51100000000E-03 0. -1.
         11   -1    0    0    0    0 -0.00000000000E+00 -0.00000000000E+00 -0.45593999997E+02  0.45594000000E+02  0.51100000000E-03 0.  1.
         23    2    1    2    0    0 -0.17763568394E-14  0.00000000000E+00  0.71054273576E-14  0.91188000000E+02  0.91188000000E+02 0.  0.
    9900012    2    3    3    0    0 -0.99399800933E+01 -0.56655606757E+01  0.41865514999E+02  0.47787272723E+02  0.20000007654E+02 0.  0.
        -12    1    3    3    0    0  0.99399800933E+01  0.56655606757E+01 -0.41865514999E+02  0.43400727277E+02  0.00000000000E+00 0.  1.
         11    1    4    4    0    0 -0.95753207961E+01  0.52360746363E+01  0.20546582775E+02  0.23265109283E+02  0.51100000000E-03 0. -1.
        -11    1    4    4    0    0  0.17711710229E+01 -0.11880385666E+01  0.45641226134E+01  0.50378267060E+01  0.51100000000E-03 0.  1.
         12    1    4    4    0    0 -0.21358303201E+01 -0.97135967454E+01  0.16754809611E+02  0.19484336734E+02  0.00000000000E+00 0. -1.
</event>
<event>
 8    1  0.4042158E-011  0.9118800E+02  0.7816164E-02  0.1184000E+00
        -11   -1    0    0    0    0  0.00000000000E+00  0.00000000000E+00  0.45593999997E+02  0.45594000000E+02  0.51100000000E-03 0.  1.
         11   -1    0    0    0    0 -0.00000000000E+00 -0.00000000000E+00 -0.45593999997E+02  0.45594000000E+02  0.51100000000E-03 0. -1.
         23    2    1    2    0    0  0.00000000000E+00 -0.71054273576E-14  0.00000000000E+00  0.91188000000E+02  0.91188000000E+02 0.  0.
    9900012    2    3    3    0    0 -0.25723065824E+02 -0.34880133676E+02  0.23072627170E+01  0.47787270721E+02  0.19999998527E+02 0.  0.
         12    1    3    3    0    0  0.25723065824E+02  0.34880133676E+02 -0.23072627170E+01  0.43400729279E+02  0.00000000000E+00 0. -1.
         11    1    4    4    0    0 -0.10217029939E+02 -0.15892986487E+02  0.42752887915E+01  0.19371443280E+02  0.51100000000E-03 0. -1.
        -11    1    4    4    0    0 -0.89516353947E+01 -0.11110242490E+02  0.59572001798E+01  0.15461484362E+02  0.51100000000E-03 0.  1.
         12    1    4    4    0    0 -0.65544004910E+01 -0.78769046995E+01 -0.79252262543E+01  0.12954343080E+02  0.00000000000E+00 0. -1.
</event>
<event>
 8    1  0.4042158E-011  0.9118800E+02  0.7816164E-02  0.1184000E+00
        -11   -1    0    0    0    0  0.00000000000E+00  0.00000000000E+00  0.45593999997E+02  0.45594000000E+02  0.51100000000E-03 0. -1.
         11   -1    0    0    0    0 -0.00000000000E+00 -0.00000000000E+00 -0.45593999997E+02  0.45594000000E+02  0.51100000000E-03 0.  1.
         23    2    1    2    0    0 -0.88817841970E-15  0.00000000000E+00  0.00000000000E+00  0.91188000000E+02  0.91188000000E+02 0.  0.
    9900012    2    3    3    0    0 -0.27163258777E+01 -0.66236124693E+01  0.42806219826E+02  0.47787272768E+02  0.20000007860E+02 0.  0.
        -12    1    3    3    0    0  0.27163258777E+01  0.66236124693E+01 -0.42806219826E+02  0.43400727232E+02  0.00000000000E+00 0.  1.
         11    1    4    4    0    0  0.22345142683E+00  0.56671350371E+00 -0.11430059818E+01  0.12952056481E+01  0.51100000000E-03 0. -1.
        -11    1    4    4    0    0 -0.73236736547E+01 -0.13356577794E+01  0.16812702750E+02  0.18387146367E+02  0.51100000000E-03 0.  1.
         12    1    4    4    0    0  0.43838963502E+01 -0.58546681937E+01  0.27136523058E+02  0.28104920753E+02  0.00000000000E+00 0. -1.
</event>
<event>
 8    1  0.4042158E-011  0.9118800E+02  0.7816164E-02  0.1184000E+00
        -11   -1    0    0    0    0  0.00000000000E+00  0.00000000000E+00  0.45593999997E+02  0.45594000000E+02  0.51100000000E-03 0. -1.
         11   -1    0    0    0    0 -0.00000000000E+00 -0.00000000000E+00 -0.45593999997E+02  0.45594000000E+02  0.51100000000E-03 0.  1.
         23    2    1    2    0    0 -0.44408920985E-15  0.00000000000E+00  0.00000000000E+00  0.91188000000E+02  0.91188000000E+02 0.  0.
    9900012    2    3    3    0    0 -0.32834041139E+01 -0.31778661000E+02 -0.29376182352E+02  0.47787261215E+02  0.19999955183E+02 0.  0.
         12    1    3    3    0    0  0.32834041139E+01  0.31778661000E+02  0.29376182352E+02  0.43400738785E+02  0.00000000000E+00 0. -1.
         11    1    4    4    0    0 -0.19982936258E+00  0.10247067707E+01 -0.71957369853E+00  0.12679677870E+01  0.51100000000E-03 0. -1.
        -11    1    4    4    0    0  0.28463540505E+01 -0.25415817720E+02 -0.26450703431E+02  0.36792733440E+02  0.51100000000E-03 0.  1.
         12    1    4    4    0    0 -0.59299288019E+01 -0.73875500502E+01 -0.22059052226E+01  0.97265599875E+01  0.00000000000E+00 0. -1.
</event>
<event>
 8    1  0.4042158E-011  0.9118800E+02  0.7816164E-02  0.1184000E+00
        -11   -1    0    0    0    0  0.00000000000E+00  0.00000000000E+00  0.45593999997E+02  0.45594000000E+02  0.51100000000E-03 0.  1.
         11   -1    0    0    0    0 -0.00000000000E+00 -0.00000000000E+00 -0.45593999997E+02  0.45594000000E+02  0.51100000000E-03 0. -1.
         23    2    1    2    0    0 -0.17763568394E-14  0.00000000000E+00  0.35527136788E-14  0.91188000000E+02  0.91188000000E+02 0.  0.
    9900012    2    3    3    0    0  0.79993387900E+01  0.31277432879E+02  0.29006140127E+02  0.47787269664E+02  0.19999993707E+02 0.  0.
        -12    1    3    3    0    0 -0.79993387900E+01 -0.31277432879E+02 -0.29006140127E+02  0.43400730336E+02  0.00000000000E+00 0.  1.
         11    1    4    4    0    0  0.12240963911E+02  0.21647649791E+02  0.17249547851E+02  0.30265637946E+02  0.51100000000E-03 0. -1.
        -11    1    4    4    0    0  0.80516967267E+00  0.51610682473E+00 -0.77095062590E+00  0.12284256530E+01  0.51100000000E-03 0.  1.
        -12    1    4    4    0    0 -0.50467947934E+01  0.91136762640E+01  0.12527542902E+02  0.16293206066E+02  0.00000000000E+00 0.  1.
</event>
<event>
 8    1  0.4042158E-011  0.9118800E+02  0.7816164E-02  0.1184000E+00
        -11   -1    0    0    0    0  0.00000000000E+00  0.00000000000E+00  0.45593999997E+02  0.45594000000E+02  0.51100000000E-03 0. -1.
         11   -1    0    0    0    0 -0.00000000000E+00 -0.00000000000E+00 -0.45593999997E+02  0.45594000000E+02  0.51100000000E-03 0.  1.
         23    2    1    2    0    0  0.00000000000E+00  0.71054273576E-14  0.00000000000E+00  0.91188000000E+02  0.91188000000E+02 0.  0.
    9900012    2    3    3    0    0 -0.10957226670E+02 -0.37408549813E+02  0.19083066511E+02  0.47787264489E+02  0.19999970111E+02 0.  0.
        -12    1    3    3    0    0  0.10957226670E+02  0.37408549813E+02 -0.19083066511E+02  0.43400735511E+02  0.00000000000E+00 0.  1.
         11    1    4    4    0    0 -0.21440831925E+01 -0.31149988195E+01  0.61668095644E+01  0.72339374373E+01  0.51100000000E-03 0. -1.
        -11    1    4    4    0    0 -0.16734844678E+01 -0.17915996415E+01 -0.28255602646E+01  0.37408783206E+01  0.51100000000E-03 0.  1.
         12    1    4    4    0    0 -0.71396590100E+01 -0.32501951352E+02  0.15741817211E+02  0.36812448731E+02  0.00000000000E+00 0. -1.
</event>
<event>
 8    1  0.4042158E-011  0.9118800E+02  0.7816164E-02  0.1184000E+00
        -11   -1    0    0    0    0  0.00000000000E+00  0.00000000000E+00  0.45593999997E+02  0.45594000000E+02  0.51100000000E-03 0. -1.
         11   -1    0    0    0    0 -0.00000000000E+00 -0.00000000000E+00 -0.45593999997E+02  0.45594000000E+02  0.51100000000E-03 0.  1.
         23    2    1    2    0    0  0.00000000000E+00  0.00000000000E+00  0.00000000000E+00  0.91188000000E+02  0.91188000000E+02 0.  0.
    9900012    2    3    3    0    0  0.84971958602E+01 -0.21637722154E+02  0.36650023628E+02  0.47787336533E+02  0.20000298586E+02 0.  0.
        -12    1    3    3    0    0 -0.84971958602E+01  0.21637722154E+02 -0.36650023628E+02  0.43400663467E+02  0.00000000000E+00 0.  1.
         11    1    4    4    0    0  0.74855437228E+01 -0.10652430618E+01  0.39609718774E+01  0.85356549884E+01  0.51100000000E-03 0.  1.
        -11    1    4    4    0    0 -0.12129726665E+01 -0.53030341023E+01  0.13974314810E+02  0.14995831022E+02  0.51100000000E-03 0. -1.
        -12    1    4    4    0    0  0.22246248039E+01 -0.15269444990E+02  0.18714736940E+02  0.24255850522E+02  0.00000000000E+00 0.  1.
</event>
<event>
 8    1  0.4042158E-011  0.9118800E+02  0.7816164E-02  0.1184000E+00
        -11   -1    0    0    0    0  0.00000000000E+00  0.00000000000E+00  0.45593999997E+02  0.45594000000E+02  0.51100000000E-03 0. -1.
         11   -1    0    0    0    0 -0.00000000000E+00 -0.00000000000E+00 -0.45593999997E+02  0.45594000000E+02  0.51100000000E-03 0.  1.
         23    2    1    2    0    0  0.71054273576E-14  0.00000000000E+00  0.00000000000E+00  0.91188000000E+02  0.91188000000E+02 0.  0.
    9900012    2    3    3    0    0 -0.33780777629E+02 -0.16966612901E+02 -0.21321742745E+02  0.47787267238E+02  0.19999982647E+02 0.  0.
         12    1    3    3    0    0  0.33780777629E+02  0.16966612901E+02  0.21321742745E+02  0.43400732762E+02  0.00000000000E+00 0. -1.
         11    1    4    4    0    0 -0.18900045547E+02 -0.33131891951E+01 -0.13877588477E+02  0.23680718032E+02  0.51100000000E-03 0. -1.
        -11    1    4    4    0    0 -0.14792974707E+02 -0.71952139831E+01 -0.57904733723E+01  0.17439403289E+02  0.51100000000E-03 0.  1.
         12    1    4    4    0    0 -0.87757375449E-01 -0.64582097224E+01 -0.16536808950E+01  0.66671459170E+01  0.00000000000E+00 0. -1.
</event>
<event>
 8    1  0.4042158E-011  0.9118800E+02  0.7816164E-02  0.1184000E+00
        -11   -1    0    0    0    0  0.00000000000E+00  0.00000000000E+00  0.45593999997E+02  0.45594000000E+02  0.51100000000E-03 0. -1.
         11   -1    0    0    0    0 -0.00000000000E+00 -0.00000000000E+00 -0.45593999997E+02  0.45594000000E+02  0.51100000000E-03 0.  1.
         23    2    1    2    0    0  0.88817841970E-15  0.00000000000E+00  0.00000000000E+00  0.91188000000E+02  0.91188000000E+02 0.  0.
    9900012    2    3    3    0    0  0.51052516084E+01  0.29093496195E+02 -0.31798245540E+02  0.47787268045E+02  0.19999986323E+02 0.  0.
         12    1    3    3    0    0 -0.51052516084E+01 -0.29093496195E+02  0.31798245540E+02  0.43400731955E+02  0.00000000000E+00 0. -1.
         11    1    4    4    0    0 -0.64375673546E+00  0.16218413749E+00 -0.44055294420E+01  0.44552683819E+01  0.51100000000E-03 0. -1.
        -11    1    4    4    0    0  0.73942320224E+00  0.25769861104E+02 -0.27095930466E+02  0.37400828013E+02  0.51100000000E-03 0.  1.
        -12    1    4    4    0    0  0.50095851416E+01  0.31614509542E+01 -0.29678563114E+00  0.59311716497E+01  0.00000000000E+00 0.  1.
</event>
<event>
 8    1  0.4042158E-011  0.9118800E+02  0.7816164E-02  0.1184000E+00
        -11   -1    0    0    0    0  0.00000000000E+00  0.00000000000E+00  0.45593999997E+02  0.45594000000E+02  0.51100000000E-03 0. -1.
         11   -1    0    0    0    0 -0.00000000000E+00 -0.00000000000E+00 -0.45593999997E+02  0.45594000000E+02  0.51100000000E-03 0.  1.
         23    2    1    2    0    0  0.00000000000E+00  0.00000000000E+00  0.00000000000E+00  0.91188000000E+02  0.91188000000E+02 0.  0.
    9900012    2    3    3    0    0 -0.91955868439E+01 -0.22856809347E+02 -0.35729968991E+02  0.47787271492E+02  0.20000002042E+02 0.  0.
         12    1    3    3    0    0  0.91955868439E+01  0.22856809347E+02  0.35729968991E+02  0.43400728508E+02  0.00000000000E+00 0. -1.
         11    1    4    4    0    0 -0.51561251809E+01 -0.74505239320E+00 -0.68332258616E+01  0.85926541817E+01  0.51100000000E-03 0. -1.
        -11    1    4    4    0    0 -0.92018510261E+01 -0.15374437136E+02 -0.20952601511E+02  0.27569165564E+02  0.51100000000E-03 0.  1.
        -12    1    4    4    0    0  0.51623893631E+01 -0.67373198178E+01 -0.79441416187E+01  0.11625451747E+02  0.00000000000E+00 0.  1.
</event>
<event>
 8    1  0.4042158E-011  0.9118800E+02  0.7816164E-02  0.1184000E+00
        -11   -1    0    0    0    0  0.00000000000E+00  0.00000000000E+00  0.45593999997E+02  0.45594000000E+02  0.51100000000E-03 0.  1.
         11   -1    0    0    0    0 -0.00000000000E+00 -0.00000000000E+00 -0.45593999997E+02  0.45594000000E+02  0.51100000000E-03 0. -1.
         23    2    1    2    0    0 -0.17763568394E-14  0.00000000000E+00  0.00000000000E+00  0.91188000000E+02  0.91188000000E+02 0.  0.
    9900012    2    3    3    0    0  0.11862770223E+02  0.37540966558E+02 -0.18264002497E+02  0.47787271035E+02  0.19999999957E+02 0.  0.
         12    1    3    3    0    0 -0.11862770223E+02 -0.37540966558E+02  0.18264002497E+02  0.43400728965E+02  0.00000000000E+00 0. -1.
         11    1    4    4    0    0  0.42232690533E+00  0.92823510286E+01 -0.29781357326E+00  0.92967248974E+01  0.51100000000E-03 0. -1.
        -11    1    4    4    0    0  0.72090904177E+01  0.18928732322E+02 -0.31815433335E+01  0.20503417038E+02  0.51100000000E-03 0.  1.
         12    1    4    4    0    0  0.42313529004E+01  0.93298832074E+01 -0.14784645590E+02  0.17987129100E+02  0.00000000000E+00 0. -1.
</event>
<event>
 8    1  0.4042158E-011  0.9118800E+02  0.7816164E-02  0.1184000E+00
        -11   -1    0    0    0    0  0.00000000000E+00  0.00000000000E+00  0.45593999997E+02  0.45594000000E+02  0.51100000000E-03 0. -1.
         11   -1    0    0    0    0 -0.00000000000E+00 -0.00000000000E+00 -0.45593999997E+02  0.45594000000E+02  0.51100000000E-03 0.  1.
         23    2    1    2    0    0  0.00000000000E+00  0.00000000000E+00  0.00000000000E+00  0.91188000000E+02  0.91188000000E+02 0.  0.
    9900012    2    3    3    0    0 -0.57923285369E+01  0.35639081466E+02 -0.24081695068E+02  0.47787271493E+02  0.20000002044E+02 0.  0.
         12    1    3    3    0    0  0.57923285369E+01 -0.35639081466E+02  0.24081695068E+02  0.43400728507E+02  0.00000000000E+00 0. -1.
         11    1    4    4    0    0 -0.87705875143E+01  0.98664406430E+01 -0.10960407665E+02  0.17158099917E+02  0.51100000000E-03 0. -1.
        -11    1    4    4    0    0  0.10711269570E+01 -0.17197660084E-01  0.72676470094E+00  0.12945253606E+01  0.51100000000E-03 0.  1.
        -12    1    4    4    0    0  0.19071320205E+01  0.25789838483E+02 -0.13848052104E+02  0.29334646215E+02  0.00000000000E+00 0.  1.
</event>
<event>
 8    1  0.4042158E-011  0.9118800E+02  0.7816164E-02  0.1184000E+00
        -11   -1    0    0    0    0  0.00000000000E+00  0.00000000000E+00  0.45593999997E+02  0.45594000000E+02  0.51100000000E-03 0. -1.
         11   -1    0    0    0    0 -0.00000000000E+00 -0.00000000000E+00 -0.45593999997E+02  0.45594000000E+02  0.51100000000E-03 0.  1.
         23    2    1    2    0    0  0.00000000000E+00 -0.71054273576E-14 -0.17763568394E-14  0.91188000000E+02  0.91188000000E+02 0.  0.
    9900012    2    3    3    0    0 -0.16511705398E+02 -0.37059948169E+02 -0.15412596230E+02  0.47787259269E+02  0.19999946313E+02 0.  0.
         12    1    3    3    0    0  0.16511705398E+02  0.37059948169E+02  0.15412596230E+02  0.43400740731E+02  0.00000000000E+00 0. -1.
         11    1    4    4    0    0 -0.37652253370E+01 -0.26980578334E+01 -0.23566199961E+01  0.51971238178E+01  0.51100000000E-03 0. -1.
        -11    1    4    4    0    0 -0.71915236630E+01 -0.12828980466E+02 -0.14036861763E+02  0.20330623227E+02  0.51100000000E-03 0.  1.
         12    1    4    4    0    0 -0.55549563975E+01 -0.21532909870E+02  0.98088552965E+00  0.22259512224E+02  0.00000000000E+00 0. -1.
</event>
<event>
 8    1  0.4042158E-011  0.9118800E+02  0.7816164E-02  0.1184000E+00
        -11   -1    0    0    0    0  0.00000000000E+00  0.00000000000E+00  0.45593999997E+02  0.45594000000E+02  0.51100000000E-03 0. -1.
         11   -1    0    0    0    0 -0.00000000000E+00 -0.00000000000E+00 -0.45593999997E+02  0.45594000000E+02  0.51100000000E-03 0.  1.
         23    2    1    2    0    0 -0.35527136788E-14  0.00000000000E+00 -0.71054273576E-14  0.91188000000E+02  0.91188000000E+02 0.  0.
    9900012    2    3    3    0    0 -0.21789099817E+02 -0.76676773313E+01  0.36743230658E+02  0.47787272521E+02  0.20000006734E+02 0.  0.
        -12    1    3    3    0    0  0.21789099817E+02  0.76676773313E+01 -0.36743230658E+02  0.43400727479E+02  0.00000000000E+00 0.  1.
         11    1    4    4    0    0 -0.13119170293E+02 -0.70008183507E+01  0.20350627850E+02  0.25204605550E+02  0.51100000000E-03 0. -1.
        -11    1    4    4    0    0 -0.68543034693E+01 -0.64708400307E+01  0.10583698831E+02  0.14172788291E+02  0.51100000000E-03 0.  1.
        -12    1    4    4    0    0 -0.18156260543E+01  0.58039810500E+01  0.58089039771E+01  0.84098786801E+01  0.00000000000E+00 0.  1.
</event>
<event>
 8    1  0.4042158E-011  0.9118800E+02  0.7816164E-02  0.1184000E+00
        -11   -1    0    0    0    0  0.00000000000E+00  0.00000000000E+00  0.45593999997E+02  0.45594000000E+02  0.51100000000E-03 0. -1.
         11   -1    0    0    0    0 -0.00000000000E+00 -0.00000000000E+00 -0.45593999997E+02  0.45594000000E+02  0.51100000000E-03 0.  1.
         23    2    1    2    0    0  0.00000000000E+00  0.88817841970E-15 -0.17763568394E-14  0.91188000000E+02  0.91188000000E+02 0.  0.
    9900012    2    3    3    0    0  0.40960200279E+02  0.41663308631E+01 -0.13730506619E+02  0.47787272681E+02  0.20000007463E+02 0.  0.
         12    1    3    3    0    0 -0.40960200279E+02 -0.41663308631E+01  0.13730506619E+02  0.43400727319E+02  0.00000000000E+00 0. -1.
         11    1    4    4    0    0  0.17265385007E+02  0.26835535461E+01 -0.10021062712E+02  0.20142409916E+02  0.51100000000E-03 0. -1.
        -11    1    4    4    0    0  0.20228926362E+02  0.61798996346E+01 -0.48410920306E+01  0.21698774011E+02  0.51100000000E-03 0.  1.
         12    1    4    4    0    0  0.34658889104E+01 -0.46971223177E+01  0.11316481236E+01  0.59460887550E+01  0.00000000000E+00 0. -1.
</event>
<event>
 8    1  0.4042158E-011  0.9118800E+02  0.7816164E-02  0.1184000E+00
        -11   -1    0    0    0    0  0.00000000000E+00  0.00000000000E+00  0.45593999997E+02  0.45594000000E+02  0.51100000000E-03 0. -1.
         11   -1    0    0    0    0 -0.00000000000E+00 -0.00000000000E+00 -0.45593999997E+02  0.45594000000E+02  0.51100000000E-03 0.  1.
         23    2    1    2    0    0 -0.44408920985E-15  0.88817841970E-15  0.00000000000E+00  0.91188000000E+02  0.91188000000E+02 0.  0.
    9900012    2    3    3    0    0  0.31280812502E+01 -0.48188850030E+01 -0.43018790398E+02  0.47787275670E+02  0.20000021092E+02 0.  0.
         12    1    3    3    0    0 -0.31280812502E+01  0.48188850030E+01  0.43018790398E+02  0.43400724330E+02  0.00000000000E+00 0. -1.
         11    1    4    4    0    0  0.36882746151E+01 -0.57214232340E+01 -0.48160059422E+01  0.83385830304E+01  0.51100000000E-03 0. -1.
        -11    1    4    4    0    0 -0.73033633509E+00  0.12882519023E+01 -0.25994888815E+00  0.15035151518E+01  0.51100000000E-03 0.  1.
        -12    1    4    4    0    0  0.17014297026E+00 -0.38571367121E+00 -0.37942835568E+02  0.37945177488E+02  0.00000000000E+00 0.  1.
</event>
<event>
 8    1  0.4042158E-011  0.9118800E+02  0.7816164E-02  0.1184000E+00
        -11   -1    0    0    0    0  0.00000000000E+00  0.00000000000E+00  0.45593999997E+02  0.45594000000E+02  0.51100000000E-03 0. -1.
         11   -1    0    0    0    0 -0.00000000000E+00 -0.00000000000E+00 -0.45593999997E+02  0.45594000000E+02  0.51100000000E-03 0.  1.
         23    2    1    2    0    0  0.00000000000E+00  0.00000000000E+00  0.00000000000E+00  0.91188000000E+02  0.91188000000E+02 0.  0.
    9900012    2    3    3    0    0  0.11521781670E+02  0.34215907989E+02 -0.24086171724E+02  0.47787268662E+02  0.19999989138E+02 0.  0.
         12    1    3    3    0    0 -0.11521781670E+02 -0.34215907989E+02  0.24086171724E+02  0.43400731338E+02  0.00000000000E+00 0. -1.
         11    1    4    4    0    0 -0.78641454226E+00 -0.19238983069E+00 -0.14288209642E+01  0.16422518954E+01  0.51100000000E-03 0. -1.
        -11    1    4    4    0    0  0.60335795992E+01  0.30327514278E+02 -0.12103193413E+02  0.33206166537E+02  0.51100000000E-03 0.  1.
        -12    1    4    4    0    0  0.62746166126E+01  0.40807835418E+01 -0.10554157347E+02  0.12938850229E+02  0.00000000000E+00 0.  1.
</event>
<event>
 8    1  0.4042158E-011  0.9118800E+02  0.7816164E-02  0.1184000E+00
        -11   -1    0    0    0    0  0.00000000000E+00  0.00000000000E+00  0.45593999997E+02  0.45594000000E+02  0.51100000000E-03 0.  1.
         11   -1    0    0    0    0 -0.00000000000E+00 -0.00000000000E+00 -0.45593999997E+02  0.45594000000E+02  0.51100000000E-03 0. -1.
         23    2    1    2    0    0  0.00000000000E+00  0.00000000000E+00 -0.71054273576E-14  0.91188000000E+02  0.91188000000E+02 0.  0.
    9900012    2    3    3    0    0  0.22277070559E+02 -0.16735601783E+02  0.33275744182E+02  0.47787269700E+02  0.19999993870E+02 0.  0.
        -12    1    3    3    0    0 -0.22277070559E+02  0.16735601783E+02 -0.33275744182E+02  0.43400730300E+02  0.00000000000E+00 0.  1.
         11    1    4    4    0    0  0.56261153787E+01  0.13064030348E+01  0.56135548146E+01  0.80543069883E+01  0.51100000000E-03 0. -1.
        -11    1    4    4    0    0  0.14130205978E+02 -0.52386836345E+01  0.11477965132E+02  0.18943342130E+02  0.51100000000E-03 0.  1.
        -12    1    4    4    0    0  0.25207492020E+01 -0.12803321183E+02  0.16184224235E+02  0.20789620582E+02  0.00000000000E+00 0.  1.
</event>
<event>
 8    1  0.4042158E-011  0.9118800E+02  0.7816164E-02  0.1184000E+00
        -11   -1    0    0    0    0  0.00000000000E+00  0.00000000000E+00  0.45593999997E+02  0.45594000000E+02  0.51100000000E-03 0. -1.
         11   -1    0    0    0    0 -0.00000000000E+00 -0.00000000000E+00 -0.45593999997E+02  0.45594000000E+02  0.51100000000E-03 0.  1.
         23    2    1    2    0    0  0.00000000000E+00  0.00000000000E+00  0.00000000000E+00  0.91188000000E+02  0.91188000000E+02 0.  0.
    9900012    2    3    3    0    0 -0.29780143382E+02  0.19864950291E+02  0.24538747922E+02  0.47787270288E+02  0.19999996552E+02 0.  0.
        -12    1    3    3    0    0  0.29780143382E+02 -0.19864950291E+02 -0.24538747922E+02  0.43400729712E+02  0.00000000000E+00 0.  1.
         11    1    4    4    0    0 -0.14617864992E+02  0.81804909767E+01  0.15954574705E+02  0.23133327989E+02  0.51100000000E-03 0. -1.
        -11    1    4    4    0    0 -0.40923650409E+00  0.21283167354E+01  0.66214223235E+01  0.69670969916E+01  0.51100000000E-03 0.  1.
         12    1    4    4    0    0 -0.14753041886E+02  0.95561425791E+01  0.19627508935E+01  0.17686845308E+02  0.00000000000E+00 0. -1.
</event>
<event>
 8    1  0.4042158E-011  0.9118800E+02  0.7816164E-02  0.1184000E+00
        -11   -1    0    0    0    0  0.00000000000E+00  0.00000000000E+00  0.45593999997E+02  0.45594000000E+02  0.51100000000E-03 0. -1.
         11   -1    0    0    0    0 -0.00000000000E+00 -0.00000000000E+00 -0.45593999997E+02  0.45594000000E+02  0.51100000000E-03 0.  1.
         23    2    1    2    0    0  0.00000000000E+00  0.00000000000E+00  0.00000000000E+00  0.91188000000E+02  0.91188000000E+02 0.  0.
    9900012    2    3    3    0    0  0.53187844786E+01  0.20899534350E+02 -0.37663543762E+02  0.47787279579E+02  0.20000038912E+02 0.  0.
         12    1    3    3    0    0 -0.53187844786E+01 -0.20899534350E+02  0.37663543762E+02  0.43400720421E+02  0.00000000000E+00 0. -1.
         11    1    4    4    0    0  0.51393519527E+01  0.13505561754E+02 -0.31145233564E+02  0.34334220696E+02  0.51100000000E-03 0. -1.
        -11    1    4    4    0    0 -0.23403807835E+01 -0.26834951270E+00 -0.45908105151E+01  0.51599355732E+01  0.51100000000E-03 0.  1.
        -12    1    4    4    0    0  0.25198133094E+01  0.76623221082E+01 -0.19274996833E+01  0.82931233099E+01  0.00000000000E+00 0.  1.
</event>
<event>
 8    1  0.4042158E-011  0.9118800E+02  0.7816164E-02  0.1184000E+00
        -11   -1    0    0    0    0  0.00000000000E+00  0.00000000000E+00  0.45593999997E+02  0.45594000000E+02  0.51100000000E-03 0. -1.
         11   -1    0    0    0    0 -0.00000000000E+00 -0.00000000000E+00 -0.45593999997E+02  0.45594000000E+02  0.51100000000E-03 0.  1.
         23    2    1    2    0    0  0.00000000000E+00  0.00000000000E+00  0.71054273576E-14  0.91188000000E+02  0.91188000000E+02 0.  0.
    9900012    2    3    3    0    0 -0.12107436991E+02 -0.96870648607E+01 -0.40536335299E+02  0.47787265725E+02  0.19999975746E+02 0.  0.
         12    1    3    3    0    0  0.12107436991E+02  0.96870648607E+01  0.40536335299E+02  0.43400734275E+02  0.00000000000E+00 0. -1.
         11    1    4    4    0    0 -0.46693622031E+01  0.15152252361E+01 -0.45382355846E+01  0.66853895460E+01  0.51100000000E-03 0. -1.
        -11    1    4    4    0    0  0.17920726436E+01 -0.51196898762E+01 -0.27848325955E+01  0.60973798992E+01  0.51100000000E-03 0.  1.
        -12    1    4    4    0    0 -0.92301474316E+01 -0.60826002206E+01 -0.33213267119E+02  0.35004496280E+02  0.00000000000E+00 0.  1.
</event>
<event>
 8    1  0.4042158E-011  0.9118800E+02  0.7816164E-02  0.1184000E+00
        -11   -1    0    0    0    0  0.00000000000E+00  0.00000000000E+00  0.45593999997E+02  0.45594000000E+02  0.51100000000E-03 0. -1.
         11   -1    0    0    0    0 -0.00000000000E+00 -0.00000000000E+00 -0.45593999997E+02  0.45594000000E+02  0.51100000000E-03 0.  1.
         23    2    1    2    0    0 -0.35527136788E-14 -0.17763568394E-14  0.71054273576E-14  0.91188000000E+02  0.91188000000E+02 0.  0.
    9900012    2    3    3    0    0 -0.19756250667E+02  0.14934072259E+02  0.35641091857E+02  0.47787269782E+02  0.19999994245E+02 0.  0.
        -12    1    3    3    0    0  0.19756250667E+02 -0.14934072259E+02 -0.35641091857E+02  0.43400730218E+02  0.00000000000E+00 0.  1.
         11    1    4    4    0    0 -0.30280847572E+01  0.41396765641E+01  0.19653902688E+02  0.20312117331E+02  0.51100000000E-03 0. -1.
        -11    1    4    4    0    0 -0.50057103991E+01  0.75919519263E+01  0.11168918293E+02  0.14402763858E+02  0.51100000000E-03 0.  1.
        -12    1    4    4    0    0 -0.11722455511E+02  0.32024437682E+01  0.48182708765E+01  0.13072388593E+02  0.00000000000E+00 0.  1.
</event>
<event>
 8    1  0.4042158E-011  0.9118800E+02  0.7816164E-02  0.1184000E+00
        -11   -1    0    0    0    0  0.00000000000E+00  0.00000000000E+00  0.45593999997E+02  0.45594000000E+02  0.51100000000E-03 0. -1.
         11   -1    0    0    0    0 -0.00000000000E+00 -0.00000000000E+00 -0.45593999997E+02  0.45594000000E+02  0.51100000000E-03 0.  1.
         23    2    1    2    0    0  0.00000000000E+00  0.00000000000E+00  0.35527136788E-14  0.91188000000E+02  0.91188000000E+02 0.  0.
    9900012    2    3    3    0    0 -0.34677691283E+02  0.24296903445E+01 -0.25984159940E+02  0.47787283005E+02  0.20000054535E+02 0.  0.
         12    1    3    3    0    0  0.34677691283E+02 -0.24296903445E+01  0.25984159940E+02  0.43400716995E+02  0.00000000000E+00 0. -1.
         11    1    4    4    0    0  0.58104811238E+00 -0.18218198230E+01 -0.80789513398E+00  0.20758947914E+01  0.51100000000E-03 0. -1.
        -11    1    4    4    0    0 -0.18350152363E+02  0.73906344059E+00 -0.47621784120E+01  0.18972418138E+02  0.51100000000E-03 0.  1.
        -12    1    4    4    0    0 -0.16908587032E+02  0.35124467269E+01 -0.20414086394E+02  0.26738970076E+02  0.00000000000E+00 0.  1.
</event>
<event>
 8    1  0.4042158E-011  0.9118800E+02  0.7816164E-02  0.1184000E+00
        -11   -1    0    0    0    0  0.00000000000E+00  0.00000000000E+00  0.45593999997E+02  0.45594000000E+02  0.51100000000E-03 0. -1.
         11   -1    0    0    0    0 -0.00000000000E+00 -0.00000000000E+00 -0.45593999997E+02  0.45594000000E+02  0.51100000000E-03 0.  1.
         23    2    1    2    0    0 -0.88817841970E-15  0.35527136788E-14  0.00000000000E+00  0.91188000000E+02  0.91188000000E+02 0.  0.
    9900012    2    3    3    0    0 -0.63686994011E+01 -0.20574746108E+02 -0.37679472869E+02  0.47787272067E+02  0.20000004661E+02 0.  0.
         12    1    3    3    0    0  0.63686994011E+01  0.20574746108E+02  0.37679472869E+02  0.43400727933E+02  0.00000000000E+00 0. -1.
         11    1    4    4    0    0 -0.44010221107E+01 -0.49681768322E+01 -0.48572140053E+01  0.82246157849E+01  0.51100000000E-03 0. -1.
        -11    1    4    4    0    0 -0.47734167356E+01 -0.11074043564E+02 -0.31964317310E+02  0.34163394585E+02  0.51100000000E-03 0.  1.
         12    1    4    4    0    0  0.28057394452E+01 -0.45325257116E+01 -0.85794155328E+00  0.53992616967E+01  0.00000000000E+00 0. -1.
</event>
<event>
 8    1  0.4042158E-011  0.9118800E+02  0.7816164E-02  0.1184000E+00
        -11   -1    0    0    0    0  0.00000000000E+00  0.00000000000E+00  0.45593999997E+02  0.45594000000E+02  0.51100000000E-03 0. -1.
         11   -1    0    0    0    0 -0.00000000000E+00 -0.00000000000E+00 -0.45593999997E+02  0.45594000000E+02  0.51100000000E-03 0.  1.
         23    2    1    2    0    0 -0.88817841970E-15 -0.35527136788E-14  0.00000000000E+00  0.91188000000E+02  0.91188000000E+02 0.  0.
    9900012    2    3    3    0    0  0.65287594323E+01 -0.29138991522E+02 -0.31494733934E+02  0.47787265072E+02  0.19999972771E+02 0.  0.
         12    1    3    3    0    0 -0.65287594323E+01  0.29138991522E+02  0.31494733934E+02  0.43400734928E+02  0.00000000000E+00 0. -1.
         11    1    4    4    0    0 -0.73877167015E+00 -0.19882292061E+01 -0.40039093763E-01  0.21214246031E+01  0.51100000000E-03 0. -1.
        -11    1    4    4    0    0 -0.29924233108E+01 -0.12623766507E+02 -0.52493587229E+01  0.13995350848E+02  0.51100000000E-03 0.  1.
         12    1    4    4    0    0  0.10259954413E+02 -0.14526995809E+02 -0.26205336118E+02  0.31670489621E+02  0.00000000000E+00 0. -1.
</event>
<event>
 8    1  0.4042158E-011  0.9118800E+02  0.7816164E-02  0.1184000E+00
        -11   -1    0    0    0    0  0.00000000000E+00  0.00000000000E+00  0.45593999997E+02  0.45594000000E+02  0.51100000000E-03 0.  1.
         11   -1    0    0    0    0 -0.00000000000E+00 -0.00000000000E+00 -0.45593999997E+02  0.45594000000E+02  0.51100000000E-03 0. -1.
         23    2    1    2    0    0  0.00000000000E+00  0.00000000000E+00  0.00000000000E+00  0.91188000000E+02  0.91188000000E+02 0.  0.
    9900012    2    3    3    0    0  0.18680631846E+02  0.39170357891E+02  0.58333573107E+00  0.47787271619E+02  0.20000002618E+02 0.  0.
        -12    1    3    3    0    0 -0.18680631846E+02 -0.39170357891E+02 -0.58333573107E+00  0.43400728381E+02  0.00000000000E+00 0.  1.
         11    1    4    4    0    0  0.54243021386E+00 -0.22139824822E+01  0.44962262085E+00  0.23233832509E+01  0.51100000000E-03 0.  1.
        -11    1    4    4    0    0  0.61485590263E+01  0.19737747040E+02  0.10702571935E+01  0.20700939279E+02  0.51100000000E-03 0. -1.
        -12    1    4    4    0    0  0.11989642606E+02  0.21646593333E+02 -0.93654408323E+00  0.24762949089E+02  0.00000000000E+00 0.  1.
</event>
<event>
 8    1  0.4042158E-011  0.9118800E+02  0.7816164E-02  0.1184000E+00
        -11   -1    0    0    0    0  0.00000000000E+00  0.00000000000E+00  0.45593999997E+02  0.45594000000E+02  0.51100000000E-03 0. -1.
         11   -1    0    0    0    0 -0.00000000000E+00 -0.00000000000E+00 -0.45593999997E+02  0.45594000000E+02  0.51100000000E-03 0.  1.
         23    2    1    2    0    0  0.00000000000E+00  0.00000000000E+00  0.00000000000E+00  0.91188000000E+02  0.91188000000E+02 0.  0.
    9900012    2    3    3    0    0 -0.14026495175E+02 -0.37457780255E+02  0.16846225169E+02  0.47787272230E+02  0.20000005407E+02 0.  0.
        -12    1    3    3    0    0  0.14026495175E+02  0.37457780255E+02 -0.16846225169E+02  0.43400727770E+02  0.00000000000E+00 0.  1.
         11    1    4    4    0    0 -0.43216205518E+01 -0.14247203724E+02  0.65593376043E+01  0.16269115778E+02  0.51100000000E-03 0. -1.
        -11    1    4    4    0    0 -0.76060728119E+00 -0.11748151253E+02  0.12081198448E+02  0.16868696971E+02  0.51100000000E-03 0.  1.
         12    1    4    4    0    0 -0.89442673423E+01 -0.11462425278E+02 -0.17943108835E+01  0.14649459481E+02  0.00000000000E+00 0. -1.
</event>
<event>
 8    1  0.4042158E-011  0.9118800E+02  0.7816164E-02  0.1184000E+00
        -11   -1    0    0    0    0  0.00000000000E+00  0.00000000000E+00  0.45593999997E+02  0.45594000000E+02  0.51100000000E-03 0.  1.
         11   -1    0    0    0    0 -0.00000000000E+00 -0.00000000000E+00 -0.45593999997E+02  0.45594000000E+02  0.51100000000E-03 0. -1.
         23    2    1    2    0    0  0.00000000000E+00 -0.35527136788E-14 -0.35527136788E-14  0.91188000000E+02  0.91188000000E+02 0.  0.
    9900012    2    3    3    0    0 -0.80712328601E+01 -0.28972640189E+02  0.31290008183E+02  0.47787270841E+02  0.19999999073E+02 0.  0.
        -12    1    3    3    0    0  0.80712328601E+01  0.28972640189E+02 -0.31290008183E+02  0.43400729159E+02  0.00000000000E+00 0.  1.
         11    1    4    4    0    0 -0.30934944714E+01 -0.10544733573E+02  0.22762223499E+02  0.25276074321E+02  0.51100000000E-03 0.  1.
        -11    1    4    4    0    0 -0.34754252232E+01 -0.95581150092E+01  0.88895822591E+01  0.13507805744E+02  0.51100000000E-03 0. -1.
        -12    1    4    4    0    0 -0.15023131655E+01 -0.88697916065E+01 -0.36179757500E+00  0.90033907766E+01  0.00000000000E+00 0.  1.
</event>
<event>
 8    1  0.4042158E-011  0.9118800E+02  0.7816164E-02  0.1184000E+00
        -11   -1    0    0    0    0  0.00000000000E+00  0.00000000000E+00  0.45593999997E+02  0.45594000000E+02  0.51100000000E-03 0. -1.
         11   -1    0    0    0    0 -0.00000000000E+00 -0.00000000000E+00 -0.45593999997E+02  0.45594000000E+02  0.51100000000E-03 0.  1.
         23    2    1    2    0    0  0.00000000000E+00  0.00000000000E+00  0.00000000000E+00  0.91188000000E+02  0.91188000000E+02 0.  0.
    9900012    2    3    3    0    0  0.12489115980E+02 -0.65722496102E+01  0.41042061370E+02  0.47787270923E+02  0.19999999446E+02 0.  0.
        -12    1    3    3    0    0 -0.12489115980E+02  0.65722496102E+01 -0.41042061370E+02  0.43400729077E+02  0.00000000000E+00 0.  1.
         11    1    4    4    0    0  0.50355484906E+01  0.31556133820E+01  0.87279155904E+01  0.10558937221E+02  0.51100000000E-03 0. -1.
        -11    1    4    4    0    0  0.11320448132E+02 -0.53748816230E+01  0.19908073446E+02  0.23523887582E+02  0.51100000000E-03 0.  1.
        -12    1    4    4    0    0 -0.38668806433E+01 -0.43529813692E+01  0.12406072334E+02  0.13704446120E+02  0.00000000000E+00 0.  1.
</event>
<event>
 8    1  0.4042158E-011  0.9118800E+02  0.7816164E-02  0.1184000E+00
        -11   -1    0    0    0    0  0.00000000000E+00  0.00000000000E+00  0.45593999997E+02  0.45594000000E+02  0.51100000000E-03 0. -1.
         11   -1    0    0    0    0 -0.00000000000E+00 -0.00000000000E+00 -0.45593999997E+02  0.45594000000E+02  0.51100000000E-03 0.  1.
         23    2    1    2    0    0 -0.35527136788E-14  0.00000000000E+00 -0.35527136788E-14  0.91188000000E+02  0.91188000000E+02 0.  0.
    9900012    2    3    3    0    0 -0.28588722634E+02  0.25138585660E+02 -0.20841297058E+02  0.47787271736E+02  0.20000003151E+02 0.  0.
         12    1    3    3    0    0  0.28588722634E+02 -0.25138585660E+02  0.20841297058E+02  0.43400728264E+02  0.00000000000E+00 0. -1.
         11    1    4    4    0    0 -0.66172797369E+01  0.71971651138E+01 -0.13390512776E+02  0.16579909815E+02  0.51100000000E-03 0. -1.
        -11    1    4    4    0    0 -0.10057633293E+02  0.33796515910E+01 -0.63399466009E+01  0.12360135740E+02  0.51100000000E-03 0.  1.
         12    1    4    4    0    0 -0.11913809604E+02  0.14561768955E+02 -0.11108376808E+01  0.18847226181E+02  0.00000000000E+00 0. -1.
</event>
<event>
 8    1  0.4042158E-011  0.9118800E+02  0.7816164E-02  0.1184000E+00
        -11   -1    0    0    0    0  0.00000000000E+00  0.00000000000E+00  0.45593999997E+02  0.45594000000E+02  0.51100000000E-03 0. -1.
         11   -1    0    0    0    0 -0.00000000000E+00 -0.00000000000E+00 -0.45593999997E+02  0.45594000000E+02  0.51100000000E-03 0.  1.
         23    2    1    2    0    0  0.17763568394E-14  0.00000000000E+00  0.00000000000E+00  0.91188000000E+02  0.91188000000E+02 0.  0.
    9900012    2    3    3    0    0 -0.85439740908E+01  0.74177087414E+01 -0.41899898421E+02  0.47787269777E+02  0.19999994221E+02 0.  0.
         12    1    3    3    0    0  0.85439740908E+01 -0.74177087414E+01  0.41899898421E+02  0.43400730223E+02  0.00000000000E+00 0. -1.
         11    1    4    4    0    0 -0.46900166382E+01  0.24532663404E+01 -0.75960593046E+01  0.92582335801E+01  0.51100000000E-03 0. -1.
        -11    1    4    4    0    0 -0.80320038012E+01  0.65476027815E+01 -0.31715511943E+02  0.33365519407E+02  0.51100000000E-03 0.  1.
         12    1    4    4    0    0  0.41780463486E+01 -0.15831603805E+01 -0.25883271728E+01  0.51635167894E+01  0.00000000000E+00 0. -1.
</event>
<event>
 8    1  0.4042158E-011  0.9118800E+02  0.7816164E-02  0.1184000E+00
        -11   -1    0    0    0    0  0.00000000000E+00  0.00000000000E+00  0.45593999997E+02  0.45594000000E+02  0.51100000000E-03 0. -1.
         11   -1    0    0    0    0 -0.00000000000E+00 -0.00000000000E+00 -0.45593999997E+02  0.45594000000E+02  0.51100000000E-03 0.  1.
         23    2    1    2    0    0 -0.13322676296E-14  0.44408920985E-15  0.00000000000E+00  0.91188000000E+02  0.91188000000E+02 0.  0.
    9900012    2    3    3    0    0  0.39761766130E+01 -0.76138486473E+00  0.43211500851E+02  0.47787268519E+02  0.19999988483E+02 0.  0.
        -12    1    3    3    0    0 -0.39761766130E+01  0.76138486473E+00 -0.43211500851E+02  0.43400731481E+02  0.00000000000E+00 0.  1.
         11    1    4    4    0    0  0.85066695678E+01  0.48292549123E+01  0.15039157371E+02  0.17940495669E+02  0.51100000000E-03 0. -1.
        -11    1    4    4    0    0  0.16604435572E+01 -0.10494953963E+01  0.86197539254E+01  0.88407393011E+01  0.51100000000E-03 0.  1.
        -12    1    4    4    0    0 -0.61909365121E+01 -0.45411443807E+01  0.19552589554E+02  0.21006033549E+02  0.00000000000E+00 0.  1.
</event>
<event>
 8    1  0.4042158E-011  0.9118800E+02  0.7816164E-02  0.1184000E+00
        -11   -1    0    0    0    0  0.00000000000E+00  0.00000000000E+00  0.45593999997E+02  0.45594000000E+02  0.51100000000E-03 0.  1.
         11   -1    0    0    0    0 -0.00000000000E+00 -0.00000000000E+00 -0.45593999997E+02  0.45594000000E+02  0.51100000000E-03 0. -1.
         23    2    1    2    0    0 -0.71054273576E-14  0.00000000000E+00  0.00000000000E+00  0.91188000000E+02  0.91188000000E+02 0.  0.
    9900012    2    3    3    0    0 -0.37315880215E+02 -0.21905849297E+02  0.33589130401E+01  0.47787269056E+02  0.19999990935E+02 0.  0.
        -12    1    3    3    0    0  0.37315880215E+02  0.21905849297E+02 -0.33589130401E+01  0.43400730944E+02  0.00000000000E+00 0.  1.
         11    1    4    4    0    0 -0.17993736142E+02 -0.16202422805E+02  0.26988417962E+00  0.24214992935E+02  0.51100000000E-03 0. -1.
        -11    1    4    4    0    0 -0.65049143050E+01 -0.78600407107E+01  0.27656532212E+01  0.10570855599E+02  0.51100000000E-03 0.  1.
        -12    1    4    4    0    0 -0.12817229767E+02  0.21566142185E+01  0.32337563929E+00  0.13001420522E+02  0.00000000000E+00 0.  1.
</event>
<event>
 8    1  0.4042158E-011  0.9118800E+02  0.7816164E-02  0.1184000E+00
        -11   -1    0    0    0    0  0.00000000000E+00  0.00000000000E+00  0.45593999997E+02  0.45594000000E+02  0.51100000000E-03 0. -1.
         11   -1    0    0    0    0 -0.00000000000E+00 -0.00000000000E+00 -0.45593999997E+02  0.45594000000E+02  0.51100000000E-03 0.  1.
         23    2    1    2    0    0  0.26645352591E-14 -0.13322676296E-14  0.00000000000E+00  0.91188000000E+02  0.91188000000E+02 0.  0.
    9900012    2    3    3    0    0 -0.76386254228E+01  0.37844228466E+01 -0.42555283698E+02  0.47787278517E+02  0.20000034072E+02 0.  0.
         12    1    3    3    0    0  0.76386254228E+01 -0.37844228466E+01  0.42555283698E+02  0.43400721483E+02  0.00000000000E+00 0. -1.
         11    1    4    4    0    0 -0.12053066799E+02  0.75196115987E+01 -0.31254216837E+02  0.34331429452E+02  0.51100000000E-03 0. -1.
        -11    1    4    4    0    0 -0.44353362463E+00 -0.20022039223E+01 -0.22979792591E+01  0.30799759024E+01  0.51100000000E-03 0.  1.
         12    1    4    4    0    0  0.48579750010E+01 -0.17329848299E+01 -0.90030876017E+01  0.10375873163E+02  0.00000000000E+00 0. -1.
</event>
<event>
 8    1  0.4042158E-011  0.9118800E+02  0.7816164E-02  0.1184000E+00
        -11   -1    0    0    0    0  0.00000000000E+00  0.00000000000E+00  0.45593999997E+02  0.45594000000E+02  0.51100000000E-03 0. -1.
         11   -1    0    0    0    0 -0.00000000000E+00 -0.00000000000E+00 -0.45593999997E+02  0.45594000000E+02  0.51100000000E-03 0.  1.
         23    2    1    2    0    0 -0.35527136788E-14  0.35527136788E-14  0.00000000000E+00  0.91188000000E+02  0.91188000000E+02 0.  0.
    9900012    2    3    3    0    0  0.23649647952E+02 -0.20384806620E+02  0.30145934992E+02  0.47787267451E+02  0.19999983618E+02 0.  0.
        -12    1    3    3    0    0 -0.23649647952E+02  0.20384806620E+02 -0.30145934992E+02  0.43400732549E+02  0.00000000000E+00 0.  1.
         11    1    4    4    0    0  0.16372147693E+02 -0.15754286731E+02  0.17208507713E+02  0.28502236903E+02  0.51100000000E-03 0. -1.
        -11    1    4    4    0    0  0.79781689433E+01  0.14869961866E+01  0.67497250869E+01  0.10555620605E+02  0.51100000000E-03 0.  1.
        -12    1    4    4    0    0 -0.70066868473E+00 -0.61175160754E+01  0.61877021930E+01  0.87294099438E+01  0.00000000000E+00 0.  1.
</event>
<event>
 8    1  0.4042158E-011  0.9118800E+02  0.7816164E-02  0.1184000E+00
        -11   -1    0    0    0    0  0.00000000000E+00  0.00000000000E+00  0.45593999997E+02  0.45594000000E+02  0.51100000000E-03 0. -1.
         11   -1    0    0    0    0 -0.00000000000E+00 -0.00000000000E+00 -0.45593999997E+02  0.45594000000E+02  0.51100000000E-03 0.  1.
         23    2    1    2    0    0 -0.35527136788E-14  0.00000000000E+00  0.71054273576E-14  0.91188000000E+02  0.91188000000E+02 0.  0.
    9900012    2    3    3    0    0  0.24181788547E+02  0.14719727927E+01 -0.36009688283E+02  0.47787271302E+02  0.20000001176E+02 0.  0.
         12    1    3    3    0    0 -0.24181788547E+02 -0.14719727927E+01  0.36009688283E+02  0.43400728698E+02  0.00000000000E+00 0. -1.
         11    1    4    4    0    0  0.25034822641E+01  0.22050939571E-01  0.23105175899E+01  0.34068169139E+01  0.51100000000E-03 0. -1.
        -11    1    4    4    0    0  0.16837961777E+02 -0.94023137115E+00 -0.26909773417E+02  0.31757469947E+02  0.51100000000E-03 0.  1.
         12    1    4    4    0    0  0.48403445056E+01  0.23901532243E+01 -0.11410432456E+02  0.12622984441E+02  0.00000000000E+00 0. -1.
</event>
<event>
 8    1  0.4042158E-011  0.9118800E+02  0.7816164E-02  0.1184000E+00
        -11   -1    0    0    0    0  0.00000000000E+00  0.00000000000E+00  0.45593999997E+02  0.45594000000E+02  0.51100000000E-03 0. -1.
         11   -1    0    0    0    0 -0.00000000000E+00 -0.00000000000E+00 -0.45593999997E+02  0.45594000000E+02  0.51100000000E-03 0.  1.
         23    2    1    2    0    0  0.00000000000E+00 -0.88817841970E-15  0.00000000000E+00  0.91188000000E+02  0.91188000000E+02 0.  0.
    9900012    2    3    3    0    0  0.25931748460E+02 -0.46570875362E+01 -0.34488828476E+02  0.47787270373E+02  0.19999996937E+02 0.  0.
         12    1    3    3    0    0 -0.25931748460E+02  0.46570875362E+01  0.34488828476E+02  0.43400729627E+02  0.00000000000E+00 0. -1.
         11    1    4    4    0    0  0.59050926460E+01 -0.19444638411E+01 -0.16526631078E+02  0.17657309926E+02  0.51100000000E-03 0. -1.
        -11    1    4    4    0    0  0.55120607663E+01  0.12679417197E+01 -0.13172852574E+02  0.14335778155E+02  0.51100000000E-03 0.  1.
         12    1    4    4    0    0  0.14514595048E+02 -0.39805654148E+01 -0.47893448247E+01  0.15794182292E+02  0.00000000000E+00 0. -1.
</event>
<event>
 8    1  0.4042158E-011  0.9118800E+02  0.7816164E-02  0.1184000E+00
        -11   -1    0    0    0    0  0.00000000000E+00  0.00000000000E+00  0.45593999997E+02  0.45594000000E+02  0.51100000000E-03 0. -1.
         11   -1    0    0    0    0 -0.00000000000E+00 -0.00000000000E+00 -0.45593999997E+02  0.45594000000E+02  0.51100000000E-03 0.  1.
         23    2    1    2    0    0  0.00000000000E+00  0.00000000000E+00  0.00000000000E+00  0.91188000000E+02  0.91188000000E+02 0.  0.
    9900012    2    3    3    0    0 -0.22704585242E+02 -0.27307073222E+01  0.36887245706E+02  0.47787264416E+02  0.19999969777E+02 0.  0.
        -12    1    3    3    0    0  0.22704585242E+02  0.27307073222E+01 -0.36887245706E+02  0.43400735584E+02  0.00000000000E+00 0.  1.
         11    1    4    4    0    0  0.88368055659E+00 -0.28871497306E+01  0.52087531334E+01  0.60206008304E+01  0.51100000000E-03 0. -1.
        -11    1    4    4    0    0 -0.56967738531E+00 -0.19143593067E+01 -0.58335089408E+00  0.20807696665E+01  0.51100000000E-03 0.  1.
         12    1    4    4    0    0 -0.23018588413E+02  0.20708017151E+01  0.32261843466E+02  0.39685893919E+02  0.00000000000E+00 0. -1.
</event>
<event>
 8    1  0.4042158E-011  0.9118800E+02  0.7816164E-02  0.1184000E+00
        -11   -1    0    0    0    0  0.00000000000E+00  0.00000000000E+00  0.45593999997E+02  0.45594000000E+02  0.51100000000E-03 0. -1.
         11   -1    0    0    0    0 -0.00000000000E+00 -0.00000000000E+00 -0.45593999997E+02  0.45594000000E+02  0.51100000000E-03 0.  1.
         23    2    1    2    0    0 -0.17763568394E-14  0.00000000000E+00  0.00000000000E+00  0.91188000000E+02  0.91188000000E+02 0.  0.
    9900012    2    3    3    0    0 -0.12462579134E+02 -0.37431214792E+02 -0.18088982466E+02  0.47787274129E+02  0.20000014063E+02 0.  0.
         12    1    3    3    0    0  0.12462579134E+02  0.37431214792E+02  0.18088982466E+02  0.43400725871E+02  0.00000000000E+00 0. -1.
         11    1    4    4    0    0 -0.37270599351E+01 -0.75252248216E+01 -0.10498351763E+02  0.13443785716E+02  0.51100000000E-03 0. -1.
        -11    1    4    4    0    0 -0.69008520528E+01 -0.23712667996E+02 -0.11004795620E+02  0.27037342870E+02  0.51100000000E-03 0.  1.
         12    1    4    4    0    0 -0.18346671457E+01 -0.61933219744E+01  0.34141649169E+01  0.73061455428E+01  0.00000000000E+00 0. -1.
</event>
<event>
 8    1  0.4042158E-011  0.9118800E+02  0.7816164E-02  0.1184000E+00
        -11   -1    0    0    0    0  0.00000000000E+00  0.00000000000E+00  0.45593999997E+02  0.45594000000E+02  0.51100000000E-03 0. -1.
         11   -1    0    0    0    0 -0.00000000000E+00 -0.00000000000E+00 -0.45593999997E+02  0.45594000000E+02  0.51100000000E-03 0.  1.
         23    2    1    2    0    0  0.00000000000E+00  0.00000000000E+00  0.00000000000E+00  0.91188000000E+02  0.91188000000E+02 0.  0.
    9900012    2    3    3    0    0  0.54633212291E+01 -0.55919450060E+01  0.42690817105E+02  0.47787267369E+02  0.19999983242E+02 0.  0.
        -12    1    3    3    0    0 -0.54633212291E+01  0.55919450060E+01 -0.42690817105E+02  0.43400732631E+02  0.00000000000E+00 0.  1.
         11    1    4    4    0    0  0.17341186659E+01  0.40856887935E+01  0.97532467220E+01  0.10715682076E+02  0.51100000000E-03 0.  1.
        -11    1    4    4    0    0  0.57511357852E+01  0.10040308701E+01  0.83570791492E+01  0.10194332395E+02  0.51100000000E-03 0. -1.
         12    1    4    4    0    0 -0.20219332220E+01 -0.10681664670E+02  0.24580491234E+02  0.26877252899E+02  0.00000000000E+00 0. -1.
</event>
<event>
 8    1  0.4042158E-011  0.9118800E+02  0.7816164E-02  0.1184000E+00
        -11   -1    0    0    0    0  0.00000000000E+00  0.00000000000E+00  0.45593999997E+02  0.45594000000E+02  0.51100000000E-03 0. -1.
         11   -1    0    0    0    0 -0.00000000000E+00 -0.00000000000E+00 -0.45593999997E+02  0.45594000000E+02  0.51100000000E-03 0.  1.
         23    2    1    2    0    0  0.00000000000E+00  0.00000000000E+00  0.00000000000E+00  0.91188000000E+02  0.91188000000E+02 0.  0.
    9900012    2    3    3    0    0  0.21890575337E+02 -0.11414798189E+02 -0.35694935726E+02  0.47787270251E+02  0.19999996383E+02 0.  0.
         12    1    3    3    0    0 -0.21890575337E+02  0.11414798189E+02  0.35694935726E+02  0.43400729749E+02  0.00000000000E+00 0. -1.
         11    1    4    4    0    0  0.81952707445E-01 -0.27898212645E+01  0.30891367737E+00  0.28080681714E+01  0.51100000000E-03 0. -1.
        -11    1    4    4    0    0  0.29631870828E+01 -0.23418853353E+00 -0.15896062583E+02  0.16171583963E+02  0.51100000000E-03 0.  1.
        -12    1    4    4    0    0  0.18845435547E+02 -0.83907883908E+01 -0.20107786820E+02  0.28807618117E+02  0.00000000000E+00 0.  1.
</event>
<event>
 8    1  0.4042158E-011  0.9118800E+02  0.7816164E-02  0.1184000E+00
        -11   -1    0    0    0    0  0.00000000000E+00  0.00000000000E+00  0.45593999997E+02  0.45594000000E+02  0.51100000000E-03 0.  1.
         11   -1    0    0    0    0 -0.00000000000E+00 -0.00000000000E+00 -0.45593999997E+02  0.45594000000E+02  0.51100000000E-03 0. -1.
         23    2    1    2    0    0  0.00000000000E+00  0.00000000000E+00  0.35527136788E-14  0.91188000000E+02  0.91188000000E+02 0.  0.
    9900012    2    3    3    0    0  0.27681439610E+01  0.33770469112E+02 -0.27120399687E+02  0.47787270926E+02  0.19999999459E+02 0.  0.
         12    1    3    3    0    0 -0.27681439610E+01 -0.33770469112E+02  0.27120399687E+02  0.43400729074E+02  0.00000000000E+00 0. -1.
         11    1    4    4    0    0  0.50841662162E+01  0.10871118032E+02 -0.88521594455E+01  0.14912769042E+02  0.51100000000E-03 0. -1.
        -11    1    4    4    0    0 -0.19689157522E+01  0.18526688790E+02 -0.55788376446E+01  0.19448348426E+02  0.51100000000E-03 0.  1.
         12    1    4    4    0    0 -0.34710650298E+00  0.43726622895E+01 -0.12689402597E+02  0.13426153458E+02  0.00000000000E+00 0. -1.
</event>
<event>
 8    1  0.4042158E-011  0.9118800E+02  0.7816164E-02  0.1184000E+00
        -11   -1    0    0    0    0  0.00000000000E+00  0.00000000000E+00  0.45593999997E+02  0.45594000000E+02  0.51100000000E-03 0. -1.
         11   -1    0    0    0    0 -0.00000000000E+00 -0.00000000000E+00 -0.45593999997E+02  0.45594000000E+02  0.51100000000E-03 0.  1.
         23    2    1    2    0    0  0.00000000000E+00  0.35527136788E-14  0.88817841970E-15  0.91188000000E+02  0.91188000000E+02 0.  0.
    9900012    2    3    3    0    0 -0.31875893089E+02  0.28673354495E+02  0.67371703795E+01  0.47787270940E+02  0.19999999526E+02 0.  0.
        -12    1    3    3    0    0  0.31875893089E+02 -0.28673354495E+02 -0.67371703795E+01  0.43400729060E+02  0.00000000000E+00 0.  1.
         11    1    4    4    0    0 -0.15205066533E+02  0.50752694056E+01  0.91954305076E+00  0.16056088176E+02  0.51100000000E-03 0. -1.
        -11    1    4    4    0    0  0.29727101164E-01  0.53965168553E+00 -0.21091298889E+01  0.21772773805E+01  0.51100000000E-03 0.  1.
         12    1    4    4    0    0 -0.16700553656E+02  0.23058433404E+02  0.79267572176E+01  0.29553905384E+02  0.00000000000E+00 0. -1.
</event>
<event>
 8    1  0.4042158E-011  0.9118800E+02  0.7816164E-02  0.1184000E+00
        -11   -1    0    0    0    0  0.00000000000E+00  0.00000000000E+00  0.45593999997E+02  0.45594000000E+02  0.51100000000E-03 0. -1.
         11   -1    0    0    0    0 -0.00000000000E+00 -0.00000000000E+00 -0.45593999997E+02  0.45594000000E+02  0.51100000000E-03 0.  1.
         23    2    1    2    0    0  0.88817841970E-15 -0.17763568394E-14  0.00000000000E+00  0.91188000000E+02  0.91188000000E+02 0.  0.
    9900012    2    3    3    0    0  0.71084354700E+01 -0.10362244125E+02 -0.41541760003E+02  0.47787265188E+02  0.19999973296E+02 0.  0.
         12    1    3    3    0    0 -0.71084354700E+01  0.10362244125E+02  0.41541760003E+02  0.43400734812E+02  0.00000000000E+00 0. -1.
         11    1    4    4    0    0  0.99333468812E+00 -0.20293896721E+01  0.14177940357E+01  0.26674475501E+01  0.51100000000E-03 0. -1.
        -11    1    4    4    0    0  0.44284046971E+01 -0.13274252398E+01 -0.66306691852E+01  0.80832295547E+01  0.51100000000E-03 0.  1.
        -12    1    4    4    0    0  0.16866960848E+01 -0.70054292135E+01 -0.36328884853E+02  0.37036588083E+02  0.00000000000E+00 0.  1.
</event>
<event>
 8    1  0.4042158E-011  0.9118800E+02  0.7816164E-02  0.1184000E+00
        -11   -1    0    0    0    0  0.00000000000E+00  0.00000000000E+00  0.45593999997E+02  0.45594000000E+02  0.51100000000E-03 0. -1.
         11   -1    0    0    0    0 -0.00000000000E+00 -0.00000000000E+00 -0.45593999997E+02  0.45594000000E+02  0.51100000000E-03 0.  1.
         23    2    1    2    0    0  0.00000000000E+00 -0.35527136788E-14  0.00000000000E+00  0.91188000000E+02  0.91188000000E+02 0.  0.
    9900012    2    3    3    0    0 -0.23203794053E+02  0.16073218319E+02 -0.32967542528E+02  0.47787271136E+02  0.20000000420E+02 0.  0.
         12    1    3    3    0    0  0.23203794053E+02 -0.16073218319E+02  0.32967542528E+02  0.43400728864E+02  0.00000000000E+00 0. -1.
         11    1    4    4    0    0 -0.39217925142E+01  0.62397906628E+01 -0.35339911054E+01  0.81734042745E+01  0.51100000000E-03 0. -1.
        -11    1    4    4    0    0 -0.10768287635E+02  0.13422568745E+02 -0.17805090393E+02  0.24761716711E+02  0.51100000000E-03 0.  1.
         12    1    4    4    0    0 -0.85137139033E+01 -0.35891410896E+01 -0.11628461030E+02  0.14852150151E+02  0.00000000000E+00 0. -1.
</event>
<event>
 8    1  0.4042158E-011  0.9118800E+02  0.7816164E-02  0.1184000E+00
        -11   -1    0    0    0    0  0.00000000000E+00  0.00000000000E+00  0.45593999997E+02  0.45594000000E+02  0.51100000000E-03 0. -1.
         11   -1    0    0    0    0 -0.00000000000E+00 -0.00000000000E+00 -0.45593999997E+02  0.45594000000E+02  0.51100000000E-03 0.  1.
         23    2    1    2    0    0  0.00000000000E+00  0.00000000000E+00  0.00000000000E+00  0.91188000000E+02  0.91188000000E+02 0.  0.
    9900012    2    3    3    0    0 -0.26282357846E+02  0.11050940173E+02 -0.32722139937E+02  0.47787262049E+02  0.19999958985E+02 0.  0.
         12    1    3    3    0    0  0.26282357846E+02 -0.11050940173E+02  0.32722139937E+02  0.43400737951E+02  0.00000000000E+00 0. -1.
         11    1    4    4    0    0 -0.66694498542E+01  0.27547111373E+01 -0.87305141893E+00  0.72685771544E+01  0.51100000000E-03 0. -1.
        -11    1    4    4    0    0 -0.14555534669E+02  0.72550067253E+01 -0.12555269249E+02  0.20545887624E+02  0.51100000000E-03 0.  1.
        -12    1    4    4    0    0 -0.50573733235E+01  0.10412223106E+01 -0.19293819269E+02  0.19972797271E+02  0.00000000000E+00 0.  1.
</event>
<event>
 8    1  0.4042158E-011  0.9118800E+02  0.7816164E-02  0.1184000E+00
        -11   -1    0    0    0    0  0.00000000000E+00  0.00000000000E+00  0.45593999997E+02  0.45594000000E+02  0.51100000000E-03 0. -1.
         11   -1    0    0    0    0 -0.00000000000E+00 -0.00000000000E+00 -0.45593999997E+02  0.45594000000E+02  0.51100000000E-03 0.  1.
         23    2    1    2    0    0  0.00000000000E+00  0.00000000000E+00  0.00000000000E+00  0.91188000000E+02  0.91188000000E+02 0.  0.
    9900012    2    3    3    0    0 -0.16648004893E+02  0.33283736766E+02 -0.22330696604E+02  0.47787271770E+02  0.20000003309E+02 0.  0.
         12    1    3    3    0    0  0.16648004893E+02 -0.33283736766E+02  0.22330696604E+02  0.43400728230E+02  0.00000000000E+00 0. -1.
         11    1    4    4    0    0 -0.79021029236E+01  0.12995366755E+02 -0.11515266470E+02  0.19076796111E+02  0.51100000000E-03 0. -1.
        -11    1    4    4    0    0 -0.85105132547E+01  0.50166158932E+01 -0.89374064737E+01  0.13321880709E+02  0.51100000000E-03 0.  1.
         12    1    4    4    0    0 -0.23538871443E+00  0.15271754118E+02 -0.18780236602E+01  0.15388594950E+02  0.00000000000E+00 0. -1.
</event>
<event>
 8    1  0.4042158E-011  0.9118800E+02  0.7816164E-02  0.1184000E+00
        -11   -1    0    0    0    0  0.00000000000E+00  0.00000000000E+00  0.45593999997E+02  0.45594000000E+02  0.51100000000E-03 0.  1.
         11   -1    0    0    0    0 -0.00000000000E+00 -0.00000000000E+00 -0.45593999997E+02  0.45594000000E+02  0.51100000000E-03 0. -1.
         23    2    1    2    0    0  0.35527136788E-14  0.00000000000E+00  0.00000000000E+00  0.91188000000E+02  0.91188000000E+02 0.  0.
    9900012    2    3    3    0    0  0.31416743084E+02 -0.28205179318E+02  0.10053844067E+02  0.47787266516E+02  0.19999979355E+02 0.  0.
        -12    1    3    3    0    0 -0.31416743084E+02  0.28205179318E+02 -0.10053844067E+02  0.43400733484E+02  0.00000000000E+00 0.  1.
         11    1    4    4    0    0  0.99878658993E+01 -0.81042912207E+01  0.65436049901E+01  0.14431069536E+02  0.51100000000E-03 0. -1.
        -11    1    4    4    0    0  0.10628121156E+02 -0.14221716060E+01  0.47847778214E+01  0.11741960247E+02  0.51100000000E-03 0.  1.
         12    1    4    4    0    0  0.10800756029E+02 -0.18678716492E+02 -0.12745387448E+01  0.21614236734E+02  0.00000000000E+00 0. -1.
</event>
<event>
 8    1  0.4042158E-011  0.9118800E+02  0.7816164E-02  0.1184000E+00
        -11   -1    0    0    0    0  0.00000000000E+00  0.00000000000E+00  0.45593999997E+02  0.45594000000E+02  0.51100000000E-03 0.  1.
         11   -1    0    0    0    0 -0.00000000000E+00 -0.00000000000E+00 -0.45593999997E+02  0.45594000000E+02  0.51100000000E-03 0. -1.
         23    2    1    2    0    0  0.35527136788E-14  0.00000000000E+00  0.71054273576E-14  0.91188000000E+02  0.91188000000E+02 0.  0.
    9900012    2    3    3    0    0  0.26843113205E+02  0.20625432339E+01  0.34041388638E+02  0.47787274758E+02  0.20000016932E+02 0.  0.
        -12    1    3    3    0    0 -0.26843113205E+02 -0.20625432339E+01 -0.34041388638E+02  0.43400725242E+02  0.00000000000E+00 0.  1.
         11    1    4    4    0    0  0.73314485065E+01  0.44672226180E+01  0.94758475903E+01  0.12786629851E+02  0.51100000000E-03 0. -1.
        -11    1    4    4    0    0  0.14522440117E+02 -0.35035650393E+01  0.25737671743E+02  0.29759099145E+02  0.51100000000E-03 0.  1.
        -12    1    4    4    0    0  0.49892245818E+01  0.10988856552E+01 -0.11721306953E+01  0.52415457623E+01  0.00000000000E+00 0.  1.
</event>
<event>
 8    1  0.4042158E-011  0.9118800E+02  0.7816164E-02  0.1184000E+00
        -11   -1    0    0    0    0  0.00000000000E+00  0.00000000000E+00  0.45593999997E+02  0.45594000000E+02  0.51100000000E-03 0.  1.
         11   -1    0    0    0    0 -0.00000000000E+00 -0.00000000000E+00 -0.45593999997E+02  0.45594000000E+02  0.51100000000E-03 0. -1.
         23    2    1    2    0    0  0.00000000000E+00  0.00000000000E+00  0.00000000000E+00  0.91188000000E+02  0.91188000000E+02 0.  0.
    9900012    2    3    3    0    0 -0.18669140275E+02 -0.38099233053E+02 -0.91397063748E+01  0.47787278918E+02  0.20000035898E+02 0.  0.
        -12    1    3    3    0    0  0.18669140275E+02  0.38099233053E+02  0.91397063748E+01  0.43400721082E+02  0.00000000000E+00 0.  1.
         11    1    4    4    0    0 -0.96744438158E+01 -0.87177027988E+01 -0.14065740771E+01  0.13098536412E+02  0.51100000000E-03 0. -1.
        -11    1    4    4    0    0 -0.70919270214E+01 -0.12472707117E+02 -0.10048002192E+02  0.17516455121E+02  0.51100000000E-03 0.  1.
        -12    1    4    4    0    0 -0.19027694381E+01 -0.16908823137E+02  0.23148698940E+01  0.17172287385E+02  0.00000000000E+00 0.  1.
</event>
<event>
 8    1  0.4042158E-011  0.9118800E+02  0.7816164E-02  0.1184000E+00
        -11   -1    0    0    0    0  0.00000000000E+00  0.00000000000E+00  0.45593999997E+02  0.45594000000E+02  0.51100000000E-03 0. -1.
         11   -1    0    0    0    0 -0.00000000000E+00 -0.00000000000E+00 -0.45593999997E+02  0.45594000000E+02  0.51100000000E-03 0.  1.
         23    2    1    2    0    0  0.00000000000E+00  0.00000000000E+00 -0.35527136788E-14  0.91188000000E+02  0.91188000000E+02 0.  0.
    9900012    2    3    3    0    0 -0.23824627640E+02  0.22415499755E+02  0.28522905553E+02  0.47787266681E+02  0.19999980104E+02 0.  0.
        -12    1    3    3    0    0  0.23824627640E+02 -0.22415499755E+02 -0.28522905553E+02  0.43400733319E+02  0.00000000000E+00 0.  1.
         11    1    4    4    0    0 -0.62540910396E+00  0.26781849210E+01  0.42438987891E+00  0.27827896164E+01  0.51100000000E-03 0. -1.
        -11    1    4    4    0    0 -0.19940672705E+02  0.16638252402E+02  0.12597775886E+02  0.28864612044E+02  0.51100000000E-03 0.  1.
         12    1    4    4    0    0 -0.32585458312E+01  0.30990624320E+01  0.15500739788E+02  0.16139865020E+02  0.00000000000E+00 0. -1.
</event>
<event>
 8    1  0.4042158E-011  0.9118800E+02  0.7816164E-02  0.1184000E+00
        -11   -1    0    0    0    0  0.00000000000E+00  0.00000000000E+00  0.45593999997E+02  0.45594000000E+02  0.51100000000E-03 0. -1.
         11   -1    0    0    0    0 -0.00000000000E+00 -0.00000000000E+00 -0.45593999997E+02  0.45594000000E+02  0.51100000000E-03 0.  1.
         23    2    1    2    0    0  0.00000000000E+00  0.35527136788E-14  0.35527136788E-14  0.91188000000E+02  0.91188000000E+02 0.  0.
    9900012    2    3    3    0    0 -0.42615401554E+01  0.30036434628E+02 -0.31036667948E+02  0.47787275501E+02  0.20000020321E+02 0.  0.
         12    1    3    3    0    0  0.42615401554E+01 -0.30036434628E+02  0.31036667948E+02  0.43400724499E+02  0.00000000000E+00 0. -1.
         11    1    4    4    0    0  0.46832381089E+01  0.74358477524E+01 -0.35349221287E+01  0.94720761029E+01  0.51100000000E-03 0. -1.
        -11    1    4    4    0    0  0.88839719760E+00  0.12672082851E+02 -0.12938891837E+02  0.18132453105E+02  0.51100000000E-03 0.  1.
        -12    1    4    4    0    0 -0.98331754619E+01  0.99285040250E+01 -0.14562853982E+02  0.20182746294E+02  0.00000000000E+00 0.  1.
</event>
<event>
 8    1  0.4042158E-011  0.9118800E+02  0.7816164E-02  0.1184000E+00
        -11   -1    0    0    0    0  0.00000000000E+00  0.00000000000E+00  0.45593999997E+02  0.45594000000E+02  0.51100000000E-03 0. -1.
         11   -1    0    0    0    0 -0.00000000000E+00 -0.00000000000E+00 -0.45593999997E+02  0.45594000000E+02  0.51100000000E-03 0.  1.
         23    2    1    2    0    0  0.00000000000E+00  0.00000000000E+00 -0.44408920985E-15  0.91188000000E+02  0.91188000000E+02 0.  0.
    9900012    2    3    3    0    0 -0.27418294024E+02 -0.33478867863E+02  0.33203688344E+01  0.47787282382E+02  0.20000051691E+02 0.  0.
         12    1    3    3    0    0  0.27418294024E+02  0.33478867863E+02 -0.33203688344E+01  0.43400717618E+02  0.00000000000E+00 0. -1.
         11    1    4    4    0    0 -0.10272268767E+02 -0.17989380561E+02  0.62992286280E+01  0.21652196197E+02  0.51100000000E-03 0.  1.
        -11    1    4    4    0    0 -0.74163553585E+01 -0.11723462057E+02  0.28819327538E+01  0.14168536483E+02  0.51100000000E-03 0. -1.
        -12    1    4    4    0    0 -0.97296698983E+01 -0.37660252453E+01 -0.58607925475E+01  0.11966549702E+02  0.00000000000E+00 0.  1.
</event>
<event>
 8    1  0.4042158E-011  0.9118800E+02  0.7816164E-02  0.1184000E+00
        -11   -1    0    0    0    0  0.00000000000E+00  0.00000000000E+00  0.45593999997E+02  0.45594000000E+02  0.51100000000E-03 0. -1.
         11   -1    0    0    0    0 -0.00000000000E+00 -0.00000000000E+00 -0.45593999997E+02  0.45594000000E+02  0.51100000000E-03 0.  1.
         23    2    1    2    0    0  0.00000000000E+00  0.00000000000E+00  0.00000000000E+00  0.91188000000E+02  0.91188000000E+02 0.  0.
    9900012    2    3    3    0    0  0.55152071493E+01 -0.25392061165E+02 -0.34762752446E+02  0.47787271460E+02  0.20000001897E+02 0.  0.
         12    1    3    3    0    0 -0.55152071493E+01  0.25392061165E+02  0.34762752446E+02  0.43400728540E+02  0.00000000000E+00 0. -1.
         11    1    4    4    0    0  0.70418714543E+01 -0.24004830701E+01 -0.28879886142E+01  0.79806485354E+01  0.51100000000E-03 0. -1.
        -11    1    4    4    0    0 -0.10580301834E+01 -0.38161860279E+00 -0.82834973956E+00  0.13968622620E+01  0.51100000000E-03 0.  1.
        -12    1    4    4    0    0 -0.46863412160E+00 -0.22609959492E+02 -0.31046414093E+02  0.38409760663E+02  0.00000000000E+00 0.  1.
</event>
<event>
 8    1  0.4042158E-011  0.9118800E+02  0.7816164E-02  0.1184000E+00
        -11   -1    0    0    0    0  0.00000000000E+00  0.00000000000E+00  0.45593999997E+02  0.45594000000E+02  0.51100000000E-03 0. -1.
         11   -1    0    0    0    0 -0.00000000000E+00 -0.00000000000E+00 -0.45593999997E+02  0.45594000000E+02  0.51100000000E-03 0.  1.
         23    2    1    2    0    0  0.00000000000E+00  0.00000000000E+00 -0.71054273576E-14  0.91188000000E+02  0.91188000000E+02 0.  0.
    9900012    2    3    3    0    0  0.29211062796E+02  0.16831574831E+02 -0.27331944756E+02  0.47787270685E+02  0.19999998360E+02 0.  0.
         12    1    3    3    0    0 -0.29211062796E+02 -0.16831574831E+02  0.27331944756E+02  0.43400729315E+02  0.00000000000E+00 0. -1.
         11    1    4    4    0    0  0.73881626918E+01  0.52068461141E+01 -0.16910005847E+02  0.19174057798E+02  0.51100000000E-03 0. -1.
        -11    1    4    4    0    0  0.97813913325E+01  0.96925147826E+01 -0.87211005997E+01  0.16299633589E+02  0.51100000000E-03 0.  1.
         12    1    4    4    0    0  0.12041508771E+02  0.19322139340E+01 -0.17008383096E+01  0.12313579298E+02  0.00000000000E+00 0. -1.
</event>
<event>
 8    1  0.4042158E-011  0.9118800E+02  0.7816164E-02  0.1184000E+00
        -11   -1    0    0    0    0  0.00000000000E+00  0.00000000000E+00  0.45593999997E+02  0.45594000000E+02  0.51100000000E-03 0. -1.
         11   -1    0    0    0    0 -0.00000000000E+00 -0.00000000000E+00 -0.45593999997E+02  0.45594000000E+02  0.51100000000E-03 0.  1.
         23    2    1    2    0    0  0.88817841970E-15  0.00000000000E+00  0.00000000000E+00  0.91188000000E+02  0.91188000000E+02 0.  0.
    9900012    2    3    3    0    0 -0.49614477420E+01  0.24343206464E+02  0.35586721339E+02  0.47787281108E+02  0.20000045885E+02 0.  0.
        -12    1    3    3    0    0  0.49614477420E+01 -0.24343206464E+02 -0.35586721339E+02  0.43400718892E+02  0.00000000000E+00 0.  1.
         11    1    4    4    0    0  0.56427181319E+00  0.60531217104E+00 -0.25007618548E+00  0.86449052235E+00  0.51100000000E-03 0. -1.
        -11    1    4    4    0    0  0.59064817461E+01  0.14055166454E+02  0.16569924985E+02  0.22516585996E+02  0.51100000000E-03 0.  1.
         12    1    4    4    0    0 -0.11432201301E+02  0.96827278395E+01  0.19266872540E+02  0.24406204590E+02  0.00000000000E+00 0. -1.
</event>
<event>
 8    1  0.4042158E-011  0.9118800E+02  0.7816164E-02  0.1184000E+00
        -11   -1    0    0    0    0  0.00000000000E+00  0.00000000000E+00  0.45593999997E+02  0.45594000000E+02  0.51100000000E-03 0. -1.
         11   -1    0    0    0    0 -0.00000000000E+00 -0.00000000000E+00 -0.45593999997E+02  0.45594000000E+02  0.51100000000E-03 0.  1.
         23    2    1    2    0    0  0.00000000000E+00 -0.35527136788E-14  0.00000000000E+00  0.91188000000E+02  0.91188000000E+02 0.  0.
    9900012    2    3    3    0    0  0.24251766962E+02  0.25449611498E+02 -0.25451764798E+02  0.47787271233E+02  0.20000000861E+02 0.  0.
         12    1    3    3    0    0 -0.24251766962E+02 -0.25449611498E+02  0.25451764798E+02  0.43400728767E+02  0.00000000000E+00 0. -1.
         11    1    4    4    0    0  0.92053945440E+01  0.20926176623E+01 -0.10596510217E+02  0.14191700618E+02  0.51100000000E-03 0. -1.
        -11    1    4    4    0    0  0.17209408971E+01 -0.12642368247E+01 -0.11376521209E+01  0.24195422976E+01  0.51100000000E-03 0.  1.
        -12    1    4    4    0    0  0.13325431521E+02  0.24621230660E+02 -0.13717602460E+02  0.31176028318E+02  0.00000000000E+00 0.  1.
</event>
<event>
 8    1  0.4042158E-011  0.9118800E+02  0.7816164E-02  0.1184000E+00
        -11   -1    0    0    0    0  0.00000000000E+00  0.00000000000E+00  0.45593999997E+02  0.45594000000E+02  0.51100000000E-03 0. -1.
         11   -1    0    0    0    0 -0.00000000000E+00 -0.00000000000E+00 -0.45593999997E+02  0.45594000000E+02  0.51100000000E-03 0.  1.
         23    2    1    2    0    0  0.00000000000E+00  0.35527136788E-14  0.71054273576E-14  0.91188000000E+02  0.91188000000E+02 0.  0.
    9900012    2    3    3    0    0 -0.13803903942E+02 -0.22410850497E+02 -0.34508391066E+02  0.47787273762E+02  0.20000012392E+02 0.  0.
         12    1    3    3    0    0  0.13803903942E+02  0.22410850497E+02  0.34508391066E+02  0.43400726238E+02  0.00000000000E+00 0. -1.
         11    1    4    4    0    0 -0.70735372680E+01 -0.14222439204E+02 -0.10660861850E+02  0.19130255671E+02  0.51100000000E-03 0. -1.
        -11    1    4    4    0    0  0.16753065430E+01 -0.58872261398E+01 -0.50417468232E+01  0.79300249006E+01  0.51100000000E-03 0.  1.
        -12    1    4    4    0    0 -0.84056732166E+01 -0.23011851531E+01 -0.18805782393E+02  0.20726993191E+02  0.00000000000E+00 0.  1.
</event>
<event>
 8    1  0.4042158E-011  0.9118800E+02  0.7816164E-02  0.1184000E+00
        -11   -1    0    0    0    0  0.00000000000E+00  0.00000000000E+00  0.45593999997E+02  0.45594000000E+02  0.51100000000E-03 0. -1.
         11   -1    0    0    0    0 -0.00000000000E+00 -0.00000000000E+00 -0.45593999997E+02  0.45594000000E+02  0.51100000000E-03 0.  1.
         23    2    1    2    0    0  0.00000000000E+00  0.17763568394E-14  0.00000000000E+00  0.91188000000E+02  0.91188000000E+02 0.  0.
    9900012    2    3    3    0    0  0.94930979283E+01 -0.10897031080E+02  0.40923848680E+02  0.47787244414E+02  0.19999878580E+02 0.  0.
        -12    1    3    3    0    0 -0.94930979283E+01  0.10897031080E+02 -0.40923848680E+02  0.43400755586E+02  0.00000000000E+00 0.  1.
         11    1    4    4    0    0  0.31685366573E+01 -0.22965231453E+01  0.26419653248E+01  0.47216124517E+01  0.51100000000E-03 0. -1.
        -11    1    4    4    0    0  0.10796184740E+02 -0.12348365028E+01  0.17946513595E+02  0.20979985143E+02  0.51100000000E-03 0.  1.
         12    1    4    4    0    0 -0.44716234694E+01 -0.73656714323E+01  0.20335369761E+02  0.22085646819E+02  0.00000000000E+00 0. -1.
</event>
<event>
 8    1  0.4042158E-011  0.9118800E+02  0.7816164E-02  0.1184000E+00
        -11   -1    0    0    0    0  0.00000000000E+00  0.00000000000E+00  0.45593999997E+02  0.45594000000E+02  0.51100000000E-03 0.  1.
         11   -1    0    0    0    0 -0.00000000000E+00 -0.00000000000E+00 -0.45593999997E+02  0.45594000000E+02  0.51100000000E-03 0. -1.
         23    2    1    2    0    0  0.00000000000E+00 -0.35527136788E-14 -0.13322676296E-14  0.91188000000E+02  0.91188000000E+02 0.  0.
    9900012    2    3    3    0    0  0.29818174459E+02  0.31400331334E+02  0.29187015881E+01  0.47787272415E+02  0.20000006251E+02 0.  0.
         12    1    3    3    0    0 -0.29818174459E+02 -0.31400331334E+02 -0.29187015881E+01  0.43400727585E+02  0.00000000000E+00 0. -1.
         11    1    4    4    0    0  0.39781253801E+01  0.46056222126E+01 -0.49547483588E+01  0.78477238142E+01  0.51100000000E-03 0.  1.
        -11    1    4    4    0    0 -0.37840567630E+00 -0.73480153800E+00 -0.56019316063E+00  0.99846922558E+00  0.51100000000E-03 0. -1.
        -12    1    4    4    0    0  0.26218454755E+02  0.27529510659E+02  0.84336431075E+01  0.38941079376E+02  0.00000000000E+00 0.  1.
</event>
<event>
 8    1  0.4042158E-011  0.9118800E+02  0.7816164E-02  0.1184000E+00
        -11   -1    0    0    0    0  0.00000000000E+00  0.00000000000E+00  0.45593999997E+02  0.45594000000E+02  0.51100000000E-03 0.  1.
         11   -1    0    0    0    0 -0.00000000000E+00 -0.00000000000E+00 -0.45593999997E+02  0.45594000000E+02  0.51100000000E-03 0. -1.
         23    2    1    2    0    0  0.00000000000E+00  0.00000000000E+00 -0.88817841970E-15  0.91188000000E+02  0.91188000000E+02 0.  0.
    9900012    2    3    3    0    0 -0.42177296245E+02  0.81262467532E+01  0.62179386838E+01  0.47787274587E+02  0.20000016154E+02 0.  0.
        -12    1    3    3    0    0  0.42177296245E+02 -0.81262467532E+01 -0.62179386838E+01  0.43400725413E+02  0.00000000000E+00 0.  1.
         11    1    4    4    0    0 -0.29884480502E+02  0.10695349515E+02  0.72375520502E+01  0.32555411778E+02  0.51100000000E-03 0. -1.
        -11    1    4    4    0    0 -0.73934605923E+01  0.14896002838E+01  0.25193480270E+01  0.79516843045E+01  0.51100000000E-03 0.  1.
        -12    1    4    4    0    0 -0.48993551513E+01 -0.40587030461E+01 -0.35389613934E+01  0.72801785045E+01  0.00000000000E+00 0.  1.
</event>
<event>
 8    1  0.4042158E-011  0.9118800E+02  0.7816164E-02  0.1184000E+00
        -11   -1    0    0    0    0  0.00000000000E+00  0.00000000000E+00  0.45593999997E+02  0.45594000000E+02  0.51100000000E-03 0. -1.
         11   -1    0    0    0    0 -0.00000000000E+00 -0.00000000000E+00 -0.45593999997E+02  0.45594000000E+02  0.51100000000E-03 0.  1.
         23    2    1    2    0    0  0.00000000000E+00  0.00000000000E+00  0.00000000000E+00  0.91188000000E+02  0.91188000000E+02 0.  0.
    9900012    2    3    3    0    0  0.24387054543E+02 -0.20406236244E+02  0.29537789530E+02  0.47787263632E+02  0.19999966204E+02 0.  0.
        -12    1    3    3    0    0 -0.24387054543E+02  0.20406236244E+02 -0.29537789530E+02  0.43400736368E+02  0.00000000000E+00 0.  1.
         11    1    4    4    0    0  0.71421220182E+01  0.96292637613E+00  0.11137878963E+02  0.13266102750E+02  0.51100000000E-03 0. -1.
        -11    1    4    4    0    0  0.56611014093E+01 -0.25139125780E+01  0.78674954370E+01  0.10013256729E+02  0.51100000000E-03 0.  1.
        -12    1    4    4    0    0  0.11583831116E+02 -0.18855250042E+02  0.10532415130E+02  0.24507904152E+02  0.00000000000E+00 0.  1.
</event>
<event>
 8    1  0.4042158E-011  0.9118800E+02  0.7816164E-02  0.1184000E+00
        -11   -1    0    0    0    0  0.00000000000E+00  0.00000000000E+00  0.45593999997E+02  0.45594000000E+02  0.51100000000E-03 0. -1.
         11   -1    0    0    0    0 -0.00000000000E+00 -0.00000000000E+00 -0.45593999997E+02  0.45594000000E+02  0.51100000000E-03 0.  1.
         23    2    1    2    0    0  0.00000000000E+00  0.00000000000E+00  0.00000000000E+00  0.91188000000E+02  0.91188000000E+02 0.  0.
    9900012    2    3    3    0    0  0.25206472473E+02 -0.28668058347E+02  0.20649465222E+02  0.47787259939E+02  0.19999949366E+02 0.  0.
        -12    1    3    3    0    0 -0.25206472473E+02  0.28668058347E+02 -0.20649465222E+02  0.43400740061E+02  0.00000000000E+00 0.  1.
         11    1    4    4    0    0  0.26868914773E+01 -0.80010430818E+01 -0.12555326522E+01  0.85330204916E+01  0.51100000000E-03 0. -1.
        -11    1    4    4    0    0  0.77133197955E+01 -0.19186786526E+01  0.93308545837E+01  0.12257303030E+02  0.51100000000E-03 0.  1.
         12    1    4    4    0    0  0.14806261200E+02 -0.18748336612E+02  0.12574143291E+02  0.26996936418E+02  0.00000000000E+00 0. -1.
</event>
<event>
 8    1  0.4042158E-011  0.9118800E+02  0.7816164E-02  0.1184000E+00
        -11   -1    0    0    0    0  0.00000000000E+00  0.00000000000E+00  0.45593999997E+02  0.45594000000E+02  0.51100000000E-03 0. -1.
         11   -1    0    0    0    0 -0.00000000000E+00 -0.00000000000E+00 -0.45593999997E+02  0.45594000000E+02  0.51100000000E-03 0.  1.
         23    2    1    2    0    0 -0.35527136788E-14 -0.35527136788E-14  0.00000000000E+00  0.91188000000E+02  0.91188000000E+02 0.  0.
    9900012    2    3    3    0    0 -0.29898286811E+02  0.18823737491E+02  0.25206795495E+02  0.47787272051E+02  0.20000004591E+02 0.  0.
        -12    1    3    3    0    0  0.29898286811E+02 -0.18823737491E+02 -0.25206795495E+02  0.43400727949E+02  0.00000000000E+00 0.  1.
         11    1    4    4    0    0 -0.15571783998E+02  0.78803219346E+01  0.13349208303E+02  0.21972284661E+02  0.51100000000E-03 0. -1.
        -11    1    4    4    0    0 -0.33954784805E+01  0.91802962405E+01  0.10977788892E+02  0.14707785774E+02  0.51100000000E-03 0.  1.
        -12    1    4    4    0    0 -0.10931024333E+02  0.17631193160E+01  0.87979830063E+00  0.11107201616E+02  0.00000000000E+00 0.  1.
</event>
<event>
 8    1  0.4042158E-011  0.9118800E+02  0.7816164E-02  0.1184000E+00
        -11   -1    0    0    0    0  0.00000000000E+00  0.00000000000E+00  0.45593999997E+02  0.45594000000E+02  0.51100000000E-03 0. -1.
         11   -1    0    0    0    0 -0.00000000000E+00 -0.00000000000E+00 -0.45593999997E+02  0.45594000000E+02  0.51100000000E-03 0.  1.
         23    2    1    2    0    0  0.00000000000E+00  0.00000000000E+00  0.71054273576E-14  0.91188000000E+02  0.91188000000E+02 0.  0.
    9900012    2    3    3    0    0 -0.10702620678E+02  0.18416871213E+01  0.42020071381E+02  0.47787259226E+02  0.19999946116E+02 0.  0.
        -12    1    3    3    0    0  0.10702620678E+02 -0.18416871213E+01 -0.42020071381E+02  0.43400740774E+02  0.00000000000E+00 0.  1.
         11    1    4    4    0    0 -0.11505073939E+02 -0.42291157721E+01  0.16676421151E+02  0.20696742962E+02  0.51100000000E-03 0. -1.
        -11    1    4    4    0    0 -0.54831140051E+00 -0.74755450109E+00  0.12083436559E+02  0.12118948900E+02  0.51100000000E-03 0.  1.
         12    1    4    4    0    0  0.13507646607E+01  0.68183573945E+01  0.13260213671E+02  0.14971567364E+02  0.00000000000E+00 0. -1.
</event>
<event>
 8    1  0.4042158E-011  0.9118800E+02  0.7816164E-02  0.1184000E+00
        -11   -1    0    0    0    0  0.00000000000E+00  0.00000000000E+00  0.45593999997E+02  0.45594000000E+02  0.51100000000E-03 0. -1.
         11   -1    0    0    0    0 -0.00000000000E+00 -0.00000000000E+00 -0.45593999997E+02  0.45594000000E+02  0.51100000000E-03 0.  1.
         23    2    1    2    0    0  0.00000000000E+00  0.00000000000E+00  0.71054273576E-14  0.91188000000E+02  0.91188000000E+02 0.  0.
    9900012    2    3    3    0    0 -0.16078323267E+02  0.11749547912E+02  0.38562405204E+02  0.47787269012E+02  0.19999990731E+02 0.  0.
        -12    1    3    3    0    0  0.16078323267E+02 -0.11749547912E+02 -0.38562405204E+02  0.43400730988E+02  0.00000000000E+00 0.  1.
         11    1    4    4    0    0 -0.38214684368E+01  0.42290300816E+01  0.73941154410E+01  0.93360194869E+01  0.51100000000E-03 0. -1.
        -11    1    4    4    0    0 -0.11607813415E+02  0.12739103961E+02  0.23108394174E+02  0.28827486598E+02  0.51100000000E-03 0.  1.
        -12    1    4    4    0    0 -0.64904141541E+00 -0.52185861305E+01  0.80598955893E+01  0.96237629268E+01  0.00000000000E+00 0.  1.
</event>
<event>
 8    1  0.4042158E-011  0.9118800E+02  0.7816164E-02  0.1184000E+00
        -11   -1    0    0    0    0  0.00000000000E+00  0.00000000000E+00  0.45593999997E+02  0.45594000000E+02  0.51100000000E-03 0. -1.
         11   -1    0    0    0    0 -0.00000000000E+00 -0.00000000000E+00 -0.45593999997E+02  0.45594000000E+02  0.51100000000E-03 0.  1.
         23    2    1    2    0    0 -0.44408920985E-15  0.00000000000E+00  0.00000000000E+00  0.91188000000E+02  0.91188000000E+02 0.  0.
    9900012    2    3    3    0    0  0.38606271184E+01 -0.12693326508E+02 -0.41323095316E+02  0.47787272056E+02  0.20000004612E+02 0.  0.
         12    1    3    3    0    0 -0.38606271184E+01  0.12693326508E+02  0.41323095316E+02  0.43400727944E+02  0.00000000000E+00 0. -1.
         11    1    4    4    0    0 -0.23933105146E+01  0.83857711295E+00 -0.81743594648E+00  0.26644602796E+01  0.51100000000E-03 0. -1.
        -11    1    4    4    0    0 -0.29008734803E+01 -0.70783612299E+01 -0.23886042226E+02  0.25081094038E+02  0.51100000000E-03 0.  1.
        -12    1    4    4    0    0  0.91548111133E+01 -0.64535423911E+01 -0.16619617144E+02  0.20041717739E+02  0.00000000000E+00 0.  1.
</event>
<event>
 8    1  0.4042158E-011  0.9118800E+02  0.7816164E-02  0.1184000E+00
        -11   -1    0    0    0    0  0.00000000000E+00  0.00000000000E+00  0.45593999997E+02  0.45594000000E+02  0.51100000000E-03 0. -1.
         11   -1    0    0    0    0 -0.00000000000E+00 -0.00000000000E+00 -0.45593999997E+02  0.45594000000E+02  0.51100000000E-03 0.  1.
         23    2    1    2    0    0  0.00000000000E+00  0.66613381478E-15  0.00000000000E+00  0.91188000000E+02  0.91188000000E+02 0.  0.
    9900012    2    3    3    0    0 -0.36775057577E+02  0.79414885980E+00  0.23034501000E+02  0.47787265346E+02  0.19999974017E+02 0.  0.
        -12    1    3    3    0    0  0.36775057577E+02 -0.79414885980E+00 -0.23034501000E+02  0.43400734654E+02  0.00000000000E+00 0.  1.
         11    1    4    4    0    0 -0.12368043253E+02 -0.68513415378E+01  0.11074228504E+02  0.17959618926E+02  0.51100000000E-03 0. -1.
        -11    1    4    4    0    0 -0.74766739940E+01  0.23445649207E+01  0.88429355256E+01  0.11815039046E+02  0.51100000000E-03 0.  1.
        -12    1    4    4    0    0 -0.16930340330E+02  0.53009254769E+01  0.31173369712E+01  0.18012607374E+02  0.00000000000E+00 0.  1.
</event>
<event>
 8    1  0.4497923E-011  0.9118800E+02  0.7816164E-02  0.1184000E+00
        -11   -1    0    0    0    0  0.00000000000E+00  0.00000000000E+00  0.45593999997E+02  0.45594000000E+02  0.51100000000E-03 0. -1.
         11   -1    0    0    0    0 -0.00000000000E+00 -0.00000000000E+00 -0.45593999997E+02  0.45594000000E+02  0.51100000000E-03 0.  1.
         23    2    1    2    0    0  0.00000000000E+00  0.88817841970E-15  0.00000000000E+00  0.91188000000E+02  0.91188000000E+02 0.  0.
    9900012    2    3    3    0    0 -0.26254887095E+02 -0.44309732900E+01  0.34273469586E+02  0.47787270304E+02  0.19999996623E+02 0.  0.
        -12    1    3    3    0    0  0.26254887095E+02  0.44309732900E+01 -0.34273469586E+02  0.43400729696E+02  0.00000000000E+00 0.  1.
         11    1    4    4    0    0 -0.18407658551E+02  0.20203054430E+00  0.19016623363E+02  0.26467237749E+02  0.51100000000E-03 0. -1.
        -11    1    4    4    0    0 -0.87681689264E+01 -0.50325926378E+01  0.16724021808E+02  0.19542279312E+02  0.51100000000E-03 0.  1.
        -12    1    4    4    0    0  0.92094038153E+00  0.39958880354E+00 -0.14671755851E+01  0.17777532438E+01  0.00000000000E+00 0.  1.
</event>
<event>
 8    1  0.4042158E-011  0.9118800E+02  0.7816164E-02  0.1184000E+00
        -11   -1    0    0    0    0  0.00000000000E+00  0.00000000000E+00  0.45593999997E+02  0.45594000000E+02  0.51100000000E-03 0. -1.
         11   -1    0    0    0    0 -0.00000000000E+00 -0.00000000000E+00 -0.45593999997E+02  0.45594000000E+02  0.51100000000E-03 0.  1.
         23    2    1    2    0    0 -0.71054273576E-14  0.00000000000E+00  0.88817841970E-15  0.91188000000E+02  0.91188000000E+02 0.  0.
    9900012    2    3    3    0    0  0.41897981418E+02 -0.84542920405E+01  0.75304478792E+01  0.47787267909E+02  0.19999985704E+02 0.  0.
        -12    1    3    3    0    0 -0.41897981418E+02  0.84542920405E+01 -0.75304478792E+01  0.43400732091E+02  0.00000000000E+00 0.  1.
         11    1    4    4    0    0  0.29392347397E+01 -0.35100139995E+01  0.36692758082E+01  0.58671018697E+01  0.51100000000E-03 0. -1.
        -11    1    4    4    0    0  0.52036064598E+01  0.37513022745E+01  0.29255556987E+01  0.70504372453E+01  0.51100000000E-03 0.  1.
         12    1    4    4    0    0  0.33755140218E+02 -0.86955803155E+01  0.93561637235E+00  0.34869728794E+02  0.00000000000E+00 0. -1.
</event>
<event>
 8    1  0.4042158E-011  0.9118800E+02  0.7816164E-02  0.1184000E+00
        -11   -1    0    0    0    0  0.00000000000E+00  0.00000000000E+00  0.45593999997E+02  0.45594000000E+02  0.51100000000E-03 0. -1.
         11   -1    0    0    0    0 -0.00000000000E+00 -0.00000000000E+00 -0.45593999997E+02  0.45594000000E+02  0.51100000000E-03 0.  1.
         23    2    1    2    0    0 -0.35527136788E-14  0.71054273576E-14  0.35527136788E-14  0.91188000000E+02  0.91188000000E+02 0.  0.
    9900012    2    3    3    0    0 -0.23874054261E+02  0.26167877005E+02  0.25077741619E+02  0.47787292880E+02  0.20000099557E+02 0.  0.
        -12    1    3    3    0    0  0.23874054261E+02 -0.26167877005E+02 -0.25077741619E+02  0.43400707120E+02  0.00000000000E+00 0.  1.
         11    1    4    4    0    0 -0.11778272497E+02  0.15899366875E+02  0.13132319089E+02  0.23748165717E+02  0.51100000000E-03 0. -1.
        -11    1    4    4    0    0 -0.10588888360E+02  0.57751211238E+01  0.14332775209E+02  0.18732459159E+02  0.51100000000E-03 0.  1.
         12    1    4    4    0    0 -0.15068934038E+01  0.44933890061E+01 -0.23873526781E+01  0.53066680036E+01  0.00000000000E+00 0. -1.
</event>
<event>
 8    1  0.4042158E-011  0.9118800E+02  0.7816164E-02  0.1184000E+00
        -11   -1    0    0    0    0  0.00000000000E+00  0.00000000000E+00  0.45593999997E+02  0.45594000000E+02  0.51100000000E-03 0.  1.
         11   -1    0    0    0    0 -0.00000000000E+00 -0.00000000000E+00 -0.45593999997E+02  0.45594000000E+02  0.51100000000E-03 0. -1.
         23    2    1    2    0    0  0.35527136788E-14 -0.71054273576E-14 -0.35527136788E-14  0.91188000000E+02  0.91188000000E+02 0.  0.
    9900012    2    3    3    0    0 -0.26319138114E+02  0.26204712306E+02  0.22455297220E+02  0.47787258631E+02  0.19999943404E+02 0.  0.
        -12    1    3    3    0    0  0.26319138114E+02 -0.26204712306E+02 -0.22455297220E+02  0.43400741369E+02  0.00000000000E+00 0.  1.
         11    1    4    4    0    0 -0.10861531376E+02  0.21150135356E+02  0.17352842377E+02  0.29435051014E+02  0.51100000000E-03 0. -1.
        -11    1    4    4    0    0 -0.17655311285E+01 -0.45056497267E+00  0.29092611052E+01  0.34327699310E+01  0.51100000000E-03 0.  1.
         12    1    4    4    0    0 -0.13692075610E+02  0.55051419230E+01  0.21931937376E+01  0.14919437686E+02  0.00000000000E+00 0. -1.
</event>
<event>
 8    1  0.4042158E-011  0.9118800E+02  0.7816164E-02  0.1184000E+00
        -11   -1    0    0    0    0  0.00000000000E+00  0.00000000000E+00  0.45593999997E+02  0.45594000000E+02  0.51100000000E-03 0.  1.
         11   -1    0    0    0    0 -0.00000000000E+00 -0.00000000000E+00 -0.45593999997E+02  0.45594000000E+02  0.51100000000E-03 0. -1.
         23    2    1    2    0    0  0.00000000000E+00  0.00000000000E+00 -0.88817841970E-15  0.91188000000E+02  0.91188000000E+02 0.  0.
    9900012    2    3    3    0    0 -0.39747162459E+02 -0.15493546673E+02  0.79835102772E+01  0.47787270186E+02  0.19999996085E+02 0.  0.
        -12    1    3    3    0    0  0.39747162459E+02  0.15493546673E+02 -0.79835102772E+01  0.43400729814E+02  0.00000000000E+00 0.  1.
         11    1    4    4    0    0 -0.74621134441E+01  0.79694989751E+00 -0.42960447269E+01  0.86472115013E+01  0.51100000000E-03 0. -1.
        -11    1    4    4    0    0 -0.23107447507E+01 -0.66663348279E+00  0.34473916253E+01  0.42033856333E+01  0.51100000000E-03 0.  1.
        -12    1    4    4    0    0 -0.29974304264E+02 -0.15623863088E+02  0.88321633789E+01  0.34936673051E+02  0.00000000000E+00 0.  1.
</event>
<event>
 8    1  0.4042158E-011  0.9118800E+02  0.7816164E-02  0.1184000E+00
        -11   -1    0    0    0    0  0.00000000000E+00  0.00000000000E+00  0.45593999997E+02  0.45594000000E+02  0.51100000000E-03 0. -1.
         11   -1    0    0    0    0 -0.00000000000E+00 -0.00000000000E+00 -0.45593999997E+02  0.45594000000E+02  0.51100000000E-03 0.  1.
         23    2    1    2    0    0  0.00000000000E+00  0.00000000000E+00  0.00000000000E+00  0.91188000000E+02  0.91188000000E+02 0.  0.
    9900012    2    3    3    0    0  0.16225078344E+02  0.12511294945E+02  0.38260126806E+02  0.47787274526E+02  0.20000015874E+02 0.  0.
        -12    1    3    3    0    0 -0.16225078344E+02 -0.12511294945E+02 -0.38260126806E+02  0.43400725474E+02  0.00000000000E+00 0.  1.
         11    1    4    4    0    0  0.46706033467E+01 -0.97400693040E+00  0.25458214729E+01  0.54078121598E+01  0.51100000000E-03 0.  1.
        -11    1    4    4    0    0  0.82394058107E+01 -0.64085469672E+00  0.14189773269E+02  0.16420967345E+02  0.51100000000E-03 0. -1.
         12    1    4    4    0    0  0.33150691868E+01  0.14126156572E+02  0.21524532064E+02  0.25958495021E+02  0.00000000000E+00 0. -1.
</event>
<event>
 8    1  0.4042158E-011  0.9118800E+02  0.7816164E-02  0.1184000E+00
        -11   -1    0    0    0    0  0.00000000000E+00  0.00000000000E+00  0.45593999997E+02  0.45594000000E+02  0.51100000000E-03 0. -1.
         11   -1    0    0    0    0 -0.00000000000E+00 -0.00000000000E+00 -0.45593999997E+02  0.45594000000E+02  0.51100000000E-03 0.  1.
         23    2    1    2    0    0  0.22204460493E-15  0.00000000000E+00  0.71054273576E-14  0.91188000000E+02  0.91188000000E+02 0.  0.
    9900012    2    3    3    0    0  0.14482202097E+01  0.18550747246E+02  0.39209641599E+02  0.47787267755E+02  0.19999985000E+02 0.  0.
        -12    1    3    3    0    0 -0.14482202097E+01 -0.18550747246E+02 -0.39209641599E+02  0.43400732245E+02  0.00000000000E+00 0.  1.
         11    1    4    4    0    0 -0.21331434150E+01  0.36631637272E+01  0.13954364219E+02  0.14584010091E+02  0.51100000000E-03 0. -1.
        -11    1    4    4    0    0  0.73484924782E+01  0.69792444919E+01  0.21307745629E+02  0.23595131265E+02  0.51100000000E-03 0.  1.
         12    1    4    4    0    0 -0.37671288535E+01  0.79083390268E+01  0.39475317509E+01  0.96081263983E+01  0.00000000000E+00 0. -1.
</event>
<event>
 8    1  0.4042158E-011  0.9118800E+02  0.7816164E-02  0.1184000E+00
        -11   -1    0    0    0    0  0.00000000000E+00  0.00000000000E+00  0.45593999997E+02  0.45594000000E+02  0.51100000000E-03 0. -1.
         11   -1    0    0    0    0 -0.00000000000E+00 -0.00000000000E+00 -0.45593999997E+02  0.45594000000E+02  0.51100000000E-03 0.  1.
         23    2    1    2    0    0  0.00000000000E+00  0.00000000000E+00  0.00000000000E+00  0.91188000000E+02  0.91188000000E+02 0.  0.
    9900012    2    3    3    0    0 -0.22690312999E+02  0.26091409230E+01 -0.36904789510E+02  0.47787292527E+02  0.20000097947E+02 0.  0.
         12    1    3    3    0    0  0.22690312999E+02 -0.26091409230E+01  0.36904789510E+02  0.43400707473E+02  0.00000000000E+00 0. -1.
         11    1    4    4    0    0 -0.42570983909E+00 -0.83886202007E-01  0.94964733931E+00  0.10440766697E+01  0.51100000000E-03 0. -1.
        -11    1    4    4    0    0  0.11764090361E+01 -0.15672992945E+01 -0.95373914555E+01  0.97366422002E+01  0.51100000000E-03 0.  1.
        -12    1    4    4    0    0 -0.23441012196E+02  0.42603264195E+01 -0.28317045394E+02  0.37006573657E+02  0.00000000000E+00 0.  1.
</event>
<event>
 8    1  0.4042158E-011  0.9118800E+02  0.7816164E-02  0.1184000E+00
        -11   -1    0    0    0    0  0.00000000000E+00  0.00000000000E+00  0.45593999997E+02  0.45594000000E+02  0.51100000000E-03 0. -1.
         11   -1    0    0    0    0 -0.00000000000E+00 -0.00000000000E+00 -0.45593999997E+02  0.45594000000E+02  0.51100000000E-03 0.  1.
         23    2    1    2    0    0 -0.35527136788E-14  0.00000000000E+00  0.00000000000E+00  0.91188000000E+02  0.91188000000E+02 0.  0.
    9900012    2    3    3    0    0 -0.31278406573E+02  0.23037411470E+01  0.29999619370E+02  0.47787273009E+02  0.20000008956E+02 0.  0.
        -12    1    3    3    0    0  0.31278406573E+02 -0.23037411470E+01 -0.29999619370E+02  0.43400726991E+02  0.00000000000E+00 0.  1.
         11    1    4    4    0    0 -0.15003592934E+02 -0.27182618653E+01  0.58560814690E+01  0.16333720915E+02  0.51100000000E-03 0. -1.
        -11    1    4    4    0    0 -0.34356168129E+01 -0.10990141976E+01  0.21094691884E+00  0.36132802210E+01  0.51100000000E-03 0.  1.
        -12    1    4    4    0    0 -0.12839196826E+02  0.61210172100E+01  0.23932590982E+02  0.27840271872E+02  0.00000000000E+00 0.  1.
</event>
<event>
 8    1  0.4042158E-011  0.9118800E+02  0.7816164E-02  0.1184000E+00
        -11   -1    0    0    0    0  0.00000000000E+00  0.00000000000E+00  0.45593999997E+02  0.45594000000E+02  0.51100000000E-03 0. -1.
         11   -1    0    0    0    0 -0.00000000000E+00 -0.00000000000E+00 -0.45593999997E+02  0.45594000000E+02  0.51100000000E-03 0.  1.
         23    2    1    2    0    0  0.00000000000E+00  0.00000000000E+00  0.35527136788E-14  0.91188000000E+02  0.91188000000E+02 0.  0.
    9900012    2    3    3    0    0  0.10026369638E+02 -0.29008910907E+02  0.30685150698E+02  0.47787268745E+02  0.19999989515E+02 0.  0.
        -12    1    3    3    0    0 -0.10026369638E+02  0.29008910907E+02 -0.30685150698E+02  0.43400731255E+02  0.00000000000E+00 0.  1.
         11    1    4    4    0    0  0.62871923108E+01 -0.15367381310E+02  0.21595752947E+02  0.27240810214E+02  0.51100000000E-03 0. -1.
        -11    1    4    4    0    0  0.50816474585E+01 -0.57887716945E+00  0.38788226872E+01  0.64189956667E+01  0.51100000000E-03 0.  1.
        -12    1    4    4    0    0 -0.13424701313E+01 -0.13062652427E+02  0.52105750637E+01  0.14127462864E+02  0.00000000000E+00 0.  1.
</event>
<event>
 8    1  0.4042158E-011  0.9118800E+02  0.7816164E-02  0.1184000E+00
        -11   -1    0    0    0    0  0.00000000000E+00  0.00000000000E+00  0.45593999997E+02  0.45594000000E+02  0.51100000000E-03 0. -1.
         11   -1    0    0    0    0 -0.00000000000E+00 -0.00000000000E+00 -0.45593999997E+02  0.45594000000E+02  0.51100000000E-03 0.  1.
         23    2    1    2    0    0  0.00000000000E+00 -0.35527136788E-14  0.00000000000E+00  0.91188000000E+02  0.91188000000E+02 0.  0.
    9900012    2    3    3    0    0 -0.20774627510E+02  0.24637245062E+02 -0.29069644286E+02  0.47787271765E+02  0.20000003287E+02 0.  0.
         12    1    3    3    0    0  0.20774627510E+02 -0.24637245062E+02  0.29069644286E+02  0.43400728235E+02  0.00000000000E+00 0. -1.
         11    1    4    4    0    0  0.70209056549E+00  0.31012180481E+01  0.91926009962E+00  0.33099129802E+01  0.51100000000E-03 0. -1.
        -11    1    4    4    0    0 -0.79211731186E+01  0.18656778891E+01 -0.36506427306E+01  0.89192449327E+01  0.51100000000E-03 0.  1.
        -12    1    4    4    0    0 -0.13555544957E+02  0.19670349124E+02 -0.26338261655E+02  0.35558113852E+02  0.00000000000E+00 0.  1.
</event>
<event>
 8    1  0.4042158E-011  0.9118800E+02  0.7816164E-02  0.1184000E+00
        -11   -1    0    0    0    0  0.00000000000E+00  0.00000000000E+00  0.45593999997E+02  0.45594000000E+02  0.51100000000E-03 0. -1.
         11   -1    0    0    0    0 -0.00000000000E+00 -0.00000000000E+00 -0.45593999997E+02  0.45594000000E+02  0.51100000000E-03 0.  1.
         23    2    1    2    0    0  0.17763568394E-14  0.00000000000E+00  0.00000000000E+00  0.91188000000E+02  0.91188000000E+02 0.  0.
    9900012    2    3    3    0    0  0.12171278540E+02  0.65622709831E+01 -0.41139028469E+02  0.47787273219E+02  0.20000009913E+02 0.  0.
         12    1    3    3    0    0 -0.12171278540E+02 -0.65622709831E+01  0.41139028469E+02  0.43400726781E+02  0.00000000000E+00 0. -1.
         11    1    4    4    0    0  0.22962798469E+01  0.28009240841E+01 -0.74988190972E+01  0.83276866520E+01  0.51100000000E-03 0.  1.
        -11    1    4    4    0    0  0.70180055965E+01 -0.94442067975E-01 -0.17811413929E+01  0.72411177852E+01  0.51100000000E-03 0. -1.
         12    1    4    4    0    0  0.28569930971E+01  0.38557889669E+01 -0.31859067979E+02  0.32218468781E+02  0.00000000000E+00 0. -1.
</event>
<event>
 8    1  0.4042158E-011  0.9118800E+02  0.7816164E-02  0.1184000E+00
        -11   -1    0    0    0    0  0.00000000000E+00  0.00000000000E+00  0.45593999997E+02  0.45594000000E+02  0.51100000000E-03 0. -1.
         11   -1    0    0    0    0 -0.00000000000E+00 -0.00000000000E+00 -0.45593999997E+02  0.45594000000E+02  0.51100000000E-03 0.  1.
         23    2    1    2    0    0  0.00000000000E+00  0.00000000000E+00  0.71054273576E-14  0.91188000000E+02  0.91188000000E+02 0.  0.
    9900012    2    3    3    0    0 -0.20667184968E+02 -0.76829179895E+01  0.37382665036E+02  0.47787269493E+02  0.19999992925E+02 0.  0.
        -12    1    3    3    0    0  0.20667184968E+02  0.76829179895E+01 -0.37382665036E+02  0.43400730507E+02  0.00000000000E+00 0.  1.
         11    1    4    4    0    0 -0.25755572173E+01  0.66707365982E+00  0.93407567725E+01  0.97122715979E+01  0.51100000000E-03 0. -1.
        -11    1    4    4    0    0 -0.21002868942E+02 -0.84443442863E+01  0.23126897666E+02  0.32361718900E+02  0.51100000000E-03 0.  1.
        -12    1    4    4    0    0  0.29112411919E+01  0.94352636959E-01  0.49150105975E+01  0.57132789947E+01  0.00000000000E+00 0.  1.
</event>
<event>
 8    1  0.4042158E-011  0.9118800E+02  0.7816164E-02  0.1184000E+00
        -11   -1    0    0    0    0  0.00000000000E+00  0.00000000000E+00  0.45593999997E+02  0.45594000000E+02  0.51100000000E-03 0. -1.
         11   -1    0    0    0    0 -0.00000000000E+00 -0.00000000000E+00 -0.45593999997E+02  0.45594000000E+02  0.51100000000E-03 0.  1.
         23    2    1    2    0    0 -0.44408920985E-15  0.17763568394E-14  0.00000000000E+00  0.91188000000E+02  0.91188000000E+02 0.  0.
    9900012    2    3    3    0    0 -0.33499711584E+01 -0.13150709218E+02 -0.41224506178E+02  0.47787269945E+02  0.19999994987E+02 0.  0.
         12    1    3    3    0    0  0.33499711584E+01  0.13150709218E+02  0.41224506178E+02  0.43400730055E+02  0.00000000000E+00 0. -1.
         11    1    4    4    0    0  0.20060337297E+01 -0.40000257857E+00 -0.22030507256E+01  0.30062611577E+01  0.51100000000E-03 0. -1.
        -11    1    4    4    0    0  0.13515835455E+01  0.37083524074E+01 -0.47573269560E+01  0.61814897627E+01  0.51100000000E-03 0.  1.
         12    1    4    4    0    0 -0.67075884336E+01 -0.16459059047E+02 -0.34264128496E+02  0.38599519024E+02  0.00000000000E+00 0. -1.
</event>
<event>
 8    1  0.4042158E-011  0.9118800E+02  0.7816164E-02  0.1184000E+00
        -11   -1    0    0    0    0  0.00000000000E+00  0.00000000000E+00  0.45593999997E+02  0.45594000000E+02  0.51100000000E-03 0. -1.
         11   -1    0    0    0    0 -0.00000000000E+00 -0.00000000000E+00 -0.45593999997E+02  0.45594000000E+02  0.51100000000E-03 0.  1.
         23    2    1    2    0    0  0.00000000000E+00  0.00000000000E+00  0.00000000000E+00  0.91188000000E+02  0.91188000000E+02 0.  0.
    9900012    2    3    3    0    0  0.42626498267E+01  0.38392803008E+02 -0.19784985137E+02  0.47787272550E+02  0.20000006863E+02 0.  0.
         12    1    3    3    0    0 -0.42626498267E+01 -0.38392803008E+02  0.19784985137E+02  0.43400727450E+02  0.00000000000E+00 0. -1.
         11    1    4    4    0    0  0.38565372843E+00  0.17521504209E+02 -0.43235413095E+01  0.18051173044E+02  0.51100000000E-03 0. -1.
        -11    1    4    4    0    0  0.52921729063E+01  0.41556270892E+01  0.27580198598E+00  0.67344188741E+01  0.51100000000E-03 0.  1.
        -12    1    4    4    0    0 -0.14151768080E+01  0.16715671710E+02 -0.15737245813E+02  0.23001680632E+02  0.00000000000E+00 0.  1.
</event>
<event>
 8    1  0.4042158E-011  0.9118800E+02  0.7816164E-02  0.1184000E+00
        -11   -1    0    0    0    0  0.00000000000E+00  0.00000000000E+00  0.45593999997E+02  0.45594000000E+02  0.51100000000E-03 0. -1.
         11   -1    0    0    0    0 -0.00000000000E+00 -0.00000000000E+00 -0.45593999997E+02  0.45594000000E+02  0.51100000000E-03 0.  1.
         23    2    1    2    0    0  0.00000000000E+00  0.00000000000E+00  0.00000000000E+00  0.91188000000E+02  0.91188000000E+02 0.  0.
    9900012    2    3    3    0    0  0.23056872357E+02  0.10584872714E+02  0.35213119132E+02  0.47787278206E+02  0.20000032652E+02 0.  0.
        -12    1    3    3    0    0 -0.23056872357E+02 -0.10584872714E+02 -0.35213119132E+02  0.43400721794E+02  0.00000000000E+00 0.  1.
         11    1    4    4    0    0  0.90381623057E+01  0.11298921634E+02  0.10729892732E+02  0.18013456256E+02  0.51100000000E-03 0.  1.
        -11    1    4    4    0    0  0.66373741400E+01 -0.31370346266E+00  0.34658302550E+01  0.74943395275E+01  0.51100000000E-03 0. -1.
        -12    1    4    4    0    0  0.73813359114E+01 -0.40034545808E+00  0.21017396145E+02  0.22279482423E+02  0.00000000000E+00 0.  1.
</event>
<event>
 8    1  0.4042158E-011  0.9118800E+02  0.7816164E-02  0.1184000E+00
        -11   -1    0    0    0    0  0.00000000000E+00  0.00000000000E+00  0.45593999997E+02  0.45594000000E+02  0.51100000000E-03 0. -1.
         11   -1    0    0    0    0 -0.00000000000E+00 -0.00000000000E+00 -0.45593999997E+02  0.45594000000E+02  0.51100000000E-03 0.  1.
         23    2    1    2    0    0  0.22204460493E-15  0.00000000000E+00  0.00000000000E+00  0.91188000000E+02  0.91188000000E+02 0.  0.
    9900012    2    3    3    0    0  0.14840438696E+01  0.18465670479E+02 -0.39248428022E+02  0.47787280252E+02  0.20000041981E+02 0.  0.
         12    1    3    3    0    0 -0.14840438696E+01 -0.18465670479E+02  0.39248428022E+02  0.43400719748E+02  0.00000000000E+00 0. -1.
         11    1    4    4    0    0  0.28167664508E+01  0.24417543931E+01 -0.10931880366E+02  0.11549993348E+02  0.51100000000E-03 0. -1.
        -11    1    4    4    0    0 -0.89511527846E+00  0.12034927791E+01 -0.18260317679E+02  0.18321812908E+02  0.51100000000E-03 0.  1.
        -12    1    4    4    0    0 -0.43760730273E+00  0.14820423307E+02 -0.10056229977E+02  0.17915473996E+02  0.00000000000E+00 0.  1.
</event>
<event>
 8    1  0.4042158E-011  0.9118800E+02  0.7816164E-02  0.1184000E+00
        -11   -1    0    0    0    0  0.00000000000E+00  0.00000000000E+00  0.45593999997E+02  0.45594000000E+02  0.51100000000E-03 0. -1.
         11   -1    0    0    0    0 -0.00000000000E+00 -0.00000000000E+00 -0.45593999997E+02  0.45594000000E+02  0.51100000000E-03 0.  1.
         23    2    1    2    0    0  0.35527136788E-14  0.00000000000E+00  0.00000000000E+00  0.91188000000E+02  0.91188000000E+02 0.  0.
    9900012    2    3    3    0    0 -0.24666939756E+02 -0.15617289516E+01 -0.35675290082E+02  0.47787271473E+02  0.20000001954E+02 0.  0.
         12    1    3    3    0    0  0.24666939756E+02  0.15617289516E+01  0.35675290082E+02  0.43400728527E+02  0.00000000000E+00 0. -1.
         11    1    4    4    0    0 -0.60998671608E+01  0.38706156735E+01 -0.46628759608E+01  0.85983985462E+01  0.51100000000E-03 0. -1.
        -11    1    4    4    0    0  0.19150119109E+01 -0.24909857853E+01 -0.28507270556E+01  0.42425140905E+01  0.51100000000E-03 0.  1.
        -12    1    4    4    0    0 -0.20482084506E+02 -0.29413588397E+01 -0.28161687066E+02  0.34946358836E+02  0.00000000000E+00 0.  1.
</event>
<event>
 8    1  0.4042158E-011  0.9118800E+02  0.7816164E-02  0.1184000E+00
        -11   -1    0    0    0    0  0.00000000000E+00  0.00000000000E+00  0.45593999997E+02  0.45594000000E+02  0.51100000000E-03 0. -1.
         11   -1    0    0    0    0 -0.00000000000E+00 -0.00000000000E+00 -0.45593999997E+02  0.45594000000E+02  0.51100000000E-03 0.  1.
         23    2    1    2    0    0  0.00000000000E+00  0.00000000000E+00  0.00000000000E+00  0.91188000000E+02  0.91188000000E+02 0.  0.
    9900012    2    3    3    0    0 -0.20951129809E+02  0.14575578900E+02 -0.35103080197E+02  0.47787267519E+02  0.19999983926E+02 0.  0.
         12    1    3    3    0    0  0.20951129809E+02 -0.14575578900E+02  0.35103080197E+02  0.43400732481E+02  0.00000000000E+00 0. -1.
         11    1    4    4    0    0 -0.95416105706E+00  0.18852306400E+01 -0.10433413691E+00  0.21155150111E+01  0.51100000000E-03 0. -1.
        -11    1    4    4    0    0 -0.13247296289E+02 -0.15445432287E+01 -0.19044520443E+02  0.23250166277E+02  0.51100000000E-03 0.  1.
        -12    1    4    4    0    0 -0.67496724631E+01  0.14234891489E+02 -0.15954225618E+02  0.22421586231E+02  0.00000000000E+00 0.  1.
</event>
<event>
 8    1  0.4042158E-011  0.9118800E+02  0.7816164E-02  0.1184000E+00
        -11   -1    0    0    0    0  0.00000000000E+00  0.00000000000E+00  0.45593999997E+02  0.45594000000E+02  0.51100000000E-03 0. -1.
         11   -1    0    0    0    0 -0.00000000000E+00 -0.00000000000E+00 -0.45593999997E+02  0.45594000000E+02  0.51100000000E-03 0.  1.
         23    2    1    2    0    0  0.88817841970E-15  0.00000000000E+00  0.00000000000E+00  0.91188000000E+02  0.91188000000E+02 0.  0.
    9900012    2    3    3    0    0 -0.53735146150E+01  0.35331517000E+02  0.24625848745E+02  0.47787272134E+02  0.20000004968E+02 0.  0.
        -12    1    3    3    0    0  0.53735146150E+01 -0.35331517000E+02 -0.24625848745E+02  0.43400727866E+02  0.00000000000E+00 0.  1.
         11    1    4    4    0    0 -0.28965002719E+01  0.11078607105E+02  0.14241386935E+02  0.18274089616E+02  0.51100000000E-03 0. -1.
        -11    1    4    4    0    0 -0.12667099460E+01  0.88783218749E+01  0.10859196543E+02  0.14083724764E+02  0.51100000000E-03 0.  1.
        -12    1    4    4    0    0 -0.12103043971E+01  0.15374588020E+02 -0.47473473197E+00  0.15429457754E+02  0.00000000000E+00 0.  1.
</event>
<event>
 8    1  0.4042158E-011  0.9118800E+02  0.7816164E-02  0.1184000E+00
        -11   -1    0    0    0    0  0.00000000000E+00  0.00000000000E+00  0.45593999997E+02  0.45594000000E+02  0.51100000000E-03 0. -1.
         11   -1    0    0    0    0 -0.00000000000E+00 -0.00000000000E+00 -0.45593999997E+02  0.45594000000E+02  0.51100000000E-03 0.  1.
         23    2    1    2    0    0  0.00000000000E+00  0.00000000000E+00  0.00000000000E+00  0.91188000000E+02  0.91188000000E+02 0.  0.
    9900012    2    3    3    0    0  0.71733756353E+01 -0.51760804381E+01  0.42489694486E+02  0.47787271156E+02  0.20000000507E+02 0.  0.
        -12    1    3    3    0    0 -0.71733756353E+01  0.51760804381E+01 -0.42489694486E+02  0.43400728844E+02  0.00000000000E+00 0.  1.
         11    1    4    4    0    0 -0.14147461434E+01 -0.74095631920E+00 -0.14192797800E+00  0.16033298878E+01  0.51100000000E-03 0. -1.
        -11    1    4    4    0    0 -0.21422835159E+01  0.37088958718E+01  0.10897578891E+02  0.11709078238E+02  0.51100000000E-03 0.  1.
         12    1    4    4    0    0  0.10730405295E+02 -0.81440199907E+01  0.31734043573E+02  0.34474863029E+02  0.00000000000E+00 0. -1.
</event>
<event>
 8    1  0.4042158E-011  0.9118800E+02  0.7816164E-02  0.1184000E+00
        -11   -1    0    0    0    0  0.00000000000E+00  0.00000000000E+00  0.45593999997E+02  0.45594000000E+02  0.51100000000E-03 0.  1.
         11   -1    0    0    0    0 -0.00000000000E+00 -0.00000000000E+00 -0.45593999997E+02  0.45594000000E+02  0.51100000000E-03 0. -1.
         23    2    1    2    0    0 -0.17763568394E-14  0.00000000000E+00  0.00000000000E+00  0.91188000000E+02  0.91188000000E+02 0.  0.
    9900012    2    3    3    0    0 -0.86465140590E+01 -0.35774650280E+02 -0.23000771084E+02  0.47787270991E+02  0.19999999758E+02 0.  0.
         12    1    3    3    0    0  0.86465140590E+01  0.35774650280E+02  0.23000771084E+02  0.43400729009E+02  0.00000000000E+00 0. -1.
         11    1    4    4    0    0  0.11941007410E+01 -0.15127851920E+02 -0.91294906537E+01  0.17709471481E+02  0.51100000000E-03 0.  1.
        -11    1    4    4    0    0 -0.88318558124E+01 -0.20242404916E+02 -0.70685638680E+01  0.23188816901E+02  0.51100000000E-03 0. -1.
         12    1    4    4    0    0 -0.10087589876E+01 -0.40439344420E+00 -0.68027165624E+01  0.68889826086E+01  0.00000000000E+00 0. -1.
</event>
<event>
 8    1  0.4042158E-011  0.9118800E+02  0.7816164E-02  0.1184000E+00
        -11   -1    0    0    0    0  0.00000000000E+00  0.00000000000E+00  0.45593999997E+02  0.45594000000E+02  0.51100000000E-03 0. -1.
         11   -1    0    0    0    0 -0.00000000000E+00 -0.00000000000E+00 -0.45593999997E+02  0.45594000000E+02  0.51100000000E-03 0.  1.
         23    2    1    2    0    0  0.00000000000E+00  0.00000000000E+00 -0.71054273576E-14  0.91188000000E+02  0.91188000000E+02 0.  0.
    9900012    2    3    3    0    0  0.16450926316E+01  0.16554928308E+02  0.40085551480E+02  0.47787269379E+02  0.19999992405E+02 0.  0.
        -12    1    3    3    0    0 -0.16450926316E+01 -0.16554928308E+02 -0.40085551480E+02  0.43400730621E+02  0.00000000000E+00 0.  1.
         11    1    4    4    0    0  0.75146150747E+01  0.79276336550E+01  0.11552630052E+02  0.15899058980E+02  0.51100000000E-03 0. -1.
        -11    1    4    4    0    0  0.19481787662E+01  0.62323031351E+00  0.10261001508E+02  0.10462885297E+02  0.51100000000E-03 0.  1.
         12    1    4    4    0    0 -0.78177012093E+01  0.80040643391E+01  0.18271919920E+02  0.21425325101E+02  0.00000000000E+00 0. -1.
</event>
<event>
 8    1  0.4042158E-011  0.9118800E+02  0.7816164E-02  0.1184000E+00
        -11   -1    0    0    0    0  0.00000000000E+00  0.00000000000E+00  0.45593999997E+02  0.45594000000E+02  0.51100000000E-03 0. -1.
         11   -1    0    0    0    0 -0.00000000000E+00 -0.00000000000E+00 -0.45593999997E+02  0.45594000000E+02  0.51100000000E-03 0.  1.
         23    2    1    2    0    0 -0.17763568394E-14 -0.55511151231E-16  0.00000000000E+00  0.91188000000E+02  0.91188000000E+02 0.  0.
    9900012    2    3    3    0    0 -0.93618838651E+01 -0.14999141849E+00  0.42378715516E+02  0.47787275401E+02  0.20000019862E+02 0.  0.
        -12    1    3    3    0    0  0.93618838651E+01  0.14999141849E+00 -0.42378715516E+02  0.43400724599E+02  0.00000000000E+00 0.  1.
         11    1    4    4    0    0 -0.94098827435E+01  0.24937761126E+01  0.11490866660E+02  0.15060040817E+02  0.51100000000E-03 0. -1.
        -11    1    4    4    0    0 -0.45405643128E+01 -0.37411306835E+01  0.13839462707E+02  0.15038068738E+02  0.51100000000E-03 0.  1.
         12    1    4    4    0    0  0.45885631912E+01  0.10973631524E+01  0.17048386148E+02  0.17689165846E+02  0.00000000000E+00 0. -1.
</event>
<event>
 8    1  0.4042158E-011  0.9118800E+02  0.7816164E-02  0.1184000E+00
        -11   -1    0    0    0    0  0.00000000000E+00  0.00000000000E+00  0.45593999997E+02  0.45594000000E+02  0.51100000000E-03 0.  1.
         11   -1    0    0    0    0 -0.00000000000E+00 -0.00000000000E+00 -0.45593999997E+02  0.45594000000E+02  0.51100000000E-03 0. -1.
         23    2    1    2    0    0  0.88817841970E-15  0.00000000000E+00  0.00000000000E+00  0.91188000000E+02  0.91188000000E+02 0.  0.
    9900012    2    3    3    0    0  0.78976276701E+01  0.41468644580E+02 -0.10079794700E+02  0.47787271120E+02  0.20000000346E+02 0.  0.
        -12    1    3    3    0    0 -0.78976276701E+01 -0.41468644580E+02  0.10079794700E+02  0.43400728880E+02  0.00000000000E+00 0.  1.
         11    1    4    4    0    0  0.68918664225E+01  0.14937926383E+02  0.84909268614E+00  0.16473021158E+02  0.51100000000E-03 0. -1.
        -11    1    4    4    0    0  0.12186349255E+01 -0.11164751479E+01 -0.23143205724E+00  0.16688765370E+01  0.51100000000E-03 0.  1.
        -12    1    4    4    0    0 -0.21287367791E+00  0.27647193344E+02 -0.10697455329E+02  0.29645373425E+02  0.00000000000E+00 0.  1.
</event>
<event>
 8    1  0.4042158E-011  0.9118800E+02  0.7816164E-02  0.1184000E+00
        -11   -1    0    0    0    0  0.00000000000E+00  0.00000000000E+00  0.45593999997E+02  0.45594000000E+02  0.51100000000E-03 0. -1.
         11   -1    0    0    0    0 -0.00000000000E+00 -0.00000000000E+00 -0.45593999997E+02  0.45594000000E+02  0.51100000000E-03 0.  1.
         23    2    1    2    0    0  0.00000000000E+00  0.00000000000E+00  0.00000000000E+00  0.91188000000E+02  0.91188000000E+02 0.  0.
    9900012    2    3    3    0    0  0.30920236714E+02 -0.89344465771E+01 -0.29115942419E+02  0.47787268704E+02  0.19999989329E+02 0.  0.
         12    1    3    3    0    0 -0.30920236714E+02  0.89344465771E+01  0.29115942419E+02  0.43400731296E+02  0.00000000000E+00 0. -1.
         11    1    4    4    0    0  0.93074828422E+00  0.24358020821E+01 -0.97961466084E-01  0.26094100601E+01  0.51100000000E-03 0. -1.
        -11    1    4    4    0    0  0.21272764907E+02 -0.39968802142E+01 -0.12187267783E+02  0.24840190710E+02  0.51100000000E-03 0.  1.
         12    1    4    4    0    0  0.87167235233E+01 -0.73733684450E+01 -0.16830713170E+02  0.20337667934E+02  0.00000000000E+00 0. -1.
</event>
<event>
 8    1  0.4042158E-011  0.9118800E+02  0.7816164E-02  0.1184000E+00
        -11   -1    0    0    0    0  0.00000000000E+00  0.00000000000E+00  0.45593999997E+02  0.45594000000E+02  0.51100000000E-03 0. -1.
         11   -1    0    0    0    0 -0.00000000000E+00 -0.00000000000E+00 -0.45593999997E+02  0.45594000000E+02  0.51100000000E-03 0.  1.
         23    2    1    2    0    0  0.00000000000E+00  0.00000000000E+00  0.00000000000E+00  0.91188000000E+02  0.91188000000E+02 0.  0.
    9900012    2    3    3    0    0 -0.20791301616E+02 -0.97858046916E+01 -0.36818249678E+02  0.47787266069E+02  0.19999977316E+02 0.  0.
         12    1    3    3    0    0  0.20791301616E+02  0.97858046916E+01  0.36818249678E+02  0.43400733931E+02  0.00000000000E+00 0. -1.
         11    1    4    4    0    0  0.18516965826E+01  0.20613350162E+01 -0.34123741909E+01  0.43957001903E+01  0.51100000000E-03 0. -1.
        -11    1    4    4    0    0 -0.43240256499E+01 -0.10588401185E+01 -0.88599137377E+00  0.45390881455E+01  0.51100000000E-03 0.  1.
        -12    1    4    4    0    0 -0.18318972549E+02 -0.10788299589E+02 -0.32519884114E+02  0.38852477734E+02  0.00000000000E+00 0.  1.
</event>
<event>
 8    1  0.5500397E-011  0.9118800E+02  0.7816164E-02  0.1184000E+00
        -11   -1    0    0    0    0  0.00000000000E+00  0.00000000000E+00  0.45593999997E+02  0.45594000000E+02  0.51100000000E-03 0. -1.
         11   -1    0    0    0    0 -0.00000000000E+00 -0.00000000000E+00 -0.45593999997E+02  0.45594000000E+02  0.51100000000E-03 0.  1.
         23    2    1    2    0    0 -0.17763568394E-14 -0.17763568394E-14  0.71054273576E-14  0.91188000000E+02  0.91188000000E+02 0.  0.
    9900012    2    3    3    0    0 -0.13182217388E+02 -0.12628611865E+02  0.39374744950E+02  0.47787271518E+02  0.20000002158E+02 0.  0.
        -12    1    3    3    0    0  0.13182217388E+02  0.12628611865E+02 -0.39374744950E+02  0.43400728482E+02  0.00000000000E+00 0.  1.
         11    1    4    4    0    0 -0.10087917250E+02 -0.76077201977E+01  0.27237410795E+02  0.30025323114E+02  0.51100000000E-03 0. -1.
        -11    1    4    4    0    0  0.28509822587E+00 -0.11660021557E+01  0.12560811248E+02  0.12618035564E+02  0.51100000000E-03 0.  1.
        -12    1    4    4    0    0 -0.33793983643E+01 -0.38548895113E+01 -0.42347709293E+00  0.51439128391E+01  0.00000000000E+00 0.  1.
</event>
<event>
 8    1  0.4042158E-011  0.9118800E+02  0.7816164E-02  0.1184000E+00
        -11   -1    0    0    0    0  0.00000000000E+00  0.00000000000E+00  0.45593999997E+02  0.45594000000E+02  0.51100000000E-03 0. -1.
         11   -1    0    0    0    0 -0.00000000000E+00 -0.00000000000E+00 -0.45593999997E+02  0.45594000000E+02  0.51100000000E-03 0.  1.
         23    2    1    2    0    0 -0.27755575616E-15  0.00000000000E+00  0.00000000000E+00  0.91188000000E+02  0.91188000000E+02 0.  0.
    9900012    2    3    3    0    0 -0.47746749007E+00 -0.38431027599E+02 -0.20160639168E+02  0.47787271559E+02  0.20000002348E+02 0.  0.
         12    1    3    3    0    0  0.47746749007E+00  0.38431027599E+02  0.20160639168E+02  0.43400728441E+02  0.00000000000E+00 0. -1.
         11    1    4    4    0    0 -0.34201705049E+01  0.60222914420E+00 -0.16884626603E+01  0.38614961661E+01  0.51100000000E-03 0. -1.
        -11    1    4    4    0    0  0.20629345625E+01 -0.77905972797E+01 -0.10063620842E+01  0.81216913195E+01  0.51100000000E-03 0.  1.
         12    1    4    4    0    0  0.87976845235E+00 -0.31242659463E+02 -0.17465814424E+02  0.35804084074E+02  0.00000000000E+00 0. -1.
</event>
<event>
 8    1  0.4042158E-011  0.9118800E+02  0.7816164E-02  0.1184000E+00
        -11   -1    0    0    0    0  0.00000000000E+00  0.00000000000E+00  0.45593999997E+02  0.45594000000E+02  0.51100000000E-03 0.  1.
         11   -1    0    0    0    0 -0.00000000000E+00 -0.00000000000E+00 -0.45593999997E+02  0.45594000000E+02  0.51100000000E-03 0. -1.
         23    2    1    2    0    0  0.00000000000E+00  0.17763568394E-14 -0.35527136788E-14  0.91188000000E+02  0.91188000000E+02 0.  0.
    9900012    2    3    3    0    0  0.35462660566E+02 -0.14899680886E+02  0.20100312464E+02  0.47787270212E+02  0.19999996206E+02 0.  0.
        -12    1    3    3    0    0 -0.35462660566E+02  0.14899680886E+02 -0.20100312464E+02  0.43400729788E+02  0.00000000000E+00 0.  1.
         11    1    4    4    0    0  0.69061463313E+01  0.13453364321E+01 -0.23540643903E+01  0.74193265651E+01  0.51100000000E-03 0. -1.
        -11    1    4    4    0    0  0.93942054698E+01 -0.18696937592E+01  0.59087019979E+01  0.11254315205E+02  0.51100000000E-03 0.  1.
        -12    1    4    4    0    0  0.19162308765E+02 -0.14375323559E+02  0.16545674857E+02  0.29113628443E+02  0.00000000000E+00 0.  1.
</event>
<event>
 8    1  0.4042158E-011  0.9118800E+02  0.7816164E-02  0.1184000E+00
        -11   -1    0    0    0    0  0.00000000000E+00  0.00000000000E+00  0.45593999997E+02  0.45594000000E+02  0.51100000000E-03 0. -1.
         11   -1    0    0    0    0 -0.00000000000E+00 -0.00000000000E+00 -0.45593999997E+02  0.45594000000E+02  0.51100000000E-03 0.  1.
         23    2    1    2    0    0  0.00000000000E+00  0.17763568394E-14  0.71054273576E-14  0.91188000000E+02  0.91188000000E+02 0.  0.
    9900012    2    3    3    0    0 -0.19767719986E+02  0.77612352977E+01  0.37850013436E+02  0.47787273694E+02  0.20000012083E+02 0.  0.
        -12    1    3    3    0    0  0.19767719986E+02 -0.77612352977E+01 -0.37850013436E+02  0.43400726306E+02  0.00000000000E+00 0.  1.
         11    1    4    4    0    0 -0.22298269525E+02  0.26387073866E+01  0.24389083477E+02  0.33151214059E+02  0.51100000000E-03 0. -1.
        -11    1    4    4    0    0  0.33434355603E+00  0.83913904763E+00  0.16336521845E+01  0.18667511018E+01  0.51100000000E-03 0.  1.
         12    1    4    4    0    0  0.21962059835E+01  0.42833888635E+01  0.11827277775E+02  0.12769308534E+02  0.00000000000E+00 0. -1.
</event>
<event>
 8    1  0.4042158E-011  0.9118800E+02  0.7816164E-02  0.1184000E+00
        -11   -1    0    0    0    0  0.00000000000E+00  0.00000000000E+00  0.45593999997E+02  0.45594000000E+02  0.51100000000E-03 0. -1.
         11   -1    0    0    0    0 -0.00000000000E+00 -0.00000000000E+00 -0.45593999997E+02  0.45594000000E+02  0.51100000000E-03 0.  1.
         23    2    1    2    0    0 -0.44408920985E-15 -0.44408920985E-15  0.00000000000E+00  0.91188000000E+02  0.91188000000E+02 0.  0.
    9900012    2    3    3    0    0  0.20573582618E+01  0.32862879798E+01 -0.43227203157E+02  0.47787268388E+02  0.19999987887E+02 0.  0.
         12    1    3    3    0    0 -0.20573582618E+01 -0.32862879798E+01  0.43227203157E+02  0.43400731612E+02  0.00000000000E+00 0. -1.
         11    1    4    4    0    0 -0.12717881384E+01 -0.49925345669E+00  0.50621640149E+00  0.14570361661E+01  0.51100000000E-03 0. -1.
        -11    1    4    4    0    0  0.46439702263E+01 -0.43915082997E+01 -0.12796811137E+02  0.14304201485E+02  0.51100000000E-03 0.  1.
        -12    1    4    4    0    0 -0.13148238260E+01  0.81770497361E+01 -0.30936608422E+02  0.32026030736E+02  0.00000000000E+00 0.  1.
</event>
<event>
 8    1  0.4042158E-011  0.9118800E+02  0.7816164E-02  0.1184000E+00
        -11   -1    0    0    0    0  0.00000000000E+00  0.00000000000E+00  0.45593999997E+02  0.45594000000E+02  0.51100000000E-03 0. -1.
         11   -1    0    0    0    0 -0.00000000000E+00 -0.00000000000E+00 -0.45593999997E+02  0.45594000000E+02  0.51100000000E-03 0.  1.
         23    2    1    2    0    0  0.00000000000E+00  0.17763568394E-14  0.00000000000E+00  0.91188000000E+02  0.91188000000E+02 0.  0.
    9900012    2    3    3    0    0  0.38232610045E+02  0.72177723551E+01  0.19230042586E+02  0.47787271360E+02  0.20000001438E+02 0.  0.
        -12    1    3    3    0    0 -0.38232610045E+02 -0.72177723551E+01 -0.19230042586E+02  0.43400728640E+02  0.00000000000E+00 0.  1.
         11    1    4    4    0    0  0.96308840694E+01 -0.10751028747E+00  0.39080868970E+01  0.10394163260E+02  0.51100000000E-03 0. -1.
        -11    1    4    4    0    0  0.69999957265E+01  0.99980133207E+01  0.71377584956E+01  0.14138875738E+02  0.51100000000E-03 0.  1.
        -12    1    4    4    0    0  0.21601730249E+02 -0.26727306782E+01  0.81841971930E+01  0.23254232362E+02  0.00000000000E+00 0.  1.
</event>
<event>
 8    1  0.4042158E-011  0.9118800E+02  0.7816164E-02  0.1184000E+00
        -11   -1    0    0    0    0  0.00000000000E+00  0.00000000000E+00  0.45593999997E+02  0.45594000000E+02  0.51100000000E-03 0. -1.
         11   -1    0    0    0    0 -0.00000000000E+00 -0.00000000000E+00 -0.45593999997E+02  0.45594000000E+02  0.51100000000E-03 0.  1.
         23    2    1    2    0    0  0.71054273576E-14  0.00000000000E+00 -0.35527136788E-14  0.91188000000E+02  0.91188000000E+02 0.  0.
    9900012    2    3    3    0    0 -0.19896767383E+02 -0.34332523054E+02  0.17578964473E+02  0.47787268630E+02  0.19999988990E+02 0.  0.
        -12    1    3    3    0    0  0.19896767383E+02  0.34332523054E+02 -0.17578964473E+02  0.43400731370E+02  0.00000000000E+00 0.  1.
         11    1    4    4    0    0 -0.45255601367E+01 -0.12531023727E+02  0.85721225101E+01  0.15842617674E+02  0.51100000000E-03 0.  1.
        -11    1    4    4    0    0 -0.16915061444E+02 -0.15873922409E+02  0.10763340493E+02  0.25572450315E+02  0.51100000000E-03 0. -1.
         12    1    4    4    0    0  0.15438541981E+01 -0.59275769185E+01 -0.17564985301E+01  0.63722006399E+01  0.00000000000E+00 0. -1.
</event>
<event>
 8    1  0.4042158E-011  0.9118800E+02  0.7816164E-02  0.1184000E+00
        -11   -1    0    0    0    0  0.00000000000E+00  0.00000000000E+00  0.45593999997E+02  0.45594000000E+02  0.51100000000E-03 0. -1.
         11   -1    0    0    0    0 -0.00000000000E+00 -0.00000000000E+00 -0.45593999997E+02  0.45594000000E+02  0.51100000000E-03 0.  1.
         23    2    1    2    0    0  0.00000000000E+00  0.00000000000E+00  0.00000000000E+00  0.91188000000E+02  0.91188000000E+02 0.  0.
    9900012    2    3    3    0    0 -0.33039187740E+02  0.82099002372E+01  0.26919008751E+02  0.47787269354E+02  0.19999992293E+02 0.  0.
        -12    1    3    3    0    0  0.33039187740E+02 -0.82099002372E+01 -0.26919008751E+02  0.43400730646E+02  0.00000000000E+00 0.  1.
         11    1    4    4    0    0 -0.25844933582E+01  0.39002916486E+00 -0.54988169456E-01  0.26143359823E+01  0.51100000000E-03 0. -1.
        -11    1    4    4    0    0 -0.70203627016E+01  0.50589471232E+01 -0.84494803737E+00  0.86943876096E+01  0.51100000000E-03 0.  1.
         12    1    4    4    0    0 -0.23434331681E+02  0.27609239491E+01  0.27818944958E+02  0.36478545762E+02  0.00000000000E+00 0. -1.
</event>
<event>
 8    1  0.4042158E-011  0.9118800E+02  0.7816164E-02  0.1184000E+00
        -11   -1    0    0    0    0  0.00000000000E+00  0.00000000000E+00  0.45593999997E+02  0.45594000000E+02  0.51100000000E-03 0. -1.
         11   -1    0    0    0    0 -0.00000000000E+00 -0.00000000000E+00 -0.45593999997E+02  0.45594000000E+02  0.51100000000E-03 0.  1.
         23    2    1    2    0    0 -0.35527136788E-14  0.17763568394E-14  0.00000000000E+00  0.91188000000E+02  0.91188000000E+02 0.  0.
    9900012    2    3    3    0    0 -0.31473815936E+02 -0.11180626274E+02  0.27713090093E+02  0.47787275859E+02  0.20000021953E+02 0.  0.
        -12    1    3    3    0    0  0.31473815936E+02  0.11180626274E+02 -0.27713090093E+02  0.43400724141E+02  0.00000000000E+00 0.  1.
         11    1    4    4    0    0 -0.13476032157E+02 -0.42062866831E+01  0.34306893027E+01  0.14528107920E+02  0.51100000000E-03 0.  1.
        -11    1    4    4    0    0 -0.63461059712E+01  0.12713382175E+00  0.12217308943E+01  0.64638881987E+01  0.51100000000E-03 0. -1.
         12    1    4    4    0    0 -0.11651677807E+02 -0.71014734123E+01  0.23060669896E+02  0.26795279741E+02  0.00000000000E+00 0. -1.
</event>
<event>
 8    1  0.4042158E-011  0.9118800E+02  0.7816164E-02  0.1184000E+00
        -11   -1    0    0    0    0  0.00000000000E+00  0.00000000000E+00  0.45593999997E+02  0.45594000000E+02  0.51100000000E-03 0. -1.
         11   -1    0    0    0    0 -0.00000000000E+00 -0.00000000000E+00 -0.45593999997E+02  0.45594000000E+02  0.51100000000E-03 0.  1.
         23    2    1    2    0    0  0.00000000000E+00  0.00000000000E+00  0.00000000000E+00  0.91188000000E+02  0.91188000000E+02 0.  0.
    9900012    2    3    3    0    0  0.15143260849E+02 -0.20027673547E+02 -0.35400519003E+02  0.47787276475E+02  0.20000024759E+02 0.  0.
         12    1    3    3    0    0 -0.15143260849E+02  0.20027673547E+02  0.35400519003E+02  0.43400723525E+02  0.00000000000E+00 0. -1.
         11    1    4    4    0    0  0.46787985872E+01 -0.58764183117E+00 -0.15840243894E+01  0.49744962226E+01  0.51100000000E-03 0. -1.
        -11    1    4    4    0    0  0.11767003161E+02 -0.13002408280E+02 -0.15682105109E+02  0.23525590437E+02  0.51100000000E-03 0.  1.
        -12    1    4    4    0    0 -0.13025408995E+01 -0.64376234358E+01 -0.18134389504E+02  0.19287189815E+02  0.00000000000E+00 0.  1.
</event>
<event>
 8    1  0.4042158E-011  0.9118800E+02  0.7816164E-02  0.1184000E+00
        -11   -1    0    0    0    0  0.00000000000E+00  0.00000000000E+00  0.45593999997E+02  0.45594000000E+02  0.51100000000E-03 0. -1.
         11   -1    0    0    0    0 -0.00000000000E+00 -0.00000000000E+00 -0.45593999997E+02  0.45594000000E+02  0.51100000000E-03 0.  1.
         23    2    1    2    0    0  0.00000000000E+00 -0.10658141036E-13 -0.35527136788E-14  0.91188000000E+02  0.91188000000E+02 0.  0.
    9900012    2    3    3    0    0  0.14411938222E+02 -0.30320377267E+02 -0.27506254513E+02  0.47787270994E+02  0.19999999769E+02 0.  0.
         12    1    3    3    0    0 -0.14411938222E+02  0.30320377267E+02  0.27506254513E+02  0.43400729006E+02  0.00000000000E+00 0. -1.
         11    1    4    4    0    0  0.17679838009E+01 -0.13388514832E+02 -0.12316537976E+02  0.18277724259E+02  0.51100000000E-03 0. -1.
        -11    1    4    4    0    0  0.62748643504E+01 -0.11939119425E+02 -0.16500231385E+02  0.21311361554E+02  0.51100000000E-03 0.  1.
         12    1    4    4    0    0  0.63690900705E+01 -0.49927430108E+01  0.13105148474E+01  0.81981851811E+01  0.00000000000E+00 0. -1.
</event>
<event>
 8    1  0.4042158E-011  0.9118800E+02  0.7816164E-02  0.1184000E+00
        -11   -1    0    0    0    0  0.00000000000E+00  0.00000000000E+00  0.45593999997E+02  0.45594000000E+02  0.51100000000E-03 0. -1.
         11   -1    0    0    0    0 -0.00000000000E+00 -0.00000000000E+00 -0.45593999997E+02  0.45594000000E+02  0.51100000000E-03 0.  1.
         23    2    1    2    0    0  0.00000000000E+00 -0.44408920985E-15  0.00000000000E+00  0.91188000000E+02  0.91188000000E+02 0.  0.
    9900012    2    3    3    0    0  0.32138859684E+02  0.36450249941E+01  0.28938404267E+02  0.47787265553E+02  0.19999974963E+02 0.  0.
        -12    1    3    3    0    0 -0.32138859684E+02 -0.36450249941E+01 -0.28938404267E+02  0.43400734447E+02  0.00000000000E+00 0.  1.
         11    1    4    4    0    0  0.16916603629E+02  0.24422422069E+01  0.14305029866E+02  0.22288335628E+02  0.51100000000E-03 0.  1.
        -11    1    4    4    0    0  0.15339595774E+02  0.82072882557E+00  0.17107780660E+02  0.22992454278E+02  0.51100000000E-03 0. -1.
        -12    1    4    4    0    0 -0.11733971925E+00  0.38205396168E+00 -0.24744062589E+01  0.25064756479E+01  0.00000000000E+00 0.  1.
</event>
<event>
 8    1  0.4042158E-011  0.9118800E+02  0.7816164E-02  0.1184000E+00
        -11   -1    0    0    0    0  0.00000000000E+00  0.00000000000E+00  0.45593999997E+02  0.45594000000E+02  0.51100000000E-03 0. -1.
         11   -1    0    0    0    0 -0.00000000000E+00 -0.00000000000E+00 -0.45593999997E+02  0.45594000000E+02  0.51100000000E-03 0.  1.
         23    2    1    2    0    0  0.00000000000E+00  0.00000000000E+00  0.35527136788E-14  0.91188000000E+02  0.91188000000E+02 0.  0.
    9900012    2    3    3    0    0 -0.31575451863E+02 -0.18312203106E+02  0.23479295727E+02  0.47787271080E+02  0.20000000160E+02 0.  0.
        -12    1    3    3    0    0  0.31575451863E+02  0.18312203106E+02 -0.23479295727E+02  0.43400728920E+02  0.00000000000E+00 0.  1.
         11    1    4    4    0    0 -0.50818539457E+01 -0.44813373016E+01  0.26718971657E+01  0.72833136869E+01  0.51100000000E-03 0. -1.
        -11    1    4    4    0    0 -0.26152588924E+02 -0.87087571540E+01  0.21960106358E+02  0.35242681937E+02  0.51100000000E-03 0.  1.
        -12    1    4    4    0    0 -0.34100899398E+00 -0.51221086504E+01 -0.11527077963E+01  0.52612754560E+01  0.00000000000E+00 0.  1.
</event>
<event>
 8    1  0.4042158E-011  0.9118800E+02  0.7816164E-02  0.1184000E+00
        -11   -1    0    0    0    0  0.00000000000E+00  0.00000000000E+00  0.45593999997E+02  0.45594000000E+02  0.51100000000E-03 0. -1.
         11   -1    0    0    0    0 -0.00000000000E+00 -0.00000000000E+00 -0.45593999997E+02  0.45594000000E+02  0.51100000000E-03 0.  1.
         23    2    1    2    0    0  0.00000000000E+00  0.00000000000E+00  0.00000000000E+00  0.91188000000E+02  0.91188000000E+02 0.  0.
    9900012    2    3    3    0    0  0.18877624548E+02  0.26980848071E+02  0.28271759401E+02  0.47787271310E+02  0.20000001210E+02 0.  0.
        -12    1    3    3    0    0 -0.18877624548E+02 -0.26980848071E+02 -0.28271759401E+02  0.43400728690E+02  0.00000000000E+00 0.  1.
         11    1    4    4    0    0  0.19244857561E+01  0.56293221107E+01  0.11283063126E+02  0.12755407741E+02  0.51100000000E-03 0. -1.
        -11    1    4    4    0    0  0.95439814879E+01  0.95416157570E+01  0.16176214489E+02  0.21066559504E+02  0.51100000000E-03 0.  1.
        -12    1    4    4    0    0  0.74091573040E+01  0.11809910204E+02  0.81248178538E+00  0.13965304065E+02  0.00000000000E+00 0.  1.
</event>
<event>
 8    1  0.4042158E-011  0.9118800E+02  0.7816164E-02  0.1184000E+00
        -11   -1    0    0    0    0  0.00000000000E+00  0.00000000000E+00  0.45593999997E+02  0.45594000000E+02  0.51100000000E-03 0. -1.
         11   -1    0    0    0    0 -0.00000000000E+00 -0.00000000000E+00 -0.45593999997E+02  0.45594000000E+02  0.51100000000E-03 0.  1.
         23    2    1    2    0    0 -0.35527136788E-14  0.88817841970E-15 -0.71054273576E-14  0.91188000000E+02  0.91188000000E+02 0.  0.
    9900012    2    3    3    0    0  0.20663544199E+02 -0.61891290657E+01  0.37660812367E+02  0.47787260771E+02  0.19999953160E+02 0.  0.
        -12    1    3    3    0    0 -0.20663544199E+02  0.61891290657E+01 -0.37660812367E+02  0.43400739229E+02  0.00000000000E+00 0.  1.
         11    1    4    4    0    0  0.39161157930E+01 -0.95181114047E+01  0.77890887032E+01  0.12907374276E+02  0.51100000000E-03 0. -1.
        -11    1    4    4    0    0  0.40044926762E+01  0.20716683797E+01  0.40630330454E+01  0.60692676047E+01  0.51100000000E-03 0.  1.
         12    1    4    4    0    0  0.12742935729E+02  0.12573139593E+01  0.25808690619E+02  0.28810618890E+02  0.00000000000E+00 0. -1.
</event>
<event>
 8    1  0.4042158E-011  0.9118800E+02  0.7816164E-02  0.1184000E+00
        -11   -1    0    0    0    0  0.00000000000E+00  0.00000000000E+00  0.45593999997E+02  0.45594000000E+02  0.51100000000E-03 0. -1.
         11   -1    0    0    0    0 -0.00000000000E+00 -0.00000000000E+00 -0.45593999997E+02  0.45594000000E+02  0.51100000000E-03 0.  1.
         23    2    1    2    0    0  0.66613381478E-15 -0.35527136788E-14  0.00000000000E+00  0.91188000000E+02  0.91188000000E+02 0.  0.
    9900012    2    3    3    0    0 -0.19613269650E+01  0.22751354412E+02 -0.36907347029E+02  0.47787271945E+02  0.20000004104E+02 0.  0.
         12    1    3    3    0    0  0.19613269650E+01 -0.22751354412E+02  0.36907347029E+02  0.43400728055E+02  0.00000000000E+00 0. -1.
         11    1    4    4    0    0 -0.56943374329E+01  0.12202866112E+02 -0.10286285548E+02  0.16945297011E+02  0.51100000000E-03 0. -1.
        -11    1    4    4    0    0  0.23969974255E+01  0.10214590599E+02 -0.11152154111E+02  0.15311890783E+02  0.51100000000E-03 0.  1.
         12    1    4    4    0    0  0.13360130424E+01  0.33389770049E+00 -0.15468907369E+02  0.15530084150E+02  0.00000000000E+00 0. -1.
</event>
<event>
 8    1  0.4042158E-011  0.9118800E+02  0.7816164E-02  0.1184000E+00
        -11   -1    0    0    0    0  0.00000000000E+00  0.00000000000E+00  0.45593999997E+02  0.45594000000E+02  0.51100000000E-03 0. -1.
         11   -1    0    0    0    0 -0.00000000000E+00 -0.00000000000E+00 -0.45593999997E+02  0.45594000000E+02  0.51100000000E-03 0.  1.
         23    2    1    2    0    0  0.00000000000E+00 -0.44408920985E-15  0.00000000000E+00  0.91188000000E+02  0.91188000000E+02 0.  0.
    9900012    2    3    3    0    0 -0.69823610220E+01 -0.17334957358E+01 -0.42800287718E+02  0.47787274180E+02  0.20000014298E+02 0.  0.
         12    1    3    3    0    0  0.69823610220E+01  0.17334957358E+01  0.42800287718E+02  0.43400725820E+02  0.00000000000E+00 0. -1.
         11    1    4    4    0    0 -0.11570165901E+01 -0.98875066222E+00 -0.10352714137E+02  0.10463986120E+02  0.51100000000E-03 0.  1.
        -11    1    4    4    0    0  0.82679022973E-01 -0.53238671083E+01 -0.15660981301E+01  0.55500504883E+01  0.51100000000E-03 0. -1.
         12    1    4    4    0    0 -0.59080234548E+01  0.45791220347E+01 -0.30881475451E+02  0.31773237572E+02  0.00000000000E+00 0. -1.
</event>
<event>
 8    1  0.5178569E-011  0.9118800E+02  0.7816164E-02  0.1184000E+00
        -11   -1    0    0    0    0  0.00000000000E+00  0.00000000000E+00  0.45593999997E+02  0.45594000000E+02  0.51100000000E-03 0. -1.
         11   -1    0    0    0    0 -0.00000000000E+00 -0.00000000000E+00 -0.45593999997E+02  0.45594000000E+02  0.51100000000E-03 0.  1.
         23    2    1    2    0    0  0.00000000000E+00  0.00000000000E+00 -0.35527136788E-14  0.91188000000E+02  0.91188000000E+02 0.  0.
    9900012    2    3    3    0    0  0.11970191541E+02 -0.34640397912E+02  0.23246088180E+02  0.47787271104E+02  0.20000000272E+02 0.  0.
        -12    1    3    3    0    0 -0.11970191541E+02  0.34640397912E+02 -0.23246088180E+02  0.43400728896E+02  0.00000000000E+00 0.  1.
         11    1    4    4    0    0  0.62312609102E+01 -0.18113261087E+02  0.92683635572E+01  0.21279600631E+02  0.51100000000E-03 0. -1.
        -11    1    4    4    0    0  0.94590021066E+01 -0.14641766780E+02  0.13967533524E+02  0.22337100266E+02  0.51100000000E-03 0.  1.
        -12    1    4    4    0    0 -0.37200714758E+01 -0.18853700445E+01  0.10191099010E-01  0.41705702066E+01  0.00000000000E+00 0.  1.
</event>
<event>
 8    1  0.4042158E-011  0.9118800E+02  0.7816164E-02  0.1184000E+00
        -11   -1    0    0    0    0  0.00000000000E+00  0.00000000000E+00  0.45593999997E+02  0.45594000000E+02  0.51100000000E-03 0.  1.
         11   -1    0    0    0    0 -0.00000000000E+00 -0.00000000000E+00 -0.45593999997E+02  0.45594000000E+02  0.51100000000E-03 0. -1.
         23    2    1    2    0    0  0.00000000000E+00  0.00000000000E+00  0.00000000000E+00  0.91188000000E+02  0.91188000000E+02 0.  0.
    9900012    2    3    3    0    0  0.39915526351E+02  0.16599574876E+02 -0.38502553527E+01  0.47787313413E+02  0.20000193176E+02 0.  0.
         12    1    3    3    0    0 -0.39915526351E+02 -0.16599574876E+02  0.38502553527E+01  0.43400686587E+02  0.00000000000E+00 0. -1.
         11    1    4    4    0    0  0.21678152773E+01  0.72580506633E-01 -0.41049028761E+01  0.46427275270E+01  0.51100000000E-03 0. -1.
        -11    1    4    4    0    0  0.10999986369E+02  0.11525970165E+02  0.10540109647E+00  0.15932946935E+02  0.51100000000E-03 0.  1.
         12    1    4    4    0    0  0.26747724704E+02  0.50010242034E+01  0.14924642696E+00  0.27211638951E+02  0.00000000000E+00 0. -1.
</event>
<event>
 8    1  0.4042158E-011  0.9118800E+02  0.7816164E-02  0.1184000E+00
        -11   -1    0    0    0    0  0.00000000000E+00  0.00000000000E+00  0.45593999997E+02  0.45594000000E+02  0.51100000000E-03 0.  1.
         11   -1    0    0    0    0 -0.00000000000E+00 -0.00000000000E+00 -0.45593999997E+02  0.45594000000E+02  0.51100000000E-03 0. -1.
         23    2    1    2    0    0  0.35527136788E-14  0.00000000000E+00  0.71054273576E-14  0.91188000000E+02  0.91188000000E+02 0.  0.
    9900012    2    3    3    0    0 -0.18237878517E+02 -0.35512670285E+02 -0.17025073119E+02  0.47787273298E+02  0.20000010274E+02 0.  0.
         12    1    3    3    0    0  0.18237878517E+02  0.35512670285E+02  0.17025073119E+02  0.43400726702E+02  0.00000000000E+00 0. -1.
         11    1    4    4    0    0 -0.12098624666E+01 -0.21494112845E+02 -0.11884849338E+02  0.24590858021E+02  0.51100000000E-03 0. -1.
        -11    1    4    4    0    0 -0.37012478033E+00 -0.15360916172E+01 -0.12625516689E+01  0.20225248545E+01  0.51100000000E-03 0.  1.
         12    1    4    4    0    0 -0.16657891270E+02 -0.12482465823E+02 -0.38776721123E+01  0.21173890422E+02  0.00000000000E+00 0. -1.
</event>
<event>
 8    1  0.4042158E-011  0.9118800E+02  0.7816164E-02  0.1184000E+00
        -11   -1    0    0    0    0  0.00000000000E+00  0.00000000000E+00  0.45593999997E+02  0.45594000000E+02  0.51100000000E-03 0. -1.
         11   -1    0    0    0    0 -0.00000000000E+00 -0.00000000000E+00 -0.45593999997E+02  0.45594000000E+02  0.51100000000E-03 0.  1.
         23    2    1    2    0    0  0.00000000000E+00 -0.26645352591E-14  0.71054273576E-14  0.91188000000E+02  0.91188000000E+02 0.  0.
    9900012    2    3    3    0    0  0.20576040686E+02 -0.63563785296E+01  0.37680810301E+02  0.47787303425E+02  0.20000147633E+02 0.  0.
        -12    1    3    3    0    0 -0.20576040686E+02  0.63563785296E+01 -0.37680810301E+02  0.43400696575E+02  0.00000000000E+00 0.  1.
         11    1    4    4    0    0  0.61427876202E+01 -0.65630514138E+01  0.14726267694E+02  0.17253128529E+02  0.51100000000E-03 0. -1.
        -11    1    4    4    0    0  0.15457549581E+02 -0.36286818543E+01  0.20241434440E+02  0.25725839919E+02  0.51100000000E-03 0.  1.
        -12    1    4    4    0    0 -0.10242965155E+01  0.38353547384E+01  0.27131081665E+01  0.48083349763E+01  0.00000000000E+00 0.  1.
</event>
<event>
 8    1  0.4042158E-011  0.9118800E+02  0.7816164E-02  0.1184000E+00
        -11   -1    0    0    0    0  0.00000000000E+00  0.00000000000E+00  0.45593999997E+02  0.45594000000E+02  0.51100000000E-03 0. -1.
         11   -1    0    0    0    0 -0.00000000000E+00 -0.00000000000E+00 -0.45593999997E+02  0.45594000000E+02  0.51100000000E-03 0.  1.
         23    2    1    2    0    0  0.00000000000E+00  0.00000000000E+00  0.00000000000E+00  0.91188000000E+02  0.91188000000E+02 0.  0.
    9900012    2    3    3    0    0  0.13433364968E+02  0.10942441582E+02 -0.39792353941E+02  0.47787265510E+02  0.19999974765E+02 0.  0.
         12    1    3    3    0    0 -0.13433364968E+02 -0.10942441582E+02  0.39792353941E+02  0.43400734490E+02  0.00000000000E+00 0. -1.
         11    1    4    4    0    0 -0.37038278534E+01 -0.12392416440E+01 -0.11645348507E+02  0.12282841802E+02  0.51100000000E-03 0. -1.
        -11    1    4    4    0    0  0.33697779176E+01  0.43308644874E+01 -0.48248878214E+01  0.73069373319E+01  0.51100000000E-03 0.  1.
         12    1    4    4    0    0  0.13767414904E+02  0.78508187387E+01 -0.23322117612E+02  0.28197486376E+02  0.00000000000E+00 0. -1.
</event>
<event>
 8    1  0.4042158E-011  0.9118800E+02  0.7816164E-02  0.1184000E+00
        -11   -1    0    0    0    0  0.00000000000E+00  0.00000000000E+00  0.45593999997E+02  0.45594000000E+02  0.51100000000E-03 0.  1.
         11   -1    0    0    0    0 -0.00000000000E+00 -0.00000000000E+00 -0.45593999997E+02  0.45594000000E+02  0.51100000000E-03 0. -1.
         23    2    1    2    0    0  0.00000000000E+00  0.00000000000E+00 -0.17763568394E-14  0.91188000000E+02  0.91188000000E+02 0.  0.
    9900012    2    3    3    0    0  0.92530621469E+01 -0.41628906639E+02 -0.80645970753E+01  0.47787277045E+02  0.20000027360E+02 0.  0.
        -12    1    3    3    0    0 -0.92530621469E+01  0.41628906639E+02  0.80645970753E+01  0.43400722955E+02  0.00000000000E+00 0.  1.
         11    1    4    4    0    0 -0.26541849624E+01 -0.24177362033E+02 -0.65413512932E+01  0.25186877729E+02  0.51100000000E-03 0.  1.
        -11    1    4    4    0    0  0.29100129017E+01 -0.10886529592E+02 -0.20344092831E+01  0.11450918000E+02  0.51100000000E-03 0. -1.
        -12    1    4    4    0    0  0.89972342076E+01 -0.65650150130E+01  0.51116350099E+00  0.11149481317E+02  0.00000000000E+00 0.  1.
</event>
<event>
 8    1  0.4042158E-011  0.9118800E+02  0.7816164E-02  0.1184000E+00
        -11   -1    0    0    0    0  0.00000000000E+00  0.00000000000E+00  0.45593999997E+02  0.45594000000E+02  0.51100000000E-03 0. -1.
         11   -1    0    0    0    0 -0.00000000000E+00 -0.00000000000E+00 -0.45593999997E+02  0.45594000000E+02  0.51100000000E-03 0.  1.
         23    2    1    2    0    0  0.00000000000E+00  0.00000000000E+00  0.00000000000E+00  0.91188000000E+02  0.91188000000E+02 0.  0.
    9900012    2    3    3    0    0 -0.21596939385E+02 -0.30176100683E+02  0.22507743166E+02  0.47787270217E+02  0.19999996229E+02 0.  0.
        -12    1    3    3    0    0  0.21596939385E+02  0.30176100683E+02 -0.22507743166E+02  0.43400729783E+02  0.00000000000E+00 0.  1.
         11    1    4    4    0    0 -0.17008694692E+01 -0.72867704241E+01  0.32038213836E+01  0.81396837705E+01  0.51100000000E-03 0. -1.
        -11    1    4    4    0    0 -0.12042980356E+02 -0.15216283299E+02  0.24873121390E+01  0.19564134921E+02  0.51100000000E-03 0.  1.
         12    1    4    4    0    0 -0.78530895605E+01 -0.76730469601E+01  0.16816609643E+02  0.20083451526E+02  0.00000000000E+00 0. -1.
</event>
<event>
 8    1  0.4042158E-011  0.9118800E+02  0.7816164E-02  0.1184000E+00
        -11   -1    0    0    0    0  0.00000000000E+00  0.00000000000E+00  0.45593999997E+02  0.45594000000E+02  0.51100000000E-03 0. -1.
         11   -1    0    0    0    0 -0.00000000000E+00 -0.00000000000E+00 -0.45593999997E+02  0.45594000000E+02  0.51100000000E-03 0.  1.
         23    2    1    2    0    0  0.17763568394E-14  0.71054273576E-14  0.00000000000E+00  0.91188000000E+02  0.91188000000E+02 0.  0.
    9900012    2    3    3    0    0 -0.81970902084E+01 -0.27939961673E+02 -0.32183677663E+02  0.47787275881E+02  0.20000022051E+02 0.  0.
         12    1    3    3    0    0  0.81970902084E+01  0.27939961673E+02  0.32183677663E+02  0.43400724119E+02  0.00000000000E+00 0. -1.
         11    1    4    4    0    0  0.11237299113E+01 -0.23449019355E+01  0.29561002391E+00  0.26170058365E+01  0.51100000000E-03 0. -1.
        -11    1    4    4    0    0 -0.10842620329E+02 -0.13878015388E+02 -0.11320419610E+02  0.20935941037E+02  0.51100000000E-03 0.  1.
        -12    1    4    4    0    0  0.15218002089E+01 -0.11717044349E+02 -0.21158868076E+02  0.24234329007E+02  0.00000000000E+00 0.  1.
</event>
<event>
 8    1  0.4042158E-011  0.9118800E+02  0.7816164E-02  0.1184000E+00
        -11   -1    0    0    0    0  0.00000000000E+00  0.00000000000E+00  0.45593999997E+02  0.45594000000E+02  0.51100000000E-03 0.  1.
         11   -1    0    0    0    0 -0.00000000000E+00 -0.00000000000E+00 -0.45593999997E+02  0.45594000000E+02  0.51100000000E-03 0. -1.
         23    2    1    2    0    0 -0.88817841970E-15  0.00000000000E+00  0.00000000000E+00  0.91188000000E+02  0.91188000000E+02 0.  0.
    9900012    2    3    3    0    0 -0.21176941012E+01 -0.42879204351E+02  0.63649474048E+01  0.47787270173E+02  0.19999996027E+02 0.  0.
         12    1    3    3    0    0  0.21176941012E+01  0.42879204351E+02 -0.63649474048E+01  0.43400729827E+02  0.00000000000E+00 0. -1.
         11    1    4    4    0    0 -0.36514694349E+01 -0.11295626574E+02  0.43484158255E+01  0.12642512772E+02  0.51100000000E-03 0. -1.
        -11    1    4    4    0    0  0.70394037640E+01 -0.26157656443E+02 -0.24960005589E+00  0.27089453600E+02  0.51100000000E-03 0.  1.
         12    1    4    4    0    0 -0.55056284303E+01 -0.54259213335E+01  0.22661316352E+01  0.80553038005E+01  0.00000000000E+00 0. -1.
</event>
<event>
 8    1  0.4042158E-011  0.9118800E+02  0.7816164E-02  0.1184000E+00
        -11   -1    0    0    0    0  0.00000000000E+00  0.00000000000E+00  0.45593999997E+02  0.45594000000E+02  0.51100000000E-03 0. -1.
         11   -1    0    0    0    0 -0.00000000000E+00 -0.00000000000E+00 -0.45593999997E+02  0.45594000000E+02  0.51100000000E-03 0.  1.
         23    2    1    2    0    0  0.00000000000E+00  0.88817841970E-15  0.00000000000E+00  0.91188000000E+02  0.91188000000E+02 0.  0.
    9900012    2    3    3    0    0  0.27714897758E+02 -0.25816703917E+01 -0.33299291490E+02  0.47787269667E+02  0.19999993718E+02 0.  0.
         12    1    3    3    0    0 -0.27714897758E+02  0.25816703917E+01  0.33299291490E+02  0.43400730333E+02  0.00000000000E+00 0. -1.
         11    1    4    4    0    0  0.21609505670E+01  0.22652275835E+01 -0.23828775442E+00  0.31397045519E+01  0.51100000000E-03 0. -1.
        -11    1    4    4    0    0 -0.15719215046E+01  0.14585552532E+01 -0.27120891198E+01  0.34574193119E+01  0.51100000000E-03 0.  1.
        -12    1    4    4    0    0  0.27125868695E+02 -0.63054532284E+01 -0.30348914616E+02  0.41190145803E+02  0.00000000000E+00 0.  1.
</event>
<event>
 8    1  0.4042158E-011  0.9118800E+02  0.7816164E-02  0.1184000E+00
        -11   -1    0    0    0    0  0.00000000000E+00  0.00000000000E+00  0.45593999997E+02  0.45594000000E+02  0.51100000000E-03 0. -1.
         11   -1    0    0    0    0 -0.00000000000E+00 -0.00000000000E+00 -0.45593999997E+02  0.45594000000E+02  0.51100000000E-03 0.  1.
         23    2    1    2    0    0  0.00000000000E+00  0.17763568394E-14  0.35527136788E-14  0.91188000000E+02  0.91188000000E+02 0.  0.
    9900012    2    3    3    0    0  0.31124798670E+02 -0.13656906007E+02 -0.26988131237E+02  0.47787269573E+02  0.19999993291E+02 0.  0.
         12    1    3    3    0    0 -0.31124798670E+02  0.13656906007E+02  0.26988131237E+02  0.43400730427E+02  0.00000000000E+00 0. -1.
         11    1    4    4    0    0  0.32118158256E+01  0.24583709624E+01 -0.43139507516E+01  0.59135031948E+01  0.51100000000E-03 0. -1.
        -11    1    4    4    0    0  0.22229323740E+02 -0.70884091040E+01 -0.20342152921E+02  0.30954669491E+02  0.51100000000E-03 0.  1.
         12    1    4    4    0    0  0.56836591037E+01 -0.90268678656E+01 -0.23320275651E+01  0.10919096887E+02  0.00000000000E+00 0. -1.
</event>
<event>
 8    1  0.4042158E-011  0.9118800E+02  0.7816164E-02  0.1184000E+00
        -11   -1    0    0    0    0  0.00000000000E+00  0.00000000000E+00  0.45593999997E+02  0.45594000000E+02  0.51100000000E-03 0. -1.
         11   -1    0    0    0    0 -0.00000000000E+00 -0.00000000000E+00 -0.45593999997E+02  0.45594000000E+02  0.51100000000E-03 0.  1.
         23    2    1    2    0    0  0.00000000000E+00  0.00000000000E+00 -0.71054273576E-14  0.91188000000E+02  0.91188000000E+02 0.  0.
    9900012    2    3    3    0    0 -0.69578508689E+01  0.79689632736E+01  0.42091648417E+02  0.47787274996E+02  0.20000018018E+02 0.  0.
        -12    1    3    3    0    0  0.69578508689E+01 -0.79689632736E+01 -0.42091648417E+02  0.43400725004E+02  0.00000000000E+00 0.  1.
         11    1    4    4    0    0 -0.11801737236E+01  0.38245294676E+01  0.27610155410E+02  0.27898754769E+02  0.51100000000E-03 0. -1.
        -11    1    4    4    0    0  0.35920486809E+01  0.14699827859E+01  0.44193762152E+01  0.58817131441E+01  0.51100000000E-03 0.  1.
        -12    1    4    4    0    0 -0.93697258262E+01  0.26744510201E+01  0.10062116792E+02  0.14006807083E+02  0.00000000000E+00 0.  1.
</event>
<event>
 8    1  0.4042158E-011  0.9118800E+02  0.7816164E-02  0.1184000E+00
        -11   -1    0    0    0    0  0.00000000000E+00  0.00000000000E+00  0.45593999997E+02  0.45594000000E+02  0.51100000000E-03 0. -1.
         11   -1    0    0    0    0 -0.00000000000E+00 -0.00000000000E+00 -0.45593999997E+02  0.45594000000E+02  0.51100000000E-03 0.  1.
         23    2    1    2    0    0  0.00000000000E+00 -0.35527136788E-14  0.00000000000E+00  0.91188000000E+02  0.91188000000E+02 0.  0.
    9900012    2    3    3    0    0 -0.15132807688E+02  0.25587677992E+02  0.31621053112E+02  0.47787284183E+02  0.20000059902E+02 0.  0.
        -12    1    3    3    0    0  0.15132807688E+02 -0.25587677992E+02 -0.31621053112E+02  0.43400715817E+02  0.00000000000E+00 0.  1.
         11    1    4    4    0    0 -0.42874965610E+00  0.17078954686E+01  0.69425486616E+01  0.71623819627E+01  0.51100000000E-03 0. -1.
        -11    1    4    4    0    0 -0.98472787172E+01  0.37925807534E+01  0.37138875414E+01  0.11186846197E+02  0.51100000000E-03 0.  1.
         12    1    4    4    0    0 -0.48567793144E+01  0.20087201770E+02  0.20964616909E+02  0.29438056023E+02  0.00000000000E+00 0. -1.
</event>
<event>
 8    1  0.4042158E-011  0.9118800E+02  0.7816164E-02  0.1184000E+00
        -11   -1    0    0    0    0  0.00000000000E+00  0.00000000000E+00  0.45593999997E+02  0.45594000000E+02  0.51100000000E-03 0.  1.
         11   -1    0    0    0    0 -0.00000000000E+00 -0.00000000000E+00 -0.45593999997E+02  0.45594000000E+02  0.51100000000E-03 0. -1.
         23    2    1    2    0    0  0.00000000000E+00  0.00000000000E+00  0.00000000000E+00  0.91188000000E+02  0.91188000000E+02 0.  0.
    9900012    2    3    3    0    0  0.42968316860E+02  0.33963337647E+00 -0.61017832030E+01  0.47787270019E+02  0.19999995324E+02 0.  0.
        -12    1    3    3    0    0 -0.42968316860E+02 -0.33963337647E+00  0.61017832030E+01  0.43400729981E+02  0.00000000000E+00 0.  1.
         11    1    4    4    0    0  0.31129883999E+02  0.83789929333E+00 -0.49816063126E+01  0.31537091730E+02  0.51100000000E-03 0. -1.
        -11    1    4    4    0    0  0.84277332355E+01 -0.35888153394E+00 -0.59594284062E+01  0.10328130065E+02  0.51100000000E-03 0.  1.
        -12    1    4    4    0    0  0.34106996254E+01 -0.13938438293E+00  0.48392515158E+01  0.59220482246E+01  0.00000000000E+00 0.  1.
</event>
<event>
 8    1  0.4042158E-011  0.9118800E+02  0.7816164E-02  0.1184000E+00
        -11   -1    0    0    0    0  0.00000000000E+00  0.00000000000E+00  0.45593999997E+02  0.45594000000E+02  0.51100000000E-03 0. -1.
         11   -1    0    0    0    0 -0.00000000000E+00 -0.00000000000E+00 -0.45593999997E+02  0.45594000000E+02  0.51100000000E-03 0.  1.
         23    2    1    2    0    0  0.00000000000E+00  0.00000000000E+00  0.00000000000E+00  0.91188000000E+02  0.91188000000E+02 0.  0.
    9900012    2    3    3    0    0  0.21992121794E+02  0.57220797601E+01 -0.36976035368E+02  0.47787276397E+02  0.20000024402E+02 0.  0.
         12    1    3    3    0    0 -0.21992121794E+02 -0.57220797601E+01  0.36976035368E+02  0.43400723603E+02  0.00000000000E+00 0. -1.
         11    1    4    4    0    0  0.45284329497E+01 -0.42691024703E+01 -0.49530127125E+01  0.79538843387E+01  0.51100000000E-03 0. -1.
        -11    1    4    4    0    0 -0.91756487371E+00 -0.13737937671E+01 -0.47934822100E+01  0.50701781597E+01  0.51100000000E-03 0.  1.
        -12    1    4    4    0    0  0.18381253718E+02  0.11364975997E+02 -0.27229540445E+02  0.34763213898E+02  0.00000000000E+00 0.  1.
</event>
<event>
 8    1  0.4042158E-011  0.9118800E+02  0.7816164E-02  0.1184000E+00
        -11   -1    0    0    0    0  0.00000000000E+00  0.00000000000E+00  0.45593999997E+02  0.45594000000E+02  0.51100000000E-03 0. -1.
         11   -1    0    0    0    0 -0.00000000000E+00 -0.00000000000E+00 -0.45593999997E+02  0.45594000000E+02  0.51100000000E-03 0.  1.
         23    2    1    2    0    0  0.00000000000E+00  0.35527136788E-14  0.35527136788E-14  0.91188000000E+02  0.91188000000E+02 0.  0.
    9900012    2    3    3    0    0  0.17801580855E+02  0.29983348304E+02  0.25840387909E+02  0.47787273004E+02  0.20000008936E+02 0.  0.
        -12    1    3    3    0    0 -0.17801580855E+02 -0.29983348304E+02 -0.25840387909E+02  0.43400726996E+02  0.00000000000E+00 0.  1.
         11    1    4    4    0    0  0.70935487009E+00  0.12944329395E+02  0.12778410642E+02  0.18202929067E+02  0.51100000000E-03 0. -1.
        -11    1    4    4    0    0  0.79039383637E+00  0.16568953760E+01 -0.18952089422E+01  0.26385302537E+01  0.51100000000E-03 0.  1.
        -12    1    4    4    0    0  0.16301832149E+02  0.15382123533E+02  0.14957186209E+02  0.26945813684E+02  0.00000000000E+00 0.  1.
</event>
<event>
 8    1  0.4042158E-011  0.9118800E+02  0.7816164E-02  0.1184000E+00
        -11   -1    0    0    0    0  0.00000000000E+00  0.00000000000E+00  0.45593999997E+02  0.45594000000E+02  0.51100000000E-03 0. -1.
         11   -1    0    0    0    0 -0.00000000000E+00 -0.00000000000E+00 -0.45593999997E+02  0.45594000000E+02  0.51100000000E-03 0.  1.
         23    2    1    2    0    0  0.35527136788E-14 -0.71054273576E-14  0.88817841970E-15  0.91188000000E+02  0.91188000000E+02 0.  0.
    9900012    2    3    3    0    0  0.28663433438E+02  0.32328122068E+02  0.41138345887E+01  0.47787268117E+02  0.19999986654E+02 0.  0.
        -12    1    3    3    0    0 -0.28663433438E+02 -0.32328122068E+02 -0.41138345887E+01  0.43400731883E+02  0.00000000000E+00 0.  1.
         11    1    4    4    0    0  0.11941195306E+02  0.10862837587E+02  0.28474351647E+01  0.16392110086E+02  0.51100000000E-03 0. -1.
        -11    1    4    4    0    0  0.86181965046E+01  0.19637902646E+02 -0.36318472790E+01  0.21751111379E+02  0.51100000000E-03 0.  1.
        -12    1    4    4    0    0  0.81040416271E+01  0.18273818355E+01  0.48982467030E+01  0.96440466522E+01  0.00000000000E+00 0.  1.
</event>
<event>
 8    1  0.4042158E-011  0.9118800E+02  0.7816164E-02  0.1184000E+00
        -11   -1    0    0    0    0  0.00000000000E+00  0.00000000000E+00  0.45593999997E+02  0.45594000000E+02  0.51100000000E-03 0. -1.
         11   -1    0    0    0    0 -0.00000000000E+00 -0.00000000000E+00 -0.45593999997E+02  0.45594000000E+02  0.51100000000E-03 0.  1.
         23    2    1    2    0    0 -0.71054273576E-14  0.00000000000E+00 -0.35527136788E-14  0.91188000000E+02  0.91188000000E+02 0.  0.
    9900012    2    3    3    0    0  0.31906334121E+02  0.23450474323E+02  0.17767501942E+02  0.47787273874E+02  0.20000012901E+02 0.  0.
        -12    1    3    3    0    0 -0.31906334121E+02 -0.23450474323E+02 -0.17767501942E+02  0.43400726126E+02  0.00000000000E+00 0.  1.
         11    1    4    4    0    0  0.26815324474E+02  0.88994069210E+01  0.11486967154E+02  0.30499368597E+02  0.51100000000E-03 0. -1.
        -11    1    4    4    0    0 -0.20331796368E-01  0.19784673365E+01 -0.60536722116E+00  0.20691099819E+01  0.51100000000E-03 0.  1.
        -12    1    4    4    0    0  0.51113414440E+01  0.12572600065E+02  0.68859020087E+01  0.15218795295E+02  0.00000000000E+00 0.  1.
</event>
<event>
 8    1  0.4042158E-011  0.9118800E+02  0.7816164E-02  0.1184000E+00
        -11   -1    0    0    0    0  0.00000000000E+00  0.00000000000E+00  0.45593999997E+02  0.45594000000E+02  0.51100000000E-03 0. -1.
         11   -1    0    0    0    0 -0.00000000000E+00 -0.00000000000E+00 -0.45593999997E+02  0.45594000000E+02  0.51100000000E-03 0.  1.
         23    2    1    2    0    0  0.17763568394E-14 -0.35527136788E-14 -0.71054273576E-14  0.91188000000E+02  0.91188000000E+02 0.  0.
    9900012    2    3    3    0    0  0.89114671936E+01  0.22213069219E+02 -0.36204815829E+02  0.47787269812E+02  0.19999994381E+02 0.  0.
         12    1    3    3    0    0 -0.89114671936E+01 -0.22213069219E+02  0.36204815829E+02  0.43400730188E+02  0.00000000000E+00 0. -1.
         11    1    4    4    0    0  0.52166691325E+01  0.34501855725E+01 -0.47494795313E+01  0.78533415436E+01  0.51100000000E-03 0. -1.
        -11    1    4    4    0    0  0.74515229834E+01  0.88480739928E+01 -0.24932905035E+02  0.27485693768E+02  0.51100000000E-03 0.  1.
        -12    1    4    4    0    0 -0.37567249222E+01  0.99148096533E+01 -0.65224312623E+01  0.12448234500E+02  0.00000000000E+00 0.  1.
</event>
<event>
 8    1  0.4042158E-011  0.9118800E+02  0.7816164E-02  0.1184000E+00
        -11   -1    0    0    0    0  0.00000000000E+00  0.00000000000E+00  0.45593999997E+02  0.45594000000E+02  0.51100000000E-03 0. -1.
         11   -1    0    0    0    0 -0.00000000000E+00 -0.00000000000E+00 -0.45593999997E+02  0.45594000000E+02  0.51100000000E-03 0.  1.
         23    2    1    2    0    0  0.71054273576E-14  0.00000000000E+00 -0.35527136788E-14  0.91188000000E+02  0.91188000000E+02 0.  0.
    9900012    2    3    3    0    0 -0.33280756953E+02 -0.50439572338E+01  0.27396591788E+02  0.47787268099E+02  0.19999986569E+02 0.  0.
        -12    1    3    3    0    0  0.33280756953E+02  0.50439572338E+01 -0.27396591788E+02  0.43400731901E+02  0.00000000000E+00 0.  1.
         11    1    4    4    0    0 -0.11202875741E+02 -0.16027068170E+01  0.58319477024E+01  0.12731249282E+02  0.51100000000E-03 0. -1.
        -11    1    4    4    0    0 -0.23450938643E+02 -0.53027686934E+01  0.15605081139E+02  0.28663294239E+02  0.51100000000E-03 0.  1.
         12    1    4    4    0    0  0.13730574305E+01  0.18615182766E+01  0.59595629473E+01  0.63927245776E+01  0.00000000000E+00 0. -1.
</event>
<event>
 8    1  0.4074107E-011  0.9118800E+02  0.7816164E-02  0.1184000E+00
        -11   -1    0    0    0    0  0.00000000000E+00  0.00000000000E+00  0.45593999997E+02  0.45594000000E+02  0.51100000000E-03 0. -1.
         11   -1    0    0    0    0 -0.00000000000E+00 -0.00000000000E+00 -0.45593999997E+02  0.45594000000E+02  0.51100000000E-03 0.  1.
         23    2    1    2    0    0 -0.88817841970E-15  0.00000000000E+00  0.00000000000E+00  0.91188000000E+02  0.91188000000E+02 0.  0.
    9900012    2    3    3    0    0  0.44411578912E+01 -0.86122809488E+01  0.42305184923E+02  0.47787263395E+02  0.19999965121E+02 0.  0.
        -12    1    3    3    0    0 -0.44411578912E+01  0.86122809488E+01 -0.42305184923E+02  0.43400736605E+02  0.00000000000E+00 0.  1.
         11    1    4    4    0    0 -0.29580351253E+01 -0.11831966434E+01  0.13898762054E+02  0.14259225540E+02  0.51100000000E-03 0. -1.
        -11    1    4    4    0    0 -0.12189880334E+01  0.25061322921E+01  0.72294019836E+00  0.28791098767E+01  0.51100000000E-03 0.  1.
        -12    1    4    4    0    0  0.86181810499E+01 -0.99352165975E+01  0.27683482670E+02  0.30648927978E+02  0.00000000000E+00 0.  1.
</event>
<event>
 8    1  0.4042158E-011  0.9118800E+02  0.7816164E-02  0.1184000E+00
        -11   -1    0    0    0    0  0.00000000000E+00  0.00000000000E+00  0.45593999997E+02  0.45594000000E+02  0.51100000000E-03 0. -1.
         11   -1    0    0    0    0 -0.00000000000E+00 -0.00000000000E+00 -0.45593999997E+02  0.45594000000E+02  0.51100000000E-03 0.  1.
         23    2    1    2    0    0  0.00000000000E+00 -0.44408920985E-15  0.00000000000E+00  0.91188000000E+02  0.91188000000E+02 0.  0.
    9900012    2    3    3    0    0  0.64512896123E+01 -0.30018195440E+01  0.42813464428E+02  0.47787276566E+02  0.20000025175E+02 0.  0.
        -12    1    3    3    0    0 -0.64512896123E+01  0.30018195440E+01 -0.42813464428E+02  0.43400723434E+02  0.00000000000E+00 0.  1.
         11    1    4    4    0    0  0.18497093939E+01  0.22341692557E+01  0.23521107242E+02  0.23699270521E+02  0.51100000000E-03 0. -1.
        -11    1    4    4    0    0  0.57483114438E+01 -0.34770671091E+01  0.20563778435E+02  0.21633355355E+02  0.51100000000E-03 0.  1.
         12    1    4    4    0    0 -0.11467312255E+01 -0.17589216906E+01 -0.12714212483E+01  0.24546506896E+01  0.00000000000E+00 0. -1.
</event>
<event>
 8    1  0.4042158E-011  0.9118800E+02  0.7816164E-02  0.1184000E+00
        -11   -1    0    0    0    0  0.00000000000E+00  0.00000000000E+00  0.45593999997E+02  0.45594000000E+02  0.51100000000E-03 0. -1.
         11   -1    0    0    0    0 -0.00000000000E+00 -0.00000000000E+00 -0.45593999997E+02  0.45594000000E+02  0.51100000000E-03 0.  1.
         23    2    1    2    0    0  0.00000000000E+00 -0.35527136788E-14 -0.88817841970E-15  0.91188000000E+02  0.91188000000E+02 0.  0.
    9900012    2    3    3    0    0 -0.32902896337E+02 -0.28006809528E+02 -0.40793893637E+01  0.47787269765E+02  0.19999994169E+02 0.  0.
         12    1    3    3    0    0  0.32902896337E+02  0.28006809528E+02  0.40793893637E+01  0.43400730235E+02  0.00000000000E+00 0. -1.
         11    1    4    4    0    0 -0.32343272707E+01  0.16136482912E+01  0.11693279535E+01  0.37989553598E+01  0.51100000000E-03 0. -1.
        -11    1    4    4    0    0 -0.89513224063E+01 -0.81917688721E+01  0.40069459391E+01  0.12778374940E+02  0.51100000000E-03 0.  1.
         12    1    4    4    0    0 -0.20717246660E+02 -0.21428688947E+02 -0.92556632564E+01  0.31209939466E+02  0.00000000000E+00 0. -1.
</event>
<event>
 8    1  0.4042158E-011  0.9118800E+02  0.7816164E-02  0.1184000E+00
        -11   -1    0    0    0    0  0.00000000000E+00  0.00000000000E+00  0.45593999997E+02  0.45594000000E+02  0.51100000000E-03 0. -1.
         11   -1    0    0    0    0 -0.00000000000E+00 -0.00000000000E+00 -0.45593999997E+02  0.45594000000E+02  0.51100000000E-03 0.  1.
         23    2    1    2    0    0  0.00000000000E+00  0.35527136788E-14  0.00000000000E+00  0.91188000000E+02  0.91188000000E+02 0.  0.
    9900012    2    3    3    0    0  0.10165848842E+02  0.27726073360E+02  0.31804773557E+02  0.47787271346E+02  0.20000001377E+02 0.  0.
        -12    1    3    3    0    0 -0.10165848842E+02 -0.27726073360E+02 -0.31804773557E+02  0.43400728654E+02  0.00000000000E+00 0.  1.
         11    1    4    4    0    0 -0.41901393142E+01  0.47198434569E+01  0.10534874368E+02  0.12280788572E+02  0.51100000000E-03 0.  1.
        -11    1    4    4    0    0  0.38817058179E+01  0.13754049523E+02  0.12655723737E+02  0.19089496114E+02  0.51100000000E-03 0. -1.
        -12    1    4    4    0    0  0.10474282338E+02  0.92521803801E+01  0.86141754524E+01  0.16416986660E+02  0.00000000000E+00 0.  1.
</event>
<event>
 8    1  0.4042158E-011  0.9118800E+02  0.7816164E-02  0.1184000E+00
        -11   -1    0    0    0    0  0.00000000000E+00  0.00000000000E+00  0.45593999997E+02  0.45594000000E+02  0.51100000000E-03 0. -1.
         11   -1    0    0    0    0 -0.00000000000E+00 -0.00000000000E+00 -0.45593999997E+02  0.45594000000E+02  0.51100000000E-03 0.  1.
         23    2    1    2    0    0  0.17763568394E-14  0.44408920985E-15  0.71054273576E-14  0.91188000000E+02  0.91188000000E+02 0.  0.
    9900012    2    3    3    0    0 -0.15780093473E+02  0.38172777186E+01 -0.40249719764E+02  0.47787275349E+02  0.20000019625E+02 0.  0.
         12    1    3    3    0    0  0.15780093473E+02 -0.38172777186E+01  0.40249719764E+02  0.43400724651E+02  0.00000000000E+00 0. -1.
         11    1    4    4    0    0  0.59250885103E-01 -0.15388445816E+01 -0.29818501525E+01  0.33560369347E+01  0.51100000000E-03 0. -1.
        -11    1    4    4    0    0 -0.17458542473E+02  0.76607615029E+01 -0.36973116005E+02  0.41599270180E+02  0.51100000000E-03 0.  1.
        -12    1    4    4    0    0  0.16191981156E+01 -0.23046392027E+01 -0.29475360643E+00  0.28319682344E+01  0.00000000000E+00 0.  1.
</event>
<event>
 8    1  0.3061271E-010  0.9118800E+02  0.7816164E-02  0.1184000E+00
        -11   -1    0    0    0    0  0.00000000000E+00  0.00000000000E+00  0.45593999997E+02  0.45594000000E+02  0.51100000000E-03 0. -1.
         11   -1    0    0    0    0 -0.00000000000E+00 -0.00000000000E+00 -0.45593999997E+02  0.45594000000E+02  0.51100000000E-03 0.  1.
         23    2    1    2    0    0  0.88817841970E-15  0.00000000000E+00 -0.71054273576E-14  0.91188000000E+02  0.91188000000E+02 0.  0.
    9900012    2    3    3    0    0 -0.47374064702E+01  0.22356489463E+02 -0.36896715778E+02  0.47787271016E+02  0.19999999869E+02 0.  0.
         12    1    3    3    0    0  0.47374064702E+01 -0.22356489463E+02  0.36896715778E+02  0.43400728984E+02  0.00000000000E+00 0. -1.
         11    1    4    4    0    0 -0.54017535227E+00  0.95831989752E+01 -0.78845144366E+01  0.12421556270E+02  0.51100000000E-03 0. -1.
        -11    1    4    4    0    0 -0.94993212646E+01  0.66201737344E+01 -0.12982803961E+02  0.17395890426E+02  0.51100000000E-03 0.  1.
        -12    1    4    4    0    0  0.53020901467E+01  0.61531167532E+01 -0.16029397380E+02  0.17969824319E+02  0.00000000000E+00 0.  1.
</event>
<event>
 8    1  0.4770157E-011  0.9118800E+02  0.7816164E-02  0.1184000E+00
        -11   -1    0    0    0    0  0.00000000000E+00  0.00000000000E+00  0.45593999997E+02  0.45594000000E+02  0.51100000000E-03 0. -1.
         11   -1    0    0    0    0 -0.00000000000E+00 -0.00000000000E+00 -0.45593999997E+02  0.45594000000E+02  0.51100000000E-03 0.  1.
         23    2    1    2    0    0  0.00000000000E+00 -0.17763568394E-14  0.00000000000E+00  0.91188000000E+02  0.91188000000E+02 0.  0.
    9900012    2    3    3    0    0 -0.35915440430E+02  0.12767419243E+02  0.20753245554E+02  0.47787273550E+02  0.20000011422E+02 0.  0.
        -12    1    3    3    0    0  0.35915440430E+02 -0.12767419243E+02 -0.20753245554E+02  0.43400726450E+02  0.00000000000E+00 0.  1.
         11    1    4    4    0    0 -0.18125798137E+02  0.83797668072E+01  0.77892486188E+01  0.21434491927E+02  0.51100000000E-03 0. -1.
        -11    1    4    4    0    0 -0.17408434063E+02  0.79847587442E+01  0.12029460387E+02  0.22616760736E+02  0.51100000000E-03 0.  1.
        -12    1    4    4    0    0 -0.38120823020E+00 -0.35971063084E+01  0.93453654796E+00  0.37360208870E+01  0.00000000000E+00 0.  1.
</event>
<event>
 8    1  0.4042158E-011  0.9118800E+02  0.7816164E-02  0.1184000E+00
        -11   -1    0    0    0    0  0.00000000000E+00  0.00000000000E+00  0.45593999997E+02  0.45594000000E+02  0.51100000000E-03 0. -1.
         11   -1    0    0    0    0 -0.00000000000E+00 -0.00000000000E+00 -0.45593999997E+02  0.45594000000E+02  0.51100000000E-03 0.  1.
         23    2    1    2    0    0  0.00000000000E+00  0.00000000000E+00  0.00000000000E+00  0.91188000000E+02  0.91188000000E+02 0.  0.
    9900012    2    3    3    0    0  0.23894320978E+02  0.22523599980E+02 -0.28379080435E+02  0.47787270313E+02  0.19999996664E+02 0.  0.
         12    1    3    3    0    0 -0.23894320978E+02 -0.22523599980E+02  0.28379080435E+02  0.43400729687E+02  0.00000000000E+00 0. -1.
         11    1    4    4    0    0  0.33971480204E+01 -0.19467674007E+01 -0.21137589549E+01  0.44495499959E+01  0.51100000000E-03 0. -1.
        -11    1    4    4    0    0  0.20109849915E+00 -0.85612588939E+00 -0.37135962313E+01  0.38163057235E+01  0.51100000000E-03 0.  1.
        -12    1    4    4    0    0  0.20296074458E+02  0.25326493271E+02 -0.22551725248E+02  0.39521414593E+02  0.00000000000E+00 0.  1.
</event>
<event>
 8    1  0.4042158E-011  0.9118800E+02  0.7816164E-02  0.1184000E+00
        -11   -1    0    0    0    0  0.00000000000E+00  0.00000000000E+00  0.45593999997E+02  0.45594000000E+02  0.51100000000E-03 0. -1.
         11   -1    0    0    0    0 -0.00000000000E+00 -0.00000000000E+00 -0.45593999997E+02  0.45594000000E+02  0.51100000000E-03 0.  1.
         23    2    1    2    0    0  0.00000000000E+00 -0.35527136788E-14  0.00000000000E+00  0.91188000000E+02  0.91188000000E+02 0.  0.
    9900012    2    3    3    0    0 -0.16886174305E+02 -0.27967657586E+02  0.28570796807E+02  0.47787272084E+02  0.20000004738E+02 0.  0.
        -12    1    3    3    0    0  0.16886174305E+02  0.27967657586E+02 -0.28570796807E+02  0.43400727916E+02  0.00000000000E+00 0.  1.
         11    1    4    4    0    0 -0.92045551169E+01 -0.40530781603E+01  0.66246495884E+01  0.12043141613E+02  0.51100000000E-03 0. -1.
        -11    1    4    4    0    0 -0.35899761365E+01 -0.35501414360E+01 -0.60451821568E+00  0.50849656253E+01  0.51100000000E-03 0.  1.
         12    1    4    4    0    0 -0.40916430512E+01 -0.20364437990E+02  0.22550665434E+02  0.30659164846E+02  0.00000000000E+00 0. -1.
</event>
<event>
 8    1  0.4042158E-011  0.9118800E+02  0.7816164E-02  0.1184000E+00
        -11   -1    0    0    0    0  0.00000000000E+00  0.00000000000E+00  0.45593999997E+02  0.45594000000E+02  0.51100000000E-03 0. -1.
         11   -1    0    0    0    0 -0.00000000000E+00 -0.00000000000E+00 -0.45593999997E+02  0.45594000000E+02  0.51100000000E-03 0.  1.
         23    2    1    2    0    0  0.00000000000E+00  0.22204460493E-14  0.00000000000E+00  0.91188000000E+02  0.91188000000E+02 0.  0.
    9900012    2    3    3    0    0  0.23602304334E+02  0.18508034787E+01  0.36374840541E+02  0.47787271115E+02  0.20000000321E+02 0.  0.
        -12    1    3    3    0    0 -0.23602304334E+02 -0.18508034787E+01 -0.36374840541E+02  0.43400728885E+02  0.00000000000E+00 0.  1.
         11    1    4    4    0    0  0.43810136073E+01  0.64124318703E+01  0.80432587219E+01  0.11180633875E+02  0.51100000000E-03 0.  1.
        -11    1    4    4    0    0  0.11074155010E+02  0.21237018285E+01  0.84018662803E+01  0.14061947799E+02  0.51100000000E-03 0. -1.
        -12    1    4    4    0    0  0.81471357162E+01 -0.66853302201E+01  0.19929715539E+02  0.22544689441E+02  0.00000000000E+00 0.  1.
</event>
<event>
 8    1  0.4042158E-011  0.9118800E+02  0.7816164E-02  0.1184000E+00
        -11   -1    0    0    0    0  0.00000000000E+00  0.00000000000E+00  0.45593999997E+02  0.45594000000E+02  0.51100000000E-03 0. -1.
         11   -1    0    0    0    0 -0.00000000000E+00 -0.00000000000E+00 -0.45593999997E+02  0.45594000000E+02  0.51100000000E-03 0.  1.
         23    2    1    2    0    0  0.00000000000E+00 -0.13322676296E-14  0.00000000000E+00  0.91188000000E+02  0.91188000000E+02 0.  0.
    9900012    2    3    3    0    0 -0.13774234831E+02 -0.38193594483E+01 -0.40979338578E+02  0.47787271410E+02  0.20000001669E+02 0.  0.
         12    1    3    3    0    0  0.13774234831E+02  0.38193594483E+01  0.40979338578E+02  0.43400728590E+02  0.00000000000E+00 0. -1.
         11    1    4    4    0    0 -0.28654092796E+01 -0.26332921952E+01 -0.81635025504E+00  0.39763332513E+01  0.51100000000E-03 0. -1.
        -11    1    4    4    0    0 -0.83617341048E+01 -0.71442962959E+01 -0.24141980152E+02  0.26529130644E+02  0.51100000000E-03 0.  1.
        -12    1    4    4    0    0 -0.25470914467E+01  0.59582290428E+01 -0.16021008171E+02  0.17281807515E+02  0.00000000000E+00 0.  1.
</event>
<event>
 8    1  0.4042158E-011  0.9118800E+02  0.7816164E-02  0.1184000E+00
        -11   -1    0    0    0    0  0.00000000000E+00  0.00000000000E+00  0.45593999997E+02  0.45594000000E+02  0.51100000000E-03 0. -1.
         11   -1    0    0    0    0 -0.00000000000E+00 -0.00000000000E+00 -0.45593999997E+02  0.45594000000E+02  0.51100000000E-03 0.  1.
         23    2    1    2    0    0  0.00000000000E+00 -0.44408920985E-15  0.00000000000E+00  0.91188000000E+02  0.91188000000E+02 0.  0.
    9900012    2    3    3    0    0  0.81685321215E+00 -0.39713697099E+01 -0.43210897451E+02  0.47787300869E+02  0.20000135983E+02 0.  0.
         12    1    3    3    0    0 -0.81685321215E+00  0.39713697099E+01  0.43210897451E+02  0.43400699131E+02  0.00000000000E+00 0. -1.
         11    1    4    4    0    0 -0.25539578477E+01  0.36571449565E+01 -0.61045264481E+01  0.75605987420E+01  0.51100000000E-03 0. -1.
        -11    1    4    4    0    0 -0.48408182250E+01 -0.16921412496E+01 -0.91252810361E+01  0.10467455151E+02  0.51100000000E-03 0.  1.
        -12    1    4    4    0    0  0.82116292849E+01 -0.59363734169E+01 -0.27981089967E+02  0.29759246976E+02  0.00000000000E+00 0.  1.
</event>
<event>
 8    1  0.4042158E-011  0.9118800E+02  0.7816164E-02  0.1184000E+00
        -11   -1    0    0    0    0  0.00000000000E+00  0.00000000000E+00  0.45593999997E+02  0.45594000000E+02  0.51100000000E-03 0. -1.
         11   -1    0    0    0    0 -0.00000000000E+00 -0.00000000000E+00 -0.45593999997E+02  0.45594000000E+02  0.51100000000E-03 0.  1.
         23    2    1    2    0    0 -0.35527136788E-14  0.00000000000E+00  0.00000000000E+00  0.91188000000E+02  0.91188000000E+02 0.  0.
    9900012    2    3    3    0    0  0.21580517270E+02 -0.11747466243E+02 -0.35775715125E+02  0.47787268653E+02  0.19999989098E+02 0.  0.
         12    1    3    3    0    0 -0.21580517270E+02  0.11747466243E+02  0.35775715125E+02  0.43400731347E+02  0.00000000000E+00 0. -1.
         11    1    4    4    0    0  0.13344276624E+01 -0.18887842502E+01  0.15601336401E+01  0.27896631277E+01  0.51100000000E-03 0. -1.
        -11    1    4    4    0    0 -0.10271544893E+01 -0.36933971294E-01 -0.14065883640E+00  0.10373984926E+01  0.51100000000E-03 0.  1.
        -12    1    4    4    0    0  0.21273244096E+02 -0.98217480212E+01 -0.37195189928E+02  0.43960207033E+02  0.00000000000E+00 0.  1.
</event>
<event>
 8    1  0.4042158E-011  0.9118800E+02  0.7816164E-02  0.1184000E+00
        -11   -1    0    0    0    0  0.00000000000E+00  0.00000000000E+00  0.45593999997E+02  0.45594000000E+02  0.51100000000E-03 0. -1.
         11   -1    0    0    0    0 -0.00000000000E+00 -0.00000000000E+00 -0.45593999997E+02  0.45594000000E+02  0.51100000000E-03 0.  1.
         23    2    1    2    0    0  0.00000000000E+00  0.00000000000E+00  0.00000000000E+00  0.91188000000E+02  0.91188000000E+02 0.  0.
    9900012    2    3    3    0    0 -0.19565998224E+02  0.20417565691E+02 -0.32922885112E+02  0.47787289875E+02  0.20000085858E+02 0.  0.
         12    1    3    3    0    0  0.19565998224E+02 -0.20417565691E+02  0.32922885112E+02  0.43400710125E+02  0.00000000000E+00 0. -1.
         11    1    4    4    0    0 -0.41497411878E+01  0.11234118520E+02 -0.12940798245E+02  0.17632073909E+02  0.51100000000E-03 0. -1.
        -11    1    4    4    0    0 -0.31774956160E+01  0.12909207263E-02 -0.12917721387E+02  0.13302781895E+02  0.51100000000E-03 0.  1.
         12    1    4    4    0    0 -0.12238761420E+02  0.91821562499E+01 -0.70643654799E+01  0.16852434072E+02  0.00000000000E+00 0. -1.
</event>
<event>
 8    1  0.4042158E-011  0.9118800E+02  0.7816164E-02  0.1184000E+00
        -11   -1    0    0    0    0  0.00000000000E+00  0.00000000000E+00  0.45593999997E+02  0.45594000000E+02  0.51100000000E-03 0. -1.
         11   -1    0    0    0    0 -0.00000000000E+00 -0.00000000000E+00 -0.45593999997E+02  0.45594000000E+02  0.51100000000E-03 0.  1.
         23    2    1    2    0    0  0.00000000000E+00 -0.71054273576E-14  0.00000000000E+00  0.91188000000E+02  0.91188000000E+02 0.  0.
    9900012    2    3    3    0    0 -0.16632977450E+02  0.25675813935E+02 -0.30785059780E+02  0.47787271138E+02  0.20000000425E+02 0.  0.
         12    1    3    3    0    0  0.16632977450E+02 -0.25675813935E+02  0.30785059780E+02  0.43400728862E+02  0.00000000000E+00 0. -1.
         11    1    4    4    0    0  0.31095930516E+00  0.55998100165E+01 -0.82573046961E+01  0.99818660087E+01  0.51100000000E-03 0. -1.
        -11    1    4    4    0    0 -0.14756671214E+02  0.18448943394E+02 -0.24803707505E+02  0.34254149587E+02  0.51100000000E-03 0.  1.
         12    1    4    4    0    0 -0.21872655412E+01  0.16270605252E+01  0.22759524211E+01  0.35512555418E+01  0.00000000000E+00 0. -1.
</event>
<event>
 8    1  0.4042158E-011  0.9118800E+02  0.7816164E-02  0.1184000E+00
        -11   -1    0    0    0    0  0.00000000000E+00  0.00000000000E+00  0.45593999997E+02  0.45594000000E+02  0.51100000000E-03 0. -1.
         11   -1    0    0    0    0 -0.00000000000E+00 -0.00000000000E+00 -0.45593999997E+02  0.45594000000E+02  0.51100000000E-03 0.  1.
         23    2    1    2    0    0 -0.22204460493E-15  0.00000000000E+00  0.00000000000E+00  0.91188000000E+02  0.91188000000E+02 0.  0.
    9900012    2    3    3    0    0  0.10433856891E+01 -0.11189108108E+02  0.41920626972E+02  0.47787265448E+02  0.19999974484E+02 0.  0.
        -12    1    3    3    0    0 -0.10433856891E+01  0.11189108108E+02 -0.41920626972E+02  0.43400734552E+02  0.00000000000E+00 0.  1.
         11    1    4    4    0    0  0.14759782893E+01 -0.17968818491E-02  0.66232879483E+01  0.67857540957E+01  0.51100000000E-03 0. -1.
        -11    1    4    4    0    0  0.76520119030E+01 -0.13095335671E+01  0.17034109951E+02  0.18719750703E+02  0.51100000000E-03 0.  1.
         12    1    4    4    0    0 -0.80846045032E+01 -0.98777776591E+01  0.18263229073E+02  0.22281760649E+02  0.00000000000E+00 0. -1.
</event>
<event>
 8    1  0.6593409E-011  0.9118800E+02  0.7816164E-02  0.1184000E+00
        -11   -1    0    0    0    0  0.00000000000E+00  0.00000000000E+00  0.45593999997E+02  0.45594000000E+02  0.51100000000E-03 0. -1.
         11   -1    0    0    0    0 -0.00000000000E+00 -0.00000000000E+00 -0.45593999997E+02  0.45594000000E+02  0.51100000000E-03 0.  1.
         23    2    1    2    0    0 -0.17763568394E-14  0.17763568394E-14  0.71054273576E-14  0.91188000000E+02  0.91188000000E+02 0.  0.
    9900012    2    3    3    0    0 -0.97495344975E+01  0.93279005886E+01  0.41249959990E+02  0.47787281671E+02  0.20000048449E+02 0.  0.
        -12    1    3    3    0    0  0.97495344975E+01 -0.93279005886E+01 -0.41249959990E+02  0.43400718329E+02  0.00000000000E+00 0.  1.
         11    1    4    4    0    0 -0.62595241554E+01  0.77161678313E+01  0.21937586164E+02  0.24082744354E+02  0.51100000000E-03 0. -1.
        -11    1    4    4    0    0 -0.67899203130E+01  0.15008812936E+01  0.19178272241E+02  0.20400043846E+02  0.51100000000E-03 0.  1.
        -12    1    4    4    0    0  0.32999099710E+01  0.11085146372E+00  0.13410158560E+00  0.33044934709E+01  0.00000000000E+00 0.  1.
</event>
<event>
 8    1  0.4042158E-011  0.9118800E+02  0.7816164E-02  0.1184000E+00
        -11   -1    0    0    0    0  0.00000000000E+00  0.00000000000E+00  0.45593999997E+02  0.45594000000E+02  0.51100000000E-03 0.  1.
         11   -1    0    0    0    0 -0.00000000000E+00 -0.00000000000E+00 -0.45593999997E+02  0.45594000000E+02  0.51100000000E-03 0. -1.
         23    2    1    2    0    0  0.00000000000E+00 -0.71054273576E-14  0.26645352591E-14  0.91188000000E+02  0.91188000000E+02 0.  0.
    9900012    2    3    3    0    0  0.17699963678E+02  0.39255712522E+02 -0.54151611047E+01  0.47787266716E+02  0.19999980264E+02 0.  0.
        -12    1    3    3    0    0 -0.17699963678E+02 -0.39255712522E+02  0.54151611047E+01  0.43400733284E+02  0.00000000000E+00 0.  1.
         11    1    4    4    0    0  0.10651277071E+02  0.19159413665E+02 -0.84247174247E+01  0.23484222346E+02  0.51100000000E-03 0.  1.
        -11    1    4    4    0    0  0.27211416353E+01  0.16010600744E+02 -0.22063306712E+01  0.16389382028E+02  0.51100000000E-03 0. -1.
         12    1    4    4    0    0  0.43275449721E+01  0.40856981132E+01  0.52158869912E+01  0.79136623420E+01  0.00000000000E+00 0. -1.
</event>
<event>
 8    1  0.4042158E-011  0.9118800E+02  0.7816164E-02  0.1184000E+00
        -11   -1    0    0    0    0  0.00000000000E+00  0.00000000000E+00  0.45593999997E+02  0.45594000000E+02  0.51100000000E-03 0. -1.
         11   -1    0    0    0    0 -0.00000000000E+00 -0.00000000000E+00 -0.45593999997E+02  0.45594000000E+02  0.51100000000E-03 0.  1.
         23    2    1    2    0    0  0.00000000000E+00 -0.88817841970E-15  0.00000000000E+00  0.91188000000E+02  0.91188000000E+02 0.  0.
    9900012    2    3    3    0    0 -0.12124243594E+02  0.77978605521E+01 -0.40936773692E+02  0.47787270141E+02  0.19999995883E+02 0.  0.
         12    1    3    3    0    0  0.12124243594E+02 -0.77978605521E+01  0.40936773692E+02  0.43400729859E+02  0.00000000000E+00 0. -1.
         11    1    4    4    0    0  0.58033889060E+00  0.67106474159E+00  0.70258341602E+00  0.11316999748E+01  0.51100000000E-03 0. -1.
        -11    1    4    4    0    0 -0.13907215577E+02  0.74950837218E+01 -0.22598177604E+02  0.27572895321E+02  0.51100000000E-03 0.  1.
         12    1    4    4    0    0  0.12026330924E+01 -0.36828791136E+00 -0.19041179504E+02  0.19082674845E+02  0.00000000000E+00 0. -1.
</event>
<event>
 8    1  0.4042158E-011  0.9118800E+02  0.7816164E-02  0.1184000E+00
        -11   -1    0    0    0    0  0.00000000000E+00  0.00000000000E+00  0.45593999997E+02  0.45594000000E+02  0.51100000000E-03 0. -1.
         11   -1    0    0    0    0 -0.00000000000E+00 -0.00000000000E+00 -0.45593999997E+02  0.45594000000E+02  0.51100000000E-03 0.  1.
         23    2    1    2    0    0  0.44408920985E-15  0.44408920985E-15  0.00000000000E+00  0.91188000000E+02  0.91188000000E+02 0.  0.
    9900012    2    3    3    0    0 -0.79875540954E+00 -0.24135889352E+01 -0.43326202342E+02  0.47787271537E+02  0.20000002244E+02 0.  0.
         12    1    3    3    0    0  0.79875540954E+00  0.24135889352E+01  0.43326202342E+02  0.43400728463E+02  0.00000000000E+00 0. -1.
         11    1    4    4    0    0 -0.48574951073E+01  0.43026282984E-03 -0.73966066684E+01  0.88490140338E+01  0.51100000000E-03 0. -1.
        -11    1    4    4    0    0  0.22300066607E+01 -0.61083317404E+01 -0.64052472367E+01  0.91275319107E+01  0.51100000000E-03 0.  1.
         12    1    4    4    0    0  0.18287330371E+01  0.36943125423E+01 -0.29524348437E+02  0.29810725592E+02  0.00000000000E+00 0. -1.
</event>
<event>
 8    1  0.4042158E-011  0.9118800E+02  0.7816164E-02  0.1184000E+00
        -11   -1    0    0    0    0  0.00000000000E+00  0.00000000000E+00  0.45593999997E+02  0.45594000000E+02  0.51100000000E-03 0. -1.
         11   -1    0    0    0    0 -0.00000000000E+00 -0.00000000000E+00 -0.45593999997E+02  0.45594000000E+02  0.51100000000E-03 0.  1.
         23    2    1    2    0    0  0.00000000000E+00  0.00000000000E+00  0.35527136788E-14  0.91188000000E+02  0.91188000000E+02 0.  0.
    9900012    2    3    3    0    0  0.34543873275E+02 -0.16955424485E+02 -0.20071311440E+02  0.47787272550E+02  0.20000006864E+02 0.  0.
         12    1    3    3    0    0 -0.34543873275E+02  0.16955424485E+02  0.20071311440E+02  0.43400727450E+02  0.00000000000E+00 0. -1.
         11    1    4    4    0    0  0.37715921236E+01  0.52835942457E+00  0.20954657971E+01  0.43468434520E+01  0.51100000000E-03 0. -1.
        -11    1    4    4    0    0  0.84059137795E+01 -0.85949931251E+01 -0.23179471767E+01  0.12243617630E+02  0.51100000000E-03 0.  1.
        -12    1    4    4    0    0  0.22366367372E+02 -0.88887907844E+01 -0.19848830060E+02  0.31196811468E+02  0.00000000000E+00 0.  1.
</event>
<event>
 8    1  0.4042158E-011  0.9118800E+02  0.7816164E-02  0.1184000E+00
        -11   -1    0    0    0    0  0.00000000000E+00  0.00000000000E+00  0.45593999997E+02  0.45594000000E+02  0.51100000000E-03 0. -1.
         11   -1    0    0    0    0 -0.00000000000E+00 -0.00000000000E+00 -0.45593999997E+02  0.45594000000E+02  0.51100000000E-03 0.  1.
         23    2    1    2    0    0 -0.35527136788E-14  0.88817841970E-15  0.00000000000E+00  0.91188000000E+02  0.91188000000E+02 0.  0.
    9900012    2    3    3    0    0  0.28186939004E+02 -0.66515550667E+01  0.32324549427E+02  0.47787271770E+02  0.20000003310E+02 0.  0.
        -12    1    3    3    0    0 -0.28186939004E+02  0.66515550667E+01 -0.32324549427E+02  0.43400728230E+02  0.00000000000E+00 0.  1.
         11    1    4    4    0    0 -0.92949223939E+00  0.48818325970E+00  0.79414295919E+01  0.80105295045E+01  0.51100000000E-03 0. -1.
        -11    1    4    4    0    0  0.12019594604E+02 -0.74225389900E+01  0.88099675084E+01  0.16648731701E+02  0.51100000000E-03 0.  1.
        -12    1    4    4    0    0  0.17096836639E+02  0.28280066362E+00  0.15573152327E+02  0.23128010564E+02  0.00000000000E+00 0.  1.
</event>
<event>
 8    1  0.4042158E-011  0.9118800E+02  0.7816164E-02  0.1184000E+00
        -11   -1    0    0    0    0  0.00000000000E+00  0.00000000000E+00  0.45593999997E+02  0.45594000000E+02  0.51100000000E-03 0. -1.
         11   -1    0    0    0    0 -0.00000000000E+00 -0.00000000000E+00 -0.45593999997E+02  0.45594000000E+02  0.51100000000E-03 0.  1.
         23    2    1    2    0    0 -0.17763568394E-14  0.17763568394E-14 -0.71054273576E-14  0.91188000000E+02  0.91188000000E+02 0.  0.
    9900012    2    3    3    0    0 -0.13161128795E+02  0.72957818954E+01 -0.40708471011E+02  0.47787270091E+02  0.19999995653E+02 0.  0.
         12    1    3    3    0    0  0.13161128795E+02 -0.72957818954E+01  0.40708471011E+02  0.43400729909E+02  0.00000000000E+00 0. -1.
         11    1    4    4    0    0 -0.62688714221E+01  0.23924001189E+01 -0.28674484784E+01  0.72968889448E+01  0.51100000000E-03 0. -1.
        -11    1    4    4    0    0 -0.13128861876E+01  0.78839950902E+01 -0.23311467843E+02  0.24643570804E+02  0.51100000000E-03 0.  1.
         12    1    4    4    0    0 -0.55793711853E+01 -0.29806133137E+01 -0.14529554689E+02  0.15846810342E+02  0.00000000000E+00 0. -1.
</event>
<event>
 8    1  0.4042158E-011  0.9118800E+02  0.7816164E-02  0.1184000E+00
        -11   -1    0    0    0    0  0.00000000000E+00  0.00000000000E+00  0.45593999997E+02  0.45594000000E+02  0.51100000000E-03 0. -1.
         11   -1    0    0    0    0 -0.00000000000E+00 -0.00000000000E+00 -0.45593999997E+02  0.45594000000E+02  0.51100000000E-03 0.  1.
         23    2    1    2    0    0  0.17763568394E-14 -0.71054273576E-14 -0.17763568394E-14  0.91188000000E+02  0.91188000000E+02 0.  0.
    9900012    2    3    3    0    0 -0.14224767604E+02  0.39094583871E+02  0.12365018060E+02  0.47787260685E+02  0.19999952768E+02 0.  0.
        -12    1    3    3    0    0  0.14224767604E+02 -0.39094583871E+02 -0.12365018060E+02  0.43400739315E+02  0.00000000000E+00 0.  1.
         11    1    4    4    0    0 -0.16063794374E+02  0.24659682068E+02  0.47007979276E+01  0.29803404350E+02  0.51100000000E-03 0. -1.
        -11    1    4    4    0    0 -0.23421874845E+01  0.29872621593E+01  0.33274327202E+01  0.50479090908E+01  0.51100000000E-03 0.  1.
        -12    1    4    4    0    0  0.41812142548E+01  0.11447639644E+02  0.43367874119E+01  0.12935947245E+02  0.00000000000E+00 0.  1.
</event>
<event>
 8    1  0.4042158E-011  0.9118800E+02  0.7816164E-02  0.1184000E+00
        -11   -1    0    0    0    0  0.00000000000E+00  0.00000000000E+00  0.45593999997E+02  0.45594000000E+02  0.51100000000E-03 0. -1.
         11   -1    0    0    0    0 -0.00000000000E+00 -0.00000000000E+00 -0.45593999997E+02  0.45594000000E+02  0.51100000000E-03 0.  1.
         23    2    1    2    0    0 -0.35527136788E-14  0.00000000000E+00  0.00000000000E+00  0.91188000000E+02  0.91188000000E+02 0.  0.
    9900012    2    3    3    0    0 -0.25126735700E+02  0.24760655811E+02  0.25281985857E+02  0.47787288807E+02  0.20000080987E+02 0.  0.
        -12    1    3    3    0    0  0.25126735700E+02 -0.24760655811E+02 -0.25281985857E+02  0.43400711193E+02  0.00000000000E+00 0.  1.
         11    1    4    4    0    0 -0.35829886275E+01  0.10540684517E+02  0.13395700260E+02  0.17418054521E+02  0.51100000000E-03 0. -1.
        -11    1    4    4    0    0  0.94714017758E+00  0.11083887888E+00  0.16666584352E+01  0.19201849843E+01  0.51100000000E-03 0.  1.
         12    1    4    4    0    0 -0.22490887251E+02  0.14109132416E+02  0.10219627163E+02  0.28449049302E+02  0.00000000000E+00 0. -1.
</event>
<event>
 8    1  0.4042158E-011  0.9118800E+02  0.7816164E-02  0.1184000E+00
        -11   -1    0    0    0    0  0.00000000000E+00  0.00000000000E+00  0.45593999997E+02  0.45594000000E+02  0.51100000000E-03 0. -1.
         11   -1    0    0    0    0 -0.00000000000E+00 -0.00000000000E+00 -0.45593999997E+02  0.45594000000E+02  0.51100000000E-03 0.  1.
         23    2    1    2    0    0 -0.17763568394E-14  0.35527136788E-14  0.35527136788E-14  0.91188000000E+02  0.91188000000E+02 0.  0.
    9900012    2    3    3    0    0 -0.10331278676E+02  0.29910592391E+02  0.29702567101E+02  0.47787293224E+02  0.20000101125E+02 0.  0.
        -12    1    3    3    0    0  0.10331278676E+02 -0.29910592391E+02 -0.29702567101E+02  0.43400706776E+02  0.00000000000E+00 0.  1.
         11    1    4    4    0    0 -0.49068951043E+01  0.69285049286E+01  0.16586809052E+02  0.18633411789E+02  0.51100000000E-03 0. -1.
        -11    1    4    4    0    0 -0.35699581786E+01  0.81999296863E+00  0.86621542667E+00  0.37639499587E+01  0.51100000000E-03 0.  1.
         12    1    4    4    0    0 -0.18544253930E+01  0.22162094494E+02  0.12249542622E+02  0.25389931476E+02  0.00000000000E+00 0. -1.
</event>
<event>
 8    1  0.4042158E-011  0.9118800E+02  0.7816164E-02  0.1184000E+00
        -11   -1    0    0    0    0  0.00000000000E+00  0.00000000000E+00  0.45593999997E+02  0.45594000000E+02  0.51100000000E-03 0. -1.
         11   -1    0    0    0    0 -0.00000000000E+00 -0.00000000000E+00 -0.45593999997E+02  0.45594000000E+02  0.51100000000E-03 0.  1.
         23    2    1    2    0    0  0.00000000000E+00  0.00000000000E+00  0.00000000000E+00  0.91188000000E+02  0.91188000000E+02 0.  0.
    9900012    2    3    3    0    0 -0.20140884086E+02  0.10784737584E+02 -0.36900640996E+02  0.47787273250E+02  0.20000010058E+02 0.  0.
         12    1    3    3    0    0  0.20140884086E+02 -0.10784737584E+02  0.36900640996E+02  0.43400726750E+02  0.00000000000E+00 0. -1.
         11    1    4    4    0    0  0.20580575411E+01  0.91958633293E+00 -0.20750626414E+01  0.30638415581E+01  0.51100000000E-03 0. -1.
        -11    1    4    4    0    0 -0.51830411264E+01  0.80383366479E+01 -0.19634256382E+02  0.21839935790E+02  0.51100000000E-03 0.  1.
         12    1    4    4    0    0 -0.17015900500E+02  0.18268146028E+01 -0.15191321972E+02  0.22883495902E+02  0.00000000000E+00 0. -1.
</event>
<event>
 8    1  0.4042158E-011  0.9118800E+02  0.7816164E-02  0.1184000E+00
        -11   -1    0    0    0    0  0.00000000000E+00  0.00000000000E+00  0.45593999997E+02  0.45594000000E+02  0.51100000000E-03 0. -1.
         11   -1    0    0    0    0 -0.00000000000E+00 -0.00000000000E+00 -0.45593999997E+02  0.45594000000E+02  0.51100000000E-03 0.  1.
         23    2    1    2    0    0  0.00000000000E+00  0.00000000000E+00  0.00000000000E+00  0.91188000000E+02  0.91188000000E+02 0.  0.
    9900012    2    3    3    0    0 -0.23771497397E+02  0.82558124546E+01  0.35360726108E+02  0.47787268685E+02  0.19999989243E+02 0.  0.
        -12    1    3    3    0    0  0.23771497397E+02 -0.82558124546E+01 -0.35360726108E+02  0.43400731315E+02  0.00000000000E+00 0.  1.
         11    1    4    4    0    0 -0.15964522819E+02  0.94554765688E+01  0.13225990543E+02  0.22785935401E+02  0.51100000000E-03 0.  1.
        -11    1    4    4    0    0 -0.35432042236E+01  0.28955242299E+01  0.45646427045E+01  0.64633056571E+01  0.51100000000E-03 0. -1.
        -12    1    4    4    0    0 -0.42637703553E+01 -0.40951883441E+01  0.17570092860E+02  0.18538027628E+02  0.00000000000E+00 0.  1.
</event>
<event>
 8    1  0.4042158E-011  0.9118800E+02  0.7816164E-02  0.1184000E+00
        -11   -1    0    0    0    0  0.00000000000E+00  0.00000000000E+00  0.45593999997E+02  0.45594000000E+02  0.51100000000E-03 0. -1.
         11   -1    0    0    0    0 -0.00000000000E+00 -0.00000000000E+00 -0.45593999997E+02  0.45594000000E+02  0.51100000000E-03 0.  1.
         23    2    1    2    0    0 -0.17763568394E-14  0.88817841970E-15  0.00000000000E+00  0.91188000000E+02  0.91188000000E+02 0.  0.
    9900012    2    3    3    0    0  0.87118894693E+01 -0.63452165973E+01 -0.42041223518E+02  0.47787271127E+02  0.20000000377E+02 0.  0.
         12    1    3    3    0    0 -0.87118894693E+01  0.63452165973E+01  0.42041223518E+02  0.43400728873E+02  0.00000000000E+00 0. -1.
         11    1    4    4    0    0  0.54245682947E+01 -0.39972540909E+01 -0.90015530183E+01  0.11244195767E+02  0.51100000000E-03 0. -1.
        -11    1    4    4    0    0  0.86879112096E+01 -0.44463752577E+01 -0.19154524259E+02  0.21497577863E+02  0.51100000000E-03 0.  1.
         12    1    4    4    0    0 -0.54005900350E+01  0.20984127513E+01 -0.13885146241E+02  0.15045497497E+02  0.00000000000E+00 0. -1.
</event>
<event>
 8    1  0.4042158E-011  0.9118800E+02  0.7816164E-02  0.1184000E+00
        -11   -1    0    0    0    0  0.00000000000E+00  0.00000000000E+00  0.45593999997E+02  0.45594000000E+02  0.51100000000E-03 0. -1.
         11   -1    0    0    0    0 -0.00000000000E+00 -0.00000000000E+00 -0.45593999997E+02  0.45594000000E+02  0.51100000000E-03 0.  1.
         23    2    1    2    0    0  0.35527136788E-14  0.00000000000E+00  0.00000000000E+00  0.91188000000E+02  0.91188000000E+02 0.  0.
    9900012    2    3    3    0    0  0.16892057790E+02  0.14981799712E+02  0.37065173388E+02  0.47787274000E+02  0.20000013478E+02 0.  0.
        -12    1    3    3    0    0 -0.16892057790E+02 -0.14981799712E+02 -0.37065173388E+02  0.43400726000E+02  0.00000000000E+00 0.  1.
         11    1    4    4    0    0  0.19365546628E+01 -0.26644826810E+01  0.16720853082E+01  0.36939926176E+01  0.51100000000E-03 0.  1.
        -11    1    4    4    0    0 -0.70293249492E+00  0.51809172689E+01  0.30342052234E+01  0.60450326250E+01  0.51100000000E-03 0. -1.
         12    1    4    4    0    0  0.15658435622E+02  0.12465365124E+02  0.32358882857E+02  0.38048248758E+02  0.00000000000E+00 0. -1.
</event>
<event>
 8    1  0.4042158E-011  0.9118800E+02  0.7816164E-02  0.1184000E+00
        -11   -1    0    0    0    0  0.00000000000E+00  0.00000000000E+00  0.45593999997E+02  0.45594000000E+02  0.51100000000E-03 0. -1.
         11   -1    0    0    0    0 -0.00000000000E+00 -0.00000000000E+00 -0.45593999997E+02  0.45594000000E+02  0.51100000000E-03 0.  1.
         23    2    1    2    0    0  0.17763568394E-14 -0.22204460493E-15 -0.71054273576E-14  0.91188000000E+02  0.91188000000E+02 0.  0.
    9900012    2    3    3    0    0 -0.98820698718E+01  0.16586170834E+01 -0.42228157474E+02  0.47787267296E+02  0.19999982911E+02 0.  0.
         12    1    3    3    0    0  0.98820698718E+01 -0.16586170834E+01  0.42228157474E+02  0.43400732704E+02  0.00000000000E+00 0. -1.
         11    1    4    4    0    0 -0.51741112483E+01 -0.99855416482E-02 -0.39428039666E+00  0.51891217188E+01  0.51100000000E-03 0. -1.
        -11    1    4    4    0    0 -0.60451654518E+00  0.25805343364E+01 -0.65675625723E+01  0.70821943010E+01  0.51100000000E-03 0.  1.
        -12    1    4    4    0    0 -0.41034420783E+01 -0.91193171135E+00 -0.35266314505E+02  0.35515951277E+02  0.00000000000E+00 0.  1.
</event>
<event>
 8    1  0.4042158E-011  0.9118800E+02  0.7816164E-02  0.1184000E+00
        -11   -1    0    0    0    0  0.00000000000E+00  0.00000000000E+00  0.45593999997E+02  0.45594000000E+02  0.51100000000E-03 0.  1.
         11   -1    0    0    0    0 -0.00000000000E+00 -0.00000000000E+00 -0.45593999997E+02  0.45594000000E+02  0.51100000000E-03 0. -1.
         23    2    1    2    0    0  0.00000000000E+00  0.44408920985E-15  0.17763568394E-14  0.91188000000E+02  0.91188000000E+02 0.  0.
    9900012    2    3    3    0    0 -0.40972569830E+02  0.23546175734E+01  0.14118337847E+02  0.47787272288E+02  0.20000005670E+02 0.  0.
        -12    1    3    3    0    0  0.40972569830E+02 -0.23546175734E+01 -0.14118337847E+02  0.43400727712E+02  0.00000000000E+00 0.  1.
         11    1    4    4    0    0 -0.25411992555E+01 -0.34964996635E+01  0.53037275056E+00  0.43548248034E+01  0.51100000000E-03 0. -1.
        -11    1    4    4    0    0 -0.53544324604E+01  0.19148025298E+01  0.77531020922E+01  0.96149367140E+01  0.51100000000E-03 0.  1.
         12    1    4    4    0    0 -0.33076938114E+02  0.39363147071E+01  0.58348630045E+01  0.33817510771E+02  0.00000000000E+00 0. -1.
</event>
<event>
 8    1  0.4042158E-011  0.9118800E+02  0.7816164E-02  0.1184000E+00
        -11   -1    0    0    0    0  0.00000000000E+00  0.00000000000E+00  0.45593999997E+02  0.45594000000E+02  0.51100000000E-03 0. -1.
         11   -1    0    0    0    0 -0.00000000000E+00 -0.00000000000E+00 -0.45593999997E+02  0.45594000000E+02  0.51100000000E-03 0.  1.
         23    2    1    2    0    0  0.44408920985E-15  0.00000000000E+00  0.00000000000E+00  0.91188000000E+02  0.91188000000E+02 0.  0.
    9900012    2    3    3    0    0 -0.55661284566E+00  0.98614054918E+01 -0.42261883694E+02  0.47787263261E+02  0.19999964511E+02 0.  0.
         12    1    3    3    0    0  0.55661284566E+00 -0.98614054918E+01  0.42261883694E+02  0.43400736739E+02  0.00000000000E+00 0. -1.
         11    1    4    4    0    0  0.77888882907E+01  0.82219061300E+01 -0.17765340204E+02  0.21068313507E+02  0.51100000000E-03 0.  1.
        -11    1    4    4    0    0 -0.44565110691E+01  0.38988777525E+01 -0.16692467580E+02  0.17711584142E+02  0.51100000000E-03 0. -1.
        -12    1    4    4    0    0 -0.38889900673E+01 -0.22593783906E+01 -0.78040759103E+01  0.90073656120E+01  0.00000000000E+00 0.  1.
</event>
<event>
 8    1  0.4042158E-011  0.9118800E+02  0.7816164E-02  0.1184000E+00
        -11   -1    0    0    0    0  0.00000000000E+00  0.00000000000E+00  0.45593999997E+02  0.45594000000E+02  0.51100000000E-03 0. -1.
         11   -1    0    0    0    0 -0.00000000000E+00 -0.00000000000E+00 -0.45593999997E+02  0.45594000000E+02  0.51100000000E-03 0.  1.
         23    2    1    2    0    0  0.00000000000E+00  0.00000000000E+00  0.00000000000E+00  0.91188000000E+02  0.91188000000E+02 0.  0.
    9900012    2    3    3    0    0 -0.20871476453E+02  0.14482260325E+02 -0.35189041220E+02  0.47787274022E+02  0.20000013575E+02 0.  0.
         12    1    3    3    0    0  0.20871476453E+02 -0.14482260325E+02  0.35189041220E+02  0.43400725978E+02  0.00000000000E+00 0. -1.
         11    1    4    4    0    0 -0.45594757366E+01  0.60518411065E+01 -0.20942178220E+01  0.78612561540E+01  0.51100000000E-03 0. -1.
        -11    1    4    4    0    0  0.17196856501E+01 -0.90630386629E+00 -0.39844284629E+01  0.44333255994E+01  0.51100000000E-03 0.  1.
        -12    1    4    4    0    0 -0.18031686366E+02  0.93367230850E+01 -0.29110394935E+02  0.35492692268E+02  0.00000000000E+00 0.  1.
</event>
<event>
 8    1  0.4042158E-011  0.9118800E+02  0.7816164E-02  0.1184000E+00
        -11   -1    0    0    0    0  0.00000000000E+00  0.00000000000E+00  0.45593999997E+02  0.45594000000E+02  0.51100000000E-03 0. -1.
         11   -1    0    0    0    0 -0.00000000000E+00 -0.00000000000E+00 -0.45593999997E+02  0.45594000000E+02  0.51100000000E-03 0.  1.
         23    2    1    2    0    0  0.83266726847E-16  0.00000000000E+00  0.00000000000E+00  0.91188000000E+02  0.91188000000E+02 0.  0.
    9900012    2    3    3    0    0 -0.17365005737E+00  0.15380814315E+02  0.40583537995E+02  0.47787272361E+02  0.20000006004E+02 0.  0.
        -12    1    3    3    0    0  0.17365005737E+00 -0.15380814315E+02 -0.40583537995E+02  0.43400727639E+02  0.00000000000E+00 0.  1.
         11    1    4    4    0    0 -0.26292981744E+01  0.98506859336E+01  0.16607341154E+02  0.19487252313E+02  0.51100000000E-03 0. -1.
        -11    1    4    4    0    0 -0.12892958078E+01 -0.22680659422E+01  0.16966008902E+02  0.17165426447E+02  0.51100000000E-03 0.  1.
         12    1    4    4    0    0  0.37449439248E+01  0.77981943238E+01  0.70101879401E+01  0.11134593601E+02  0.00000000000E+00 0. -1.
</event>
<event>
 8    1  0.4042158E-011  0.9118800E+02  0.7816164E-02  0.1184000E+00
        -11   -1    0    0    0    0  0.00000000000E+00  0.00000000000E+00  0.45593999997E+02  0.45594000000E+02  0.51100000000E-03 0.  1.
         11   -1    0    0    0    0 -0.00000000000E+00 -0.00000000000E+00 -0.45593999997E+02  0.45594000000E+02  0.51100000000E-03 0. -1.
         23    2    1    2    0    0  0.00000000000E+00  0.00000000000E+00 -0.17763568394E-14  0.91188000000E+02  0.91188000000E+02 0.  0.
    9900012    2    3    3    0    0 -0.38317361592E+02  0.18693059730E+02  0.81223636556E+01  0.47787268753E+02  0.19999989551E+02 0.  0.
         12    1    3    3    0    0  0.38317361592E+02 -0.18693059730E+02 -0.81223636556E+01  0.43400731247E+02  0.00000000000E+00 0. -1.
         11    1    4    4    0    0 -0.79769423415E+00  0.20997400484E+01  0.20617662280E+01  0.30489513939E+01  0.51100000000E-03 0. -1.
        -11    1    4    4    0    0 -0.99078404733E+01  0.73550252693E+00  0.81185894028E+01  0.12830345317E+02  0.51100000000E-03 0.  1.
         12    1    4    4    0    0 -0.27611826885E+02  0.15857817154E+02 -0.20579919752E+01  0.31907972041E+02  0.00000000000E+00 0. -1.
</event>
<event>
 8    1  0.4042158E-011  0.9118800E+02  0.7816164E-02  0.1184000E+00
        -11   -1    0    0    0    0  0.00000000000E+00  0.00000000000E+00  0.45593999997E+02  0.45594000000E+02  0.51100000000E-03 0. -1.
         11   -1    0    0    0    0 -0.00000000000E+00 -0.00000000000E+00 -0.45593999997E+02  0.45594000000E+02  0.51100000000E-03 0.  1.
         23    2    1    2    0    0  0.00000000000E+00  0.00000000000E+00 -0.35527136788E-14  0.91188000000E+02  0.91188000000E+02 0.  0.
    9900012    2    3    3    0    0  0.24903047168E+02  0.17884956051E+02 -0.30717907412E+02  0.47787271355E+02  0.20000001414E+02 0.  0.
         12    1    3    3    0    0 -0.24903047168E+02 -0.17884956051E+02  0.30717907412E+02  0.43400728645E+02  0.00000000000E+00 0. -1.
         11    1    4    4    0    0 -0.99931588861E+00 -0.12188084963E+01 -0.35197196221E+01  0.38564948950E+01  0.51100000000E-03 0. -1.
        -11    1    4    4    0    0  0.63291804260E+01  0.72148231562E+01 -0.15459788009E+02  0.18196627258E+02  0.51100000000E-03 0.  1.
         12    1    4    4    0    0  0.19573182631E+02  0.11888941391E+02 -0.11738399781E+02  0.25734149201E+02  0.00000000000E+00 0. -1.
</event>
<event>
 8    1  0.4042158E-011  0.9118800E+02  0.7816164E-02  0.1184000E+00
        -11   -1    0    0    0    0  0.00000000000E+00  0.00000000000E+00  0.45593999997E+02  0.45594000000E+02  0.51100000000E-03 0. -1.
         11   -1    0    0    0    0 -0.00000000000E+00 -0.00000000000E+00 -0.45593999997E+02  0.45594000000E+02  0.51100000000E-03 0.  1.
         23    2    1    2    0    0  0.00000000000E+00  0.00000000000E+00 -0.44408920985E-15  0.91188000000E+02  0.91188000000E+02 0.  0.
    9900012    2    3    3    0    0  0.81211929606E+01 -0.42484848962E+02  0.35647028828E+01  0.47787271054E+02  0.20000000042E+02 0.  0.
        -12    1    3    3    0    0 -0.81211929606E+01  0.42484848962E+02 -0.35647028828E+01  0.43400728946E+02  0.00000000000E+00 0.  1.
         11    1    4    4    0    0  0.67361089973E+01 -0.26323932048E+02  0.91706380803E+01  0.28677956098E+02  0.51100000000E-03 0. -1.
        -11    1    4    4    0    0 -0.50467469364E+00 -0.36714891751E+00  0.15473358633E+01  0.16684553962E+01  0.51100000000E-03 0.  1.
        -12    1    4    4    0    0  0.18897586569E+01 -0.15793767997E+02 -0.71532710607E+01  0.17440859560E+02  0.00000000000E+00 0.  1.
</event>
<event>
 8    1  0.4042158E-011  0.9118800E+02  0.7816164E-02  0.1184000E+00
        -11   -1    0    0    0    0  0.00000000000E+00  0.00000000000E+00  0.45593999997E+02  0.45594000000E+02  0.51100000000E-03 0.  1.
         11   -1    0    0    0    0 -0.00000000000E+00 -0.00000000000E+00 -0.45593999997E+02  0.45594000000E+02  0.51100000000E-03 0. -1.
         23    2    1    2    0    0  0.35527136788E-14  0.00000000000E+00  0.00000000000E+00  0.91188000000E+02  0.91188000000E+02 0.  0.
    9900012    2    3    3    0    0  0.13436024571E+02  0.40519660041E+02  0.78264070335E+01  0.47787282803E+02  0.20000053613E+02 0.  0.
        -12    1    3    3    0    0 -0.13436024571E+02 -0.40519660041E+02 -0.78264070335E+01  0.43400717197E+02  0.00000000000E+00 0.  1.
         11    1    4    4    0    0  0.53744376738E+01  0.11661008873E+02 -0.57384840434E+01  0.14063922199E+02  0.51100000000E-03 0. -1.
        -11    1    4    4    0    0  0.28836822042E+01  0.19724582748E+01  0.14537424691E+01  0.37841223722E+01  0.51100000000E-03 0.  1.
         12    1    4    4    0    0  0.51779046935E+01  0.26886192893E+02  0.12111148608E+02  0.29939238232E+02  0.00000000000E+00 0. -1.
</event>
<event>
 8    1  0.4042158E-011  0.9118800E+02  0.7816164E-02  0.1184000E+00
        -11   -1    0    0    0    0  0.00000000000E+00  0.00000000000E+00  0.45593999997E+02  0.45594000000E+02  0.51100000000E-03 0. -1.
         11   -1    0    0    0    0 -0.00000000000E+00 -0.00000000000E+00 -0.45593999997E+02  0.45594000000E+02  0.51100000000E-03 0.  1.
         23    2    1    2    0    0  0.17763568394E-14  0.00000000000E+00  0.00000000000E+00  0.91188000000E+02  0.91188000000E+02 0.  0.
    9900012    2    3    3    0    0  0.15725948330E+02  0.64145658130E+01 -0.39939592269E+02  0.47787272632E+02  0.20000007239E+02 0.  0.
         12    1    3    3    0    0 -0.15725948330E+02 -0.64145658130E+01  0.39939592269E+02  0.43400727368E+02  0.00000000000E+00 0. -1.
         11    1    4    4    0    0  0.13181620745E+00  0.34581410849E+01  0.64400399592E+00  0.35200648692E+01  0.51100000000E-03 0. -1.
        -11    1    4    4    0    0  0.18344278162E+01  0.13020858864E+01 -0.12720528188E+01  0.25843126171E+01  0.51100000000E-03 0.  1.
        -12    1    4    4    0    0  0.13759704306E+02  0.16543388417E+01 -0.39311543446E+02  0.41682895146E+02  0.00000000000E+00 0.  1.
</event>
<event>
 8    1  0.4042158E-011  0.9118800E+02  0.7816164E-02  0.1184000E+00
        -11   -1    0    0    0    0  0.00000000000E+00  0.00000000000E+00  0.45593999997E+02  0.45594000000E+02  0.51100000000E-03 0. -1.
         11   -1    0    0    0    0 -0.00000000000E+00 -0.00000000000E+00 -0.45593999997E+02  0.45594000000E+02  0.51100000000E-03 0.  1.
         23    2    1    2    0    0  0.88817841970E-15  0.00000000000E+00  0.00000000000E+00  0.91188000000E+02  0.91188000000E+02 0.  0.
    9900012    2    3    3    0    0 -0.64679547611E+01 -0.14451649876E+02  0.40409639629E+02  0.47787267312E+02  0.19999982982E+02 0.  0.
        -12    1    3    3    0    0  0.64679547611E+01  0.14451649876E+02 -0.40409639629E+02  0.43400732688E+02  0.00000000000E+00 0.  1.
         11    1    4    4    0    0  0.19448466555E+01 -0.67746950031E+01  0.22993797134E+02  0.24049815546E+02  0.51100000000E-03 0. -1.
        -11    1    4    4    0    0  0.58161732454E+00 -0.57909206048E+01  0.27665196506E+01  0.64441191331E+01  0.51100000000E-03 0.  1.
        -12    1    4    4    0    0 -0.89944187412E+01 -0.18860342682E+01  0.14649322844E+02  0.17293332633E+02  0.00000000000E+00 0.  1.
</event>
<event>
 8    1  0.4042158E-011  0.9118800E+02  0.7816164E-02  0.1184000E+00
        -11   -1    0    0    0    0  0.00000000000E+00  0.00000000000E+00  0.45593999997E+02  0.45594000000E+02  0.51100000000E-03 0. -1.
         11   -1    0    0    0    0 -0.00000000000E+00 -0.00000000000E+00 -0.45593999997E+02  0.45594000000E+02  0.51100000000E-03 0.  1.
         23    2    1    2    0    0 -0.88817841970E-15  0.00000000000E+00  0.00000000000E+00  0.91188000000E+02  0.91188000000E+02 0.  0.
    9900012    2    3    3    0    0  0.69261784106E+01  0.21674957887E+02  0.36957376537E+02  0.47787269278E+02  0.19999991944E+02 0.  0.
        -12    1    3    3    0    0 -0.69261784106E+01 -0.21674957887E+02 -0.36957376537E+02  0.43400730722E+02  0.00000000000E+00 0.  1.
         11    1    4    4    0    0 -0.36988882803E+00  0.32941251958E+01  0.17043801400E+02  0.17363157690E+02  0.51100000000E-03 0.  1.
        -11    1    4    4    0    0 -0.25345382251E+01  0.84689270585E+01  0.97181423754E+01  0.13137309505E+02  0.51100000000E-03 0. -1.
        -12    1    4    4    0    0  0.98306054638E+01  0.99119056323E+01  0.10195432761E+02  0.17286802082E+02  0.00000000000E+00 0.  1.
</event>
<event>
 8    1  0.4042158E-011  0.9118800E+02  0.7816164E-02  0.1184000E+00
        -11   -1    0    0    0    0  0.00000000000E+00  0.00000000000E+00  0.45593999997E+02  0.45594000000E+02  0.51100000000E-03 0.  1.
         11   -1    0    0    0    0 -0.00000000000E+00 -0.00000000000E+00 -0.45593999997E+02  0.45594000000E+02  0.51100000000E-03 0. -1.
         23    2    1    2    0    0  0.00000000000E+00  0.00000000000E+00  0.00000000000E+00  0.91188000000E+02  0.91188000000E+02 0.  0.
    9900012    2    3    3    0    0  0.40339669512E+02 -0.10928081076E+02  0.11700913389E+02  0.47787271130E+02  0.20000000389E+02 0.  0.
         12    1    3    3    0    0 -0.40339669512E+02  0.10928081076E+02 -0.11700913389E+02  0.43400728870E+02  0.00000000000E+00 0. -1.
         11    1    4    4    0    0  0.90996237882E+01 -0.74448247761E+00  0.77926671538E+01  0.12003460704E+02  0.51100000000E-03 0. -1.
        -11    1    4    4    0    0  0.18800753270E+02 -0.67650320440E+01  0.90007596402E+01  0.21914553530E+02  0.51100000000E-03 0.  1.
         12    1    4    4    0    0  0.12439292454E+02 -0.34185665540E+01 -0.50925134053E+01  0.13869256895E+02  0.00000000000E+00 0. -1.
</event>
<event>
 8    1  0.4042158E-011  0.9118800E+02  0.7816164E-02  0.1184000E+00
        -11   -1    0    0    0    0  0.00000000000E+00  0.00000000000E+00  0.45593999997E+02  0.45594000000E+02  0.51100000000E-03 0. -1.
         11   -1    0    0    0    0 -0.00000000000E+00 -0.00000000000E+00 -0.45593999997E+02  0.45594000000E+02  0.51100000000E-03 0.  1.
         23    2    1    2    0    0  0.44408920985E-15  0.71054273576E-14  0.35527136788E-14  0.91188000000E+02  0.91188000000E+02 0.  0.
    9900012    2    3    3    0    0 -0.31039479862E+01  0.35733624732E+02  0.24435561738E+02  0.47787272967E+02  0.20000008766E+02 0.  0.
        -12    1    3    3    0    0  0.31039479862E+01 -0.35733624732E+02 -0.24435561738E+02  0.43400727033E+02  0.00000000000E+00 0.  1.
         11    1    4    4    0    0 -0.17634439634E+00 -0.10716821861E+01  0.15318384099E+00  0.10968434730E+01  0.51100000000E-03 0.  1.
        -11    1    4    4    0    0  0.45629922025E+01  0.37221829504E+01  0.46069415138E+01  0.74765937517E+01  0.51100000000E-03 0. -1.
         12    1    4    4    0    0 -0.74905957923E+01  0.33083123967E+02  0.19675436383E+02  0.39213835742E+02  0.00000000000E+00 0. -1.
</event>
<event>
 8    1  0.4042158E-011  0.9118800E+02  0.7816164E-02  0.1184000E+00
        -11   -1    0    0    0    0  0.00000000000E+00  0.00000000000E+00  0.45593999997E+02  0.45594000000E+02  0.51100000000E-03 0. -1.
         11   -1    0    0    0    0 -0.00000000000E+00 -0.00000000000E+00 -0.45593999997E+02  0.45594000000E+02  0.51100000000E-03 0.  1.
         23    2    1    2    0    0  0.00000000000E+00  0.00000000000E+00  0.00000000000E+00  0.91188000000E+02  0.91188000000E+02 0.  0.
    9900012    2    3    3    0    0 -0.18812663301E+02  0.11447704016E+02 -0.37398620198E+02  0.47787273964E+02  0.20000013312E+02 0.  0.
         12    1    3    3    0    0  0.18812663301E+02 -0.11447704016E+02  0.37398620198E+02  0.43400726036E+02  0.00000000000E+00 0. -1.
         11    1    4    4    0    0 -0.40682633832E+01 -0.46528976672E+01 -0.32486290631E+01  0.69823931934E+01  0.51100000000E-03 0. -1.
        -11    1    4    4    0    0 -0.21653376046E+01  0.40812652525E+01 -0.46396371528E+01  0.65476443225E+01  0.51100000000E-03 0.  1.
        -12    1    4    4    0    0 -0.12579062313E+02  0.12019336431E+02 -0.29510353982E+02  0.34257236448E+02  0.00000000000E+00 0.  1.
</event>
<event>
 8    1  0.4042158E-011  0.9118800E+02  0.7816164E-02  0.1184000E+00
        -11   -1    0    0    0    0  0.00000000000E+00  0.00000000000E+00  0.45593999997E+02  0.45594000000E+02  0.51100000000E-03 0. -1.
         11   -1    0    0    0    0 -0.00000000000E+00 -0.00000000000E+00 -0.45593999997E+02  0.45594000000E+02  0.51100000000E-03 0.  1.
         23    2    1    2    0    0  0.44408920985E-15  0.00000000000E+00  0.71054273576E-14  0.91188000000E+02  0.91188000000E+02 0.  0.
    9900012    2    3    3    0    0 -0.31426991052E+01 -0.27188931754E+02 -0.33682469842E+02  0.47787270257E+02  0.19999996410E+02 0.  0.
         12    1    3    3    0    0  0.31426991052E+01  0.27188931754E+02  0.33682469842E+02  0.43400729743E+02  0.00000000000E+00 0. -1.
         11    1    4    4    0    0 -0.49473339809E+01 -0.25931475720E+02 -0.20302319264E+02  0.33303178741E+02  0.51100000000E-03 0.  1.
        -11    1    4    4    0    0  0.18969373919E+01 -0.22436602366E+01 -0.35677341755E+01  0.46218081023E+01  0.51100000000E-03 0. -1.
        -12    1    4    4    0    0 -0.92302516252E-01  0.98620420215E+00 -0.98124164019E+01  0.98622834135E+01  0.00000000000E+00 0.  1.
</event>
<event>
 8    1  0.4042158E-011  0.9118800E+02  0.7816164E-02  0.1184000E+00
        -11   -1    0    0    0    0  0.00000000000E+00  0.00000000000E+00  0.45593999997E+02  0.45594000000E+02  0.51100000000E-03 0. -1.
         11   -1    0    0    0    0 -0.00000000000E+00 -0.00000000000E+00 -0.45593999997E+02  0.45594000000E+02  0.51100000000E-03 0.  1.
         23    2    1    2    0    0  0.35527136788E-14  0.00000000000E+00  0.00000000000E+00  0.91188000000E+02  0.91188000000E+02 0.  0.
    9900012    2    3    3    0    0  0.17103915621E+02  0.22053222594E+02 -0.33237549301E+02  0.47787271436E+02  0.20000001785E+02 0.  0.
         12    1    3    3    0    0 -0.17103915621E+02 -0.22053222594E+02  0.33237549301E+02  0.43400728564E+02  0.00000000000E+00 0. -1.
         11    1    4    4    0    0  0.36500070654E+01  0.35724522187E+01 -0.69462249286E+01  0.86217751915E+01  0.51100000000E-03 0.  1.
        -11    1    4    4    0    0  0.74119528607E+01  0.19754979951E+02 -0.25246924263E+02  0.32902940037E+02  0.51100000000E-03 0. -1.
         12    1    4    4    0    0  0.60419556952E+01 -0.12742095751E+01 -0.10444001085E+01  0.62625562074E+01  0.00000000000E+00 0. -1.
</event>
<event>
 8    1  0.4042158E-011  0.9118800E+02  0.7816164E-02  0.1184000E+00
        -11   -1    0    0    0    0  0.00000000000E+00  0.00000000000E+00  0.45593999997E+02  0.45594000000E+02  0.51100000000E-03 0. -1.
         11   -1    0    0    0    0 -0.00000000000E+00 -0.00000000000E+00 -0.45593999997E+02  0.45594000000E+02  0.51100000000E-03 0.  1.
         23    2    1    2    0    0  0.00000000000E+00  0.00000000000E+00  0.00000000000E+00  0.91188000000E+02  0.91188000000E+02 0.  0.
    9900012    2    3    3    0    0  0.80852274340E+01 -0.16610355485E+02  0.39272745476E+02  0.47787270176E+02  0.19999996043E+02 0.  0.
        -12    1    3    3    0    0 -0.80852274340E+01  0.16610355485E+02 -0.39272745476E+02  0.43400729824E+02  0.00000000000E+00 0.  1.
         11    1    4    4    0    0  0.36179280929E+01 -0.72430256879E+01  0.24254116549E+02  0.25569767199E+02  0.51100000000E-03 0. -1.
        -11    1    4    4    0    0  0.17469563746E+01 -0.32768285257E+01  0.15096629439E+02  0.15546629296E+02  0.51100000000E-03 0.  1.
        -12    1    4    4    0    0  0.27203429665E+01 -0.60905012717E+01 -0.78000512460E-01  0.66708736816E+01  0.00000000000E+00 0.  1.
</event>
<event>
 8    1  0.4042158E-011  0.9118800E+02  0.7816164E-02  0.1184000E+00
        -11   -1    0    0    0    0  0.00000000000E+00  0.00000000000E+00  0.45593999997E+02  0.45594000000E+02  0.51100000000E-03 0. -1.
         11   -1    0    0    0    0 -0.00000000000E+00 -0.00000000000E+00 -0.45593999997E+02  0.45594000000E+02  0.51100000000E-03 0.  1.
         23    2    1    2    0    0  0.35527136788E-14  0.35527136788E-14  0.00000000000E+00  0.91188000000E+02  0.91188000000E+02 0.  0.
    9900012    2    3    3    0    0 -0.19514369951E+02 -0.27291639551E+02  0.27531420802E+02  0.47787270106E+02  0.19999995721E+02 0.  0.
        -12    1    3    3    0    0  0.19514369951E+02  0.27291639551E+02 -0.27531420802E+02  0.43400729894E+02  0.00000000000E+00 0.  1.
         11    1    4    4    0    0 -0.60814314930E+01 -0.59520053655E+01  0.16922536413E+02  0.18941552623E+02  0.51100000000E-03 0. -1.
        -11    1    4    4    0    0 -0.97260329603E+01 -0.12219055058E+02  0.10818387982E+02  0.18998382627E+02  0.51100000000E-03 0.  1.
        -12    1    4    4    0    0 -0.37069054980E+01 -0.91205791276E+01 -0.20950359357E+00  0.98473348552E+01  0.00000000000E+00 0.  1.
</event>
<event>
 8    1  0.4042158E-011  0.9118800E+02  0.7816164E-02  0.1184000E+00
        -11   -1    0    0    0    0  0.00000000000E+00  0.00000000000E+00  0.45593999997E+02  0.45594000000E+02  0.51100000000E-03 0. -1.
         11   -1    0    0    0    0 -0.00000000000E+00 -0.00000000000E+00 -0.45593999997E+02  0.45594000000E+02  0.51100000000E-03 0.  1.
         23    2    1    2    0    0  0.00000000000E+00  0.00000000000E+00  0.13877787808E-14  0.91188000000E+02  0.91188000000E+02 0.  0.
    9900012    2    3    3    0    0 -0.40153105628E+02 -0.16470373583E+02 -0.28046486971E+00  0.47787265466E+02  0.19999974568E+02 0.  0.
         12    1    3    3    0    0  0.40153105628E+02  0.16470373583E+02  0.28046486971E+00  0.43400734534E+02  0.00000000000E+00 0. -1.
         11    1    4    4    0    0 -0.14371357855E+02  0.22811572268E+01 -0.17180844587E+00  0.14552289280E+02  0.51100000000E-03 0. -1.
        -11    1    4    4    0    0 -0.12933462126E+02 -0.97546529636E+01  0.46325224418E+01  0.16848975086E+02  0.51100000000E-03 0.  1.
        -12    1    4    4    0    0 -0.12848285647E+02 -0.89968778458E+01 -0.47411788656E+01  0.16386001101E+02  0.00000000000E+00 0.  1.
</event>
<event>
 8    1  0.4042158E-011  0.9118800E+02  0.7816164E-02  0.1184000E+00
        -11   -1    0    0    0    0  0.00000000000E+00  0.00000000000E+00  0.45593999997E+02  0.45594000000E+02  0.51100000000E-03 0.  1.
         11   -1    0    0    0    0 -0.00000000000E+00 -0.00000000000E+00 -0.45593999997E+02  0.45594000000E+02  0.51100000000E-03 0. -1.
         23    2    1    2    0    0  0.00000000000E+00  0.00000000000E+00 -0.88817841970E-15  0.91188000000E+02  0.91188000000E+02 0.  0.
    9900012    2    3    3    0    0 -0.14411572537E+02 -0.40308114342E+02 -0.71544090279E+01  0.47787273355E+02  0.20000010535E+02 0.  0.
        -12    1    3    3    0    0  0.14411572537E+02  0.40308114342E+02  0.71544090279E+01  0.43400726645E+02  0.00000000000E+00 0.  1.
         11    1    4    4    0    0 -0.51303719749E+01 -0.59588388927E+01  0.13324803274E+01  0.79752104445E+01  0.51100000000E-03 0. -1.
        -11    1    4    4    0    0 -0.10350048116E+01 -0.57758165987E+00  0.29790063480E+01  0.32061370240E+01  0.51100000000E-03 0.  1.
        -12    1    4    4    0    0 -0.82461957500E+01 -0.33771693789E+02 -0.11465895703E+02  0.36605925887E+02  0.00000000000E+00 0.  1.
</event>
<event>
 8    1  0.4042158E-011  0.9118800E+02  0.7816164E-02  0.1184000E+00
        -11   -1    0    0    0    0  0.00000000000E+00  0.00000000000E+00  0.45593999997E+02  0.45594000000E+02  0.51100000000E-03 0. -1.
         11   -1    0    0    0    0 -0.00000000000E+00 -0.00000000000E+00 -0.45593999997E+02  0.45594000000E+02  0.51100000000E-03 0.  1.
         23    2    1    2    0    0 -0.35527136788E-14 -0.88817841970E-15  0.00000000000E+00  0.91188000000E+02  0.91188000000E+02 0.  0.
    9900012    2    3    3    0    0 -0.17862594407E+02  0.32711103412E+01  0.39418914218E+02  0.47787271435E+02  0.20000001781E+02 0.  0.
        -12    1    3    3    0    0  0.17862594407E+02 -0.32711103412E+01 -0.39418914218E+02  0.43400728565E+02  0.00000000000E+00 0.  1.
         11    1    4    4    0    0  0.18653049733E+01  0.13098105654E+01  0.31932220962E+01  0.39232172993E+01  0.51100000000E-03 0.  1.
        -11    1    4    4    0    0 -0.11280410803E+02  0.82635698020E+01  0.23443740144E+02  0.27297311332E+02  0.51100000000E-03 0. -1.
        -12    1    4    4    0    0 -0.84474885777E+01 -0.63022700262E+01  0.12781951978E+02  0.16566742804E+02  0.00000000000E+00 0.  1.
</event>
<event>
 8    1  0.4424996E-011  0.9118800E+02  0.7816164E-02  0.1184000E+00
        -11   -1    0    0    0    0  0.00000000000E+00  0.00000000000E+00  0.45593999997E+02  0.45594000000E+02  0.51100000000E-03 0. -1.
         11   -1    0    0    0    0 -0.00000000000E+00 -0.00000000000E+00 -0.45593999997E+02  0.45594000000E+02  0.51100000000E-03 0.  1.
         23    2    1    2    0    0  0.35527136788E-14  0.00000000000E+00  0.00000000000E+00  0.91188000000E+02  0.91188000000E+02 0.  0.
    9900012    2    3    3    0    0 -0.26353502135E+02 -0.29543010289E+02  0.17785582866E+02  0.47787268559E+02  0.19999988668E+02 0.  0.
        -12    1    3    3    0    0  0.26353502135E+02  0.29543010289E+02 -0.17785582866E+02  0.43400731441E+02  0.00000000000E+00 0.  1.
         11    1    4    4    0    0 -0.10091807457E+02 -0.17550589169E+02  0.96987262815E+01  0.22448453169E+02  0.51100000000E-03 0. -1.
        -11    1    4    4    0    0 -0.16472252246E+02 -0.13909509169E+02  0.87949144506E+01  0.23284330779E+02  0.51100000000E-03 0.  1.
        -12    1    4    4    0    0  0.21055756851E+00  0.19170880485E+01 -0.70805786614E+00  0.20544846111E+01  0.00000000000E+00 0.  1.
</event>
<event>
 8    1  0.4042158E-011  0.9118800E+02  0.7816164E-02  0.1184000E+00
        -11   -1    0    0    0    0  0.00000000000E+00  0.00000000000E+00  0.45593999997E+02  0.45594000000E+02  0.51100000000E-03 0. -1.
         11   -1    0    0    0    0 -0.00000000000E+00 -0.00000000000E+00 -0.45593999997E+02  0.45594000000E+02  0.51100000000E-03 0.  1.
         23    2    1    2    0    0  0.00000000000E+00 -0.17763568394E-14  0.00000000000E+00  0.91188000000E+02  0.91188000000E+02 0.  0.
    9900012    2    3    3    0    0  0.38587587103E+02  0.14157746238E+02 -0.13934838324E+02  0.47787269867E+02  0.19999994631E+02 0.  0.
         12    1    3    3    0    0 -0.38587587103E+02 -0.14157746238E+02  0.13934838324E+02  0.43400730133E+02  0.00000000000E+00 0. -1.
         11    1    4    4    0    0  0.13027432920E+02  0.46489994136E+01 -0.27655006652E+01  0.14105856876E+02  0.51100000000E-03 0. -1.
        -11    1    4    4    0    0  0.21299276542E+02  0.21845892135E+00 -0.95093740286E+01  0.23326703586E+02  0.51100000000E-03 0.  1.
         12    1    4    4    0    0  0.42608776411E+01  0.92902879034E+01 -0.16599636306E+01  0.10354709405E+02  0.00000000000E+00 0. -1.
</event>
<event>
 8    1  0.4042158E-011  0.9118800E+02  0.7816164E-02  0.1184000E+00
        -11   -1    0    0    0    0  0.00000000000E+00  0.00000000000E+00  0.45593999997E+02  0.45594000000E+02  0.51100000000E-03 0. -1.
         11   -1    0    0    0    0 -0.00000000000E+00 -0.00000000000E+00 -0.45593999997E+02  0.45594000000E+02  0.51100000000E-03 0.  1.
         23    2    1    2    0    0  0.00000000000E+00  0.35527136788E-14  0.00000000000E+00  0.91188000000E+02  0.91188000000E+02 0.  0.
    9900012    2    3    3    0    0  0.39129382044E+00 -0.16268274018E+02 -0.40234521238E+02  0.47787233306E+02  0.19999827935E+02 0.  0.
         12    1    3    3    0    0 -0.39129382044E+00  0.16268274018E+02  0.40234521238E+02  0.43400766694E+02  0.00000000000E+00 0. -1.
         11    1    4    4    0    0  0.18153544651E+01 -0.17854325310E+02 -0.26834583752E+02  0.32282616522E+02  0.51100000000E-03 0.  1.
        -11    1    4    4    0    0 -0.42643281810E+01  0.11350395132E+01 -0.52279416712E+01  0.68413583381E+01  0.51100000000E-03 0. -1.
        -12    1    4    4    0    0  0.28402675363E+01  0.45101177883E+00 -0.81719958149E+01  0.86632584459E+01  0.00000000000E+00 0.  1.
</event>
<event>
 8    1  0.4042158E-011  0.9118800E+02  0.7816164E-02  0.1184000E+00
        -11   -1    0    0    0    0  0.00000000000E+00  0.00000000000E+00  0.45593999997E+02  0.45594000000E+02  0.51100000000E-03 0. -1.
         11   -1    0    0    0    0 -0.00000000000E+00 -0.00000000000E+00 -0.45593999997E+02  0.45594000000E+02  0.51100000000E-03 0.  1.
         23    2    1    2    0    0  0.13322676296E-14  0.00000000000E+00  0.00000000000E+00  0.91188000000E+02  0.91188000000E+02 0.  0.
    9900012    2    3    3    0    0  0.15740802114E+01  0.23625606098E+02  0.36372738792E+02  0.47787272826E+02  0.20000008123E+02 0.  0.
        -12    1    3    3    0    0 -0.15740802114E+01 -0.23625606098E+02 -0.36372738792E+02  0.43400727174E+02  0.00000000000E+00 0.  1.
         11    1    4    4    0    0 -0.34225573158E+01  0.36205794062E+01  0.83570445338E+01  0.97294751872E+01  0.51100000000E-03 0. -1.
        -11    1    4    4    0    0 -0.55144469804E+01  0.78875949008E+01  0.12101241968E+02  0.15461673138E+02  0.51100000000E-03 0.  1.
         12    1    4    4    0    0  0.10511084508E+02  0.12117431791E+02  0.15914452290E+02  0.22596124501E+02  0.00000000000E+00 0. -1.
</event>
<event>
 8    1  0.4042158E-011  0.9118800E+02  0.7816164E-02  0.1184000E+00
        -11   -1    0    0    0    0  0.00000000000E+00  0.00000000000E+00  0.45593999997E+02  0.45594000000E+02  0.51100000000E-03 0. -1.
         11   -1    0    0    0    0 -0.00000000000E+00 -0.00000000000E+00 -0.45593999997E+02  0.45594000000E+02  0.51100000000E-03 0.  1.
         23    2    1    2    0    0 -0.35527136788E-14  0.00000000000E+00  0.00000000000E+00  0.91188000000E+02  0.91188000000E+02 0.  0.
    9900012    2    3    3    0    0  0.18761933642E+02 -0.35540449528E+02 -0.16385651658E+02  0.47787270895E+02  0.19999999317E+02 0.  0.
         12    1    3    3    0    0 -0.18761933642E+02  0.35540449528E+02  0.16385651658E+02  0.43400729105E+02  0.00000000000E+00 0. -1.
         11    1    4    4    0    0  0.54315054749E+01 -0.10438705703E+02 -0.14037705641E+01  0.11850670890E+02  0.51100000000E-03 0. -1.
        -11    1    4    4    0    0  0.16129681564E+02 -0.19715777495E+02 -0.80324673794E+01  0.26709530922E+02  0.51100000000E-03 0.  1.
         12    1    4    4    0    0 -0.27992533973E+01 -0.53859663297E+01 -0.69494137148E+01  0.92270690832E+01  0.00000000000E+00 0. -1.
</event>
<event>
 8    1  0.4042158E-011  0.9118800E+02  0.7816164E-02  0.1184000E+00
        -11   -1    0    0    0    0  0.00000000000E+00  0.00000000000E+00  0.45593999997E+02  0.45594000000E+02  0.51100000000E-03 0. -1.
         11   -1    0    0    0    0 -0.00000000000E+00 -0.00000000000E+00 -0.45593999997E+02  0.45594000000E+02  0.51100000000E-03 0.  1.
         23    2    1    2    0    0  0.00000000000E+00 -0.17763568394E-14  0.00000000000E+00  0.91188000000E+02  0.91188000000E+02 0.  0.
    9900012    2    3    3    0    0  0.21323212697E+02 -0.13431543222E+02  0.35334652453E+02  0.47787269396E+02  0.19999992482E+02 0.  0.
        -12    1    3    3    0    0 -0.21323212697E+02  0.13431543222E+02 -0.35334652453E+02  0.43400730604E+02  0.00000000000E+00 0.  1.
         11    1    4    4    0    0  0.16654648197E+01 -0.74972728431E+01  0.20112203985E+02  0.21528669782E+02  0.51100000000E-03 0. -1.
        -11    1    4    4    0    0  0.36862718957E+01 -0.32458562540E+01  0.54759235081E+01  0.73559446598E+01  0.51100000000E-03 0.  1.
        -12    1    4    4    0    0  0.15971475982E+02 -0.26884141247E+01  0.97465249591E+01  0.18902654954E+02  0.00000000000E+00 0.  1.
</event>
<event>
 8    1  0.4042158E-011  0.9118800E+02  0.7816164E-02  0.1184000E+00
        -11   -1    0    0    0    0  0.00000000000E+00  0.00000000000E+00  0.45593999997E+02  0.45594000000E+02  0.51100000000E-03 0. -1.
         11   -1    0    0    0    0 -0.00000000000E+00 -0.00000000000E+00 -0.45593999997E+02  0.45594000000E+02  0.51100000000E-03 0.  1.
         23    2    1    2    0    0  0.00000000000E+00 -0.22204460493E-15 -0.71054273576E-14  0.91188000000E+02  0.91188000000E+02 0.  0.
    9900012    2    3    3    0    0 -0.45864355224E+00 -0.17231236688E+01 -0.43364085083E+02  0.47787269774E+02  0.19999994206E+02 0.  0.
         12    1    3    3    0    0  0.45864355224E+00  0.17231236688E+01  0.43364085083E+02  0.43400730226E+02  0.00000000000E+00 0. -1.
         11    1    4    4    0    0  0.13543411786E+01  0.42908426399E+01 -0.21980492595E+01  0.50076932211E+01  0.51100000000E-03 0. -1.
        -11    1    4    4    0    0 -0.19932189507E+01 -0.18112315115E+01 -0.19171198938E+01  0.33058781469E+01  0.51100000000E-03 0.  1.
        -12    1    4    4    0    0  0.18023421989E+00 -0.42027347972E+01 -0.39248915930E+02  0.39473698406E+02  0.00000000000E+00 0.  1.
</event>
<event>
 8    1  0.4042158E-011  0.9118800E+02  0.7816164E-02  0.1184000E+00
        -11   -1    0    0    0    0  0.00000000000E+00  0.00000000000E+00  0.45593999997E+02  0.45594000000E+02  0.51100000000E-03 0. -1.
         11   -1    0    0    0    0 -0.00000000000E+00 -0.00000000000E+00 -0.45593999997E+02  0.45594000000E+02  0.51100000000E-03 0.  1.
         23    2    1    2    0    0  0.00000000000E+00 -0.88817841970E-15  0.00000000000E+00  0.91188000000E+02  0.91188000000E+02 0.  0.
    9900012    2    3    3    0    0 -0.34038471761E+02  0.62603786058E+01 -0.26188036425E+02  0.47787272449E+02  0.20000006405E+02 0.  0.
         12    1    3    3    0    0  0.34038471761E+02 -0.62603786058E+01  0.26188036425E+02  0.43400727551E+02  0.00000000000E+00 0. -1.
         11    1    4    4    0    0 -0.15368400716E+01  0.35173064248E+01 -0.52994302307E+01  0.65434916461E+01  0.51100000000E-03 0.  1.
        -11    1    4    4    0    0 -0.79105574428E+01  0.67642036783E+01 -0.83811536763E+01  0.13363199754E+02  0.51100000000E-03 0. -1.
         12    1    4    4    0    0 -0.24591074247E+02 -0.40211314974E+01 -0.12507452518E+02  0.27880581049E+02  0.00000000000E+00 0. -1.
</event>
<event>
 8    1  0.4042158E-011  0.9118800E+02  0.7816164E-02  0.1184000E+00
        -11   -1    0    0    0    0  0.00000000000E+00  0.00000000000E+00  0.45593999997E+02  0.45594000000E+02  0.51100000000E-03 0. -1.
         11   -1    0    0    0    0 -0.00000000000E+00 -0.00000000000E+00 -0.45593999997E+02  0.45594000000E+02  0.51100000000E-03 0.  1.
         23    2    1    2    0    0 -0.17763568394E-14  0.00000000000E+00 -0.71054273576E-14  0.91188000000E+02  0.91188000000E+02 0.  0.
    9900012    2    3    3    0    0  0.14259174131E+02  0.14789571604E+02 -0.38230457202E+02  0.47787270364E+02  0.19999996896E+02 0.  0.
         12    1    3    3    0    0 -0.14259174131E+02 -0.14789571604E+02  0.38230457202E+02  0.43400729636E+02  0.00000000000E+00 0. -1.
         11    1    4    4    0    0  0.58664817881E+01 -0.16322996646E+01 -0.12458137463E+02  0.13866693913E+02  0.51100000000E-03 0. -1.
        -11    1    4    4    0    0 -0.31325797097E+00 -0.14901725294E+01 -0.46356114525E+01  0.48793071766E+01  0.51100000000E-03 0.  1.
        -12    1    4    4    0    0  0.87059503142E+01  0.17912043798E+02 -0.21136708286E+02  0.29041269274E+02  0.00000000000E+00 0.  1.
</event>
<event>
 8    1  0.4042158E-011  0.9118800E+02  0.7816164E-02  0.1184000E+00
        -11   -1    0    0    0    0  0.00000000000E+00  0.00000000000E+00  0.45593999997E+02  0.45594000000E+02  0.51100000000E-03 0.  1.
         11   -1    0    0    0    0 -0.00000000000E+00 -0.00000000000E+00 -0.45593999997E+02  0.45594000000E+02  0.51100000000E-03 0. -1.
         23    2    1    2    0    0  0.00000000000E+00  0.00000000000E+00  0.00000000000E+00  0.91188000000E+02  0.91188000000E+02 0.  0.
    9900012    2    3    3    0    0 -0.17915300754E+02 -0.31149860720E+02 -0.24338264823E+02  0.47787274677E+02  0.20000016563E+02 0.  0.
         12    1    3    3    0    0  0.17915300754E+02  0.31149860720E+02  0.24338264823E+02  0.43400725323E+02  0.00000000000E+00 0. -1.
         11    1    4    4    0    0 -0.48286896967E+01 -0.10438300510E+02 -0.16902620070E+02  0.20444386203E+02  0.51100000000E-03 0. -1.
        -11    1    4    4    0    0 -0.32836633420E+01 -0.39417696745E+01 -0.59572957234E+01  0.78618932648E+01  0.51100000000E-03 0.  1.
        -12    1    4    4    0    0 -0.98029477150E+01 -0.16769790535E+02 -0.14783490300E+01  0.19480995210E+02  0.00000000000E+00 0.  1.
</event>
<event>
 8    1  0.4042158E-011  0.9118800E+02  0.7816164E-02  0.1184000E+00
        -11   -1    0    0    0    0  0.00000000000E+00  0.00000000000E+00  0.45593999997E+02  0.45594000000E+02  0.51100000000E-03 0. -1.
         11   -1    0    0    0    0 -0.00000000000E+00 -0.00000000000E+00 -0.45593999997E+02  0.45594000000E+02  0.51100000000E-03 0.  1.
         23    2    1    2    0    0  0.00000000000E+00  0.00000000000E+00  0.00000000000E+00  0.91188000000E+02  0.91188000000E+02 0.  0.
    9900012    2    3    3    0    0 -0.59801733652E+01  0.19663767140E+02  0.38225606090E+02  0.47787272212E+02  0.20000005321E+02 0.  0.
        -12    1    3    3    0    0  0.59801733652E+01 -0.19663767140E+02 -0.38225606090E+02  0.43400727788E+02  0.00000000000E+00 0.  1.
         11    1    4    4    0    0 -0.50220608609E+01  0.14042145261E+02  0.15122916918E+02  0.21239245636E+02  0.51100000000E-03 0. -1.
        -11    1    4    4    0    0 -0.10505541661E+01  0.83194593566E+01  0.94630326909E+01  0.12643814931E+02  0.51100000000E-03 0.  1.
        -12    1    4    4    0    0  0.92441661861E-01 -0.26978374779E+01  0.13639656482E+02  0.13904211645E+02  0.00000000000E+00 0.  1.
</event>
<event>
 8    1  0.4042158E-011  0.9118800E+02  0.7816164E-02  0.1184000E+00
        -11   -1    0    0    0    0  0.00000000000E+00  0.00000000000E+00  0.45593999997E+02  0.45594000000E+02  0.51100000000E-03 0. -1.
         11   -1    0    0    0    0 -0.00000000000E+00 -0.00000000000E+00 -0.45593999997E+02  0.45594000000E+02  0.51100000000E-03 0.  1.
         23    2    1    2    0    0  0.00000000000E+00  0.17763568394E-14  0.00000000000E+00  0.91188000000E+02  0.91188000000E+02 0.  0.
    9900012    2    3    3    0    0  0.21044355341E+02 -0.12630602515E+02  0.35794223644E+02  0.47787268924E+02  0.19999990334E+02 0.  0.
        -12    1    3    3    0    0 -0.21044355341E+02  0.12630602515E+02 -0.35794223644E+02  0.43400731076E+02  0.00000000000E+00 0.  1.
         11    1    4    4    0    0  0.41689553184E+01 -0.50301205981E+01  0.20321261635E+02  0.21345631318E+02  0.51100000000E-03 0. -1.
        -11    1    4    4    0    0 -0.55859703226E+00 -0.29826430327E+01  0.41700069872E+01  0.51572423483E+01  0.51100000000E-03 0.  1.
        -12    1    4    4    0    0  0.17433997055E+02 -0.46178388845E+01  0.11302955022E+02  0.21284395258E+02  0.00000000000E+00 0.  1.
</event>
<event>
 8    1  0.4042158E-011  0.9118800E+02  0.7816164E-02  0.1184000E+00
        -11   -1    0    0    0    0  0.00000000000E+00  0.00000000000E+00  0.45593999997E+02  0.45594000000E+02  0.51100000000E-03 0. -1.
         11   -1    0    0    0    0 -0.00000000000E+00 -0.00000000000E+00 -0.45593999997E+02  0.45594000000E+02  0.51100000000E-03 0.  1.
         23    2    1    2    0    0 -0.22204460493E-15 -0.66613381478E-15  0.00000000000E+00  0.91188000000E+02  0.91188000000E+02 0.  0.
    9900012    2    3    3    0    0  0.13465819095E+01  0.61501993160E+00 -0.43375477114E+02  0.47787267895E+02  0.19999985641E+02 0.  0.
         12    1    3    3    0    0 -0.13465819095E+01 -0.61501993160E+00  0.43375477114E+02  0.43400732105E+02  0.00000000000E+00 0. -1.
         11    1    4    4    0    0  0.63187429522E+00  0.43308559699E+01 -0.68634435851E+01  0.81401742404E+01  0.51100000000E-03 0. -1.
        -11    1    4    4    0    0  0.32975960946E+01  0.39867429559E+01 -0.25166412973E+02  0.25692734412E+02  0.51100000000E-03 0.  1.
         12    1    4    4    0    0 -0.25828884803E+01 -0.77025789941E+01 -0.11345620556E+02  0.13954359242E+02  0.00000000000E+00 0. -1.
</event>
<event>
 8    1  0.4042158E-011  0.9118800E+02  0.7816164E-02  0.1184000E+00
        -11   -1    0    0    0    0  0.00000000000E+00  0.00000000000E+00  0.45593999997E+02  0.45594000000E+02  0.51100000000E-03 0. -1.
         11   -1    0    0    0    0 -0.00000000000E+00 -0.00000000000E+00 -0.45593999997E+02  0.45594000000E+02  0.51100000000E-03 0.  1.
         23    2    1    2    0    0  0.00000000000E+00  0.00000000000E+00  0.35527136788E-14  0.91188000000E+02  0.91188000000E+02 0.  0.
    9900012    2    3    3    0    0 -0.24450710947E+02 -0.16990866393E+02 -0.31576845894E+02  0.47787262642E+02  0.19999961689E+02 0.  0.
         12    1    3    3    0    0  0.24450710947E+02  0.16990866393E+02  0.31576845894E+02  0.43400737358E+02  0.00000000000E+00 0. -1.
         11    1    4    4    0    0 -0.20687486091E+00  0.85725899361E+00 -0.11335299111E+01  0.14361686916E+01  0.51100000000E-03 0. -1.
        -11    1    4    4    0    0 -0.21456989336E+02 -0.89073032024E+01 -0.28529741107E+02  0.36792506976E+02  0.51100000000E-03 0.  1.
        -12    1    4    4    0    0 -0.27868467506E+01 -0.89408221838E+01 -0.19135748763E+01  0.95585869741E+01  0.00000000000E+00 0.  1.
</event>
<event>
 8    1  0.4042158E-011  0.9118800E+02  0.7816164E-02  0.1184000E+00
        -11   -1    0    0    0    0  0.00000000000E+00  0.00000000000E+00  0.45593999997E+02  0.45594000000E+02  0.51100000000E-03 0. -1.
         11   -1    0    0    0    0 -0.00000000000E+00 -0.00000000000E+00 -0.45593999997E+02  0.45594000000E+02  0.51100000000E-03 0.  1.
         23    2    1    2    0    0  0.17763568394E-14  0.00000000000E+00  0.71054273576E-14  0.91188000000E+02  0.91188000000E+02 0.  0.
    9900012    2    3    3    0    0  0.71336083688E+01 -0.23353705010E+02 -0.35879513860E+02  0.47787269351E+02  0.19999992278E+02 0.  0.
         12    1    3    3    0    0 -0.71336083688E+01  0.23353705010E+02  0.35879513860E+02  0.43400730649E+02  0.00000000000E+00 0. -1.
         11    1    4    4    0    0 -0.14606187627E+01 -0.22320959056E+01  0.87712683953E+00  0.28080261850E+01  0.51100000000E-03 0. -1.
        -11    1    4    4    0    0 -0.27636081319E+01 -0.50705632587E+01 -0.12379880603E+02  0.13660511911E+02  0.51100000000E-03 0.  1.
        -12    1    4    4    0    0  0.11357835263E+02 -0.16051045846E+02 -0.24376760096E+02  0.31318731255E+02  0.00000000000E+00 0.  1.
</event>
<event>
 8    1  0.4042158E-011  0.9118800E+02  0.7816164E-02  0.1184000E+00
        -11   -1    0    0    0    0  0.00000000000E+00  0.00000000000E+00  0.45593999997E+02  0.45594000000E+02  0.51100000000E-03 0. -1.
         11   -1    0    0    0    0 -0.00000000000E+00 -0.00000000000E+00 -0.45593999997E+02  0.45594000000E+02  0.51100000000E-03 0.  1.
         23    2    1    2    0    0  0.83266726847E-15  0.00000000000E+00  0.71054273576E-14  0.91188000000E+02  0.91188000000E+02 0.  0.
    9900012    2    3    3    0    0 -0.16068918630E+00  0.70964438810E+01 -0.42816341765E+02  0.47787257392E+02  0.19999937752E+02 0.  0.
         12    1    3    3    0    0  0.16068918630E+00 -0.70964438810E+01  0.42816341765E+02  0.43400742608E+02  0.00000000000E+00 0. -1.
         11    1    4    4    0    0 -0.24552104461E+01  0.30214071453E+01 -0.31912394115E+01  0.50339813980E+01  0.51100000000E-03 0.  1.
        -11    1    4    4    0    0 -0.60229309002E+01  0.35550032792E+01 -0.24564458813E+02  0.25540680923E+02  0.51100000000E-03 0. -1.
        -12    1    4    4    0    0  0.83174521600E+01  0.52003345644E+00 -0.15060643541E+02  0.17212595071E+02  0.00000000000E+00 0.  1.
</event>
<event>
 8    1  0.4042158E-011  0.9118800E+02  0.7816164E-02  0.1184000E+00
        -11   -1    0    0    0    0  0.00000000000E+00  0.00000000000E+00  0.45593999997E+02  0.45594000000E+02  0.51100000000E-03 0. -1.
         11   -1    0    0    0    0 -0.00000000000E+00 -0.00000000000E+00 -0.45593999997E+02  0.45594000000E+02  0.51100000000E-03 0.  1.
         23    2    1    2    0    0  0.00000000000E+00 -0.71054273576E-14  0.00000000000E+00  0.91188000000E+02  0.91188000000E+02 0.  0.
    9900012    2    3    3    0    0  0.16237271345E+02 -0.38168559596E+02 -0.12772505444E+02  0.47787253259E+02  0.19999918909E+02 0.  0.
         12    1    3    3    0    0 -0.16237271345E+02  0.38168559596E+02  0.12772505444E+02  0.43400746741E+02  0.00000000000E+00 0. -1.
         11    1    4    4    0    0  0.68670421005E+01 -0.22719185992E+02 -0.83626517770E+01  0.25164491339E+02  0.51100000000E-03 0. -1.
        -11    1    4    4    0    0  0.49267402883E+01 -0.14727486433E+02 -0.74160196498E+01  0.17209560546E+02  0.51100000000E-03 0.  1.
         12    1    4    4    0    0  0.44434889563E+01 -0.72188717103E+00  0.30061659830E+01  0.54132013735E+01  0.00000000000E+00 0. -1.
</event>
<event>
 8    1  0.4042158E-011  0.9118800E+02  0.7816164E-02  0.1184000E+00
        -11   -1    0    0    0    0  0.00000000000E+00  0.00000000000E+00  0.45593999997E+02  0.45594000000E+02  0.51100000000E-03 0.  1.
         11   -1    0    0    0    0 -0.00000000000E+00 -0.00000000000E+00 -0.45593999997E+02  0.45594000000E+02  0.51100000000E-03 0. -1.
         23    2    1    2    0    0  0.00000000000E+00  0.00000000000E+00 -0.35527136788E-14  0.91188000000E+02  0.91188000000E+02 0.  0.
    9900012    2    3    3    0    0  0.50158787525E+01 -0.30226635021E+02  0.30737834509E+02  0.47787274491E+02  0.20000015716E+02 0.  0.
        -12    1    3    3    0    0 -0.50158787525E+01  0.30226635021E+02 -0.30737834509E+02  0.43400725509E+02  0.00000000000E+00 0.  1.
         11    1    4    4    0    0  0.35046265694E+01 -0.22302808476E+01 -0.77083248248E-02  0.41541087768E+01  0.51100000000E-03 0. -1.
        -11    1    4    4    0    0 -0.42446951320E+01 -0.10634026266E+02  0.61972467875E+01  0.13019440057E+02  0.51100000000E-03 0.  1.
         12    1    4    4    0    0  0.57559473151E+01 -0.17362327908E+02  0.24548296047E+02  0.30613725658E+02  0.00000000000E+00 0. -1.
</event>
<event>
 8    1  0.4042158E-011  0.9118800E+02  0.7816164E-02  0.1184000E+00
        -11   -1    0    0    0    0  0.00000000000E+00  0.00000000000E+00  0.45593999997E+02  0.45594000000E+02  0.51100000000E-03 0. -1.
         11   -1    0    0    0    0 -0.00000000000E+00 -0.00000000000E+00 -0.45593999997E+02  0.45594000000E+02  0.51100000000E-03 0.  1.
         23    2    1    2    0    0  0.00000000000E+00 -0.17763568394E-14 -0.71054273576E-14  0.91188000000E+02  0.91188000000E+02 0.  0.
    9900012    2    3    3    0    0 -0.16329058898E+02  0.13615889733E+02 -0.37836398500E+02  0.47787266490E+02  0.19999979236E+02 0.  0.
         12    1    3    3    0    0  0.16329058898E+02 -0.13615889733E+02  0.37836398500E+02  0.43400733510E+02  0.00000000000E+00 0. -1.
         11    1    4    4    0    0 -0.28393832321E+01 -0.41153179637E+01 -0.92632185429E+01  0.10526402857E+02  0.51100000000E-03 0. -1.
        -11    1    4    4    0    0 -0.60796815264E+00 -0.17778743296E+00  0.47037352230E+00  0.78897728582E+00  0.51100000000E-03 0.  1.
        -12    1    4    4    0    0 -0.12881707514E+02  0.17908995129E+02 -0.29043553479E+02  0.36471886347E+02  0.00000000000E+00 0.  1.
</event>
<event>
 8    1  0.4042158E-011  0.9118800E+02  0.7816164E-02  0.1184000E+00
        -11   -1    0    0    0    0  0.00000000000E+00  0.00000000000E+00  0.45593999997E+02  0.45594000000E+02  0.51100000000E-03 0. -1.
         11   -1    0    0    0    0 -0.00000000000E+00 -0.00000000000E+00 -0.45593999997E+02  0.45594000000E+02  0.51100000000E-03 0.  1.
         23    2    1    2    0    0  0.00000000000E+00  0.44408920985E-15 -0.17763568394E-14  0.91188000000E+02  0.91188000000E+02 0.  0.
    9900012    2    3    3    0    0  0.41892371086E+02 -0.16572626661E+01  0.11220796045E+02  0.47787267995E+02  0.19999986095E+02 0.  0.
        -12    1    3    3    0    0 -0.41892371086E+02  0.16572626661E+01 -0.11220796045E+02  0.43400732005E+02  0.00000000000E+00 0.  1.
         11    1    4    4    0    0  0.27694701345E+00  0.16210729791E+01  0.21352047434E+01  0.26951209266E+01  0.51100000000E-03 0. -1.
        -11    1    4    4    0    0  0.24062936812E+01  0.32398521179E+00  0.49347148011E+01  0.54996932757E+01  0.51100000000E-03 0.  1.
         12    1    4    4    0    0  0.39209130391E+02 -0.36023208570E+01  0.41508765003E+01  0.39592453792E+02  0.00000000000E+00 0. -1.
</event>
<event>
 8    1  0.4042158E-011  0.9118800E+02  0.7816164E-02  0.1184000E+00
        -11   -1    0    0    0    0  0.00000000000E+00  0.00000000000E+00  0.45593999997E+02  0.45594000000E+02  0.51100000000E-03 0. -1.
         11   -1    0    0    0    0 -0.00000000000E+00 -0.00000000000E+00 -0.45593999997E+02  0.45594000000E+02  0.51100000000E-03 0.  1.
         23    2    1    2    0    0  0.00000000000E+00  0.17763568394E-14  0.35527136788E-14  0.91188000000E+02  0.91188000000E+02 0.  0.
    9900012    2    3    3    0    0  0.30640408189E+02  0.15567322084E+02  0.26503714266E+02  0.47787274191E+02  0.20000014348E+02 0.  0.
        -12    1    3    3    0    0 -0.30640408189E+02 -0.15567322084E+02 -0.26503714266E+02  0.43400725809E+02  0.00000000000E+00 0.  1.
         11    1    4    4    0    0  0.24314338978E+02  0.11358098950E+02  0.17902480649E+02  0.32259762946E+02  0.51100000000E-03 0. -1.
        -11    1    4    4    0    0  0.57883315987E+01 -0.16474449290E+01  0.73764610564E+01  0.95200333754E+01  0.51100000000E-03 0.  1.
         12    1    4    4    0    0  0.53773761196E+00  0.58566680625E+01  0.12247725609E+01  0.60074778701E+01  0.00000000000E+00 0. -1.
</event>
<event>
 8    1  0.4042158E-011  0.9118800E+02  0.7816164E-02  0.1184000E+00
        -11   -1    0    0    0    0  0.00000000000E+00  0.00000000000E+00  0.45593999997E+02  0.45594000000E+02  0.51100000000E-03 0.  1.
         11   -1    0    0    0    0 -0.00000000000E+00 -0.00000000000E+00 -0.45593999997E+02  0.45594000000E+02  0.51100000000E-03 0. -1.
         23    2    1    2    0    0  0.00000000000E+00 -0.66613381478E-15  0.00000000000E+00  0.91188000000E+02  0.91188000000E+02 0.  0.
    9900012    2    3    3    0    0 -0.39741332819E+02 -0.19453075799E+01 -0.17333938779E+02  0.47787272017E+02  0.20000004435E+02 0.  0.
         12    1    3    3    0    0  0.39741332819E+02  0.19453075799E+01  0.17333938779E+02  0.43400727983E+02  0.00000000000E+00 0. -1.
         11    1    4    4    0    0 -0.80067620065E+01  0.68626690222E+01 -0.54910846393E+01  0.11889342905E+02  0.51100000000E-03 0. -1.
        -11    1    4    4    0    0 -0.43762496111E+01 -0.17296777222E+01  0.10739359976E+01  0.48266639068E+01  0.51100000000E-03 0.  1.
         12    1    4    4    0    0 -0.27358321202E+02 -0.70782988799E+01 -0.12916790137E+02  0.31071265205E+02  0.00000000000E+00 0. -1.
</event>
<event>
 8    1  0.4042158E-011  0.9118800E+02  0.7816164E-02  0.1184000E+00
        -11   -1    0    0    0    0  0.00000000000E+00  0.00000000000E+00  0.45593999997E+02  0.45594000000E+02  0.51100000000E-03 0. -1.
         11   -1    0    0    0    0 -0.00000000000E+00 -0.00000000000E+00 -0.45593999997E+02  0.45594000000E+02  0.51100000000E-03 0.  1.
         23    2    1    2    0    0  0.00000000000E+00  0.00000000000E+00  0.00000000000E+00  0.91188000000E+02  0.91188000000E+02 0.  0.
    9900012    2    3    3    0    0 -0.37431572029E+02 -0.82806465909E+01 -0.20345302716E+02  0.47787273794E+02  0.20000012538E+02 0.  0.
         12    1    3    3    0    0  0.37431572029E+02  0.82806465909E+01  0.20345302716E+02  0.43400726206E+02  0.00000000000E+00 0. -1.
         11    1    4    4    0    0 -0.22230952008E+02 -0.70599471940E+01 -0.10039098283E+02  0.25393731041E+02  0.51100000000E-03 0. -1.
        -11    1    4    4    0    0 -0.93782343526E+01 -0.61486053063E+01 -0.95477179416E+01  0.14728052992E+02  0.51100000000E-03 0.  1.
        -12    1    4    4    0    0 -0.58223856685E+01  0.49279059094E+01 -0.75848649137E+00  0.76654897614E+01  0.00000000000E+00 0.  1.
</event>
<event>
 8    1  0.4042158E-011  0.9118800E+02  0.7816164E-02  0.1184000E+00
        -11   -1    0    0    0    0  0.00000000000E+00  0.00000000000E+00  0.45593999997E+02  0.45594000000E+02  0.51100000000E-03 0. -1.
         11   -1    0    0    0    0 -0.00000000000E+00 -0.00000000000E+00 -0.45593999997E+02  0.45594000000E+02  0.51100000000E-03 0.  1.
         23    2    1    2    0    0  0.00000000000E+00 -0.35527136788E-14  0.00000000000E+00  0.91188000000E+02  0.91188000000E+02 0.  0.
    9900012    2    3    3    0    0  0.55662280418E+01  0.22979251445E+02  0.36394963771E+02  0.47787282501E+02  0.20000052233E+02 0.  0.
        -12    1    3    3    0    0 -0.55662280418E+01 -0.22979251445E+02 -0.36394963771E+02  0.43400717499E+02  0.00000000000E+00 0.  1.
         11    1    4    4    0    0  0.23106645457E+01  0.29817495432E+01  0.52730498788E+01  0.64834447840E+01  0.51100000000E-03 0. -1.
        -11    1    4    4    0    0 -0.90320074599E+00  0.18616066623E+02  0.13161736578E+02  0.22816770545E+02  0.51100000000E-03 0.  1.
         12    1    4    4    0    0  0.41587642421E+01  0.13814352787E+01  0.17960177314E+02  0.18487067172E+02  0.00000000000E+00 0. -1.
</event>
<event>
 8    1  0.4042158E-011  0.9118800E+02  0.7816164E-02  0.1184000E+00
        -11   -1    0    0    0    0  0.00000000000E+00  0.00000000000E+00  0.45593999997E+02  0.45594000000E+02  0.51100000000E-03 0. -1.
         11   -1    0    0    0    0 -0.00000000000E+00 -0.00000000000E+00 -0.45593999997E+02  0.45594000000E+02  0.51100000000E-03 0.  1.
         23    2    1    2    0    0  0.00000000000E+00  0.00000000000E+00  0.00000000000E+00  0.91188000000E+02  0.91188000000E+02 0.  0.
    9900012    2    3    3    0    0 -0.10062319294E+02  0.33898671820E+02 -0.25164522542E+02  0.47787269413E+02  0.19999992560E+02 0.  0.
         12    1    3    3    0    0  0.10062319294E+02 -0.33898671820E+02  0.25164522542E+02  0.43400730587E+02  0.00000000000E+00 0. -1.
         11    1    4    4    0    0  0.78218404184E+00  0.54223068253E+00  0.13232572982E+01  0.16299804069E+01  0.51100000000E-03 0. -1.
        -11    1    4    4    0    0 -0.15603230594E+01  0.87707476567E+01 -0.15065068094E+02  0.17501911308E+02  0.51100000000E-03 0.  1.
        -12    1    4    4    0    0 -0.92841802768E+01  0.24585693481E+02 -0.11422711747E+02  0.28655377698E+02  0.00000000000E+00 0.  1.
</event>
<event>
 8    1  0.4042158E-011  0.9118800E+02  0.7816164E-02  0.1184000E+00
        -11   -1    0    0    0    0  0.00000000000E+00  0.00000000000E+00  0.45593999997E+02  0.45594000000E+02  0.51100000000E-03 0. -1.
         11   -1    0    0    0    0 -0.00000000000E+00 -0.00000000000E+00 -0.45593999997E+02  0.45594000000E+02  0.51100000000E-03 0.  1.
         23    2    1    2    0    0  0.00000000000E+00  0.00000000000E+00  0.00000000000E+00  0.91188000000E+02  0.91188000000E+02 0.  0.
    9900012    2    3    3    0    0 -0.26739789300E+02  0.22283687112E+02 -0.25923803910E+02  0.47787278205E+02  0.20000032649E+02 0.  0.
         12    1    3    3    0    0  0.26739789300E+02 -0.22283687112E+02  0.25923803910E+02  0.43400721795E+02  0.00000000000E+00 0. -1.
         11    1    4    4    0    0 -0.97972869484E+01  0.11905949091E+02 -0.80397931973E+01  0.17388983013E+02  0.51100000000E-03 0. -1.
        -11    1    4    4    0    0 -0.53179428756E+01  0.99842299381E+01 -0.33795054384E+01  0.11806202656E+02  0.51100000000E-03 0.  1.
        -12    1    4    4    0    0 -0.11624559476E+02  0.39350808324E+00 -0.14504505275E+02  0.18592092536E+02  0.00000000000E+00 0.  1.
</event>
<event>
 8    1  0.4042158E-011  0.9118800E+02  0.7816164E-02  0.1184000E+00
        -11   -1    0    0    0    0  0.00000000000E+00  0.00000000000E+00  0.45593999997E+02  0.45594000000E+02  0.51100000000E-03 0. -1.
         11   -1    0    0    0    0 -0.00000000000E+00 -0.00000000000E+00 -0.45593999997E+02  0.45594000000E+02  0.51100000000E-03 0.  1.
         23    2    1    2    0    0  0.00000000000E+00  0.35527136788E-14  0.00000000000E+00  0.91188000000E+02  0.91188000000E+02 0.  0.
    9900012    2    3    3    0    0  0.13767970075E+02 -0.22493890469E+02 -0.34468697311E+02  0.47787271863E+02  0.20000003734E+02 0.  0.
         12    1    3    3    0    0 -0.13767970075E+02  0.22493890469E+02  0.34468697311E+02  0.43400728137E+02  0.00000000000E+00 0. -1.
         11    1    4    4    0    0  0.73860118730E+01 -0.13533017637E+01 -0.32196946479E+01  0.81701304113E+01  0.51100000000E-03 0. -1.
        -11    1    4    4    0    0  0.86141867671E+01 -0.11427743861E+02 -0.16873417525E+02  0.22124867517E+02  0.51100000000E-03 0.  1.
        -12    1    4    4    0    0 -0.22322285651E+01 -0.97128448448E+01 -0.14375585139E+02  0.17492273936E+02  0.00000000000E+00 0.  1.
</event>
<event>
 8    1  0.4042158E-011  0.9118800E+02  0.7816164E-02  0.1184000E+00
        -11   -1    0    0    0    0  0.00000000000E+00  0.00000000000E+00  0.45593999997E+02  0.45594000000E+02  0.51100000000E-03 0. -1.
         11   -1    0    0    0    0 -0.00000000000E+00 -0.00000000000E+00 -0.45593999997E+02  0.45594000000E+02  0.51100000000E-03 0.  1.
         23    2    1    2    0    0 -0.21094237468E-14  0.00000000000E+00  0.00000000000E+00  0.91188000000E+02  0.91188000000E+02 0.  0.
    9900012    2    3    3    0    0  0.60052224581E+00 -0.92420191198E+00 -0.43386731150E+02  0.47787271711E+02  0.20000003041E+02 0.  0.
         12    1    3    3    0    0 -0.60052224581E+00  0.92420191198E+00  0.43386731150E+02  0.43400728289E+02  0.00000000000E+00 0. -1.
         11    1    4    4    0    0 -0.50347920911E+01  0.34937987051E+01 -0.10644772240E+02  0.12282790282E+02  0.51100000000E-03 0. -1.
        -11    1    4    4    0    0 -0.30302194582E+01 -0.33727215126E+01 -0.15917825089E+02  0.16550970854E+02  0.51100000000E-03 0.  1.
         12    1    4    4    0    0  0.86655337951E+01 -0.10452791045E+01 -0.16824133820E+02  0.18953510576E+02  0.00000000000E+00 0. -1.
</event>
<event>
 8    1  0.4042158E-011  0.9118800E+02  0.7816164E-02  0.1184000E+00
        -11   -1    0    0    0    0  0.00000000000E+00  0.00000000000E+00  0.45593999997E+02  0.45594000000E+02  0.51100000000E-03 0. -1.
         11   -1    0    0    0    0 -0.00000000000E+00 -0.00000000000E+00 -0.45593999997E+02  0.45594000000E+02  0.51100000000E-03 0.  1.
         23    2    1    2    0    0  0.00000000000E+00  0.88817841970E-15  0.00000000000E+00  0.91188000000E+02  0.91188000000E+02 0.  0.
    9900012    2    3    3    0    0  0.27010982753E+02  0.61895857498E+01 -0.33402370577E+02  0.47787279715E+02  0.20000039533E+02 0.  0.
         12    1    3    3    0    0 -0.27010982753E+02 -0.61895857498E+01  0.33402370577E+02  0.43400720285E+02  0.00000000000E+00 0. -1.
         11    1    4    4    0    0 -0.16318037200E+00 -0.12338754274E+01  0.15787613560E+01  0.20103641671E+01  0.51100000000E-03 0.  1.
        -11    1    4    4    0    0  0.35349799474E+01 -0.10873806497E+01 -0.16827207100E+01  0.40632535184E+01  0.51100000000E-03 0. -1.
        -12    1    4    4    0    0  0.23639183178E+02  0.85108418269E+01 -0.33298411223E+02  0.41713662030E+02  0.00000000000E+00 0.  1.
</event>
<event>
 8    1  0.4042158E-011  0.9118800E+02  0.7816164E-02  0.1184000E+00
        -11   -1    0    0    0    0  0.00000000000E+00  0.00000000000E+00  0.45593999997E+02  0.45594000000E+02  0.51100000000E-03 0. -1.
         11   -1    0    0    0    0 -0.00000000000E+00 -0.00000000000E+00 -0.45593999997E+02  0.45594000000E+02  0.51100000000E-03 0.  1.
         23    2    1    2    0    0  0.00000000000E+00 -0.33306690739E-15  0.00000000000E+00  0.91188000000E+02  0.91188000000E+02 0.  0.
    9900012    2    3    3    0    0  0.39296324206E+02  0.90619803922E+00 -0.18401112830E+02  0.47787271384E+02  0.20000001549E+02 0.  0.
         12    1    3    3    0    0 -0.39296324206E+02 -0.90619803922E+00  0.18401112830E+02  0.43400728616E+02  0.00000000000E+00 0. -1.
         11    1    4    4    0    0 -0.20917469201E+00 -0.11900927797E+01  0.82037166021E+00  0.14605084039E+01  0.51100000000E-03 0. -1.
        -11    1    4    4    0    0  0.77084690740E+01 -0.52304906366E+01 -0.24187845429E+01  0.96243985106E+01  0.51100000000E-03 0.  1.
        -12    1    4    4    0    0  0.31797029824E+02  0.73267814555E+01 -0.16802699947E+02  0.36702364470E+02  0.00000000000E+00 0.  1.
</event>
<event>
 8    1  0.4042158E-011  0.9118800E+02  0.7816164E-02  0.1184000E+00
        -11   -1    0    0    0    0  0.00000000000E+00  0.00000000000E+00  0.45593999997E+02  0.45594000000E+02  0.51100000000E-03 0. -1.
         11   -1    0    0    0    0 -0.00000000000E+00 -0.00000000000E+00 -0.45593999997E+02  0.45594000000E+02  0.51100000000E-03 0.  1.
         23    2    1    2    0    0  0.00000000000E+00 -0.17763568394E-14 -0.71054273576E-14  0.91188000000E+02  0.91188000000E+02 0.  0.
    9900012    2    3    3    0    0  0.10393571075E+02 -0.13961020828E+02 -0.39757851361E+02  0.47787272275E+02  0.20000005610E+02 0.  0.
         12    1    3    3    0    0 -0.10393571075E+02  0.13961020828E+02  0.39757851361E+02  0.43400727725E+02  0.00000000000E+00 0. -1.
         11    1    4    4    0    0  0.48541274205E+01 -0.37264043869E+01 -0.13524326098E+02  0.14844394206E+02  0.51100000000E-03 0. -1.
        -11    1    4    4    0    0  0.95355607951E+01 -0.11409115510E+01 -0.16143232113E+02  0.18783837258E+02  0.51100000000E-03 0.  1.
         12    1    4    4    0    0 -0.39961171408E+01 -0.90937048900E+01 -0.10090293150E+02  0.14159040811E+02  0.00000000000E+00 0. -1.
</event>
<event>
 8    1  0.4042158E-011  0.9118800E+02  0.7816164E-02  0.1184000E+00
        -11   -1    0    0    0    0  0.00000000000E+00  0.00000000000E+00  0.45593999997E+02  0.45594000000E+02  0.51100000000E-03 0. -1.
         11   -1    0    0    0    0 -0.00000000000E+00 -0.00000000000E+00 -0.45593999997E+02  0.45594000000E+02  0.51100000000E-03 0.  1.
         23    2    1    2    0    0 -0.35527136788E-14  0.00000000000E+00  0.00000000000E+00  0.91188000000E+02  0.91188000000E+02 0.  0.
    9900012    2    3    3    0    0 -0.16155765967E+02 -0.10747333321E+02  0.38821506815E+02  0.47787270295E+02  0.19999996584E+02 0.  0.
        -12    1    3    3    0    0  0.16155765967E+02  0.10747333321E+02 -0.38821506815E+02  0.43400729705E+02  0.00000000000E+00 0.  1.
         11    1    4    4    0    0 -0.78964836106E+01 -0.68065546261E+01  0.93147236523E+01  0.13980261667E+02  0.51100000000E-03 0. -1.
        -11    1    4    4    0    0 -0.50890123891E+01  0.34305609602E+01  0.46869852558E+01  0.77223459290E+01  0.51100000000E-03 0.  1.
         12    1    4    4    0    0 -0.31702699670E+01 -0.73713396554E+01  0.24819797907E+02  0.26084662699E+02  0.00000000000E+00 0. -1.
</event>
<event>
 8    1  0.4042158E-011  0.9118800E+02  0.7816164E-02  0.1184000E+00
        -11   -1    0    0    0    0  0.00000000000E+00  0.00000000000E+00  0.45593999997E+02  0.45594000000E+02  0.51100000000E-03 0. -1.
         11   -1    0    0    0    0 -0.00000000000E+00 -0.00000000000E+00 -0.45593999997E+02  0.45594000000E+02  0.51100000000E-03 0.  1.
         23    2    1    2    0    0  0.00000000000E+00  0.00000000000E+00  0.00000000000E+00  0.91188000000E+02  0.91188000000E+02 0.  0.
    9900012    2    3    3    0    0  0.20243005347E+02 -0.26760049610E+02 -0.27527142478E+02  0.47787273121E+02  0.20000009468E+02 0.  0.
         12    1    3    3    0    0 -0.20243005347E+02  0.26760049610E+02  0.27527142478E+02  0.43400726879E+02  0.00000000000E+00 0. -1.
         11    1    4    4    0    0  0.35700751283E+01 -0.55790180979E+01  0.38569065944E+00  0.66347296030E+01  0.51100000000E-03 0. -1.
        -11    1    4    4    0    0  0.10061790368E+02 -0.73691918904E+01 -0.46666239956E+01  0.13316230484E+02  0.51100000000E-03 0.  1.
        -12    1    4    4    0    0  0.66111398514E+01 -0.13811839622E+02 -0.23246209142E+02  0.27836313034E+02  0.00000000000E+00 0.  1.
</event>
<event>
 8    1  0.4042158E-011  0.9118800E+02  0.7816164E-02  0.1184000E+00
        -11   -1    0    0    0    0  0.00000000000E+00  0.00000000000E+00  0.45593999997E+02  0.45594000000E+02  0.51100000000E-03 0. -1.
         11   -1    0    0    0    0 -0.00000000000E+00 -0.00000000000E+00 -0.45593999997E+02  0.45594000000E+02  0.51100000000E-03 0.  1.
         23    2    1    2    0    0  0.17763568394E-14  0.35527136788E-14 -0.35527136788E-14  0.91188000000E+02  0.91188000000E+02 0.  0.
    9900012    2    3    3    0    0  0.11122858065E+02 -0.28909169008E+02  0.30400102863E+02  0.47787259473E+02  0.19999947240E+02 0.  0.
        -12    1    3    3    0    0 -0.11122858065E+02  0.28909169008E+02 -0.30400102863E+02  0.43400740527E+02  0.00000000000E+00 0.  1.
         11    1    4    4    0    0  0.49136220528E+01 -0.25944737440E+02  0.26815418620E+02  0.37634289664E+02  0.51100000000E-03 0. -1.
        -11    1    4    4    0    0 -0.13586773874E+01 -0.20087795638E+00  0.97430091351E+00  0.16839295495E+01  0.51100000000E-03 0.  1.
        -12    1    4    4    0    0  0.75679133995E+01 -0.27635536116E+01  0.26103833290E+01  0.84690402592E+01  0.00000000000E+00 0.  1.
</event>
<event>
 8    1  0.4042158E-011  0.9118800E+02  0.7816164E-02  0.1184000E+00
        -11   -1    0    0    0    0  0.00000000000E+00  0.00000000000E+00  0.45593999997E+02  0.45594000000E+02  0.51100000000E-03 0. -1.
         11   -1    0    0    0    0 -0.00000000000E+00 -0.00000000000E+00 -0.45593999997E+02  0.45594000000E+02  0.51100000000E-03 0.  1.
         23    2    1    2    0    0 -0.34694469520E-16  0.00000000000E+00  0.00000000000E+00  0.91188000000E+02  0.91188000000E+02 0.  0.
    9900012    2    3    3    0    0  0.30833304512E-01  0.21442263240E+01  0.43347719051E+02  0.47787269543E+02  0.19999993156E+02 0.  0.
        -12    1    3    3    0    0 -0.30833304512E-01 -0.21442263240E+01 -0.43347719051E+02  0.43400730457E+02  0.00000000000E+00 0.  1.
         11    1    4    4    0    0  0.36767238364E+01 -0.11921819618E+01  0.11900723883E+02  0.12512666591E+02  0.51100000000E-03 0. -1.
        -11    1    4    4    0    0 -0.22812422646E+01  0.67566106214E+00 -0.10782926168E+01  0.26121445919E+01  0.51100000000E-03 0.  1.
        -12    1    4    4    0    0 -0.13646482673E+01  0.26607472237E+01  0.32525287785E+02  0.32662458361E+02  0.00000000000E+00 0.  1.
</event>
<event>
 8    1  0.4042158E-011  0.9118800E+02  0.7816164E-02  0.1184000E+00
        -11   -1    0    0    0    0  0.00000000000E+00  0.00000000000E+00  0.45593999997E+02  0.45594000000E+02  0.51100000000E-03 0. -1.
         11   -1    0    0    0    0 -0.00000000000E+00 -0.00000000000E+00 -0.45593999997E+02  0.45594000000E+02  0.51100000000E-03 0.  1.
         23    2    1    2    0    0 -0.35527136788E-14  0.35527136788E-14  0.00000000000E+00  0.91188000000E+02  0.91188000000E+02 0.  0.
    9900012    2    3    3    0    0  0.16466946218E+02 -0.19971282085E+02  0.34836924734E+02  0.47787265550E+02  0.19999974948E+02 0.  0.
        -12    1    3    3    0    0 -0.16466946218E+02  0.19971282085E+02 -0.34836924734E+02  0.43400734450E+02  0.00000000000E+00 0.  1.
         11    1    4    4    0    0  0.39414648337E-01 -0.82471743922E+01  0.21377911302E+02  0.22913588345E+02  0.51100000000E-03 0. -1.
        -11    1    4    4    0    0  0.38296988252E+01 -0.32476783144E+01  0.63841894755E+01  0.81223077414E+01  0.51100000000E-03 0.  1.
        -12    1    4    4    0    0  0.12597832745E+02 -0.84764293781E+01  0.70748239571E+01  0.16751369463E+02  0.00000000000E+00 0.  1.
</event>
<event>
 8    1  0.4042158E-011  0.9118800E+02  0.7816164E-02  0.1184000E+00
        -11   -1    0    0    0    0  0.00000000000E+00  0.00000000000E+00  0.45593999997E+02  0.45594000000E+02  0.51100000000E-03 0. -1.
         11   -1    0    0    0    0 -0.00000000000E+00 -0.00000000000E+00 -0.45593999997E+02  0.45594000000E+02  0.51100000000E-03 0.  1.
         23    2    1    2    0    0  0.00000000000E+00  0.35527136788E-14  0.00000000000E+00  0.91188000000E+02  0.91188000000E+02 0.  0.
    9900012    2    3    3    0    0 -0.20980897618E+02  0.19253981030E+02 -0.32752243452E+02  0.47787270727E+02  0.19999998551E+02 0.  0.
         12    1    3    3    0    0  0.20980897618E+02 -0.19253981030E+02  0.32752243452E+02  0.43400729273E+02  0.00000000000E+00 0. -1.
         11    1    4    4    0    0 -0.89439804044E+01  0.15696968062E+02 -0.23448242025E+02  0.29600838606E+02  0.51100000000E-03 0.  1.
        -11    1    4    4    0    0 -0.94520325508E+01  0.66744764041E+01 -0.71025097517E+01  0.13577009967E+02  0.51100000000E-03 0. -1.
         12    1    4    4    0    0 -0.25848846625E+01 -0.31174634367E+01 -0.22014916749E+01  0.46094221538E+01  0.00000000000E+00 0. -1.
</event>
<event>
 8    1  0.4042158E-011  0.9118800E+02  0.7816164E-02  0.1184000E+00
        -11   -1    0    0    0    0  0.00000000000E+00  0.00000000000E+00  0.45593999997E+02  0.45594000000E+02  0.51100000000E-03 0. -1.
         11   -1    0    0    0    0 -0.00000000000E+00 -0.00000000000E+00 -0.45593999997E+02  0.45594000000E+02  0.51100000000E-03 0.  1.
         23    2    1    2    0    0  0.88817841970E-15 -0.35527136788E-14  0.71054273576E-14  0.91188000000E+02  0.91188000000E+02 0.  0.
    9900012    2    3    3    0    0 -0.44711818565E+01 -0.21060807975E+02  0.37683869792E+02  0.47787272561E+02  0.20000006913E+02 0.  0.
        -12    1    3    3    0    0  0.44711818565E+01  0.21060807975E+02 -0.37683869792E+02  0.43400727439E+02  0.00000000000E+00 0.  1.
         11    1    4    4    0    0 -0.13892799459E+01 -0.13737185175E+01  0.81895053035E+01  0.84193348140E+01  0.51100000000E-03 0. -1.
        -11    1    4    4    0    0  0.46205755652E+01 -0.58100743472E+01  0.18846308077E+02  0.20255616774E+02  0.51100000000E-03 0.  1.
         12    1    4    4    0    0 -0.77024774758E+01 -0.13877015111E+02  0.10648056411E+02  0.19112320973E+02  0.00000000000E+00 0. -1.
</event>
<event>
 8    1  0.4042158E-011  0.9118800E+02  0.7816164E-02  0.1184000E+00
        -11   -1    0    0    0    0  0.00000000000E+00  0.00000000000E+00  0.45593999997E+02  0.45594000000E+02  0.51100000000E-03 0. -1.
         11   -1    0    0    0    0 -0.00000000000E+00 -0.00000000000E+00 -0.45593999997E+02  0.45594000000E+02  0.51100000000E-03 0.  1.
         23    2    1    2    0    0  0.35527136788E-14 -0.35527136788E-14  0.00000000000E+00  0.91188000000E+02  0.91188000000E+02 0.  0.
    9900012    2    3    3    0    0 -0.30740314408E+02 -0.23884206033E+02 -0.19188571734E+02  0.47787268290E+02  0.19999987443E+02 0.  0.
         12    1    3    3    0    0  0.30740314408E+02  0.23884206033E+02  0.19188571734E+02  0.43400731710E+02  0.00000000000E+00 0. -1.
         11    1    4    4    0    0 -0.10987814908E+02 -0.39092512322E+01 -0.14462650096E+02  0.18579089583E+02  0.51100000000E-03 0.  1.
        -11    1    4    4    0    0  0.48362983486E+00 -0.48644329819E+00  0.12694500408E+00  0.69759601110E+00  0.51100000000E-03 0. -1.
        -12    1    4    4    0    0 -0.20236129335E+02 -0.19488511503E+02 -0.48528666418E+01  0.28510582697E+02  0.00000000000E+00 0.  1.
</event>
<event>
 8    1  0.4042158E-011  0.9118800E+02  0.7816164E-02  0.1184000E+00
        -11   -1    0    0    0    0  0.00000000000E+00  0.00000000000E+00  0.45593999997E+02  0.45594000000E+02  0.51100000000E-03 0. -1.
         11   -1    0    0    0    0 -0.00000000000E+00 -0.00000000000E+00 -0.45593999997E+02  0.45594000000E+02  0.51100000000E-03 0.  1.
         23    2    1    2    0    0  0.00000000000E+00  0.00000000000E+00  0.00000000000E+00  0.91188000000E+02  0.91188000000E+02 0.  0.
    9900012    2    3    3    0    0 -0.32210142154E+02 -0.17616518178E+02  0.23147109104E+02  0.47787266939E+02  0.19999981284E+02 0.  0.
        -12    1    3    3    0    0  0.32210142154E+02  0.17616518178E+02 -0.23147109104E+02  0.43400733061E+02  0.00000000000E+00 0.  1.
         11    1    4    4    0    0 -0.16977533735E+01 -0.33276490858E+00 -0.90670140994E-02  0.17300813488E+01  0.51100000000E-03 0. -1.
        -11    1    4    4    0    0 -0.91972845908E+01 -0.19537028030E+01  0.16468284200E+02  0.18963422245E+02  0.51100000000E-03 0.  1.
        -12    1    4    4    0    0 -0.21315104190E+02 -0.15330050466E+02  0.66878919182E+01  0.27093763346E+02  0.00000000000E+00 0.  1.
</event>
<event>
 8    1  0.4042158E-011  0.9118800E+02  0.7816164E-02  0.1184000E+00
        -11   -1    0    0    0    0  0.00000000000E+00  0.00000000000E+00  0.45593999997E+02  0.45594000000E+02  0.51100000000E-03 0. -1.
         11   -1    0    0    0    0 -0.00000000000E+00 -0.00000000000E+00 -0.45593999997E+02  0.45594000000E+02  0.51100000000E-03 0.  1.
         23    2    1    2    0    0  0.00000000000E+00  0.00000000000E+00  0.00000000000E+00  0.91188000000E+02  0.91188000000E+02 0.  0.
    9900012    2    3    3    0    0 -0.19288248490E+02 -0.90221968918E+01  0.37817797091E+02  0.47787281764E+02  0.20000048876E+02 0.  0.
        -12    1    3    3    0    0  0.19288248490E+02  0.90221968918E+01 -0.37817797091E+02  0.43400718236E+02  0.00000000000E+00 0.  1.
         11    1    4    4    0    0 -0.61393987860E+01 -0.40759111564E+01  0.47149610587E+01  0.87484928562E+01  0.51100000000E-03 0. -1.
        -11    1    4    4    0    0 -0.76274232574E+01  0.43893219579E-01  0.32826546401E+01  0.83039348449E+01  0.51100000000E-03 0.  1.
         12    1    4    4    0    0 -0.55214264462E+01 -0.49901789550E+01  0.29820181392E+02  0.30734854063E+02  0.00000000000E+00 0. -1.
</event>
<event>
 8    1  0.4042158E-011  0.9118800E+02  0.7816164E-02  0.1184000E+00
        -11   -1    0    0    0    0  0.00000000000E+00  0.00000000000E+00  0.45593999997E+02  0.45594000000E+02  0.51100000000E-03 0. -1.
         11   -1    0    0    0    0 -0.00000000000E+00 -0.00000000000E+00 -0.45593999997E+02  0.45594000000E+02  0.51100000000E-03 0.  1.
         23    2    1    2    0    0  0.44408920985E-15  0.00000000000E+00  0.00000000000E+00  0.91188000000E+02  0.91188000000E+02 0.  0.
    9900012    2    3    3    0    0  0.26121091547E+01  0.21646471062E+01 -0.43267939058E+02  0.47787270034E+02  0.19999995391E+02 0.  0.
         12    1    3    3    0    0 -0.26121091547E+01 -0.21646471062E+01  0.43267939058E+02  0.43400729966E+02  0.00000000000E+00 0. -1.
         11    1    4    4    0    0 -0.20099573461E+01 -0.11952825128E+01 -0.49117648157E+00  0.23895362345E+01  0.51100000000E-03 0. -1.
        -11    1    4    4    0    0 -0.31007865960E+01 -0.31677541875E+01 -0.76192920187E+01  0.88149393211E+01  0.51100000000E-03 0.  1.
        -12    1    4    4    0    0  0.77228530968E+01  0.65276838066E+01 -0.35157470557E+02  0.36582794478E+02  0.00000000000E+00 0.  1.
</event>
<event>
 8    1  0.4042158E-011  0.9118800E+02  0.7816164E-02  0.1184000E+00
        -11   -1    0    0    0    0  0.00000000000E+00  0.00000000000E+00  0.45593999997E+02  0.45594000000E+02  0.51100000000E-03 0. -1.
         11   -1    0    0    0    0 -0.00000000000E+00 -0.00000000000E+00 -0.45593999997E+02  0.45594000000E+02  0.51100000000E-03 0.  1.
         23    2    1    2    0    0  0.00000000000E+00 -0.44408920985E-15  0.00000000000E+00  0.91188000000E+02  0.91188000000E+02 0.  0.
    9900012    2    3    3    0    0 -0.25145621860E+02  0.36156927813E+01 -0.35188726828E+02  0.47787285389E+02  0.20000065401E+02 0.  0.
         12    1    3    3    0    0  0.25145621860E+02 -0.36156927813E+01  0.35188726828E+02  0.43400714611E+02  0.00000000000E+00 0. -1.
         11    1    4    4    0    0 -0.54871916358E+01 -0.50799717849E+01 -0.57168327842E+01  0.94126278333E+01  0.51100000000E-03 0. -1.
        -11    1    4    4    0    0 -0.10278466424E+02  0.22998618462E+01 -0.55727563284E+01  0.11916033312E+02  0.51100000000E-03 0.  1.
         12    1    4    4    0    0 -0.93799638002E+01  0.63958027200E+01 -0.23899137715E+02  0.26458624244E+02  0.00000000000E+00 0. -1.
</event>
<event>
 8    1  0.4042158E-011  0.9118800E+02  0.7816164E-02  0.1184000E+00
        -11   -1    0    0    0    0  0.00000000000E+00  0.00000000000E+00  0.45593999997E+02  0.45594000000E+02  0.51100000000E-03 0. -1.
         11   -1    0    0    0    0 -0.00000000000E+00 -0.00000000000E+00 -0.45593999997E+02  0.45594000000E+02  0.51100000000E-03 0.  1.
         23    2    1    2    0    0  0.35527136788E-14 -0.35527136788E-14  0.17763568394E-14  0.91188000000E+02  0.91188000000E+02 0.  0.
    9900012    2    3    3    0    0 -0.27553109887E+02 -0.30449500769E+02 -0.14045540711E+02  0.47787272179E+02  0.20000005172E+02 0.  0.
         12    1    3    3    0    0  0.27553109887E+02  0.30449500769E+02  0.14045540711E+02  0.43400727821E+02  0.00000000000E+00 0. -1.
         11    1    4    4    0    0 -0.30895542415E+01 -0.32708883591E+01  0.39300088711E-01  0.44995111764E+01  0.51100000000E-03 0. -1.
        -11    1    4    4    0    0 -0.21685163869E+02 -0.28342418068E+02 -0.16604601340E+02  0.39360535818E+02  0.51100000000E-03 0.  1.
         12    1    4    4    0    0 -0.27783917768E+01  0.11638056579E+01  0.25197605394E+01  0.39272251846E+01  0.00000000000E+00 0. -1.
</event>
<event>
 8    1  0.4042158E-011  0.9118800E+02  0.7816164E-02  0.1184000E+00
        -11   -1    0    0    0    0  0.00000000000E+00  0.00000000000E+00  0.45593999997E+02  0.45594000000E+02  0.51100000000E-03 0. -1.
         11   -1    0    0    0    0 -0.00000000000E+00 -0.00000000000E+00 -0.45593999997E+02  0.45594000000E+02  0.51100000000E-03 0.  1.
         23    2    1    2    0    0  0.00000000000E+00  0.00000000000E+00  0.00000000000E+00  0.91188000000E+02  0.91188000000E+02 0.  0.
    9900012    2    3    3    0    0 -0.29306620099E+02 -0.12028257971E+02  0.29665910872E+02  0.47787271442E+02  0.20000001814E+02 0.  0.
        -12    1    3    3    0    0  0.29306620099E+02  0.12028257971E+02 -0.29665910872E+02  0.43400728558E+02  0.00000000000E+00 0.  1.
         11    1    4    4    0    0 -0.63351585368E+01  0.18902492965E+01  0.94226697688E+01  0.11510603022E+02  0.51100000000E-03 0. -1.
        -11    1    4    4    0    0 -0.44575371401E+01  0.16471063308E+01  0.76525918983E+01  0.90080386125E+01  0.51100000000E-03 0.  1.
        -12    1    4    4    0    0 -0.18513924423E+02 -0.15565613598E+02  0.12590649205E+02  0.27268629808E+02  0.00000000000E+00 0.  1.
</event>
<event>
 8    1  0.4403050E-011  0.9118800E+02  0.7816164E-02  0.1184000E+00
        -11   -1    0    0    0    0  0.00000000000E+00  0.00000000000E+00  0.45593999997E+02  0.45594000000E+02  0.51100000000E-03 0. -1.
         11   -1    0    0    0    0 -0.00000000000E+00 -0.00000000000E+00 -0.45593999997E+02  0.45594000000E+02  0.51100000000E-03 0.  1.
         23    2    1    2    0    0 -0.17763568394E-14  0.88817841970E-15  0.00000000000E+00  0.91188000000E+02  0.91188000000E+02 0.  0.
    9900012    2    3    3    0    0  0.10455267441E+02  0.44463303440E+01  0.41887234163E+02  0.47787275851E+02  0.20000021916E+02 0.  0.
        -12    1    3    3    0    0 -0.10455267441E+02 -0.44463303440E+01 -0.41887234163E+02  0.43400724149E+02  0.00000000000E+00 0.  1.
         11    1    4    4    0    0  0.83292932436E+01  0.18826598112E+01  0.15515820828E+02  0.17710511854E+02  0.51100000000E-03 0.  1.
        -11    1    4    4    0    0  0.68767408786E+01 -0.13733497562E+01  0.77114153677E+01  0.10423127261E+02  0.51100000000E-03 0. -1.
        -12    1    4    4    0    0 -0.47507666810E+01  0.39370202890E+01  0.18659997967E+02  0.19653636736E+02  0.00000000000E+00 0.  1.
</event>
<event>
 8    1  0.4042158E-011  0.9118800E+02  0.7816164E-02  0.1184000E+00
        -11   -1    0    0    0    0  0.00000000000E+00  0.00000000000E+00  0.45593999997E+02  0.45594000000E+02  0.51100000000E-03 0.  1.
         11   -1    0    0    0    0 -0.00000000000E+00 -0.00000000000E+00 -0.45593999997E+02  0.45594000000E+02  0.51100000000E-03 0. -1.
         23    2    1    2    0    0 -0.17763568394E-14  0.00000000000E+00  0.00000000000E+00  0.91188000000E+02  0.91188000000E+02 0.  0.
    9900012    2    3    3    0    0  0.11069455587E+02  0.39249238519E+02 -0.14852253820E+02  0.47787250988E+02  0.19999908554E+02 0.  0.
         12    1    3    3    0    0 -0.11069455587E+02 -0.39249238519E+02  0.14852253820E+02  0.43400749012E+02  0.00000000000E+00 0. -1.
         11    1    4    4    0    0  0.60423709781E+00  0.30405504163E+01  0.40704891083E+01  0.51165350724E+01  0.51100000000E-03 0. -1.
        -11    1    4    4    0    0 -0.42835446450E-03  0.94498533523E+01 -0.36416658557E+01  0.10127263156E+02  0.51100000000E-03 0.  1.
         12    1    4    4    0    0  0.10465646843E+02  0.26758834750E+02 -0.15281077073E+02  0.32543452760E+02  0.00000000000E+00 0. -1.
</event>
<event>
 8    1  0.4042158E-011  0.9118800E+02  0.7816164E-02  0.1184000E+00
        -11   -1    0    0    0    0  0.00000000000E+00  0.00000000000E+00  0.45593999997E+02  0.45594000000E+02  0.51100000000E-03 0. -1.
         11   -1    0    0    0    0 -0.00000000000E+00 -0.00000000000E+00 -0.45593999997E+02  0.45594000000E+02  0.51100000000E-03 0.  1.
         23    2    1    2    0    0  0.00000000000E+00 -0.17763568394E-14  0.00000000000E+00  0.91188000000E+02  0.91188000000E+02 0.  0.
    9900012    2    3    3    0    0 -0.29955922114E+02  0.13745250865E+02  0.28237092187E+02  0.47787279197E+02  0.20000037172E+02 0.  0.
        -12    1    3    3    0    0  0.29955922114E+02 -0.13745250865E+02 -0.28237092187E+02  0.43400720803E+02  0.00000000000E+00 0.  1.
         11    1    4    4    0    0 -0.13140746114E+02  0.45543746848E+01  0.13296868058E+02  0.19241315902E+02  0.51100000000E-03 0. -1.
        -11    1    4    4    0    0 -0.16847786086E+02  0.63006682730E+01  0.17192017897E+02  0.24881957244E+02  0.51100000000E-03 0.  1.
        -12    1    4    4    0    0  0.32610086605E-01  0.28902079074E+01 -0.22517937685E+01  0.36640060510E+01  0.00000000000E+00 0.  1.
</event>
<event>
 8    1  0.4042158E-011  0.9118800E+02  0.7816164E-02  0.1184000E+00
        -11   -1    0    0    0    0  0.00000000000E+00  0.00000000000E+00  0.45593999997E+02  0.45594000000E+02  0.51100000000E-03 0.  1.
         11   -1    0    0    0    0 -0.00000000000E+00 -0.00000000000E+00 -0.45593999997E+02  0.45594000000E+02  0.51100000000E-03 0. -1.
         23    2    1    2    0    0  0.00000000000E+00 -0.44408920985E-15  0.35527136788E-14  0.91188000000E+02  0.91188000000E+02 0.  0.
    9900012    2    3    3    0    0 -0.42501609508E+02  0.15718028261E+01 -0.86467335587E+01  0.47787269866E+02  0.19999994627E+02 0.  0.
         12    1    3    3    0    0  0.42501609508E+02 -0.15718028261E+01  0.86467335587E+01  0.43400730134E+02  0.00000000000E+00 0. -1.
         11    1    4    4    0    0 -0.35884016925E+02 -0.13061378063E+01 -0.11008274708E+02  0.37557299942E+02  0.51100000000E-03 0. -1.
        -11    1    4    4    0    0 -0.46107754095E+01  0.32375370083E+01 -0.15289110419E+01  0.58376763350E+01  0.51100000000E-03 0.  1.
         12    1    4    4    0    0 -0.20068171743E+01 -0.35959637597E+00  0.38904521908E+01  0.43922935892E+01  0.00000000000E+00 0. -1.
</event>
<event>
 8    1  0.4042158E-011  0.9118800E+02  0.7816164E-02  0.1184000E+00
        -11   -1    0    0    0    0  0.00000000000E+00  0.00000000000E+00  0.45593999997E+02  0.45594000000E+02  0.51100000000E-03 0. -1.
         11   -1    0    0    0    0 -0.00000000000E+00 -0.00000000000E+00 -0.45593999997E+02  0.45594000000E+02  0.51100000000E-03 0.  1.
         23    2    1    2    0    0  0.35527136788E-14 -0.17763568394E-14  0.71054273576E-14  0.91188000000E+02  0.91188000000E+02 0.  0.
    9900012    2    3    3    0    0 -0.17028510130E+02  0.94392325452E+01 -0.38788582117E+02  0.47787269926E+02  0.19999994901E+02 0.  0.
         12    1    3    3    0    0  0.17028510130E+02 -0.94392325452E+01  0.38788582117E+02  0.43400730074E+02  0.00000000000E+00 0. -1.
         11    1    4    4    0    0 -0.30453209171E+01  0.62454884068E+01 -0.58608846096E+01  0.90901085580E+01  0.51100000000E-03 0. -1.
        -11    1    4    4    0    0 -0.11352573934E+02  0.85077114619E+01 -0.25628962067E+02  0.29293442716E+02  0.51100000000E-03 0.  1.
         12    1    4    4    0    0 -0.26306152786E+01 -0.53139673235E+01 -0.72987354407E+01  0.94037186524E+01  0.00000000000E+00 0. -1.
</event>
<event>
 8    1  0.4042158E-011  0.9118800E+02  0.7816164E-02  0.1184000E+00
        -11   -1    0    0    0    0  0.00000000000E+00  0.00000000000E+00  0.45593999997E+02  0.45594000000E+02  0.51100000000E-03 0. -1.
         11   -1    0    0    0    0 -0.00000000000E+00 -0.00000000000E+00 -0.45593999997E+02  0.45594000000E+02  0.51100000000E-03 0.  1.
         23    2    1    2    0    0  0.00000000000E+00 -0.35527136788E-14 -0.35527136788E-14  0.91188000000E+02  0.91188000000E+02 0.  0.
    9900012    2    3    3    0    0 -0.25222294009E+02  0.23519228379E+02  0.26349668833E+02  0.47787271133E+02  0.20000000402E+02 0.  0.
        -12    1    3    3    0    0  0.25222294009E+02 -0.23519228379E+02 -0.26349668833E+02  0.43400728867E+02  0.00000000000E+00 0.  1.
         11    1    4    4    0    0 -0.13022468701E+02  0.21885220477E+02  0.16189905011E+02  0.30177153460E+02  0.51100000000E-03 0.  1.
        -11    1    4    4    0    0 -0.87396532829E+01  0.38591740471E+01  0.43654323328E+01  0.10503892781E+02  0.51100000000E-03 0. -1.
         12    1    4    4    0    0 -0.34601720244E+01 -0.22251661451E+01  0.57943314889E+01  0.71062248919E+01  0.00000000000E+00 0. -1.
</event>
<event>
 8    1  0.4042158E-011  0.9118800E+02  0.7816164E-02  0.1184000E+00
        -11   -1    0    0    0    0  0.00000000000E+00  0.00000000000E+00  0.45593999997E+02  0.45594000000E+02  0.51100000000E-03 0. -1.
         11   -1    0    0    0    0 -0.00000000000E+00 -0.00000000000E+00 -0.45593999997E+02  0.45594000000E+02  0.51100000000E-03 0.  1.
         23    2    1    2    0    0  0.00000000000E+00  0.00000000000E+00 -0.17763568394E-14  0.91188000000E+02  0.91188000000E+02 0.  0.
    9900012    2    3    3    0    0  0.28300012796E+02 -0.31479555800E+02 -0.95796816942E+01  0.47787268912E+02  0.19999990276E+02 0.  0.
         12    1    3    3    0    0 -0.28300012796E+02  0.31479555800E+02  0.95796816942E+01  0.43400731088E+02  0.00000000000E+00 0. -1.
         11    1    4    4    0    0 -0.10569646674E+01 -0.48624474315E+01  0.28943625960E+01  0.57565531727E+01  0.51100000000E-03 0. -1.
        -11    1    4    4    0    0  0.42111551320E+01 -0.39277988678E+01 -0.43062999623E+01  0.71906641639E+01  0.51100000000E-03 0.  1.
         12    1    4    4    0    0  0.25145822331E+02 -0.22689309501E+02 -0.81677443280E+01  0.34840051575E+02  0.00000000000E+00 0. -1.
</event>
<event>
 8    1  0.4042158E-011  0.9118800E+02  0.7816164E-02  0.1184000E+00
        -11   -1    0    0    0    0  0.00000000000E+00  0.00000000000E+00  0.45593999997E+02  0.45594000000E+02  0.51100000000E-03 0. -1.
         11   -1    0    0    0    0 -0.00000000000E+00 -0.00000000000E+00 -0.45593999997E+02  0.45594000000E+02  0.51100000000E-03 0.  1.
         23    2    1    2    0    0 -0.71054273576E-14  0.00000000000E+00  0.35527136788E-14  0.91188000000E+02  0.91188000000E+02 0.  0.
    9900012    2    3    3    0    0  0.36941903156E+02 -0.82083672818E+01 -0.21249514152E+02  0.47787270123E+02  0.19999995797E+02 0.  0.
         12    1    3    3    0    0 -0.36941903156E+02  0.82083672818E+01  0.21249514152E+02  0.43400729877E+02  0.00000000000E+00 0. -1.
         11    1    4    4    0    0  0.96878981821E+01 -0.43484182832E+01 -0.86410602652E+00  0.10654144369E+02  0.51100000000E-03 0. -1.
        -11    1    4    4    0    0  0.26155210979E+02 -0.72929740299E+01 -0.16236580002E+02  0.31637146868E+02  0.51100000000E-03 0.  1.
         12    1    4    4    0    0  0.10987939952E+01  0.34330250314E+01 -0.41488281235E+01  0.54959788854E+01  0.00000000000E+00 0. -1.
</event>
<event>
 8    1  0.4042158E-011  0.9118800E+02  0.7816164E-02  0.1184000E+00
        -11   -1    0    0    0    0  0.00000000000E+00  0.00000000000E+00  0.45593999997E+02  0.45594000000E+02  0.51100000000E-03 0.  1.
         11   -1    0    0    0    0 -0.00000000000E+00 -0.00000000000E+00 -0.45593999997E+02  0.45594000000E+02  0.51100000000E-03 0. -1.
         23    2    1    2    0    0  0.00000000000E+00 -0.71054273576E-14 -0.26645352591E-14  0.91188000000E+02  0.91188000000E+02 0.  0.
    9900012    2    3    3    0    0  0.58053910160E+01  0.42590121452E+02 -0.60001944843E+01  0.47787270237E+02  0.19999996317E+02 0.  0.
        -12    1    3    3    0    0 -0.58053910160E+01 -0.42590121452E+02  0.60001944843E+01  0.43400729763E+02  0.00000000000E+00 0.  1.
         11    1    4    4    0    0  0.46721541496E+01  0.10101389634E+02 -0.57177736134E+01  0.12512395146E+02  0.51100000000E-03 0. -1.
        -11    1    4    4    0    0  0.39431396062E+01  0.25975869604E+02 -0.50150721160E+01  0.26747805522E+02  0.51100000000E-03 0.  1.
        -12    1    4    4    0    0 -0.28099027398E+01  0.65128622142E+01  0.47326512450E+01  0.85270695690E+01  0.00000000000E+00 0.  1.
</event>
<event>
 8    1  0.4042158E-011  0.9118800E+02  0.7816164E-02  0.1184000E+00
        -11   -1    0    0    0    0  0.00000000000E+00  0.00000000000E+00  0.45593999997E+02  0.45594000000E+02  0.51100000000E-03 0. -1.
         11   -1    0    0    0    0 -0.00000000000E+00 -0.00000000000E+00 -0.45593999997E+02  0.45594000000E+02  0.51100000000E-03 0.  1.
         23    2    1    2    0    0  0.00000000000E+00  0.17763568394E-14  0.35527136788E-14  0.91188000000E+02  0.91188000000E+02 0.  0.
    9900012    2    3    3    0    0 -0.35007923432E+02  0.10365826209E+02  0.23465250591E+02  0.47787273724E+02  0.20000012216E+02 0.  0.
        -12    1    3    3    0    0  0.35007923432E+02 -0.10365826209E+02 -0.23465250591E+02  0.43400726276E+02  0.00000000000E+00 0.  1.
         11    1    4    4    0    0 -0.54309518930E+01  0.13474327713E+01  0.11803462916E+02  0.13062639497E+02  0.51100000000E-03 0. -1.
        -11    1    4    4    0    0 -0.44112076470E+00 -0.16236586358E+01  0.44600377878E+00  0.17406247518E+01  0.51100000000E-03 0.  1.
         12    1    4    4    0    0 -0.29135850774E+02  0.10642052074E+02  0.11215783896E+02  0.32984009475E+02  0.00000000000E+00 0. -1.
</event>
<event>
 8    1  0.4042158E-011  0.9118800E+02  0.7816164E-02  0.1184000E+00
        -11   -1    0    0    0    0  0.00000000000E+00  0.00000000000E+00  0.45593999997E+02  0.45594000000E+02  0.51100000000E-03 0. -1.
         11   -1    0    0    0    0 -0.00000000000E+00 -0.00000000000E+00 -0.45593999997E+02  0.45594000000E+02  0.51100000000E-03 0.  1.
         23    2    1    2    0    0 -0.71054273576E-14  0.00000000000E+00  0.00000000000E+00  0.91188000000E+02  0.91188000000E+02 0.  0.
    9900012    2    3    3    0    0 -0.28025770210E+02  0.11629669364E+02 -0.31031105181E+02  0.47787280027E+02  0.20000040957E+02 0.  0.
         12    1    3    3    0    0  0.28025770210E+02 -0.11629669364E+02  0.31031105181E+02  0.43400719973E+02  0.00000000000E+00 0. -1.
         11    1    4    4    0    0 -0.92904514268E+01  0.14434660123E+01 -0.85335113226E+01  0.12697121626E+02  0.51100000000E-03 0.  1.
        -11    1    4    4    0    0 -0.11865252215E+02  0.32128995760E+01 -0.22105280626E+02  0.25293286968E+02  0.51100000000E-03 0. -1.
         12    1    4    4    0    0 -0.68700665677E+01  0.69733037760E+01 -0.39231323217E+00  0.97968714327E+01  0.00000000000E+00 0. -1.
</event>
<event>
 8    1  0.4042158E-011  0.9118800E+02  0.7816164E-02  0.1184000E+00
        -11   -1    0    0    0    0  0.00000000000E+00  0.00000000000E+00  0.45593999997E+02  0.45594000000E+02  0.51100000000E-03 0.  1.
         11   -1    0    0    0    0 -0.00000000000E+00 -0.00000000000E+00 -0.45593999997E+02  0.45594000000E+02  0.51100000000E-03 0. -1.
         23    2    1    2    0    0  0.00000000000E+00  0.00000000000E+00  0.00000000000E+00  0.91188000000E+02  0.91188000000E+02 0.  0.
    9900012    2    3    3    0    0 -0.34472218882E+02  0.21640903725E+02  0.15065210374E+02  0.47787272445E+02  0.20000006384E+02 0.  0.
        -12    1    3    3    0    0  0.34472218882E+02 -0.21640903725E+02 -0.15065210374E+02  0.43400727555E+02  0.00000000000E+00 0.  1.
         11    1    4    4    0    0  0.28990678547E+00  0.38687000146E+01  0.16109669909E+01  0.42007262056E+01  0.51100000000E-03 0. -1.
        -11    1    4    4    0    0 -0.14021486386E+02  0.10829707294E+02  0.12521407623E+02  0.21694936959E+02  0.51100000000E-03 0.  1.
         12    1    4    4    0    0 -0.20740639282E+02  0.69424964167E+01  0.93283576066E+00  0.21891609280E+02  0.00000000000E+00 0. -1.
</event>
<event>
 8    1  0.4042158E-011  0.9118800E+02  0.7816164E-02  0.1184000E+00
        -11   -1    0    0    0    0  0.00000000000E+00  0.00000000000E+00  0.45593999997E+02  0.45594000000E+02  0.51100000000E-03 0. -1.
         11   -1    0    0    0    0 -0.00000000000E+00 -0.00000000000E+00 -0.45593999997E+02  0.45594000000E+02  0.51100000000E-03 0.  1.
         23    2    1    2    0    0  0.00000000000E+00  0.13322676296E-14  0.35527136788E-14  0.91188000000E+02  0.91188000000E+02 0.  0.
    9900012    2    3    3    0    0 -0.31732949000E+02 -0.22210692315E+01 -0.29524737566E+02  0.47787270408E+02  0.19999997098E+02 0.  0.
         12    1    3    3    0    0  0.31732949000E+02  0.22210692315E+01  0.29524737566E+02  0.43400729592E+02  0.00000000000E+00 0. -1.
         11    1    4    4    0    0 -0.18558993827E+02 -0.10047929303E+02 -0.14997809311E+02  0.25890759346E+02  0.51100000000E-03 0. -1.
        -11    1    4    4    0    0 -0.51013431187E+01  0.14618598414E+01 -0.19519639212E+01  0.56542814947E+01  0.51100000000E-03 0.  1.
         12    1    4    4    0    0 -0.80726120546E+01  0.63650002298E+01 -0.12574964334E+02  0.16242229567E+02  0.00000000000E+00 0. -1.
</event>
<event>
 8    1  0.4042158E-011  0.9118800E+02  0.7816164E-02  0.1184000E+00
        -11   -1    0    0    0    0  0.00000000000E+00  0.00000000000E+00  0.45593999997E+02  0.45594000000E+02  0.51100000000E-03 0. -1.
         11   -1    0    0    0    0 -0.00000000000E+00 -0.00000000000E+00 -0.45593999997E+02  0.45594000000E+02  0.51100000000E-03 0.  1.
         23    2    1    2    0    0  0.00000000000E+00 -0.35527136788E-14  0.00000000000E+00  0.91188000000E+02  0.91188000000E+02 0.  0.
    9900012    2    3    3    0    0  0.81904216271E+01  0.22309273448E+02 -0.36315792433E+02  0.47787268805E+02  0.19999989792E+02 0.  0.
         12    1    3    3    0    0 -0.81904216271E+01 -0.22309273448E+02  0.36315792433E+02  0.43400731195E+02  0.00000000000E+00 0. -1.
         11    1    4    4    0    0  0.91955676434E+01  0.17810780926E+02 -0.20237538876E+02  0.28484036959E+02  0.51100000000E-03 0. -1.
        -11    1    4    4    0    0 -0.15173740702E+01  0.74542865093E+01 -0.12512025554E+02  0.14643073282E+02  0.51100000000E-03 0.  1.
         12    1    4    4    0    0  0.51222805379E+00 -0.29557939870E+01 -0.35662280027E+01  0.46601585638E+01  0.00000000000E+00 0. -1.
</event>
<event>
 8    1  0.4042158E-011  0.9118800E+02  0.7816164E-02  0.1184000E+00
        -11   -1    0    0    0    0  0.00000000000E+00  0.00000000000E+00  0.45593999997E+02  0.45594000000E+02  0.51100000000E-03 0. -1.
         11   -1    0    0    0    0 -0.00000000000E+00 -0.00000000000E+00 -0.45593999997E+02  0.45594000000E+02  0.51100000000E-03 0.  1.
         23    2    1    2    0    0  0.17763568394E-14  0.00000000000E+00  0.00000000000E+00  0.91188000000E+02  0.91188000000E+02 0.  0.
    9900012    2    3    3    0    0 -0.13486677500E+02  0.37963128792E+02 -0.16141058220E+02  0.47787269843E+02  0.19999994524E+02 0.  0.
         12    1    3    3    0    0  0.13486677500E+02 -0.37963128792E+02  0.16141058220E+02  0.43400730157E+02  0.00000000000E+00 0. -1.
         11    1    4    4    0    0 -0.13208928242E+00  0.23725338463E+00  0.11528015583E+01  0.11843514855E+01  0.51100000000E-03 0. -1.
        -11    1    4    4    0    0  0.27880790425E+01  0.21811833359E+01  0.71389200864E+00  0.36111753700E+01  0.51100000000E-03 0.  1.
        -12    1    4    4    0    0 -0.16142667260E+02  0.35544692071E+02 -0.18007751787E+02  0.42991742988E+02  0.00000000000E+00 0.  1.
</event>
<event>
 8    1  0.4042158E-011  0.9118800E+02  0.7816164E-02  0.1184000E+00
        -11   -1    0    0    0    0  0.00000000000E+00  0.00000000000E+00  0.45593999997E+02  0.45594000000E+02  0.51100000000E-03 0. -1.
         11   -1    0    0    0    0 -0.00000000000E+00 -0.00000000000E+00 -0.45593999997E+02  0.45594000000E+02  0.51100000000E-03 0.  1.
         23    2    1    2    0    0  0.00000000000E+00  0.00000000000E+00  0.71054273576E-14  0.91188000000E+02  0.91188000000E+02 0.  0.
    9900012    2    3    3    0    0  0.16278549247E+02  0.95216386841E+01  0.39089256543E+02  0.47787277127E+02  0.20000027734E+02 0.  0.
        -12    1    3    3    0    0 -0.16278549247E+02 -0.95216386841E+01 -0.39089256543E+02  0.43400722873E+02  0.00000000000E+00 0.  1.
         11    1    4    4    0    0  0.12003381352E+02  0.91063216384E+01  0.27572317552E+02  0.31420358896E+02  0.51100000000E-03 0. -1.
        -11    1    4    4    0    0  0.74286750894E+01 -0.13960667319E+01  0.97123899514E+01  0.12307100988E+02  0.51100000000E-03 0.  1.
         12    1    4    4    0    0 -0.31535071944E+01  0.18113837776E+01  0.18045490391E+01  0.40598172434E+01  0.00000000000E+00 0. -1.
</event>
<event>
 8    1  0.4042158E-011  0.9118800E+02  0.7816164E-02  0.1184000E+00
        -11   -1    0    0    0    0  0.00000000000E+00  0.00000000000E+00  0.45593999997E+02  0.45594000000E+02  0.51100000000E-03 0. -1.
         11   -1    0    0    0    0 -0.00000000000E+00 -0.00000000000E+00 -0.45593999997E+02  0.45594000000E+02  0.51100000000E-03 0.  1.
         23    2    1    2    0    0  0.00000000000E+00  0.00000000000E+00  0.00000000000E+00  0.91188000000E+02  0.91188000000E+02 0.  0.
    9900012    2    3    3    0    0 -0.12125477717E+02  0.17373800882E+02 -0.37878058024E+02  0.47787269055E+02  0.19999990928E+02 0.  0.
         12    1    3    3    0    0  0.12125477717E+02 -0.17373800882E+02  0.37878058024E+02  0.43400730945E+02  0.00000000000E+00 0. -1.
         11    1    4    4    0    0 -0.69981928721E+01  0.27372830940E+01 -0.42521947551E+01  0.86341521129E+01  0.51100000000E-03 0. -1.
        -11    1    4    4    0    0 -0.39800412422E+00  0.82136226345E+01 -0.54385030215E+01  0.98589715204E+01  0.51100000000E-03 0.  1.
        -12    1    4    4    0    0 -0.47292807208E+01  0.64228951533E+01 -0.28187360247E+02  0.29294145421E+02  0.00000000000E+00 0.  1.
</event>
<event>
 8    1  0.4042158E-011  0.9118800E+02  0.7816164E-02  0.1184000E+00
        -11   -1    0    0    0    0  0.00000000000E+00  0.00000000000E+00  0.45593999997E+02  0.45594000000E+02  0.51100000000E-03 0.  1.
         11   -1    0    0    0    0 -0.00000000000E+00 -0.00000000000E+00 -0.45593999997E+02  0.45594000000E+02  0.51100000000E-03 0. -1.
         23    2    1    2    0    0 -0.17763568394E-14  0.00000000000E+00  0.00000000000E+00  0.91188000000E+02  0.91188000000E+02 0.  0.
    9900012    2    3    3    0    0 -0.12758557420E+02  0.39827621739E+02 -0.11601857416E+02  0.47787270325E+02  0.19999996722E+02 0.  0.
        -12    1    3    3    0    0  0.12758557420E+02 -0.39827621739E+02  0.11601857416E+02  0.43400729675E+02  0.00000000000E+00 0.  1.
         11    1    4    4    0    0 -0.11740209536E+01  0.14700478389E+02 -0.36698097436E+01  0.15197035694E+02  0.51100000000E-03 0. -1.
        -11    1    4    4    0    0 -0.70780844792E+01  0.22875683914E+02 -0.92921523146E+00  0.23963714980E+02  0.51100000000E-03 0.  1.
        -12    1    4    4    0    0 -0.45064519869E+01  0.22514594356E+01 -0.70028324414E+01  0.86265196518E+01  0.00000000000E+00 0.  1.
</event>
<event>
 8    1  0.4042158E-011  0.9118800E+02  0.7816164E-02  0.1184000E+00
        -11   -1    0    0    0    0  0.00000000000E+00  0.00000000000E+00  0.45593999997E+02  0.45594000000E+02  0.51100000000E-03 0. -1.
         11   -1    0    0    0    0 -0.00000000000E+00 -0.00000000000E+00 -0.45593999997E+02  0.45594000000E+02  0.51100000000E-03 0.  1.
         23    2    1    2    0    0 -0.22204460493E-15  0.00000000000E+00 -0.35527136788E-14  0.91188000000E+02  0.91188000000E+02 0.  0.
    9900012    2    3    3    0    0 -0.13927612223E+01 -0.39957806879E+02 -0.16883635132E+02  0.47787271323E+02  0.20000001270E+02 0.  0.
         12    1    3    3    0    0  0.13927612223E+01  0.39957806879E+02  0.16883635132E+02  0.43400728677E+02  0.00000000000E+00 0. -1.
         11    1    4    4    0    0  0.93912988681E+00  0.14750928934E+01 -0.14952548170E+01  0.23007936060E+01  0.51100000000E-03 0. -1.
        -11    1    4    4    0    0 -0.26001241328E+01 -0.10178614044E+02 -0.84208192974E+01  0.13463841475E+02  0.51100000000E-03 0.  1.
         12    1    4    4    0    0  0.26823302375E+00 -0.31254285728E+02 -0.69675610180E+01  0.32022636242E+02  0.00000000000E+00 0. -1.
</event>
<event>
 8    1  0.4042158E-011  0.9118800E+02  0.7816164E-02  0.1184000E+00
        -11   -1    0    0    0    0  0.00000000000E+00  0.00000000000E+00  0.45593999997E+02  0.45594000000E+02  0.51100000000E-03 0. -1.
         11   -1    0    0    0    0 -0.00000000000E+00 -0.00000000000E+00 -0.45593999997E+02  0.45594000000E+02  0.51100000000E-03 0.  1.
         23    2    1    2    0    0  0.00000000000E+00  0.00000000000E+00  0.00000000000E+00  0.91188000000E+02  0.91188000000E+02 0.  0.
    9900012    2    3    3    0    0 -0.25609028683E+02  0.29106688876E+02  0.19509011364E+02  0.47787271760E+02  0.20000003261E+02 0.  0.
        -12    1    3    3    0    0  0.25609028683E+02 -0.29106688876E+02 -0.19509011364E+02  0.43400728240E+02  0.00000000000E+00 0.  1.
         11    1    4    4    0    0 -0.25006954578E+02  0.22014313247E+02  0.92960732624E+01  0.34588939610E+02  0.51100000000E-03 0. -1.
        -11    1    4    4    0    0 -0.20047931663E+01  0.16210310366E+01  0.43544419149E+01  0.50604448335E+01  0.51100000000E-03 0.  1.
         12    1    4    4    0    0  0.14027190607E+01  0.54713445924E+01  0.58584961863E+01  0.81378873165E+01  0.00000000000E+00 0. -1.
</event>
<event>
 8    1  0.4042158E-011  0.9118800E+02  0.7816164E-02  0.1184000E+00
        -11   -1    0    0    0    0  0.00000000000E+00  0.00000000000E+00  0.45593999997E+02  0.45594000000E+02  0.51100000000E-03 0.  1.
         11   -1    0    0    0    0 -0.00000000000E+00 -0.00000000000E+00 -0.45593999997E+02  0.45594000000E+02  0.51100000000E-03 0. -1.
         23    2    1    2    0    0  0.00000000000E+00 -0.88817841970E-15  0.00000000000E+00  0.91188000000E+02  0.91188000000E+02 0.  0.
    9900012    2    3    3    0    0 -0.38356816424E+02  0.33163965115E+01 -0.20034428763E+02  0.47787283556E+02  0.20000057045E+02 0.  0.
         12    1    3    3    0    0  0.38356816424E+02 -0.33163965115E+01  0.20034428763E+02  0.43400716444E+02  0.00000000000E+00 0. -1.
         11    1    4    4    0    0 -0.81946261077E+01 -0.41441670999E+01 -0.36757541765E+01  0.98912682212E+01  0.51100000000E-03 0. -1.
        -11    1    4    4    0    0 -0.16939035431E+02  0.13106786507E+01 -0.15955360001E+02  0.23307130087E+02  0.51100000000E-03 0.  1.
        -12    1    4    4    0    0 -0.13223154884E+02  0.61498849607E+01 -0.40331458639E+00  0.14588885248E+02  0.00000000000E+00 0.  1.
</event>
<event>
 8    1  0.4042158E-011  0.9118800E+02  0.7816164E-02  0.1184000E+00
        -11   -1    0    0    0    0  0.00000000000E+00  0.00000000000E+00  0.45593999997E+02  0.45594000000E+02  0.51100000000E-03 0. -1.
         11   -1    0    0    0    0 -0.00000000000E+00 -0.00000000000E+00 -0.45593999997E+02  0.45594000000E+02  0.51100000000E-03 0.  1.
         23    2    1    2    0    0 -0.35527136788E-14 -0.33306690739E-15  0.00000000000E+00  0.91188000000E+02  0.91188000000E+02 0.  0.
    9900012    2    3    3    0    0  0.16166622725E+02  0.84999039093E+00 -0.40268349738E+02  0.47787283824E+02  0.20000058267E+02 0.  0.
         12    1    3    3    0    0 -0.16166622725E+02 -0.84999039093E+00  0.40268349738E+02  0.43400716176E+02  0.00000000000E+00 0. -1.
         11    1    4    4    0    0  0.26258482711E+01  0.82386224624E+00 -0.13415276059E+01  0.30616212571E+01  0.51100000000E-03 0. -1.
        -11    1    4    4    0    0 -0.23718123383E+01 -0.47279996105E+01 -0.11581096960E+02  0.12731900138E+02  0.51100000000E-03 0.  1.
        -12    1    4    4    0    0  0.15912586792E+02  0.47541277552E+01 -0.27345725172E+02  0.31993762428E+02  0.00000000000E+00 0.  1.
</event>
<event>
 8    1  0.4042158E-011  0.9118800E+02  0.7816164E-02  0.1184000E+00
        -11   -1    0    0    0    0  0.00000000000E+00  0.00000000000E+00  0.45593999997E+02  0.45594000000E+02  0.51100000000E-03 0. -1.
         11   -1    0    0    0    0 -0.00000000000E+00 -0.00000000000E+00 -0.45593999997E+02  0.45594000000E+02  0.51100000000E-03 0.  1.
         23    2    1    2    0    0 -0.35527136788E-14  0.88817841970E-15  0.00000000000E+00  0.91188000000E+02  0.91188000000E+02 0.  0.
    9900012    2    3    3    0    0  0.28376008046E+02  0.34431239894E+01  0.32658387793E+02  0.47787271565E+02  0.20000002374E+02 0.  0.
        -12    1    3    3    0    0 -0.28376008046E+02 -0.34431239894E+01 -0.32658387793E+02  0.43400728435E+02  0.00000000000E+00 0.  1.
         11    1    4    4    0    0  0.53737499985E+00  0.26885213108E+01  0.17412624370E+01  0.32479091528E+01  0.51100000000E-03 0. -1.
        -11    1    4    4    0    0  0.82536600972E+01 -0.58709474624E+01  0.16402782352E+02  0.19278023712E+02  0.51100000000E-03 0.  1.
         12    1    4    4    0    0  0.19584972949E+02  0.66255501409E+01  0.14514343005E+02  0.25261338700E+02  0.00000000000E+00 0. -1.
</event>
<event>
 8    1  0.4042158E-011  0.9118800E+02  0.7816164E-02  0.1184000E+00
        -11   -1    0    0    0    0  0.00000000000E+00  0.00000000000E+00  0.45593999997E+02  0.45594000000E+02  0.51100000000E-03 0. -1.
         11   -1    0    0    0    0 -0.00000000000E+00 -0.00000000000E+00 -0.45593999997E+02  0.45594000000E+02  0.51100000000E-03 0.  1.
         23    2    1    2    0    0 -0.35527136788E-14 -0.35527136788E-14 -0.71054273576E-14  0.91188000000E+02  0.91188000000E+02 0.  0.
    9900012    2    3    3    0    0  0.19169715910E+02  0.19536558355E+02  0.33681863521E+02  0.47787273615E+02  0.20000011722E+02 0.  0.
        -12    1    3    3    0    0 -0.19169715910E+02 -0.19536558355E+02 -0.33681863521E+02  0.43400726385E+02  0.00000000000E+00 0.  1.
         11    1    4    4    0    0  0.16176574661E+02  0.10160141929E+02  0.25752870908E+02  0.32064316803E+02  0.51100000000E-03 0. -1.
        -11    1    4    4    0    0  0.52601581834E+01  0.28394573488E+01  0.61556082491E+01  0.85804018162E+01  0.51100000000E-03 0.  1.
        -12    1    4    4    0    0 -0.22670169346E+01  0.65369590779E+01  0.17733843644E+01  0.71425549961E+01  0.00000000000E+00 0.  1.
</event>
<event>
 8    1  0.4042158E-011  0.9118800E+02  0.7816164E-02  0.1184000E+00
        -11   -1    0    0    0    0  0.00000000000E+00  0.00000000000E+00  0.45593999997E+02  0.45594000000E+02  0.51100000000E-03 0. -1.
         11   -1    0    0    0    0 -0.00000000000E+00 -0.00000000000E+00 -0.45593999997E+02  0.45594000000E+02  0.51100000000E-03 0.  1.
         23    2    1    2    0    0  0.17763568394E-14  0.00000000000E+00  0.00000000000E+00  0.91188000000E+02  0.91188000000E+02 0.  0.
    9900012    2    3    3    0    0 -0.19927520242E+01 -0.12739934196E+02  0.41440876872E+02  0.47787271206E+02  0.20000000736E+02 0.  0.
        -12    1    3    3    0    0  0.19927520242E+01  0.12739934196E+02 -0.41440876872E+02  0.43400728794E+02  0.00000000000E+00 0.  1.
         11    1    4    4    0    0 -0.92596726399E+01 -0.11470835062E+01  0.17345013902E+02  0.19695350860E+02  0.51100000000E-03 0.  1.
        -11    1    4    4    0    0  0.28944236413E+01 -0.16593439334E+01  0.81144711295E+01  0.87735826478E+01  0.51100000000E-03 0. -1.
        -12    1    4    4    0    0  0.43724969744E+01 -0.99335067560E+01  0.15981391841E+02  0.19318337698E+02  0.00000000000E+00 0.  1.
</event>
<event>
 8    1  0.4042158E-011  0.9118800E+02  0.7816164E-02  0.1184000E+00
        -11   -1    0    0    0    0  0.00000000000E+00  0.00000000000E+00  0.45593999997E+02  0.45594000000E+02  0.51100000000E-03 0.  1.
         11   -1    0    0    0    0 -0.00000000000E+00 -0.00000000000E+00 -0.45593999997E+02  0.45594000000E+02  0.51100000000E-03 0. -1.
         23    2    1    2    0    0 -0.17763568394E-14  0.71054273576E-14  0.00000000000E+00  0.91188000000E+02  0.91188000000E+02 0.  0.
    9900012    2    3    3    0    0 -0.15329258313E+02  0.37754257271E+02  0.14941691160E+02  0.47787259946E+02  0.19999949397E+02 0.  0.
        -12    1    3    3    0    0  0.15329258313E+02 -0.37754257271E+02 -0.14941691160E+02  0.43400740054E+02  0.00000000000E+00 0.  1.
         11    1    4    4    0    0 -0.12620284145E+02  0.32214932922E+02  0.71819066167E+01  0.35336288118E+02  0.51100000000E-03 0. -1.
        -11    1    4    4    0    0  0.42636399951E+00  0.33481534837E+01 -0.43915507630E+00  0.34036414988E+01  0.51100000000E-03 0.  1.
        -12    1    4    4    0    0 -0.31353381677E+01  0.21911708655E+01  0.81989396199E+01  0.90473303288E+01  0.00000000000E+00 0.  1.
</event>
<event>
 8    1  0.4042158E-011  0.9118800E+02  0.7816164E-02  0.1184000E+00
        -11   -1    0    0    0    0  0.00000000000E+00  0.00000000000E+00  0.45593999997E+02  0.45594000000E+02  0.51100000000E-03 0. -1.
         11   -1    0    0    0    0 -0.00000000000E+00 -0.00000000000E+00 -0.45593999997E+02  0.45594000000E+02  0.51100000000E-03 0.  1.
         23    2    1    2    0    0  0.00000000000E+00  0.00000000000E+00  0.35527136788E-14  0.91188000000E+02  0.91188000000E+02 0.  0.
    9900012    2    3    3    0    0 -0.34142074798E+02  0.68192879816E+01 -0.25912142999E+02  0.47787272876E+02  0.20000008350E+02 0.  0.
         12    1    3    3    0    0  0.34142074798E+02 -0.68192879816E+01  0.25912142999E+02  0.43400727124E+02  0.00000000000E+00 0. -1.
         11    1    4    4    0    0 -0.18940920619E+00  0.72658207560E+00  0.11600140941E+01  0.13818213776E+01  0.51100000000E-03 0. -1.
        -11    1    4    4    0    0 -0.13868692810E+02  0.68846581026E+01 -0.19563045493E+02  0.24948986085E+02  0.51100000000E-03 0.  1.
         12    1    4    4    0    0 -0.20083972783E+02 -0.79195219662E+00 -0.75091115997E+01  0.21456465413E+02  0.00000000000E+00 0. -1.
</event>
<event>
 8    1  0.4042158E-011  0.9118800E+02  0.7816164E-02  0.1184000E+00
        -11   -1    0    0    0    0  0.00000000000E+00  0.00000000000E+00  0.45593999997E+02  0.45594000000E+02  0.51100000000E-03 0. -1.
         11   -1    0    0    0    0 -0.00000000000E+00 -0.00000000000E+00 -0.45593999997E+02  0.45594000000E+02  0.51100000000E-03 0.  1.
         23    2    1    2    0    0  0.00000000000E+00  0.00000000000E+00  0.71054273576E-14  0.91188000000E+02  0.91188000000E+02 0.  0.
    9900012    2    3    3    0    0  0.34612940991E+01  0.15918951579E+02 -0.40227209026E+02  0.47787286616E+02  0.20000070998E+02 0.  0.
         12    1    3    3    0    0 -0.34612940991E+01 -0.15918951579E+02  0.40227209026E+02  0.43400713384E+02  0.00000000000E+00 0. -1.
         11    1    4    4    0    0  0.38174231352E+01  0.55081789022E+01 -0.66723772575E+01  0.94569219484E+01  0.51100000000E-03 0.  1.
        -11    1    4    4    0    0  0.67489317883E+01  0.32352371700E+01 -0.85470349146E+01  0.11360750236E+02  0.51100000000E-03 0. -1.
         12    1    4    4    0    0 -0.71050608244E+01  0.71755355067E+01 -0.25007796854E+02  0.26969614432E+02  0.00000000000E+00 0. -1.
</event>
<event>
 8    1  0.4042158E-011  0.9118800E+02  0.7816164E-02  0.1184000E+00
        -11   -1    0    0    0    0  0.00000000000E+00  0.00000000000E+00  0.45593999997E+02  0.45594000000E+02  0.51100000000E-03 0.  1.
         11   -1    0    0    0    0 -0.00000000000E+00 -0.00000000000E+00 -0.45593999997E+02  0.45594000000E+02  0.51100000000E-03 0. -1.
         23    2    1    2    0    0  0.00000000000E+00  0.00000000000E+00 -0.17763568394E-14  0.91188000000E+02  0.91188000000E+02 0.  0.
    9900012    2    3    3    0    0  0.22702388110E+02  0.34446170023E+02  0.13479116638E+02  0.47787266821E+02  0.19999980742E+02 0.  0.
        -12    1    3    3    0    0 -0.22702388110E+02 -0.34446170023E+02 -0.13479116638E+02  0.43400733179E+02  0.00000000000E+00 0.  1.
         11    1    4    4    0    0  0.32756807952E+01  0.32224607838E+01  0.62988400346E+00  0.46380052064E+01  0.51100000000E-03 0. -1.
        -11    1    4    4    0    0  0.10304671978E+02  0.26021218411E+02  0.20132089177E+01  0.28059634399E+02  0.51100000000E-03 0.  1.
        -12    1    4    4    0    0  0.91220353372E+01  0.52024908276E+01  0.10836023717E+02  0.15089627216E+02  0.00000000000E+00 0.  1.
</event>
<event>
 8    1  0.4042158E-011  0.9118800E+02  0.7816164E-02  0.1184000E+00
        -11   -1    0    0    0    0  0.00000000000E+00  0.00000000000E+00  0.45593999997E+02  0.45594000000E+02  0.51100000000E-03 0. -1.
         11   -1    0    0    0    0 -0.00000000000E+00 -0.00000000000E+00 -0.45593999997E+02  0.45594000000E+02  0.51100000000E-03 0.  1.
         23    2    1    2    0    0  0.00000000000E+00  0.17763568394E-14 -0.71054273576E-14  0.91188000000E+02  0.91188000000E+02 0.  0.
    9900012    2    3    3    0    0  0.13842265095E+02 -0.10336028667E+02 -0.39814334083E+02  0.47787274315E+02  0.20000014911E+02 0.  0.
         12    1    3    3    0    0 -0.13842265095E+02  0.10336028667E+02  0.39814334083E+02  0.43400725685E+02  0.00000000000E+00 0. -1.
         11    1    4    4    0    0  0.64838870544E+01 -0.76959221385E+01 -0.12563137103E+02  0.16096596628E+02  0.51100000000E-03 0. -1.
        -11    1    4    4    0    0  0.69152455973E+01 -0.68174310390E+01 -0.25219378402E+02  0.27024341526E+02  0.51100000000E-03 0.  1.
         12    1    4    4    0    0  0.44313244307E+00  0.41773245110E+01 -0.20318185778E+01  0.46663361607E+01  0.00000000000E+00 0. -1.
</event>
<event>
 8    1  0.4042158E-011  0.9118800E+02  0.7816164E-02  0.1184000E+00
        -11   -1    0    0    0    0  0.00000000000E+00  0.00000000000E+00  0.45593999997E+02  0.45594000000E+02  0.51100000000E-03 0. -1.
         11   -1    0    0    0    0 -0.00000000000E+00 -0.00000000000E+00 -0.45593999997E+02  0.45594000000E+02  0.51100000000E-03 0.  1.
         23    2    1    2    0    0  0.00000000000E+00  0.71054273576E-14 -0.35527136788E-14  0.91188000000E+02  0.91188000000E+02 0.  0.
    9900012    2    3    3    0    0 -0.25383295193E+02 -0.29761919259E+02 -0.18802648531E+02  0.47787272995E+02  0.20000008892E+02 0.  0.
         12    1    3    3    0    0  0.25383295193E+02  0.29761919259E+02  0.18802648531E+02  0.43400727005E+02  0.00000000000E+00 0. -1.
         11    1    4    4    0    0 -0.35429572347E+00 -0.42318192273E+01 -0.21586975952E+01  0.47638004787E+01  0.51100000000E-03 0.  1.
        -11    1    4    4    0    0 -0.10287067586E+02 -0.17028816169E+02 -0.16747780354E+02  0.26005624136E+02  0.51100000000E-03 0. -1.
         12    1    4    4    0    0 -0.14741931883E+02 -0.85012838619E+01  0.10382941782E+00  0.17017848380E+02  0.00000000000E+00 0. -1.
</event>
<event>
 8    1  0.4042158E-011  0.9118800E+02  0.7816164E-02  0.1184000E+00
        -11   -1    0    0    0    0  0.00000000000E+00  0.00000000000E+00  0.45593999997E+02  0.45594000000E+02  0.51100000000E-03 0. -1.
         11   -1    0    0    0    0 -0.00000000000E+00 -0.00000000000E+00 -0.45593999997E+02  0.45594000000E+02  0.51100000000E-03 0.  1.
         23    2    1    2    0    0  0.35527136788E-14  0.00000000000E+00  0.35527136788E-14  0.91188000000E+02  0.91188000000E+02 0.  0.
    9900012    2    3    3    0    0  0.12147210022E+02 -0.27605906274E+02  0.31208684079E+02  0.47787277259E+02  0.20000028334E+02 0.  0.
        -12    1    3    3    0    0 -0.12147210022E+02  0.27605906274E+02 -0.31208684079E+02  0.43400722741E+02  0.00000000000E+00 0.  1.
         11    1    4    4    0    0  0.10017078714E+02 -0.11240065405E+02  0.16013455793E+02  0.21979802159E+02  0.51100000000E-03 0. -1.
        -11    1    4    4    0    0  0.50466432408E+01 -0.67573255984E+01  0.11058935121E+01  0.85060600729E+01  0.51100000000E-03 0.  1.
         12    1    4    4    0    0 -0.29165119326E+01 -0.96085152704E+01  0.14089334774E+02  0.17301415027E+02  0.00000000000E+00 0. -1.
</event>
<event>
 8    1  0.4042158E-011  0.9118800E+02  0.7816164E-02  0.1184000E+00
        -11   -1    0    0    0    0  0.00000000000E+00  0.00000000000E+00  0.45593999997E+02  0.45594000000E+02  0.51100000000E-03 0. -1.
         11   -1    0    0    0    0 -0.00000000000E+00 -0.00000000000E+00 -0.45593999997E+02  0.45594000000E+02  0.51100000000E-03 0.  1.
         23    2    1    2    0    0  0.00000000000E+00  0.35527136788E-14 -0.71054273576E-14  0.91188000000E+02  0.91188000000E+02 0.  0.
    9900012    2    3    3    0    0  0.10555247818E+02  0.23107039803E+02  0.35189136022E+02  0.47787264535E+02  0.19999970320E+02 0.  0.
        -12    1    3    3    0    0 -0.10555247818E+02 -0.23107039803E+02 -0.35189136022E+02  0.43400735465E+02  0.00000000000E+00 0.  1.
         11    1    4    4    0    0  0.99120873412E+00  0.14185173557E+02  0.22428390383E+02  0.26556248587E+02  0.51100000000E-03 0. -1.
        -11    1    4    4    0    0 -0.16866645705E+01  0.28117183683E+01  0.18358022641E+00  0.32839457237E+01  0.51100000000E-03 0.  1.
        -12    1    4    4    0    0  0.11250703654E+02  0.61101478773E+01  0.12577165413E+02  0.17947070224E+02  0.00000000000E+00 0.  1.
</event>
<event>
 8    1  0.4042158E-011  0.9118800E+02  0.7816164E-02  0.1184000E+00
        -11   -1    0    0    0    0  0.00000000000E+00  0.00000000000E+00  0.45593999997E+02  0.45594000000E+02  0.51100000000E-03 0. -1.
         11   -1    0    0    0    0 -0.00000000000E+00 -0.00000000000E+00 -0.45593999997E+02  0.45594000000E+02  0.51100000000E-03 0.  1.
         23    2    1    2    0    0  0.00000000000E+00  0.00000000000E+00  0.00000000000E+00  0.91188000000E+02  0.91188000000E+02 0.  0.
    9900012    2    3    3    0    0  0.20060006680E+02 -0.47934452896E+01  0.38186943648E+02  0.47787266701E+02  0.19999980196E+02 0.  0.
        -12    1    3    3    0    0 -0.20060006680E+02  0.47934452896E+01 -0.38186943648E+02  0.43400733299E+02  0.00000000000E+00 0.  1.
         11    1    4    4    0    0  0.10839484159E+02 -0.45928501669E+01  0.26394586912E+02  0.28900915348E+02  0.51100000000E-03 0.  1.
        -11    1    4    4    0    0  0.18396400848E+01 -0.43907340947E+00  0.11330415714E+02  0.11487183363E+02  0.51100000000E-03 0. -1.
        -12    1    4    4    0    0  0.73808824362E+01  0.23847828676E+00  0.46194102257E+00  0.73991679896E+01  0.00000000000E+00 0.  1.
</event>
<event>
 8    1  0.4042158E-011  0.9118800E+02  0.7816164E-02  0.1184000E+00
        -11   -1    0    0    0    0  0.00000000000E+00  0.00000000000E+00  0.45593999997E+02  0.45594000000E+02  0.51100000000E-03 0. -1.
         11   -1    0    0    0    0 -0.00000000000E+00 -0.00000000000E+00 -0.45593999997E+02  0.45594000000E+02  0.51100000000E-03 0.  1.
         23    2    1    2    0    0 -0.35527136788E-14  0.44408920985E-15  0.00000000000E+00  0.91188000000E+02  0.91188000000E+02 0.  0.
    9900012    2    3    3    0    0 -0.25596600983E+02  0.33539093009E+01 -0.34888229763E+02  0.47787271142E+02  0.20000000444E+02 0.  0.
         12    1    3    3    0    0  0.25596600983E+02 -0.33539093009E+01  0.34888229763E+02  0.43400728858E+02  0.00000000000E+00 0. -1.
         11    1    4    4    0    0 -0.19903588019E+01  0.54426358119E+01 -0.51101228420E+01  0.77263942730E+01  0.51100000000E-03 0. -1.
        -11    1    4    4    0    0 -0.16804866019E+01 -0.91277251656E-01 -0.10988064288E+02  0.11116200961E+02  0.51100000000E-03 0.  1.
        -12    1    4    4    0    0 -0.21925755579E+02 -0.19974492593E+01 -0.18790042633E+02  0.28944675908E+02  0.00000000000E+00 0.  1.
</event>
<event>
 8    1  0.4042158E-011  0.9118800E+02  0.7816164E-02  0.1184000E+00
        -11   -1    0    0    0    0  0.00000000000E+00  0.00000000000E+00  0.45593999997E+02  0.45594000000E+02  0.51100000000E-03 0. -1.
         11   -1    0    0    0    0 -0.00000000000E+00 -0.00000000000E+00 -0.45593999997E+02  0.45594000000E+02  0.51100000000E-03 0.  1.
         23    2    1    2    0    0  0.00000000000E+00  0.00000000000E+00  0.00000000000E+00  0.91188000000E+02  0.91188000000E+02 0.  0.
    9900012    2    3    3    0    0 -0.25376072782E+02 -0.89384463640E+01  0.34055558136E+02  0.47787286490E+02  0.20000070422E+02 0.  0.
        -12    1    3    3    0    0  0.25376072782E+02  0.89384463640E+01 -0.34055558136E+02  0.43400713510E+02  0.00000000000E+00 0.  1.
         11    1    4    4    0    0 -0.95026429687E+01  0.43093178447E+01  0.80601310129E+01  0.13184694000E+02  0.51100000000E-03 0. -1.
        -11    1    4    4    0    0 -0.68422294197E+00 -0.30351290679E+01  0.40107265504E+00  0.31370414452E+01  0.51100000000E-03 0.  1.
         12    1    4    4    0    0 -0.15189206872E+02 -0.10212635141E+02  0.25594354468E+02  0.31465551044E+02  0.00000000000E+00 0. -1.
</event>
<event>
 8    1  0.4042158E-011  0.9118800E+02  0.7816164E-02  0.1184000E+00
        -11   -1    0    0    0    0  0.00000000000E+00  0.00000000000E+00  0.45593999997E+02  0.45594000000E+02  0.51100000000E-03 0. -1.
         11   -1    0    0    0    0 -0.00000000000E+00 -0.00000000000E+00 -0.45593999997E+02  0.45594000000E+02  0.51100000000E-03 0.  1.
         23    2    1    2    0    0  0.00000000000E+00  0.00000000000E+00  0.00000000000E+00  0.91188000000E+02  0.91188000000E+02 0.  0.
    9900012    2    3    3    0    0  0.21408004103E+02  0.12491157795E+02 -0.35627118089E+02  0.47787271825E+02  0.20000003561E+02 0.  0.
         12    1    3    3    0    0 -0.21408004103E+02 -0.12491157795E+02  0.35627118089E+02  0.43400728175E+02  0.00000000000E+00 0. -1.
         11    1    4    4    0    0 -0.15369298982E+01  0.52405696889E+00 -0.34454423725E+00  0.16599699429E+01  0.51100000000E-03 0. -1.
        -11    1    4    4    0    0  0.76591981357E+00  0.69260390076E+01 -0.82139396382E+01  0.10771511228E+02  0.51100000000E-03 0.  1.
        -12    1    4    4    0    0  0.22179014188E+02  0.50410618185E+01 -0.27068634214E+02  0.35355790654E+02  0.00000000000E+00 0.  1.
</event>
<event>
 8    1  0.4042158E-011  0.9118800E+02  0.7816164E-02  0.1184000E+00
        -11   -1    0    0    0    0  0.00000000000E+00  0.00000000000E+00  0.45593999997E+02  0.45594000000E+02  0.51100000000E-03 0. -1.
         11   -1    0    0    0    0 -0.00000000000E+00 -0.00000000000E+00 -0.45593999997E+02  0.45594000000E+02  0.51100000000E-03 0.  1.
         23    2    1    2    0    0  0.00000000000E+00  0.00000000000E+00  0.00000000000E+00  0.91188000000E+02  0.91188000000E+02 0.  0.
    9900012    2    3    3    0    0  0.14758054195E+02 -0.31128141325E+02 -0.26398086895E+02  0.47787304870E+02  0.20000154226E+02 0.  0.
         12    1    3    3    0    0 -0.14758054195E+02  0.31128141325E+02  0.26398086895E+02  0.43400695130E+02  0.00000000000E+00 0. -1.
         11    1    4    4    0    0  0.14579279969E+01 -0.75931616957E+01 -0.10548283223E+02  0.13078529650E+02  0.51100000000E-03 0. -1.
        -11    1    4    4    0    0  0.82983197329E+01 -0.85385607785E+01 -0.14616249117E+02  0.18852158207E+02  0.51100000000E-03 0.  1.
         12    1    4    4    0    0  0.50018064652E+01 -0.14996418851E+02 -0.12335545550E+01  0.15856617013E+02  0.00000000000E+00 0. -1.
</event>
<event>
 8    1  0.4042158E-011  0.9118800E+02  0.7816164E-02  0.1184000E+00
        -11   -1    0    0    0    0  0.00000000000E+00  0.00000000000E+00  0.45593999997E+02  0.45594000000E+02  0.51100000000E-03 0. -1.
         11   -1    0    0    0    0 -0.00000000000E+00 -0.00000000000E+00 -0.45593999997E+02  0.45594000000E+02  0.51100000000E-03 0.  1.
         23    2    1    2    0    0  0.22204460493E-15  0.00000000000E+00 -0.35527136788E-14  0.91188000000E+02  0.91188000000E+02 0.  0.
    9900012    2    3    3    0    0 -0.39021961530E+00  0.35422585425E+02  0.25074117672E+02  0.47787271820E+02  0.20000003535E+02 0.  0.
        -12    1    3    3    0    0  0.39021961530E+00 -0.35422585425E+02 -0.25074117672E+02  0.43400728180E+02  0.00000000000E+00 0.  1.
         11    1    4    4    0    0 -0.41345342348E+00  0.41697534266E+01  0.70986765051E+01  0.82431180846E+01  0.51100000000E-03 0. -1.
        -11    1    4    4    0    0 -0.15139943209E+01  0.89871045055E+01  0.14252172128E+02  0.16916992547E+02  0.51100000000E-03 0.  1.
        -12    1    4    4    0    0  0.15372281291E+01  0.22265727493E+02  0.37232690386E+01  0.22627161188E+02  0.00000000000E+00 0.  1.
</event>
<event>
 8    1  0.4042158E-011  0.9118800E+02  0.7816164E-02  0.1184000E+00
        -11   -1    0    0    0    0  0.00000000000E+00  0.00000000000E+00  0.45593999997E+02  0.45594000000E+02  0.51100000000E-03 0. -1.
         11   -1    0    0    0    0 -0.00000000000E+00 -0.00000000000E+00 -0.45593999997E+02  0.45594000000E+02  0.51100000000E-03 0.  1.
         23    2    1    2    0    0  0.00000000000E+00 -0.88817841970E-15 -0.71054273576E-14  0.91188000000E+02  0.91188000000E+02 0.  0.
    9900012    2    3    3    0    0  0.13954740905E+02  0.78810687392E+01 -0.40333324246E+02  0.47787273245E+02  0.20000010032E+02 0.  0.
         12    1    3    3    0    0 -0.13954740905E+02 -0.78810687392E+01  0.40333324246E+02  0.43400726755E+02  0.00000000000E+00 0. -1.
         11    1    4    4    0    0  0.85280731408E+01  0.12751736399E+02 -0.22744761647E+02  0.27434631314E+02  0.51100000000E-03 0. -1.
        -11    1    4    4    0    0  0.72661432405E+00  0.13367170873E+01 -0.72624022012E+01  0.74200584189E+01  0.51100000000E-03 0.  1.
         12    1    4    4    0    0  0.47000534402E+01 -0.62073847471E+01 -0.10326160397E+02  0.12932583512E+02  0.00000000000E+00 0. -1.
</event>
<event>
 8    1  0.4042158E-011  0.9118800E+02  0.7816164E-02  0.1184000E+00
        -11   -1    0    0    0    0  0.00000000000E+00  0.00000000000E+00  0.45593999997E+02  0.45594000000E+02  0.51100000000E-03 0.  1.
         11   -1    0    0    0    0 -0.00000000000E+00 -0.00000000000E+00 -0.45593999997E+02  0.45594000000E+02  0.51100000000E-03 0. -1.
         23    2    1    2    0    0  0.35527136788E-14  0.00000000000E+00  0.00000000000E+00  0.91188000000E+02  0.91188000000E+02 0.  0.
    9900012    2    3    3    0    0  0.22204192216E+02  0.23590411607E+02  0.28880584569E+02  0.47787287600E+02  0.20000075484E+02 0.  0.
        -12    1    3    3    0    0 -0.22204192216E+02 -0.23590411607E+02 -0.28880584569E+02  0.43400712400E+02  0.00000000000E+00 0.  1.
         11    1    4    4    0    0  0.99999375492E+01  0.69131468823E+01  0.11400374935E+02  0.16666100315E+02  0.51100000000E-03 0. -1.
        -11    1    4    4    0    0  0.15249694084E+02  0.15839392259E+02  0.12699503870E+02  0.25391276368E+02  0.51100000000E-03 0.  1.
        -12    1    4    4    0    0 -0.30454394172E+01  0.83787246570E+00  0.47807057642E+01  0.57299109170E+01  0.00000000000E+00 0.  1.
</event>
<event>
 8    1  0.4042158E-011  0.9118800E+02  0.7816164E-02  0.1184000E+00
        -11   -1    0    0    0    0  0.00000000000E+00  0.00000000000E+00  0.45593999997E+02  0.45594000000E+02  0.51100000000E-03 0. -1.
         11   -1    0    0    0    0 -0.00000000000E+00 -0.00000000000E+00 -0.45593999997E+02  0.45594000000E+02  0.51100000000E-03 0.  1.
         23    2    1    2    0    0 -0.35527136788E-14 -0.17763568394E-14  0.00000000000E+00  0.91188000000E+02  0.91188000000E+02 0.  0.
    9900012    2    3    3    0    0  0.22571965313E+02  0.94152650406E+01  0.35853624232E+02  0.47787271844E+02  0.20000003645E+02 0.  0.
        -12    1    3    3    0    0 -0.22571965313E+02 -0.94152650406E+01 -0.35853624232E+02  0.43400728156E+02  0.00000000000E+00 0.  1.
         11    1    4    4    0    0  0.70842485498E+01 -0.92393770715E-01  0.78280565459E+01  0.10558105117E+02  0.51100000000E-03 0.  1.
        -11    1    4    4    0    0  0.16806387435E+02  0.49033981691E+01  0.27232637884E+02  0.32374597119E+02  0.51100000000E-03 0. -1.
        -12    1    4    4    0    0 -0.13186706720E+01  0.46042606422E+01  0.79292980266E+00  0.48545696076E+01  0.00000000000E+00 0.  1.
</event>
<event>
 8    1  0.4042158E-011  0.9118800E+02  0.7816164E-02  0.1184000E+00
        -11   -1    0    0    0    0  0.00000000000E+00  0.00000000000E+00  0.45593999997E+02  0.45594000000E+02  0.51100000000E-03 0. -1.
         11   -1    0    0    0    0 -0.00000000000E+00 -0.00000000000E+00 -0.45593999997E+02  0.45594000000E+02  0.51100000000E-03 0.  1.
         23    2    1    2    0    0  0.00000000000E+00  0.35527136788E-14  0.71054273576E-14  0.91188000000E+02  0.91188000000E+02 0.  0.
    9900012    2    3    3    0    0  0.15357030675E+02 -0.19626901961E+02 -0.35532654444E+02  0.47787271854E+02  0.20000003692E+02 0.  0.
         12    1    3    3    0    0 -0.15357030675E+02  0.19626901961E+02  0.35532654444E+02  0.43400728146E+02  0.00000000000E+00 0. -1.
         11    1    4    4    0    0 -0.15482591503E+01 -0.24552990730E+01 -0.23782882183E+01  0.37525797853E+01  0.51100000000E-03 0. -1.
        -11    1    4    4    0    0  0.10429338697E+02 -0.79811315008E+01 -0.29369196450E+02  0.32171715311E+02  0.51100000000E-03 0.  1.
         12    1    4    4    0    0  0.64759511279E+01 -0.91904713868E+01 -0.37851697765E+01  0.11862976758E+02  0.00000000000E+00 0. -1.
</event>
<event>
 8    1  0.4042158E-011  0.9118800E+02  0.7816164E-02  0.1184000E+00
        -11   -1    0    0    0    0  0.00000000000E+00  0.00000000000E+00  0.45593999997E+02  0.45594000000E+02  0.51100000000E-03 0. -1.
         11   -1    0    0    0    0 -0.00000000000E+00 -0.00000000000E+00 -0.45593999997E+02  0.45594000000E+02  0.51100000000E-03 0.  1.
         23    2    1    2    0    0  0.00000000000E+00  0.00000000000E+00  0.00000000000E+00  0.91188000000E+02  0.91188000000E+02 0.  0.
    9900012    2    3    3    0    0  0.33852825556E+02 -0.21869012915E+02 -0.16104514092E+02  0.47787275373E+02  0.20000019737E+02 0.  0.
         12    1    3    3    0    0 -0.33852825556E+02  0.21869012915E+02  0.16104514092E+02  0.43400724627E+02  0.00000000000E+00 0. -1.
         11    1    4    4    0    0  0.82923540846E+01 -0.34982293453E+01 -0.70675350077E+01  0.11443373461E+02  0.51100000000E-03 0. -1.
        -11    1    4    4    0    0  0.27268092604E+02 -0.15502256663E+02 -0.62235293733E+01  0.31978135562E+02  0.51100000000E-03 0.  1.
        -12    1    4    4    0    0 -0.17076211332E+01 -0.28685269068E+01 -0.28134497111E+01  0.43657663504E+01  0.00000000000E+00 0.  1.
</event>
<event>
 8    1  0.4042158E-011  0.9118800E+02  0.7816164E-02  0.1184000E+00
        -11   -1    0    0    0    0  0.00000000000E+00  0.00000000000E+00  0.45593999997E+02  0.45594000000E+02  0.51100000000E-03 0. -1.
         11   -1    0    0    0    0 -0.00000000000E+00 -0.00000000000E+00 -0.45593999997E+02  0.45594000000E+02  0.51100000000E-03 0.  1.
         23    2    1    2    0    0  0.00000000000E+00  0.00000000000E+00  0.00000000000E+00  0.91188000000E+02  0.91188000000E+02 0.  0.
    9900012    2    3    3    0    0  0.16746180801E+02 -0.34977281116E+02  0.19487910088E+02  0.47787269530E+02  0.19999993095E+02 0.  0.
        -12    1    3    3    0    0 -0.16746180801E+02  0.34977281116E+02 -0.19487910088E+02  0.43400730470E+02  0.00000000000E+00 0.  1.
         11    1    4    4    0    0 -0.11552573314E+01 -0.23812800132E+01 -0.10215455383E+01  0.28370177213E+01  0.51100000000E-03 0. -1.
        -11    1    4    4    0    0  0.21393634542E+00 -0.26640467207E+01  0.72729089552E+01  0.77484268482E+01  0.51100000000E-03 0.  1.
         12    1    4    4    0    0  0.17687501787E+02 -0.29931954383E+02  0.13236546672E+02  0.37201824961E+02  0.00000000000E+00 0. -1.
</event>
<event>
 8    1  0.4042158E-011  0.9118800E+02  0.7816164E-02  0.1184000E+00
        -11   -1    0    0    0    0  0.00000000000E+00  0.00000000000E+00  0.45593999997E+02  0.45594000000E+02  0.51100000000E-03 0. -1.
         11   -1    0    0    0    0 -0.00000000000E+00 -0.00000000000E+00 -0.45593999997E+02  0.45594000000E+02  0.51100000000E-03 0.  1.
         23    2    1    2    0    0 -0.44408920985E-15  0.00000000000E+00  0.00000000000E+00  0.91188000000E+02  0.91188000000E+02 0.  0.
    9900012    2    3    3    0    0 -0.16542110513E+01 -0.10548246918E+02  0.42066876868E+02  0.47787262026E+02  0.19999958881E+02 0.  0.
        -12    1    3    3    0    0  0.16542110513E+01  0.10548246918E+02 -0.42066876868E+02  0.43400737974E+02  0.00000000000E+00 0.  1.
         11    1    4    4    0    0 -0.49800290290E+01 -0.10591521020E+02  0.27276100646E+02  0.29681082752E+02  0.51100000000E-03 0. -1.
        -11    1    4    4    0    0 -0.13336567656E+01 -0.12711876755E+01  0.12699537443E+02  0.12832490405E+02  0.51100000000E-03 0.  1.
        -12    1    4    4    0    0  0.46594747433E+01  0.13144617777E+01  0.20912387800E+01  0.52736888687E+01  0.00000000000E+00 0.  1.
</event>
<event>
 8    1  0.4042158E-011  0.9118800E+02  0.7816164E-02  0.1184000E+00
        -11   -1    0    0    0    0  0.00000000000E+00  0.00000000000E+00  0.45593999997E+02  0.45594000000E+02  0.51100000000E-03 0. -1.
         11   -1    0    0    0    0 -0.00000000000E+00 -0.00000000000E+00 -0.45593999997E+02  0.45594000000E+02  0.51100000000E-03 0.  1.
         23    2    1    2    0    0  0.00000000000E+00  0.00000000000E+00 -0.17763568394E-14  0.91188000000E+02  0.91188000000E+02 0.  0.
    9900012    2    3    3    0    0 -0.41921945966E+02  0.57972060363E+01  0.96211312677E+01  0.47787270533E+02  0.19999997669E+02 0.  0.
        -12    1    3    3    0    0  0.41921945966E+02 -0.57972060363E+01 -0.96211312677E+01  0.43400729467E+02  0.00000000000E+00 0.  1.
         11    1    4    4    0    0 -0.11357528445E+02  0.64421851022E+01  0.39092346630E+01  0.13630015304E+02  0.51100000000E-03 0. -1.
        -11    1    4    4    0    0 -0.35998956670E+01  0.48137855848E+01 -0.21393642129E+00  0.60147775955E+01  0.51100000000E-03 0.  1.
         12    1    4    4    0    0 -0.26964521854E+02 -0.54587646508E+01  0.59258330260E+01  0.28142477634E+02  0.00000000000E+00 0. -1.
</event>
<event>
 8    1  0.4042158E-011  0.9118800E+02  0.7816164E-02  0.1184000E+00
        -11   -1    0    0    0    0  0.00000000000E+00  0.00000000000E+00  0.45593999997E+02  0.45594000000E+02  0.51100000000E-03 0. -1.
         11   -1    0    0    0    0 -0.00000000000E+00 -0.00000000000E+00 -0.45593999997E+02  0.45594000000E+02  0.51100000000E-03 0.  1.
         23    2    1    2    0    0  0.00000000000E+00  0.88817841970E-15  0.00000000000E+00  0.91188000000E+02  0.91188000000E+02 0.  0.
    9900012    2    3    3    0    0 -0.13779997844E+02 -0.24729143765E+01  0.41080646285E+02  0.47787272526E+02  0.20000006753E+02 0.  0.
        -12    1    3    3    0    0  0.13779997844E+02  0.24729143765E+01 -0.41080646285E+02  0.43400727474E+02  0.00000000000E+00 0.  1.
         11    1    4    4    0    0 -0.19843151113E+01 -0.19033592660E+01  0.18051502885E+01  0.32892021497E+01  0.51100000000E-03 0. -1.
        -11    1    4    4    0    0 -0.12186082960E+01 -0.42479408737E+01  0.28886921646E+02  0.29223008920E+02  0.51100000000E-03 0.  1.
         12    1    4    4    0    0 -0.10577074437E+02  0.36783857631E+01  0.10388574350E+02  0.15275061456E+02  0.00000000000E+00 0. -1.
</event>
<event>
 8    1  0.4042158E-011  0.9118800E+02  0.7816164E-02  0.1184000E+00
        -11   -1    0    0    0    0  0.00000000000E+00  0.00000000000E+00  0.45593999997E+02  0.45594000000E+02  0.51100000000E-03 0. -1.
         11   -1    0    0    0    0 -0.00000000000E+00 -0.00000000000E+00 -0.45593999997E+02  0.45594000000E+02  0.51100000000E-03 0.  1.
         23    2    1    2    0    0  0.44408920985E-15 -0.17763568394E-14  0.00000000000E+00  0.91188000000E+02  0.91188000000E+02 0.  0.
    9900012    2    3    3    0    0 -0.36506620980E+01  0.15642246066E+02  0.40318928725E+02  0.47787271788E+02  0.20000003392E+02 0.  0.
        -12    1    3    3    0    0  0.36506620980E+01 -0.15642246066E+02 -0.40318928725E+02  0.43400728212E+02  0.00000000000E+00 0.  1.
         11    1    4    4    0    0 -0.34305220909E+01  0.29476179785E+01  0.22596617140E+01  0.50559870338E+01  0.51100000000E-03 0. -1.
        -11    1    4    4    0    0 -0.60916752207E+01  0.50065074807E+01  0.26551765217E+02  0.27697831333E+02  0.51100000000E-03 0.  1.
        -12    1    4    4    0    0  0.58715352136E+01  0.76881206072E+01  0.11507501794E+02  0.15033453422E+02  0.00000000000E+00 0.  1.
</event>
<event>
 8    1  0.4042158E-011  0.9118800E+02  0.7816164E-02  0.1184000E+00
        -11   -1    0    0    0    0  0.00000000000E+00  0.00000000000E+00  0.45593999997E+02  0.45594000000E+02  0.51100000000E-03 0. -1.
         11   -1    0    0    0    0 -0.00000000000E+00 -0.00000000000E+00 -0.45593999997E+02  0.45594000000E+02  0.51100000000E-03 0.  1.
         23    2    1    2    0    0  0.00000000000E+00  0.00000000000E+00  0.00000000000E+00  0.91188000000E+02  0.91188000000E+02 0.  0.
    9900012    2    3    3    0    0  0.19716298915E+02  0.13573494050E+02  0.36202913846E+02  0.47787272418E+02  0.20000006264E+02 0.  0.
        -12    1    3    3    0    0 -0.19716298915E+02 -0.13573494050E+02 -0.36202913846E+02  0.43400727582E+02  0.00000000000E+00 0.  1.
         11    1    4    4    0    0  0.69581052338E+01  0.61763487496E+01  0.26429487642E+02  0.28019284959E+02  0.51100000000E-03 0. -1.
        -11    1    4    4    0    0 -0.75687305440E-01  0.38258835850E+01  0.27159877905E+01  0.46925157127E+01  0.51100000000E-03 0.  1.
        -12    1    4    4    0    0  0.12833880987E+02  0.35712617158E+01  0.70574384136E+01  0.15075471747E+02  0.00000000000E+00 0.  1.
</event>
<event>
 8    1  0.4042158E-011  0.9118800E+02  0.7816164E-02  0.1184000E+00
        -11   -1    0    0    0    0  0.00000000000E+00  0.00000000000E+00  0.45593999997E+02  0.45594000000E+02  0.51100000000E-03 0. -1.
         11   -1    0    0    0    0 -0.00000000000E+00 -0.00000000000E+00 -0.45593999997E+02  0.45594000000E+02  0.51100000000E-03 0.  1.
         23    2    1    2    0    0  0.00000000000E+00  0.00000000000E+00  0.00000000000E+00  0.91188000000E+02  0.91188000000E+02 0.  0.
    9900012    2    3    3    0    0 -0.28962933069E+02 -0.26212620580E+02 -0.18912173759E+02  0.47787270906E+02  0.19999999368E+02 0.  0.
         12    1    3    3    0    0  0.28962933069E+02  0.26212620580E+02  0.18912173759E+02  0.43400729094E+02  0.00000000000E+00 0. -1.
         11    1    4    4    0    0 -0.76935950117E+01 -0.45055642760E+01 -0.21795216577E+01  0.91783347382E+01  0.51100000000E-03 0. -1.
        -11    1    4    4    0    0 -0.16947962933E+02 -0.13076281409E+02 -0.26979052553E+01  0.21575478583E+02  0.51100000000E-03 0.  1.
        -12    1    4    4    0    0 -0.43213751245E+01 -0.86307748944E+01 -0.14034746846E+02  0.17033457585E+02  0.00000000000E+00 0.  1.
</event>
<event>
 8    1  0.4042158E-011  0.9118800E+02  0.7816164E-02  0.1184000E+00
        -11   -1    0    0    0    0  0.00000000000E+00  0.00000000000E+00  0.45593999997E+02  0.45594000000E+02  0.51100000000E-03 0. -1.
         11   -1    0    0    0    0 -0.00000000000E+00 -0.00000000000E+00 -0.45593999997E+02  0.45594000000E+02  0.51100000000E-03 0.  1.
         23    2    1    2    0    0  0.00000000000E+00  0.00000000000E+00  0.00000000000E+00  0.91188000000E+02  0.91188000000E+02 0.  0.
    9900012    2    3    3    0    0  0.23467708397E+02 -0.16788211277E+02 -0.32419837141E+02  0.47787271717E+02  0.20000003064E+02 0.  0.
         12    1    3    3    0    0 -0.23467708397E+02  0.16788211277E+02  0.32419837141E+02  0.43400728283E+02  0.00000000000E+00 0. -1.
         11    1    4    4    0    0  0.30862186280E+00 -0.39777809962E+01 -0.94348644839E+01  0.10243761868E+02  0.51100000000E-03 0. -1.
        -11    1    4    4    0    0  0.11437698995E+02 -0.68720694633E-01 -0.13869229421E+02  0.17977241329E+02  0.51100000000E-03 0.  1.
         12    1    4    4    0    0  0.11721387539E+02 -0.12741709586E+02 -0.91157432362E+01  0.19566268520E+02  0.00000000000E+00 0. -1.
</event>
<event>
 8    1  0.4042158E-011  0.9118800E+02  0.7816164E-02  0.1184000E+00
        -11   -1    0    0    0    0  0.00000000000E+00  0.00000000000E+00  0.45593999997E+02  0.45594000000E+02  0.51100000000E-03 0. -1.
         11   -1    0    0    0    0 -0.00000000000E+00 -0.00000000000E+00 -0.45593999997E+02  0.45594000000E+02  0.51100000000E-03 0.  1.
         23    2    1    2    0    0  0.22204460493E-15  0.16653345369E-15  0.00000000000E+00  0.91188000000E+02  0.91188000000E+02 0.  0.
    9900012    2    3    3    0    0 -0.97593834163E+00 -0.32368869943E+00  0.43388572514E+02  0.47787245919E+02  0.19999885443E+02 0.  0.
        -12    1    3    3    0    0  0.97593834163E+00  0.32368869943E+00 -0.43388572514E+02  0.43400754081E+02  0.00000000000E+00 0.  1.
         11    1    4    4    0    0  0.45402941153E+01 -0.26334694112E+01  0.77586976776E+01  0.93673273513E+01  0.51100000000E-03 0. -1.
        -11    1    4    4    0    0  0.24442466272E-01  0.15762659973E+01 -0.65500771107E+00  0.17071166601E+01  0.51100000000E-03 0.  1.
        -12    1    4    4    0    0 -0.55406749232E+01  0.73351471446E+00  0.36284882547E+02  0.36712801908E+02  0.00000000000E+00 0.  1.
</event>
<event>
 8    1  0.4042158E-011  0.9118800E+02  0.7816164E-02  0.1184000E+00
        -11   -1    0    0    0    0  0.00000000000E+00  0.00000000000E+00  0.45593999997E+02  0.45594000000E+02  0.51100000000E-03 0. -1.
         11   -1    0    0    0    0 -0.00000000000E+00 -0.00000000000E+00 -0.45593999997E+02  0.45594000000E+02  0.51100000000E-03 0.  1.
         23    2    1    2    0    0  0.22204460493E-15  0.35527136788E-14  0.00000000000E+00  0.91188000000E+02  0.91188000000E+02 0.  0.
    9900012    2    3    3    0    0 -0.14121661561E+01 -0.21005625430E+02 -0.37952504823E+02  0.47787272641E+02  0.20000007278E+02 0.  0.
         12    1    3    3    0    0  0.14121661561E+01  0.21005625430E+02  0.37952504823E+02  0.43400727359E+02  0.00000000000E+00 0. -1.
         11    1    4    4    0    0 -0.66649008520E+01 -0.20151609817E+02 -0.20493631009E+02  0.29504189428E+02  0.51100000000E-03 0. -1.
        -11    1    4    4    0    0  0.31312169746E+01 -0.22632700242E+00 -0.86995097412E+01  0.92486330694E+01  0.51100000000E-03 0.  1.
         12    1    4    4    0    0  0.21215177213E+01 -0.62768861028E+00 -0.87593640731E+01  0.90344501437E+01  0.00000000000E+00 0. -1.
</event>
<event>
 8    1  0.4042158E-011  0.9118800E+02  0.7816164E-02  0.1184000E+00
        -11   -1    0    0    0    0  0.00000000000E+00  0.00000000000E+00  0.45593999997E+02  0.45594000000E+02  0.51100000000E-03 0. -1.
         11   -1    0    0    0    0 -0.00000000000E+00 -0.00000000000E+00 -0.45593999997E+02  0.45594000000E+02  0.51100000000E-03 0.  1.
         23    2    1    2    0    0  0.00000000000E+00  0.00000000000E+00  0.71054273576E-14  0.91188000000E+02  0.91188000000E+02 0.  0.
    9900012    2    3    3    0    0 -0.29161015589E-01  0.22954961439E+02 -0.36833300183E+02  0.47787272963E+02  0.20000008746E+02 0.  0.
         12    1    3    3    0    0  0.29161015589E-01 -0.22954961439E+02  0.36833300183E+02  0.43400727037E+02  0.00000000000E+00 0. -1.
         11    1    4    4    0    0 -0.75198737154E+01  0.67471206881E+01 -0.11249384626E+02  0.15120211407E+02  0.51100000000E-03 0. -1.
        -11    1    4    4    0    0  0.16169480876E+01  0.19866005929E+00 -0.80312416945E+01  0.81948050834E+01  0.51100000000E-03 0.  1.
        -12    1    4    4    0    0  0.58737646122E+01  0.16009180691E+02 -0.17552673862E+02  0.24472256472E+02  0.00000000000E+00 0.  1.
</event>
<event>
 8    1  0.4042158E-011  0.9118800E+02  0.7816164E-02  0.1184000E+00
        -11   -1    0    0    0    0  0.00000000000E+00  0.00000000000E+00  0.45593999997E+02  0.45594000000E+02  0.51100000000E-03 0. -1.
         11   -1    0    0    0    0 -0.00000000000E+00 -0.00000000000E+00 -0.45593999997E+02  0.45594000000E+02  0.51100000000E-03 0.  1.
         23    2    1    2    0    0  0.88817841970E-15  0.00000000000E+00  0.00000000000E+00  0.91188000000E+02  0.91188000000E+02 0.  0.
    9900012    2    3    3    0    0 -0.38988314218E+01  0.15068861785E+02  0.40513600795E+02  0.47787270382E+02  0.19999996981E+02 0.  0.
        -12    1    3    3    0    0  0.38988314218E+01 -0.15068861785E+02 -0.40513600795E+02  0.43400729618E+02  0.00000000000E+00 0.  1.
         11    1    4    4    0    0  0.25807254381E+01  0.12438508839E+02  0.25202263784E+02  0.28222876289E+02  0.51100000000E-03 0. -1.
        -11    1    4    4    0    0  0.19742042123E+01 -0.11031268544E+01  0.87800330269E+00  0.24259557270E+01  0.51100000000E-03 0.  1.
         12    1    4    4    0    0 -0.84537610722E+01  0.37334798002E+01  0.14433333709E+02  0.17138438366E+02  0.00000000000E+00 0. -1.
</event>
<event>
 8    1  0.4042158E-011  0.9118800E+02  0.7816164E-02  0.1184000E+00
        -11   -1    0    0    0    0  0.00000000000E+00  0.00000000000E+00  0.45593999997E+02  0.45594000000E+02  0.51100000000E-03 0. -1.
         11   -1    0    0    0    0 -0.00000000000E+00 -0.00000000000E+00 -0.45593999997E+02  0.45594000000E+02  0.51100000000E-03 0.  1.
         23    2    1    2    0    0 -0.13322676296E-14  0.00000000000E+00  0.00000000000E+00  0.91188000000E+02  0.91188000000E+02 0.  0.
    9900012    2    3    3    0    0  0.35027124129E+01 -0.18808861715E+02 -0.38956147170E+02  0.47787266416E+02  0.19999978898E+02 0.  0.
         12    1    3    3    0    0 -0.35027124129E+01  0.18808861715E+02  0.38956147170E+02  0.43400733584E+02  0.00000000000E+00 0. -1.
         11    1    4    4    0    0 -0.69488949763E+01 -0.51785208759E+01 -0.18246181403E+02  0.20199687025E+02  0.51100000000E-03 0. -1.
        -11    1    4    4    0    0  0.21083177030E+01 -0.15786039912E+01 -0.59788979223E+00  0.27008270145E+01  0.51100000000E-03 0.  1.
        -12    1    4    4    0    0  0.83432896862E+01 -0.12051736847E+02 -0.20112075975E+02  0.24886752377E+02  0.00000000000E+00 0.  1.
</event>
<event>
 8    1  0.4042158E-011  0.9118800E+02  0.7816164E-02  0.1184000E+00
        -11   -1    0    0    0    0  0.00000000000E+00  0.00000000000E+00  0.45593999997E+02  0.45594000000E+02  0.51100000000E-03 0. -1.
         11   -1    0    0    0    0 -0.00000000000E+00 -0.00000000000E+00 -0.45593999997E+02  0.45594000000E+02  0.51100000000E-03 0.  1.
         23    2    1    2    0    0  0.00000000000E+00  0.17763568394E-14  0.00000000000E+00  0.91188000000E+02  0.91188000000E+02 0.  0.
    9900012    2    3    3    0    0  0.17598576385E+02  0.12616381586E+02 -0.37613034694E+02  0.47787270121E+02  0.19999995789E+02 0.  0.
         12    1    3    3    0    0 -0.17598576385E+02 -0.12616381586E+02  0.37613034694E+02  0.43400729879E+02  0.00000000000E+00 0. -1.
         11    1    4    4    0    0  0.13441507364E+01 -0.22609224947E+01  0.83671940523E+00  0.27601832102E+01  0.51100000000E-03 0.  1.
        -11    1    4    4    0    0  0.89530625723E+01  0.10311071736E+02 -0.16312273113E+02  0.21273593588E+02  0.51100000000E-03 0. -1.
        -12    1    4    4    0    0  0.73013630762E+01  0.45662323446E+01 -0.22137480987E+02  0.23753493323E+02  0.00000000000E+00 0.  1.
</event>
<event>
 8    1  0.4042158E-011  0.9118800E+02  0.7816164E-02  0.1184000E+00
        -11   -1    0    0    0    0  0.00000000000E+00  0.00000000000E+00  0.45593999997E+02  0.45594000000E+02  0.51100000000E-03 0. -1.
         11   -1    0    0    0    0 -0.00000000000E+00 -0.00000000000E+00 -0.45593999997E+02  0.45594000000E+02  0.51100000000E-03 0.  1.
         23    2    1    2    0    0 -0.17763568394E-14  0.00000000000E+00 -0.35527136788E-14  0.91188000000E+02  0.91188000000E+02 0.  0.
    9900012    2    3    3    0    0  0.13836798589E+02  0.32237499547E+02  0.25552085568E+02  0.47787280546E+02  0.20000043321E+02 0.  0.
        -12    1    3    3    0    0 -0.13836798589E+02 -0.32237499547E+02 -0.25552085568E+02  0.43400719454E+02  0.00000000000E+00 0.  1.
         11    1    4    4    0    0  0.31050002716E+01  0.64149287843E+01  0.74663276356E+01  0.10321743390E+02  0.51100000000E-03 0. -1.
        -11    1    4    4    0    0  0.13106760745E+02  0.25322909227E+02  0.19604015985E+02  0.34602808440E+02  0.51100000000E-03 0.  1.
         12    1    4    4    0    0 -0.23749624279E+01  0.49966153596E+00 -0.15182580525E+01  0.28627287155E+01  0.00000000000E+00 0. -1.
</event>
<event>
 8    1  0.4042158E-011  0.9118800E+02  0.7816164E-02  0.1184000E+00
        -11   -1    0    0    0    0  0.00000000000E+00  0.00000000000E+00  0.45593999997E+02  0.45594000000E+02  0.51100000000E-03 0. -1.
         11   -1    0    0    0    0 -0.00000000000E+00 -0.00000000000E+00 -0.45593999997E+02  0.45594000000E+02  0.51100000000E-03 0.  1.
         23    2    1    2    0    0  0.00000000000E+00 -0.35527136788E-14  0.00000000000E+00  0.91188000000E+02  0.91188000000E+02 0.  0.
    9900012    2    3    3    0    0  0.13690627622E+02 -0.19121854067E+02  0.36476630829E+02  0.47787272077E+02  0.20000004707E+02 0.  0.
        -12    1    3    3    0    0 -0.13690627622E+02  0.19121854067E+02 -0.36476630829E+02  0.43400727923E+02  0.00000000000E+00 0.  1.
         11    1    4    4    0    0  0.27552125732E+01 -0.49444735931E+01  0.17050048982E+02  0.17965054577E+02  0.51100000000E-03 0. -1.
        -11    1    4    4    0    0  0.10299895493E+02 -0.15144738678E+02  0.21002607147E+02  0.27866834481E+02  0.51100000000E-03 0.  1.
        -12    1    4    4    0    0  0.63551955631E+00  0.96735820369E+00 -0.15760252999E+01  0.19553830179E+01  0.00000000000E+00 0.  1.
</event>
<event>
 8    1  0.4042158E-011  0.9118800E+02  0.7816164E-02  0.1184000E+00
        -11   -1    0    0    0    0  0.00000000000E+00  0.00000000000E+00  0.45593999997E+02  0.45594000000E+02  0.51100000000E-03 0. -1.
         11   -1    0    0    0    0 -0.00000000000E+00 -0.00000000000E+00 -0.45593999997E+02  0.45594000000E+02  0.51100000000E-03 0.  1.
         23    2    1    2    0    0  0.00000000000E+00  0.35527136788E-14  0.00000000000E+00  0.91188000000E+02  0.91188000000E+02 0.  0.
    9900012    2    3    3    0    0 -0.22868997875E+02 -0.16307029996E+02  0.33086449314E+02  0.47787269369E+02  0.19999992359E+02 0.  0.
        -12    1    3    3    0    0  0.22868997875E+02  0.16307029996E+02 -0.33086449314E+02  0.43400730631E+02  0.00000000000E+00 0.  1.
         11    1    4    4    0    0  0.69563316211E+00  0.65989797756E+00 -0.37873386530E+00  0.10309269804E+01  0.51100000000E-03 0.  1.
        -11    1    4    4    0    0 -0.16385310218E+02 -0.47748608507E+01  0.11329120636E+02  0.20484790986E+02  0.51100000000E-03 0. -1.
         12    1    4    4    0    0 -0.71793208190E+01 -0.12192067123E+02  0.22136062543E+02  0.26271551402E+02  0.00000000000E+00 0. -1.
</event>
<event>
 8    1  0.4042158E-011  0.9118800E+02  0.7816164E-02  0.1184000E+00
        -11   -1    0    0    0    0  0.00000000000E+00  0.00000000000E+00  0.45593999997E+02  0.45594000000E+02  0.51100000000E-03 0. -1.
         11   -1    0    0    0    0 -0.00000000000E+00 -0.00000000000E+00 -0.45593999997E+02  0.45594000000E+02  0.51100000000E-03 0.  1.
         23    2    1    2    0    0  0.00000000000E+00  0.00000000000E+00  0.17763568394E-14  0.91188000000E+02  0.91188000000E+02 0.  0.
    9900012    2    3    3    0    0 -0.39534949234E+02 -0.15278996069E+02  0.93361217157E+01  0.47787273042E+02  0.20000009106E+02 0.  0.
        -12    1    3    3    0    0  0.39534949234E+02  0.15278996069E+02 -0.93361217157E+01  0.43400726958E+02  0.00000000000E+00 0.  1.
         11    1    4    4    0    0 -0.81828939227E+00  0.99872083412E+00 -0.24083933231E+00  0.13134095626E+01  0.51100000000E-03 0. -1.
        -11    1    4    4    0    0 -0.25638205831E+02 -0.13328162395E+02 -0.17131724667E+01  0.28946372332E+02  0.51100000000E-03 0.  1.
         12    1    4    4    0    0 -0.13078454011E+02 -0.29495545086E+01  0.11290133515E+02  0.17527491147E+02  0.00000000000E+00 0. -1.
</event>
<event>
 8    1  0.4042158E-011  0.9118800E+02  0.7816164E-02  0.1184000E+00
        -11   -1    0    0    0    0  0.00000000000E+00  0.00000000000E+00  0.45593999997E+02  0.45594000000E+02  0.51100000000E-03 0. -1.
         11   -1    0    0    0    0 -0.00000000000E+00 -0.00000000000E+00 -0.45593999997E+02  0.45594000000E+02  0.51100000000E-03 0.  1.
         23    2    1    2    0    0  0.00000000000E+00  0.35527136788E-14  0.00000000000E+00  0.91188000000E+02  0.91188000000E+02 0.  0.
    9900012    2    3    3    0    0  0.11463878065E+02  0.22134885113E+02  0.35528151683E+02  0.47787271881E+02  0.20000003815E+02 0.  0.
        -12    1    3    3    0    0 -0.11463878065E+02 -0.22134885113E+02 -0.35528151683E+02  0.43400728119E+02  0.00000000000E+00 0.  1.
         11    1    4    4    0    0  0.42993573998E+01  0.11049177773E+02  0.16624058873E+02  0.20418818213E+02  0.51100000000E-03 0. -1.
        -11    1    4    4    0    0  0.12238720839E+01  0.13024034870E+02  0.15393172367E+02  0.20200819363E+02  0.51100000000E-03 0.  1.
        -12    1    4    4    0    0  0.59406485810E+01 -0.19383275301E+01  0.35109204428E+01  0.71676343052E+01  0.00000000000E+00 0.  1.
</event>
<event>
 8    1  0.4042158E-011  0.9118800E+02  0.7816164E-02  0.1184000E+00
        -11   -1    0    0    0    0  0.00000000000E+00  0.00000000000E+00  0.45593999997E+02  0.45594000000E+02  0.51100000000E-03 0. -1.
         11   -1    0    0    0    0 -0.00000000000E+00 -0.00000000000E+00 -0.45593999997E+02  0.45594000000E+02  0.51100000000E-03 0.  1.
         23    2    1    2    0    0 -0.11102230246E-15  0.00000000000E+00  0.17763568394E-14  0.91188000000E+02  0.91188000000E+02 0.  0.
    9900012    2    3    3    0    0  0.45716977760E+00  0.41685215307E+02 -0.12073021571E+02  0.47787262342E+02  0.19999960321E+02 0.  0.
         12    1    3    3    0    0 -0.45716977760E+00 -0.41685215307E+02  0.12073021571E+02  0.43400737658E+02  0.00000000000E+00 0. -1.
         11    1    4    4    0    0  0.19523807894E+01  0.41830873709E+01  0.31161414054E+01  0.55695913870E+01  0.51100000000E-03 0. -1.
        -11    1    4    4    0    0  0.37330642132E+01  0.77555530582E+01 -0.47183354330E+00  0.86201507419E+01  0.51100000000E-03 0.  1.
         12    1    4    4    0    0 -0.52282752250E+01  0.29746574878E+02 -0.14717329433E+02  0.33597520213E+02  0.00000000000E+00 0. -1.
</event>
<event>
 8    1  0.4042158E-011  0.9118800E+02  0.7816164E-02  0.1184000E+00
        -11   -1    0    0    0    0  0.00000000000E+00  0.00000000000E+00  0.45593999997E+02  0.45594000000E+02  0.51100000000E-03 0. -1.
         11   -1    0    0    0    0 -0.00000000000E+00 -0.00000000000E+00 -0.45593999997E+02  0.45594000000E+02  0.51100000000E-03 0.  1.
         23    2    1    2    0    0  0.35527136788E-14 -0.17763568394E-14  0.00000000000E+00  0.91188000000E+02  0.91188000000E+02 0.  0.
    9900012    2    3    3    0    0  0.16543560702E+02 -0.10215677665E+02 -0.38801724809E+02  0.47787270525E+02  0.19999997631E+02 0.  0.
         12    1    3    3    0    0 -0.16543560702E+02  0.10215677665E+02  0.38801724809E+02  0.43400729475E+02  0.00000000000E+00 0. -1.
         11    1    4    4    0    0  0.10545109404E+01  0.20122263400E+01 -0.27484130637E+01  0.35657850182E+01  0.51100000000E-03 0. -1.
        -11    1    4    4    0    0  0.21035659515E+01 -0.10382383693E+02 -0.86817075116E+01  0.13696383699E+02  0.51100000000E-03 0.  1.
        -12    1    4    4    0    0  0.13385483810E+02 -0.18455203119E+01 -0.27371604234E+02  0.30525101808E+02  0.00000000000E+00 0.  1.
</event>
<event>
 8    1  0.4042158E-011  0.9118800E+02  0.7816164E-02  0.1184000E+00
        -11   -1    0    0    0    0  0.00000000000E+00  0.00000000000E+00  0.45593999997E+02  0.45594000000E+02  0.51100000000E-03 0. -1.
         11   -1    0    0    0    0 -0.00000000000E+00 -0.00000000000E+00 -0.45593999997E+02  0.45594000000E+02  0.51100000000E-03 0.  1.
         23    2    1    2    0    0 -0.88817841970E-15  0.00000000000E+00  0.71054273576E-14  0.91188000000E+02  0.91188000000E+02 0.  0.
    9900012    2    3    3    0    0  0.63351622220E+01 -0.19762378337E+02 -0.38117418594E+02  0.47787268690E+02  0.19999989267E+02 0.  0.
         12    1    3    3    0    0 -0.63351622220E+01  0.19762378337E+02  0.38117418594E+02  0.43400731310E+02  0.00000000000E+00 0. -1.
         11    1    4    4    0    0  0.63549416994E+01 -0.12984210765E+02 -0.21189674093E+02  0.25651068236E+02  0.51100000000E-03 0. -1.
        -11    1    4    4    0    0  0.59465715991E+01 -0.38499061123E+01 -0.11712075531E+02  0.13687812256E+02  0.51100000000E-03 0.  1.
         12    1    4    4    0    0 -0.59663510765E+01 -0.29282614594E+01 -0.52156689702E+01  0.84483881983E+01  0.00000000000E+00 0. -1.
</event>
<event>
 8    1  0.4042158E-011  0.9118800E+02  0.7816164E-02  0.1184000E+00
        -11   -1    0    0    0    0  0.00000000000E+00  0.00000000000E+00  0.45593999997E+02  0.45594000000E+02  0.51100000000E-03 0. -1.
         11   -1    0    0    0    0 -0.00000000000E+00 -0.00000000000E+00 -0.45593999997E+02  0.45594000000E+02  0.51100000000E-03 0.  1.
         23    2    1    2    0    0  0.00000000000E+00  0.00000000000E+00  0.00000000000E+00  0.91188000000E+02  0.91188000000E+02 0.  0.
    9900012    2    3    3    0    0  0.49173350649E+01  0.33665396137E+02 -0.26945947346E+02  0.47787272361E+02  0.20000006004E+02 0.  0.
         12    1    3    3    0    0 -0.49173350649E+01 -0.33665396137E+02  0.26945947346E+02  0.43400727639E+02  0.00000000000E+00 0. -1.
         11    1    4    4    0    0  0.28742438400E+01  0.11783839846E+02 -0.14920905944E+02  0.19228977966E+02  0.51100000000E-03 0. -1.
        -11    1    4    4    0    0  0.27198182306E+01  0.21309284343E+01 -0.75393599705E+01  0.82933838827E+01  0.51100000000E-03 0.  1.
         12    1    4    4    0    0 -0.67672700558E+00  0.19750627857E+02 -0.44856814313E+01  0.20264910513E+02  0.00000000000E+00 0. -1.
</event>
<event>
 8    1  0.4042158E-011  0.9118800E+02  0.7816164E-02  0.1184000E+00
        -11   -1    0    0    0    0  0.00000000000E+00  0.00000000000E+00  0.45593999997E+02  0.45594000000E+02  0.51100000000E-03 0. -1.
         11   -1    0    0    0    0 -0.00000000000E+00 -0.00000000000E+00 -0.45593999997E+02  0.45594000000E+02  0.51100000000E-03 0.  1.
         23    2    1    2    0    0  0.00000000000E+00  0.00000000000E+00  0.00000000000E+00  0.91188000000E+02  0.91188000000E+02 0.  0.
    9900012    2    3    3    0    0 -0.37799068718E+02 -0.18418431784E+02 -0.10752442099E+02  0.47787271475E+02  0.20000001965E+02 0.  0.
         12    1    3    3    0    0  0.37799068718E+02  0.18418431784E+02  0.10752442099E+02  0.43400728525E+02  0.00000000000E+00 0. -1.
         11    1    4    4    0    0  0.90568025599E+00 -0.12921494533E+01  0.25250066439E+01  0.29775099913E+01  0.51100000000E-03 0. -1.
        -11    1    4    4    0    0 -0.64225422216E+01 -0.22711789145E+01  0.16992293156E+00  0.68144094619E+01  0.51100000000E-03 0.  1.
        -12    1    4    4    0    0 -0.32282206753E+02 -0.14855103416E+02 -0.13447371674E+02  0.37995352022E+02  0.00000000000E+00 0.  1.
</event>
<event>
 8    1  0.4042158E-011  0.9118800E+02  0.7816164E-02  0.1184000E+00
        -11   -1    0    0    0    0  0.00000000000E+00  0.00000000000E+00  0.45593999997E+02  0.45594000000E+02  0.51100000000E-03 0. -1.
         11   -1    0    0    0    0 -0.00000000000E+00 -0.00000000000E+00 -0.45593999997E+02  0.45594000000E+02  0.51100000000E-03 0.  1.
         23    2    1    2    0    0  0.00000000000E+00  0.00000000000E+00 -0.35527136788E-14  0.91188000000E+02  0.91188000000E+02 0.  0.
    9900012    2    3    3    0    0 -0.19522426914E+02 -0.22858664620E+02  0.31304625051E+02  0.47787271315E+02  0.20000001233E+02 0.  0.
        -12    1    3    3    0    0  0.19522426914E+02  0.22858664620E+02 -0.31304625051E+02  0.43400728685E+02  0.00000000000E+00 0.  1.
         11    1    4    4    0    0 -0.11713291655E+01 -0.26102903823E+01 -0.14243923548E+01  0.31960165417E+01  0.51100000000E-03 0. -1.
        -11    1    4    4    0    0  0.65898197027E+00 -0.20456692973E+01 -0.49498631287E+00  0.22054550148E+01  0.51100000000E-03 0.  1.
         12    1    4    4    0    0 -0.19010079719E+02 -0.18202704940E+02  0.33224003719E+02  0.42385799758E+02  0.00000000000E+00 0. -1.
</event>
<event>
 8    1  0.4042158E-011  0.9118800E+02  0.7816164E-02  0.1184000E+00
        -11   -1    0    0    0    0  0.00000000000E+00  0.00000000000E+00  0.45593999997E+02  0.45594000000E+02  0.51100000000E-03 0. -1.
         11   -1    0    0    0    0 -0.00000000000E+00 -0.00000000000E+00 -0.45593999997E+02  0.45594000000E+02  0.51100000000E-03 0.  1.
         23    2    1    2    0    0  0.00000000000E+00  0.00000000000E+00  0.00000000000E+00  0.91188000000E+02  0.91188000000E+02 0.  0.
    9900012    2    3    3    0    0  0.24104761271E+02  0.10224977257E+02 -0.34612545718E+02  0.47787331837E+02  0.20000277178E+02 0.  0.
         12    1    3    3    0    0 -0.24104761271E+02 -0.10224977257E+02  0.34612545718E+02  0.43400668163E+02  0.00000000000E+00 0. -1.
         11    1    4    4    0    0  0.17271423658E+02  0.13963640468E+01 -0.22018593760E+02  0.28019107394E+02  0.51100000000E-03 0. -1.
        -11    1    4    4    0    0  0.87036440014E+01  0.66932356633E+01 -0.12868891594E+02  0.16916299645E+02  0.51100000000E-03 0.  1.
         12    1    4    4    0    0 -0.18703063879E+01  0.21353775469E+01  0.27493963633E+00  0.28519247984E+01  0.00000000000E+00 0. -1.
</event>
<event>
 8    1  0.4042158E-011  0.9118800E+02  0.7816164E-02  0.1184000E+00
        -11   -1    0    0    0    0  0.00000000000E+00  0.00000000000E+00  0.45593999997E+02  0.45594000000E+02  0.51100000000E-03 0. -1.
         11   -1    0    0    0    0 -0.00000000000E+00 -0.00000000000E+00 -0.45593999997E+02  0.45594000000E+02  0.51100000000E-03 0.  1.
         23    2    1    2    0    0  0.00000000000E+00  0.00000000000E+00  0.00000000000E+00  0.91188000000E+02  0.91188000000E+02 0.  0.
    9900012    2    3    3    0    0  0.17968858787E+02  0.19084751519E+02 -0.34590705999E+02  0.47787256134E+02  0.19999932016E+02 0.  0.
         12    1    3    3    0    0 -0.17968858787E+02 -0.19084751519E+02  0.34590705999E+02  0.43400743866E+02  0.00000000000E+00 0. -1.
         11    1    4    4    0    0  0.80654944986E+01  0.63307914705E+01 -0.32219029985E+01  0.10747640734E+02  0.51100000000E-03 0. -1.
        -11    1    4    4    0    0  0.10212306668E+01 -0.20572574291E+01 -0.24646234823E+01  0.33689151629E+01  0.51100000000E-03 0.  1.
        -12    1    4    4    0    0  0.88821336219E+01  0.14811217478E+02 -0.28904179518E+02  0.33670700237E+02  0.00000000000E+00 0.  1.
</event>
<event>
 8    1  0.4042158E-011  0.9118800E+02  0.7816164E-02  0.1184000E+00
        -11   -1    0    0    0    0  0.00000000000E+00  0.00000000000E+00  0.45593999997E+02  0.45594000000E+02  0.51100000000E-03 0. -1.
         11   -1    0    0    0    0 -0.00000000000E+00 -0.00000000000E+00 -0.45593999997E+02  0.45594000000E+02  0.51100000000E-03 0.  1.
         23    2    1    2    0    0  0.00000000000E+00 -0.71054273576E-14  0.00000000000E+00  0.91188000000E+02  0.91188000000E+02 0.  0.
    9900012    2    3    3    0    0 -0.13944448223E+02 -0.39252446354E+02 -0.12182811539E+02  0.47787273301E+02  0.20000010289E+02 0.  0.
         12    1    3    3    0    0  0.13944448223E+02  0.39252446354E+02  0.12182811539E+02  0.43400726699E+02  0.00000000000E+00 0. -1.
         11    1    4    4    0    0 -0.37171199083E+01 -0.18427630700E+02 -0.66690092502E+01  0.19946684894E+02  0.51100000000E-03 0. -1.
        -11    1    4    4    0    0 -0.10738581105E+01 -0.11317535153E+02 -0.86386591448E+01  0.14278172336E+02  0.51100000000E-03 0.  1.
         12    1    4    4    0    0 -0.91534702042E+01 -0.95072805009E+01  0.31248568561E+01  0.13562416071E+02  0.00000000000E+00 0. -1.
</event>
<event>
 8    1  0.4042158E-011  0.9118800E+02  0.7816164E-02  0.1184000E+00
        -11   -1    0    0    0    0  0.00000000000E+00  0.00000000000E+00  0.45593999997E+02  0.45594000000E+02  0.51100000000E-03 0. -1.
         11   -1    0    0    0    0 -0.00000000000E+00 -0.00000000000E+00 -0.45593999997E+02  0.45594000000E+02  0.51100000000E-03 0.  1.
         23    2    1    2    0    0  0.00000000000E+00  0.00000000000E+00  0.00000000000E+00  0.91188000000E+02  0.91188000000E+02 0.  0.
    9900012    2    3    3    0    0  0.25350298392E+02  0.32381465787E+02 -0.13871809391E+02  0.47787262093E+02  0.19999959187E+02 0.  0.
         12    1    3    3    0    0 -0.25350298392E+02 -0.32381465787E+02  0.13871809391E+02  0.43400737907E+02  0.00000000000E+00 0. -1.
         11    1    4    4    0    0  0.21363958261E+02  0.20642151963E+02 -0.31234867964E+01  0.29870944415E+02  0.51100000000E-03 0. -1.
        -11    1    4    4    0    0  0.42599886915E+01  0.24413919003E+01 -0.48527786324E+01  0.69034309426E+01  0.51100000000E-03 0.  1.
        -12    1    4    4    0    0 -0.27364856028E+00  0.92979219235E+01 -0.58955439623E+01  0.11012886735E+02  0.00000000000E+00 0.  1.
</event>
<event>
 8    1  0.4042158E-011  0.9118800E+02  0.7816164E-02  0.1184000E+00
        -11   -1    0    0    0    0  0.00000000000E+00  0.00000000000E+00  0.45593999997E+02  0.45594000000E+02  0.51100000000E-03 0. -1.
         11   -1    0    0    0    0 -0.00000000000E+00 -0.00000000000E+00 -0.45593999997E+02  0.45594000000E+02  0.51100000000E-03 0.  1.
         23    2    1    2    0    0  0.00000000000E+00  0.35527136788E-14  0.00000000000E+00  0.91188000000E+02  0.91188000000E+02 0.  0.
    9900012    2    3    3    0    0  0.78559647221E+01 -0.26902850985E+02  0.33138250691E+02  0.47787271531E+02  0.20000002218E+02 0.  0.
        -12    1    3    3    0    0 -0.78559647221E+01  0.26902850985E+02 -0.33138250691E+02  0.43400728469E+02  0.00000000000E+00 0.  1.
         11    1    4    4    0    0  0.16872750960E+01  0.27431500505E+01  0.87114193935E+00  0.33362640766E+01  0.51100000000E-03 0. -1.
        -11    1    4    4    0    0  0.29917034696E+01 -0.61951194541E+01  0.64819803233E+01  0.94522941063E+01  0.51100000000E-03 0.  1.
         12    1    4    4    0    0  0.31769861565E+01 -0.23450881581E+02  0.25785128428E+02  0.34998713348E+02  0.00000000000E+00 0. -1.
</event>
<event>
 8    1  0.4042158E-011  0.9118800E+02  0.7816164E-02  0.1184000E+00
        -11   -1    0    0    0    0  0.00000000000E+00  0.00000000000E+00  0.45593999997E+02  0.45594000000E+02  0.51100000000E-03 0. -1.
         11   -1    0    0    0    0 -0.00000000000E+00 -0.00000000000E+00 -0.45593999997E+02  0.45594000000E+02  0.51100000000E-03 0.  1.
         23    2    1    2    0    0  0.22204460493E-15  0.00000000000E+00  0.00000000000E+00  0.91188000000E+02  0.91188000000E+02 0.  0.
    9900012    2    3    3    0    0  0.14450329682E+01  0.17302820453E+02 -0.39776217546E+02  0.47787271916E+02  0.20000003976E+02 0.  0.
         12    1    3    3    0    0 -0.14450329682E+01 -0.17302820453E+02  0.39776217546E+02  0.43400728084E+02  0.00000000000E+00 0. -1.
         11    1    4    4    0    0  0.41776118007E+00  0.31002313110E+01 -0.12998933695E+02  0.13370049965E+02  0.51100000000E-03 0. -1.
        -11    1    4    4    0    0  0.45768456718E+01  0.88497668794E+01 -0.26126250825E+02  0.27961524861E+02  0.51100000000E-03 0.  1.
         12    1    4    4    0    0 -0.35495738836E+01  0.53528222622E+01 -0.65103302603E+00  0.64556970907E+01  0.00000000000E+00 0. -1.
</event>
<event>
 8    1  0.4042158E-011  0.9118800E+02  0.7816164E-02  0.1184000E+00
        -11   -1    0    0    0    0  0.00000000000E+00  0.00000000000E+00  0.45593999997E+02  0.45594000000E+02  0.51100000000E-03 0. -1.
         11   -1    0    0    0    0 -0.00000000000E+00 -0.00000000000E+00 -0.45593999997E+02  0.45594000000E+02  0.51100000000E-03 0.  1.
         23    2    1    2    0    0  0.00000000000E+00  0.00000000000E+00  0.71054273576E-14  0.91188000000E+02  0.91188000000E+02 0.  0.
    9900012    2    3    3    0    0 -0.81925779072E+01  0.18969493036E+02 -0.38166263600E+02  0.47787266412E+02  0.19999978879E+02 0.  0.
         12    1    3    3    0    0  0.81925779072E+01 -0.18969493036E+02  0.38166263600E+02  0.43400733588E+02  0.00000000000E+00 0. -1.
         11    1    4    4    0    0  0.19674286758E+01  0.21329869967E+01 -0.45390900759E+01  0.53873693117E+01  0.51100000000E-03 0. -1.
        -11    1    4    4    0    0 -0.11651463551E+02  0.13392236080E+02 -0.34267486518E+02  0.38592346684E+02  0.51100000000E-03 0.  1.
         12    1    4    4    0    0  0.14914569683E+01  0.34442699594E+01  0.64031299382E+00  0.38075504161E+01  0.00000000000E+00 0. -1.
</event>
<event>
 8    1  0.4042158E-011  0.9118800E+02  0.7816164E-02  0.1184000E+00
        -11   -1    0    0    0    0  0.00000000000E+00  0.00000000000E+00  0.45593999997E+02  0.45594000000E+02  0.51100000000E-03 0. -1.
         11   -1    0    0    0    0 -0.00000000000E+00 -0.00000000000E+00 -0.45593999997E+02  0.45594000000E+02  0.51100000000E-03 0.  1.
         23    2    1    2    0    0 -0.17763568394E-14  0.35527136788E-14  0.00000000000E+00  0.91188000000E+02  0.91188000000E+02 0.  0.
    9900012    2    3    3    0    0 -0.87031124696E+01 -0.20906805332E+02 -0.37024098604E+02  0.47787279346E+02  0.20000037849E+02 0.  0.
         12    1    3    3    0    0  0.87031124696E+01  0.20906805332E+02  0.37024098604E+02  0.43400720654E+02  0.00000000000E+00 0. -1.
         11    1    4    4    0    0 -0.10747858316E+02 -0.21819058012E+02 -0.26914645244E+02  0.36276519676E+02  0.51100000000E-03 0. -1.
        -11    1    4    4    0    0  0.10361610332E+01 -0.20309699475E+01 -0.31602616332E+01  0.38968862527E+01  0.51100000000E-03 0.  1.
         12    1    4    4    0    0  0.10085848128E+01  0.29432226274E+01 -0.69491917264E+01  0.76138734170E+01  0.00000000000E+00 0. -1.
</event>
<event>
 8    1  0.4042158E-011  0.9118800E+02  0.7816164E-02  0.1184000E+00
        -11   -1    0    0    0    0  0.00000000000E+00  0.00000000000E+00  0.45593999997E+02  0.45594000000E+02  0.51100000000E-03 0. -1.
         11   -1    0    0    0    0 -0.00000000000E+00 -0.00000000000E+00 -0.45593999997E+02  0.45594000000E+02  0.51100000000E-03 0.  1.
         23    2    1    2    0    0 -0.17763568394E-14  0.00000000000E+00  0.00000000000E+00  0.91188000000E+02  0.91188000000E+02 0.  0.
    9900012    2    3    3    0    0  0.14737267594E+02 -0.30351603363E+02 -0.27298658389E+02  0.47787266911E+02  0.19999981154E+02 0.  0.
         12    1    3    3    0    0 -0.14737267594E+02  0.30351603363E+02  0.27298658389E+02  0.43400733089E+02  0.00000000000E+00 0. -1.
         11    1    4    4    0    0 -0.37595129231E-01 -0.55491608855E+01 -0.10314863126E+02  0.11712856248E+02  0.51100000000E-03 0. -1.
        -11    1    4    4    0    0 -0.20648253972E+01 -0.54241869816E+01 -0.53315266367E+01  0.78810205476E+01  0.51100000000E-03 0.  1.
        -12    1    4    4    0    0  0.16839688121E+02 -0.19378255495E+02 -0.11652268626E+02  0.28193390115E+02  0.00000000000E+00 0.  1.
</event>
<event>
 8    1  0.4042158E-011  0.9118800E+02  0.7816164E-02  0.1184000E+00
        -11   -1    0    0    0    0  0.00000000000E+00  0.00000000000E+00  0.45593999997E+02  0.45594000000E+02  0.51100000000E-03 0. -1.
         11   -1    0    0    0    0 -0.00000000000E+00 -0.00000000000E+00 -0.45593999997E+02  0.45594000000E+02  0.51100000000E-03 0.  1.
         23    2    1    2    0    0  0.88817841970E-15  0.00000000000E+00  0.00000000000E+00  0.91188000000E+02  0.91188000000E+02 0.  0.
    9900012    2    3    3    0    0 -0.23498109432E+01 -0.23379836662E+02  0.36489522050E+02  0.47787267365E+02  0.19999983224E+02 0.  0.
        -12    1    3    3    0    0  0.23498109432E+01  0.23379836662E+02 -0.36489522050E+02  0.43400732635E+02  0.00000000000E+00 0.  1.
         11    1    4    4    0    0 -0.54543149317E+01 -0.12025731330E+02  0.28515655422E+02  0.31424677720E+02  0.51100000000E-03 0. -1.
        -11    1    4    4    0    0  0.14729652869E+01  0.26508490057E+00  0.34979423997E+01  0.38046679269E+01  0.51100000000E-03 0.  1.
        -12    1    4    4    0    0  0.16315387016E+01 -0.11619190232E+02  0.44759242287E+01  0.12557921718E+02  0.00000000000E+00 0.  1.
</event>
<event>
 8    1  0.4042158E-011  0.9118800E+02  0.7816164E-02  0.1184000E+00
        -11   -1    0    0    0    0  0.00000000000E+00  0.00000000000E+00  0.45593999997E+02  0.45594000000E+02  0.51100000000E-03 0. -1.
         11   -1    0    0    0    0 -0.00000000000E+00 -0.00000000000E+00 -0.45593999997E+02  0.45594000000E+02  0.51100000000E-03 0.  1.
         23    2    1    2    0    0  0.00000000000E+00 -0.17763568394E-14  0.00000000000E+00  0.91188000000E+02  0.91188000000E+02 0.  0.
    9900012    2    3    3    0    0 -0.18070720368E+02 -0.13073455328E+02  0.37231137695E+02  0.47787265180E+02  0.19999973263E+02 0.  0.
        -12    1    3    3    0    0  0.18070720368E+02  0.13073455328E+02 -0.37231137695E+02  0.43400734820E+02  0.00000000000E+00 0.  1.
         11    1    4    4    0    0 -0.55360794842E+01 -0.82368561599E+01  0.12000242255E+02  0.15572404756E+02  0.51100000000E-03 0. -1.
        -11    1    4    4    0    0 -0.45735536008E+01 -0.33307122691E+01  0.23175265312E+02  0.23855899885E+02  0.51100000000E-03 0.  1.
        -12    1    4    4    0    0 -0.79610872825E+01 -0.15058868985E+01  0.20556301282E+01  0.83589605392E+01  0.00000000000E+00 0.  1.
</event>
<event>
 8    1  0.4579758E-011  0.9118800E+02  0.7816164E-02  0.1184000E+00
        -11   -1    0    0    0    0  0.00000000000E+00  0.00000000000E+00  0.45593999997E+02  0.45594000000E+02  0.51100000000E-03 0. -1.
         11   -1    0    0    0    0 -0.00000000000E+00 -0.00000000000E+00 -0.45593999997E+02  0.45594000000E+02  0.51100000000E-03 0.  1.
         23    2    1    2    0    0 -0.17763568394E-14  0.00000000000E+00  0.00000000000E+00  0.91188000000E+02  0.91188000000E+02 0.  0.
    9900012    2    3    3    0    0 -0.14814705852E+02  0.56111917460E+01  0.40406217173E+02  0.47787269954E+02  0.19999995030E+02 0.  0.
        -12    1    3    3    0    0  0.14814705852E+02 -0.56111917460E+01 -0.40406217173E+02  0.43400730046E+02  0.00000000000E+00 0.  1.
         11    1    4    4    0    0 -0.97096485697E+01  0.38338921558E+01  0.11372053782E+02  0.15436956044E+02  0.51100000000E-03 0. -1.
        -11    1    4    4    0    0 -0.73406646145E+01 -0.37947705541E+01  0.16752330509E+02  0.18679566865E+02  0.51100000000E-03 0.  1.
        -12    1    4    4    0    0  0.22356073324E+01  0.55720701442E+01  0.12281832882E+02  0.13670747046E+02  0.00000000000E+00 0.  1.
</event>
<event>
 8    1  0.4042158E-011  0.9118800E+02  0.7816164E-02  0.1184000E+00
        -11   -1    0    0    0    0  0.00000000000E+00  0.00000000000E+00  0.45593999997E+02  0.45594000000E+02  0.51100000000E-03 0. -1.
         11   -1    0    0    0    0 -0.00000000000E+00 -0.00000000000E+00 -0.45593999997E+02  0.45594000000E+02  0.51100000000E-03 0.  1.
         23    2    1    2    0    0  0.00000000000E+00 -0.35527136788E-14 -0.35527136788E-14  0.91188000000E+02  0.91188000000E+02 0.  0.
    9900012    2    3    3    0    0 -0.16440787958E+02 -0.29215480854E+02 -0.27564103710E+02  0.47787266786E+02  0.19999980583E+02 0.  0.
         12    1    3    3    0    0  0.16440787958E+02  0.29215480854E+02  0.27564103710E+02  0.43400733214E+02  0.00000000000E+00 0. -1.
         11    1    4    4    0    0 -0.64294911701E+01 -0.44646790249E+01 -0.38580738431E+00  0.78371272225E+01  0.51100000000E-03 0. -1.
        -11    1    4    4    0    0 -0.97580833492E+01 -0.12526177463E+02 -0.96577828051E+01  0.18584888524E+02  0.51100000000E-03 0.  1.
        -12    1    4    4    0    0 -0.25321343822E+00 -0.12224624366E+02 -0.17520513521E+02  0.21365251039E+02  0.00000000000E+00 0.  1.
</event>
<event>
 8    1  0.4042158E-011  0.9118800E+02  0.7816164E-02  0.1184000E+00
        -11   -1    0    0    0    0  0.00000000000E+00  0.00000000000E+00  0.45593999997E+02  0.45594000000E+02  0.51100000000E-03 0. -1.
         11   -1    0    0    0    0 -0.00000000000E+00 -0.00000000000E+00 -0.45593999997E+02  0.45594000000E+02  0.51100000000E-03 0.  1.
         23    2    1    2    0    0  0.00000000000E+00  0.22204460493E-15  0.00000000000E+00  0.91188000000E+02  0.91188000000E+02 0.  0.
    9900012    2    3    3    0    0 -0.34878861417E+02 -0.18905205550E+01 -0.25758768325E+02  0.47787272042E+02  0.20000004547E+02 0.  0.
         12    1    3    3    0    0  0.34878861417E+02  0.18905205550E+01  0.25758768325E+02  0.43400727958E+02  0.00000000000E+00 0. -1.
         11    1    4    4    0    0 -0.52462469741E+01  0.81956939734E+00  0.21237843407E+01  0.57188514142E+01  0.51100000000E-03 0. -1.
        -11    1    4    4    0    0 -0.19452019779E+01  0.22687788447E+01 -0.98350219200E+00  0.31461794297E+01  0.51100000000E-03 0.  1.
        -12    1    4    4    0    0 -0.27687412465E+02 -0.49788687970E+01 -0.26899050473E+02  0.38922241198E+02  0.00000000000E+00 0.  1.
</event>
<event>
 8    1  0.4042158E-011  0.9118800E+02  0.7816164E-02  0.1184000E+00
        -11   -1    0    0    0    0  0.00000000000E+00  0.00000000000E+00  0.45593999997E+02  0.45594000000E+02  0.51100000000E-03 0.  1.
         11   -1    0    0    0    0 -0.00000000000E+00 -0.00000000000E+00 -0.45593999997E+02  0.45594000000E+02  0.51100000000E-03 0. -1.
         23    2    1    2    0    0  0.71054273576E-14  0.00000000000E+00  0.00000000000E+00  0.91188000000E+02  0.91188000000E+02 0.  0.
    9900012    2    3    3    0    0  0.40423859193E+02 -0.14205980374E+02  0.69083058555E+01  0.47787274657E+02  0.20000016473E+02 0.  0.
        -12    1    3    3    0    0 -0.40423859193E+02  0.14205980374E+02 -0.69083058555E+01  0.43400725343E+02  0.00000000000E+00 0.  1.
         11    1    4    4    0    0  0.11940685292E+02 -0.24758419461E+01 -0.41092722700E+01  0.12868406173E+02  0.51100000000E-03 0. -1.
        -11    1    4    4    0    0  0.11498876134E+02  0.91697566060E+00  0.12629539083E+01  0.11604311679E+02  0.51100000000E-03 0.  1.
        -12    1    4    4    0    0  0.16984297768E+02 -0.12647114089E+02  0.97546242172E+01  0.23314556806E+02  0.00000000000E+00 0.  1.
</event>
<event>
 8    1  0.4042158E-011  0.9118800E+02  0.7816164E-02  0.1184000E+00
        -11   -1    0    0    0    0  0.00000000000E+00  0.00000000000E+00  0.45593999997E+02  0.45594000000E+02  0.51100000000E-03 0. -1.
         11   -1    0    0    0    0 -0.00000000000E+00 -0.00000000000E+00 -0.45593999997E+02  0.45594000000E+02  0.51100000000E-03 0.  1.
         23    2    1    2    0    0  0.00000000000E+00  0.00000000000E+00  0.00000000000E+00  0.91188000000E+02  0.91188000000E+02 0.  0.
    9900012    2    3    3    0    0 -0.16870714873E+02 -0.22088275744E+02 -0.33333290555E+02  0.47787294880E+02  0.20000108674E+02 0.  0.
         12    1    3    3    0    0  0.16870714873E+02  0.22088275744E+02  0.33333290555E+02  0.43400705120E+02  0.00000000000E+00 0. -1.
         11    1    4    4    0    0 -0.24697971718E+01  0.14258534943E+01 -0.19615312635E+01  0.34612947600E+01  0.51100000000E-03 0. -1.
        -11    1    4    4    0    0 -0.11676092928E+02 -0.65857536650E+01 -0.18685555925E+02  0.22996810602E+02  0.51100000000E-03 0.  1.
        -12    1    4    4    0    0 -0.27248247740E+01 -0.16928375573E+02 -0.12686203367E+02  0.21329189518E+02  0.00000000000E+00 0.  1.
</event>
<event>
 8    1  0.4042158E-011  0.9118800E+02  0.7816164E-02  0.1184000E+00
        -11   -1    0    0    0    0  0.00000000000E+00  0.00000000000E+00  0.45593999997E+02  0.45594000000E+02  0.51100000000E-03 0. -1.
         11   -1    0    0    0    0 -0.00000000000E+00 -0.00000000000E+00 -0.45593999997E+02  0.45594000000E+02  0.51100000000E-03 0.  1.
         23    2    1    2    0    0 -0.35527136788E-14  0.00000000000E+00  0.71054273576E-14  0.91188000000E+02  0.91188000000E+02 0.  0.
    9900012    2    3    3    0    0  0.29811029996E+02  0.15160917503E+02 -0.27659936009E+02  0.47787274327E+02  0.20000014966E+02 0.  0.
         12    1    3    3    0    0 -0.29811029996E+02 -0.15160917503E+02  0.27659936009E+02  0.43400725673E+02  0.00000000000E+00 0. -1.
         11    1    4    4    0    0  0.10861133372E+02  0.38397532558E+01 -0.62162569289E+01  0.13090063929E+02  0.51100000000E-03 0. -1.
        -11    1    4    4    0    0  0.19298080466E+02  0.92146854664E+01 -0.23471411578E+02  0.31752692794E+02  0.51100000000E-03 0.  1.
         12    1    4    4    0    0 -0.34818384220E+00  0.21064787806E+01  0.20277324981E+01  0.29445176048E+01  0.00000000000E+00 0. -1.
</event>
<event>
 8    1  0.4042158E-011  0.9118800E+02  0.7816164E-02  0.1184000E+00
        -11   -1    0    0    0    0  0.00000000000E+00  0.00000000000E+00  0.45593999997E+02  0.45594000000E+02  0.51100000000E-03 0. -1.
         11   -1    0    0    0    0 -0.00000000000E+00 -0.00000000000E+00 -0.45593999997E+02  0.45594000000E+02  0.51100000000E-03 0.  1.
         23    2    1    2    0    0  0.00000000000E+00  0.00000000000E+00  0.00000000000E+00  0.91188000000E+02  0.91188000000E+02 0.  0.
    9900012    2    3    3    0    0 -0.61429885566E+01  0.18763444313E+02 -0.38649968820E+02  0.47787271427E+02  0.20000001742E+02 0.  0.
         12    1    3    3    0    0  0.61429885566E+01 -0.18763444313E+02  0.38649968820E+02  0.43400728573E+02  0.00000000000E+00 0. -1.
         11    1    4    4    0    0 -0.32418250463E+01 -0.13440763213E+01 -0.64278893851E+01  0.73235055128E+01  0.51100000000E-03 0. -1.
        -11    1    4    4    0    0  0.51039329952E+01  0.65223109360E+01 -0.14844142124E+02  0.16998212483E+02  0.51100000000E-03 0.  1.
         12    1    4    4    0    0 -0.80050965055E+01  0.13585209698E+02 -0.17377937311E+02  0.23465553430E+02  0.00000000000E+00 0. -1.
</event>
<event>
 8    1  0.4042158E-011  0.9118800E+02  0.7816164E-02  0.1184000E+00
        -11   -1    0    0    0    0  0.00000000000E+00  0.00000000000E+00  0.45593999997E+02  0.45594000000E+02  0.51100000000E-03 0. -1.
         11   -1    0    0    0    0 -0.00000000000E+00 -0.00000000000E+00 -0.45593999997E+02  0.45594000000E+02  0.51100000000E-03 0.  1.
         23    2    1    2    0    0  0.00000000000E+00 -0.88817841970E-15  0.00000000000E+00  0.91188000000E+02  0.91188000000E+02 0.  0.
    9900012    2    3    3    0    0 -0.34319676452E+02 -0.50691361829E+01  0.26078479826E+02  0.47787269091E+02  0.19999991093E+02 0.  0.
        -12    1    3    3    0    0  0.34319676452E+02  0.50691361829E+01 -0.26078479826E+02  0.43400730909E+02  0.00000000000E+00 0.  1.
         11    1    4    4    0    0 -0.11034319608E+02 -0.58521752435E+01  0.71403454956E+01  0.14387101805E+02  0.51100000000E-03 0. -1.
        -11    1    4    4    0    0 -0.16607647655E+01 -0.47311535503E+01  0.20646693624E+01  0.54226205251E+01  0.51100000000E-03 0.  1.
         12    1    4    4    0    0 -0.21624592078E+02  0.55141926109E+01  0.16873464968E+02  0.27977546760E+02  0.00000000000E+00 0. -1.
</event>
<event>
 8    1  0.4042158E-011  0.9118800E+02  0.7816164E-02  0.1184000E+00
        -11   -1    0    0    0    0  0.00000000000E+00  0.00000000000E+00  0.45593999997E+02  0.45594000000E+02  0.51100000000E-03 0. -1.
         11   -1    0    0    0    0 -0.00000000000E+00 -0.00000000000E+00 -0.45593999997E+02  0.45594000000E+02  0.51100000000E-03 0.  1.
         23    2    1    2    0    0  0.00000000000E+00  0.17763568394E-14  0.00000000000E+00  0.91188000000E+02  0.91188000000E+02 0.  0.
    9900012    2    3    3    0    0 -0.35549804658E+02 -0.11760237855E+02  0.21943820647E+02  0.47787273391E+02  0.20000010697E+02 0.  0.
        -12    1    3    3    0    0  0.35549804658E+02  0.11760237855E+02 -0.21943820647E+02  0.43400726609E+02  0.00000000000E+00 0.  1.
         11    1    4    4    0    0 -0.12863919572E+01 -0.31975731380E+01  0.52715805652E+01  0.62983204235E+01  0.51100000000E-03 0. -1.
        -11    1    4    4    0    0 -0.80285957135E+01 -0.27697680426E+01 -0.20567180956E+01  0.87384239841E+01  0.51100000000E-03 0.  1.
        -12    1    4    4    0    0 -0.26234816987E+02 -0.57928966741E+01  0.18728958178E+02  0.32750528983E+02  0.00000000000E+00 0.  1.
</event>
<event>
 8    1  0.4042158E-011  0.9118800E+02  0.7816164E-02  0.1184000E+00
        -11   -1    0    0    0    0  0.00000000000E+00  0.00000000000E+00  0.45593999997E+02  0.45594000000E+02  0.51100000000E-03 0. -1.
         11   -1    0    0    0    0 -0.00000000000E+00 -0.00000000000E+00 -0.45593999997E+02  0.45594000000E+02  0.51100000000E-03 0.  1.
         23    2    1    2    0    0  0.17763568394E-14  0.00000000000E+00  0.00000000000E+00  0.91188000000E+02  0.91188000000E+02 0.  0.
    9900012    2    3    3    0    0 -0.15615139376E+02  0.21626779115E+02  0.34235579845E+02  0.47787250237E+02  0.19999905131E+02 0.  0.
        -12    1    3    3    0    0  0.15615139376E+02 -0.21626779115E+02 -0.34235579845E+02  0.43400749763E+02  0.00000000000E+00 0.  1.
         11    1    4    4    0    0 -0.95935125173E+01  0.15600654226E+02  0.21254493828E+02  0.28056539396E+02  0.51100000000E-03 0.  1.
        -11    1    4    4    0    0  0.12885233359E+01  0.54252776449E+01  0.10672063006E+02  0.12041048915E+02  0.51100000000E-03 0. -1.
        -12    1    4    4    0    0 -0.73101501945E+01  0.60084724407E+00  0.23090230113E+01  0.76896619265E+01  0.00000000000E+00 0.  1.
</event>
<event>
 8    1  0.4042158E-011  0.9118800E+02  0.7816164E-02  0.1184000E+00
        -11   -1    0    0    0    0  0.00000000000E+00  0.00000000000E+00  0.45593999997E+02  0.45594000000E+02  0.51100000000E-03 0. -1.
         11   -1    0    0    0    0 -0.00000000000E+00 -0.00000000000E+00 -0.45593999997E+02  0.45594000000E+02  0.51100000000E-03 0.  1.
         23    2    1    2    0    0 -0.35527136788E-14  0.00000000000E+00  0.00000000000E+00  0.91188000000E+02  0.91188000000E+02 0.  0.
    9900012    2    3    3    0    0  0.15508204175E+02 -0.13395533739E+02  0.38258055612E+02  0.47787267977E+02  0.19999986016E+02 0.  0.
        -12    1    3    3    0    0 -0.15508204175E+02  0.13395533739E+02 -0.38258055612E+02  0.43400732023E+02  0.00000000000E+00 0.  1.
         11    1    4    4    0    0  0.50229924900E+00 -0.51422012680E+01  0.90777031622E+01  0.10445057845E+02  0.51100000000E-03 0. -1.
        -11    1    4    4    0    0  0.14481292602E+01 -0.31230772604E+00  0.17993596276E+02  0.18054476500E+02  0.51100000000E-03 0.  1.
        -12    1    4    4    0    0  0.13557775666E+02 -0.79410247445E+01  0.11186756174E+02  0.19287733633E+02  0.00000000000E+00 0.  1.
</event>
<event>
 8    1  0.4042158E-011  0.9118800E+02  0.7816164E-02  0.1184000E+00
        -11   -1    0    0    0    0  0.00000000000E+00  0.00000000000E+00  0.45593999997E+02  0.45594000000E+02  0.51100000000E-03 0. -1.
         11   -1    0    0    0    0 -0.00000000000E+00 -0.00000000000E+00 -0.45593999997E+02  0.45594000000E+02  0.51100000000E-03 0.  1.
         23    2    1    2    0    0  0.35527136788E-14 -0.35527136788E-14 -0.35527136788E-14  0.91188000000E+02  0.91188000000E+02 0.  0.
    9900012    2    3    3    0    0  0.17647056922E+02 -0.23547356931E+02 -0.31901827813E+02  0.47787271271E+02  0.20000001031E+02 0.  0.
         12    1    3    3    0    0 -0.17647056922E+02  0.23547356931E+02  0.31901827813E+02  0.43400728729E+02  0.00000000000E+00 0. -1.
         11    1    4    4    0    0  0.98476211633E+01 -0.13767799499E+02 -0.10877518861E+02  0.20120843979E+02  0.51100000000E-03 0. -1.
        -11    1    4    4    0    0  0.36191898649E+01 -0.12437878489E+02 -0.16306099084E+02  0.20825182453E+02  0.51100000000E-03 0.  1.
         12    1    4    4    0    0  0.41802458940E+01  0.26583210573E+01 -0.47182098680E+01  0.68412448382E+01  0.00000000000E+00 0. -1.
</event>
<event>
 8    1  0.6915409E-011  0.9118800E+02  0.7816164E-02  0.1184000E+00
        -11   -1    0    0    0    0  0.00000000000E+00  0.00000000000E+00  0.45593999997E+02  0.45594000000E+02  0.51100000000E-03 0. -1.
         11   -1    0    0    0    0 -0.00000000000E+00 -0.00000000000E+00 -0.45593999997E+02  0.45594000000E+02  0.51100000000E-03 0.  1.
         23    2    1    2    0    0  0.44408920985E-15  0.17763568394E-14  0.00000000000E+00  0.91188000000E+02  0.91188000000E+02 0.  0.
    9900012    2    3    3    0    0 -0.31112236007E+01  0.15404964858E+02  0.40455283392E+02  0.47787278705E+02  0.20000034929E+02 0.  0.
        -12    1    3    3    0    0  0.31112236007E+01 -0.15404964858E+02 -0.40455283392E+02  0.43400721295E+02  0.00000000000E+00 0.  1.
         11    1    4    4    0    0  0.30303719995E+00  0.13062818416E+02  0.26159060820E+02  0.29240819410E+02  0.51100000000E-03 0. -1.
        -11    1    4    4    0    0  0.18786020129E+01 -0.60131788226E+00  0.11852892280E+02  0.12015897152E+02  0.51100000000E-03 0.  1.
        -12    1    4    4    0    0 -0.52928628135E+01  0.29434643242E+01  0.24433302923E+01  0.65305621433E+01  0.00000000000E+00 0.  1.
</event>
<event>
 8    1  0.4042158E-011  0.9118800E+02  0.7816164E-02  0.1184000E+00
        -11   -1    0    0    0    0  0.00000000000E+00  0.00000000000E+00  0.45593999997E+02  0.45594000000E+02  0.51100000000E-03 0. -1.
         11   -1    0    0    0    0 -0.00000000000E+00 -0.00000000000E+00 -0.45593999997E+02  0.45594000000E+02  0.51100000000E-03 0.  1.
         23    2    1    2    0    0  0.00000000000E+00 -0.35527136788E-14  0.00000000000E+00  0.91188000000E+02  0.91188000000E+02 0.  0.
    9900012    2    3    3    0    0  0.17052745048E+02 -0.19482349873E+02 -0.34831943014E+02  0.47787281983E+02  0.20000049873E+02 0.  0.
         12    1    3    3    0    0 -0.17052745048E+02  0.19482349873E+02  0.34831943014E+02  0.43400718017E+02  0.00000000000E+00 0. -1.
         11    1    4    4    0    0  0.91091666211E+01 -0.10519552212E+02 -0.19228433545E+02  0.23735428206E+02  0.51100000000E-03 0. -1.
        -11    1    4    4    0    0  0.10899022045E+02 -0.98325901826E+01 -0.14849723889E+02  0.20880201414E+02  0.51100000000E-03 0.  1.
         12    1    4    4    0    0 -0.29554436184E+01  0.86979252163E+00 -0.75378558037E+00  0.31716523633E+01  0.00000000000E+00 0. -1.
</event>
<event>
 8    1  0.4042158E-011  0.9118800E+02  0.7816164E-02  0.1184000E+00
        -11   -1    0    0    0    0  0.00000000000E+00  0.00000000000E+00  0.45593999997E+02  0.45594000000E+02  0.51100000000E-03 0. -1.
         11   -1    0    0    0    0 -0.00000000000E+00 -0.00000000000E+00 -0.45593999997E+02  0.45594000000E+02  0.51100000000E-03 0.  1.
         23    2    1    2    0    0  0.17763568394E-14  0.88817841970E-15 -0.71054273576E-14  0.91188000000E+02  0.91188000000E+02 0.  0.
    9900012    2    3    3    0    0  0.12707952983E+02 -0.54160817052E+01 -0.41143609628E+02  0.47787278540E+02  0.20000034175E+02 0.  0.
         12    1    3    3    0    0 -0.12707952983E+02  0.54160817052E+01  0.41143609628E+02  0.43400721460E+02  0.00000000000E+00 0. -1.
         11    1    4    4    0    0 -0.27204523749E+01  0.28951226092E+01 -0.55733156729E+01  0.68443001028E+01  0.51100000000E-03 0. -1.
        -11    1    4    4    0    0  0.57481657556E+01  0.19429311409E+01 -0.12693481235E+02  0.14069145571E+02  0.51100000000E-03 0.  1.
        -12    1    4    4    0    0  0.96802396018E+01 -0.10254135455E+02 -0.22876812720E+02  0.26873832866E+02  0.00000000000E+00 0.  1.
</event>
<event>
 8    1  0.4042158E-011  0.9118800E+02  0.7816164E-02  0.1184000E+00
        -11   -1    0    0    0    0  0.00000000000E+00  0.00000000000E+00  0.45593999997E+02  0.45594000000E+02  0.51100000000E-03 0.  1.
         11   -1    0    0    0    0 -0.00000000000E+00 -0.00000000000E+00 -0.45593999997E+02  0.45594000000E+02  0.51100000000E-03 0. -1.
         23    2    1    2    0    0  0.00000000000E+00 -0.71054273576E-14  0.44408920985E-15  0.91188000000E+02  0.91188000000E+02 0.  0.
    9900012    2    3    3    0    0  0.16190809980E+02  0.40112077935E+02 -0.35358055699E+01  0.47787273680E+02  0.20000012016E+02 0.  0.
        -12    1    3    3    0    0 -0.16190809980E+02 -0.40112077935E+02  0.35358055699E+01  0.43400726320E+02  0.00000000000E+00 0.  1.
         11    1    4    4    0    0  0.10734692979E+02  0.18004290784E+02 -0.30079676081E+01  0.21176307265E+02  0.51100000000E-03 0. -1.
        -11    1    4    4    0    0  0.35529702656E+01  0.77550024267E-01  0.24250543474E+01  0.43023831261E+01  0.51100000000E-03 0.  1.
        -12    1    4    4    0    0  0.19031467356E+01  0.22030237127E+02 -0.29528923092E+01  0.22308583288E+02  0.00000000000E+00 0.  1.
</event>
<event>
 8    1  0.4042158E-011  0.9118800E+02  0.7816164E-02  0.1184000E+00
        -11   -1    0    0    0    0  0.00000000000E+00  0.00000000000E+00  0.45593999997E+02  0.45594000000E+02  0.51100000000E-03 0. -1.
         11   -1    0    0    0    0 -0.00000000000E+00 -0.00000000000E+00 -0.45593999997E+02  0.45594000000E+02  0.51100000000E-03 0.  1.
         23    2    1    2    0    0  0.00000000000E+00  0.00000000000E+00 -0.88817841970E-15  0.91188000000E+02  0.91188000000E+02 0.  0.
    9900012    2    3    3    0    0 -0.17439995877E+02 -0.39158873698E+02  0.67862498211E+01  0.47787262309E+02  0.19999960172E+02 0.  0.
        -12    1    3    3    0    0  0.17439995877E+02  0.39158873698E+02 -0.67862498211E+01  0.43400737691E+02  0.00000000000E+00 0.  1.
         11    1    4    4    0    0 -0.16908200107E+02 -0.31761697419E+02  0.93414043868E+01  0.37174648484E+02  0.51100000000E-03 0. -1.
        -11    1    4    4    0    0  0.53311175231E+00 -0.36694326094E+01  0.23275589613E+01  0.43779532655E+01  0.51100000000E-03 0.  1.
        -12    1    4    4    0    0 -0.10649075225E+01 -0.37277436701E+01 -0.48827135270E+01  0.62346605591E+01  0.00000000000E+00 0.  1.
</event>
<event>
 8    1  0.4042158E-011  0.9118800E+02  0.7816164E-02  0.1184000E+00
        -11   -1    0    0    0    0  0.00000000000E+00  0.00000000000E+00  0.45593999997E+02  0.45594000000E+02  0.51100000000E-03 0.  1.
         11   -1    0    0    0    0 -0.00000000000E+00 -0.00000000000E+00 -0.45593999997E+02  0.45594000000E+02  0.51100000000E-03 0. -1.
         23    2    1    2    0    0  0.35527136788E-14  0.00000000000E+00 -0.17763568394E-14  0.91188000000E+02  0.91188000000E+02 0.  0.
    9900012    2    3    3    0    0 -0.18771425985E+02 -0.37918736139E+02  0.96657349266E+01  0.47787269412E+02  0.19999992557E+02 0.  0.
         12    1    3    3    0    0  0.18771425985E+02  0.37918736139E+02 -0.96657349266E+01  0.43400730588E+02  0.00000000000E+00 0. -1.
         11    1    4    4    0    0  0.16953057188E+01 -0.22126537334E+01 -0.22782655410E+01  0.36000544663E+01  0.51100000000E-03 0. -1.
        -11    1    4    4    0    0 -0.53004913043E+00 -0.90352204849E+00 -0.15490051773E+01  0.18699522650E+01  0.51100000000E-03 0.  1.
        -12    1    4    4    0    0 -0.19936682573E+02 -0.34802560357E+02  0.13493005645E+02  0.42317262681E+02  0.00000000000E+00 0.  1.
</event>
<event>
 8    1  0.4042158E-011  0.9118800E+02  0.7816164E-02  0.1184000E+00
        -11   -1    0    0    0    0  0.00000000000E+00  0.00000000000E+00  0.45593999997E+02  0.45594000000E+02  0.51100000000E-03 0. -1.
         11   -1    0    0    0    0 -0.00000000000E+00 -0.00000000000E+00 -0.45593999997E+02  0.45594000000E+02  0.51100000000E-03 0.  1.
         23    2    1    2    0    0  0.00000000000E+00  0.17763568394E-14 -0.71054273576E-14  0.91188000000E+02  0.91188000000E+02 0.  0.
    9900012    2    3    3    0    0 -0.92228370804E+01  0.15747809067E+02 -0.39377267856E+02  0.47787269153E+02  0.19999991377E+02 0.  0.
         12    1    3    3    0    0  0.92228370804E+01 -0.15747809067E+02  0.39377267856E+02  0.43400730847E+02  0.00000000000E+00 0. -1.
         11    1    4    4    0    0 -0.22057364852E+01 -0.16626978923E+01 -0.55508173459E+01  0.62001138048E+01  0.51100000000E-03 0.  1.
        -11    1    4    4    0    0 -0.31426208217E+01 -0.13744226878E+01 -0.10084001239E+01  0.35751887257E+01  0.51100000000E-03 0. -1.
        -12    1    4    4    0    0 -0.38744797735E+01  0.18784929647E+02 -0.32818050386E+02  0.38011966623E+02  0.00000000000E+00 0.  1.
</event>
<event>
 8    1  0.4042158E-011  0.9118800E+02  0.7816164E-02  0.1184000E+00
        -11   -1    0    0    0    0  0.00000000000E+00  0.00000000000E+00  0.45593999997E+02  0.45594000000E+02  0.51100000000E-03 0.  1.
         11   -1    0    0    0    0 -0.00000000000E+00 -0.00000000000E+00 -0.45593999997E+02  0.45594000000E+02  0.51100000000E-03 0. -1.
         23    2    1    2    0    0  0.35527136788E-14  0.35527136788E-14 -0.22204460493E-15  0.91188000000E+02  0.91188000000E+02 0.  0.
    9900012    2    3    3    0    0  0.29868690403E+02  0.31475083850E+02  0.89650974201E+00  0.47787270749E+02  0.19999998654E+02 0.  0.
         12    1    3    3    0    0 -0.29868690403E+02 -0.31475083850E+02 -0.89650974201E+00  0.43400729251E+02  0.00000000000E+00 0. -1.
         11    1    4    4    0    0  0.29978660974E+01  0.87200090403E+01  0.27552852324E+01  0.96237911331E+01  0.51100000000E-03 0.  1.
        -11    1    4    4    0    0  0.80849465598E+01  0.16402233673E+02 -0.99948014564E+00  0.18313890661E+02  0.51100000000E-03 0. -1.
         12    1    4    4    0    0  0.18785877746E+02  0.63528411375E+01 -0.85929534479E+00  0.19849588955E+02  0.00000000000E+00 0. -1.
</event>
<event>
 8    1  0.4042158E-011  0.9118800E+02  0.7816164E-02  0.1184000E+00
        -11   -1    0    0    0    0  0.00000000000E+00  0.00000000000E+00  0.45593999997E+02  0.45594000000E+02  0.51100000000E-03 0. -1.
         11   -1    0    0    0    0 -0.00000000000E+00 -0.00000000000E+00 -0.45593999997E+02  0.45594000000E+02  0.51100000000E-03 0.  1.
         23    2    1    2    0    0  0.00000000000E+00  0.17763568394E-14 -0.35527136788E-14  0.91188000000E+02  0.91188000000E+02 0.  0.
    9900012    2    3    3    0    0  0.27707481488E+02 -0.12648104983E+02  0.30918352274E+02  0.47787267317E+02  0.19999983006E+02 0.  0.
        -12    1    3    3    0    0 -0.27707481488E+02  0.12648104983E+02 -0.30918352274E+02  0.43400732683E+02  0.00000000000E+00 0.  1.
         11    1    4    4    0    0  0.17781138213E+02 -0.90542971103E+01  0.25847611691E+02  0.32653456214E+02  0.51100000000E-03 0. -1.
        -11    1    4    4    0    0  0.69945706579E+00  0.17826466342E+01  0.39580656333E+01  0.43969708923E+01  0.51100000000E-03 0.  1.
        -12    1    4    4    0    0  0.92268862087E+01 -0.53764545072E+01  0.11126749501E+01  0.10736840211E+02  0.00000000000E+00 0.  1.
</event>
<event>
 8    1  0.4042158E-011  0.9118800E+02  0.7816164E-02  0.1184000E+00
        -11   -1    0    0    0    0  0.00000000000E+00  0.00000000000E+00  0.45593999997E+02  0.45594000000E+02  0.51100000000E-03 0.  1.
         11   -1    0    0    0    0 -0.00000000000E+00 -0.00000000000E+00 -0.45593999997E+02  0.45594000000E+02  0.51100000000E-03 0. -1.
         23    2    1    2    0    0  0.00000000000E+00  0.00000000000E+00  0.88817841970E-15  0.91188000000E+02  0.91188000000E+02 0.  0.
    9900012    2    3    3    0    0  0.40068445274E+02  0.15538701690E+02 -0.60573568612E+01  0.47787272713E+02  0.20000007607E+02 0.  0.
        -12    1    3    3    0    0 -0.40068445274E+02 -0.15538701690E+02  0.60573568612E+01  0.43400727287E+02  0.00000000000E+00 0.  1.
         11    1    4    4    0    0  0.15190780992E+01 -0.15275555945E+01 -0.21103783145E+01  0.30157455558E+01  0.51100000000E-03 0. -1.
        -11    1    4    4    0    0  0.91024225576E+01  0.11192369657E+02  0.39655550199E+00  0.14431926118E+02  0.51100000000E-03 0.  1.
         12    1    4    4    0    0  0.29446944617E+02  0.58738876275E+01 -0.43435340486E+01  0.30339601039E+02  0.00000000000E+00 0. -1.
</event>
<event>
 8    1  0.4042158E-011  0.9118800E+02  0.7816164E-02  0.1184000E+00
        -11   -1    0    0    0    0  0.00000000000E+00  0.00000000000E+00  0.45593999997E+02  0.45594000000E+02  0.51100000000E-03 0. -1.
         11   -1    0    0    0    0 -0.00000000000E+00 -0.00000000000E+00 -0.45593999997E+02  0.45594000000E+02  0.51100000000E-03 0.  1.
         23    2    1    2    0    0  0.00000000000E+00  0.00000000000E+00 -0.35527136788E-14  0.91188000000E+02  0.91188000000E+02 0.  0.
    9900012    2    3    3    0    0 -0.24012618849E+02 -0.21611858579E+02 -0.28981804223E+02  0.47787271074E+02  0.20000000136E+02 0.  0.
         12    1    3    3    0    0  0.24012618849E+02  0.21611858579E+02  0.28981804223E+02  0.43400728926E+02  0.00000000000E+00 0. -1.
         11    1    4    4    0    0 -0.14536644066E+02 -0.78461907330E+01 -0.69997670555E+01  0.17940832445E+02  0.51100000000E-03 0. -1.
        -11    1    4    4    0    0 -0.25950316425E+01 -0.32054714549E+01  0.41637815761E+00  0.41451908889E+01  0.51100000000E-03 0.  1.
        -12    1    4    4    0    0 -0.68809431407E+01 -0.10560196391E+02 -0.22398415325E+02  0.25701247740E+02  0.00000000000E+00 0.  1.
</event>
<event>
 8    1  0.4042158E-011  0.9118800E+02  0.7816164E-02  0.1184000E+00
        -11   -1    0    0    0    0  0.00000000000E+00  0.00000000000E+00  0.45593999997E+02  0.45594000000E+02  0.51100000000E-03 0. -1.
         11   -1    0    0    0    0 -0.00000000000E+00 -0.00000000000E+00 -0.45593999997E+02  0.45594000000E+02  0.51100000000E-03 0.  1.
         23    2    1    2    0    0 -0.17763568394E-14  0.00000000000E+00  0.00000000000E+00  0.91188000000E+02  0.91188000000E+02 0.  0.
    9900012    2    3    3    0    0 -0.11241430683E+02 -0.30700523535E+02 -0.28543497415E+02  0.47787272428E+02  0.20000006307E+02 0.  0.
         12    1    3    3    0    0  0.11241430683E+02  0.30700523535E+02  0.28543497415E+02  0.43400727572E+02  0.00000000000E+00 0. -1.
         11    1    4    4    0    0 -0.41706921465E+00 -0.73820244939E+01 -0.27049755282E+01  0.78730632684E+01  0.51100000000E-03 0. -1.
        -11    1    4    4    0    0 -0.95287278879E+01 -0.23166858322E+02 -0.27886906163E+02  0.37485724153E+02  0.51100000000E-03 0.  1.
         12    1    4    4    0    0 -0.12956335807E+01 -0.15164071862E+00  0.20483842762E+01  0.24284850063E+01  0.00000000000E+00 0. -1.
</event>
<event>
 8    1  0.4042158E-011  0.9118800E+02  0.7816164E-02  0.1184000E+00
        -11   -1    0    0    0    0  0.00000000000E+00  0.00000000000E+00  0.45593999997E+02  0.45594000000E+02  0.51100000000E-03 0. -1.
         11   -1    0    0    0    0 -0.00000000000E+00 -0.00000000000E+00 -0.45593999997E+02  0.45594000000E+02  0.51100000000E-03 0.  1.
         23    2    1    2    0    0 -0.88817841970E-15  0.71054273576E-14  0.00000000000E+00  0.91188000000E+02  0.91188000000E+02 0.  0.
    9900012    2    3    3    0    0  0.25999316803E+01 -0.27923356666E+02  0.33123257589E+02  0.47787266302E+02  0.19999978377E+02 0.  0.
        -12    1    3    3    0    0 -0.25999316803E+01  0.27923356666E+02 -0.33123257589E+02  0.43400733698E+02  0.00000000000E+00 0.  1.
         11    1    4    4    0    0  0.51776758261E+01 -0.26379637127E+02  0.29299278575E+02  0.39763567586E+02  0.51100000000E-03 0. -1.
        -11    1    4    4    0    0 -0.10408763766E+01 -0.15605820045E+01  0.54634131443E+01  0.57764801800E+01  0.51100000000E-03 0.  1.
         12    1    4    4    0    0 -0.15368677692E+01  0.16862465779E-01 -0.16394341297E+01  0.22472185359E+01  0.00000000000E+00 0. -1.
</event>
<event>
 8    1  0.4042158E-011  0.9118800E+02  0.7816164E-02  0.1184000E+00
        -11   -1    0    0    0    0  0.00000000000E+00  0.00000000000E+00  0.45593999997E+02  0.45594000000E+02  0.51100000000E-03 0. -1.
         11   -1    0    0    0    0 -0.00000000000E+00 -0.00000000000E+00 -0.45593999997E+02  0.45594000000E+02  0.51100000000E-03 0.  1.
         23    2    1    2    0    0 -0.44408920985E-15  0.17763568394E-14  0.71054273576E-14  0.91188000000E+02  0.91188000000E+02 0.  0.
    9900012    2    3    3    0    0 -0.14927645574E+01 -0.11321754791E+02 -0.41871381434E+02  0.47787273500E+02  0.20000011195E+02 0.  0.
         12    1    3    3    0    0  0.14927645574E+01  0.11321754791E+02  0.41871381434E+02  0.43400726500E+02  0.00000000000E+00 0. -1.
         11    1    4    4    0    0  0.52840441308E+01 -0.69754156929E+01 -0.20164613618E+02  0.21981564755E+02  0.51100000000E-03 0. -1.
        -11    1    4    4    0    0  0.50210805669E+00  0.73252032327E-01 -0.14887592256E+02  0.14896237170E+02  0.51100000000E-03 0.  1.
        -12    1    4    4    0    0 -0.72789167448E+01 -0.44195911306E+01 -0.68191755594E+01  0.10909471575E+02  0.00000000000E+00 0.  1.
</event>
<event>
 8    1  0.4042158E-011  0.9118800E+02  0.7816164E-02  0.1184000E+00
        -11   -1    0    0    0    0  0.00000000000E+00  0.00000000000E+00  0.45593999997E+02  0.45594000000E+02  0.51100000000E-03 0. -1.
         11   -1    0    0    0    0 -0.00000000000E+00 -0.00000000000E+00 -0.45593999997E+02  0.45594000000E+02  0.51100000000E-03 0.  1.
         23    2    1    2    0    0  0.00000000000E+00 -0.17763568394E-14  0.00000000000E+00  0.91188000000E+02  0.91188000000E+02 0.  0.
    9900012    2    3    3    0    0  0.17012110628E+02  0.13725044496E+02  0.37494466379E+02  0.47787265404E+02  0.19999974283E+02 0.  0.
        -12    1    3    3    0    0 -0.17012110628E+02 -0.13725044496E+02 -0.37494466379E+02  0.43400734596E+02  0.00000000000E+00 0.  1.
         11    1    4    4    0    0  0.85779851723E+01  0.15943795305E+02  0.14884279907E+02  0.23437752174E+02  0.51100000000E-03 0. -1.
        -11    1    4    4    0    0  0.15747600348E+01 -0.10739825752E+00  0.21508057989E+01  0.26678398375E+01  0.51100000000E-03 0.  1.
         12    1    4    4    0    0  0.68593654207E+01 -0.21113525518E+01  0.20459380673E+02  0.21681673393E+02  0.00000000000E+00 0. -1.
</event>
<event>
 8    1  0.4042158E-011  0.9118800E+02  0.7816164E-02  0.1184000E+00
        -11   -1    0    0    0    0  0.00000000000E+00  0.00000000000E+00  0.45593999997E+02  0.45594000000E+02  0.51100000000E-03 0. -1.
         11   -1    0    0    0    0 -0.00000000000E+00 -0.00000000000E+00 -0.45593999997E+02  0.45594000000E+02  0.51100000000E-03 0.  1.
         23    2    1    2    0    0  0.00000000000E+00  0.00000000000E+00  0.44408920985E-15  0.91188000000E+02  0.91188000000E+02 0.  0.
    9900012    2    3    3    0    0 -0.47333706996E+01 -0.43134451882E+02  0.79844368355E+00  0.47787271323E+02  0.20000001272E+02 0.  0.
         12    1    3    3    0    0  0.47333706996E+01  0.43134451882E+02 -0.79844368355E+00  0.43400728677E+02  0.00000000000E+00 0. -1.
         11    1    4    4    0    0 -0.42882836816E+01 -0.14340482614E+02  0.17472616074E+01  0.15069563428E+02  0.51100000000E-03 0. -1.
        -11    1    4    4    0    0  0.53261079551E+01 -0.25366883600E+02  0.12504171632E+00  0.25920297938E+02  0.51100000000E-03 0.  1.
         12    1    4    4    0    0 -0.57711949731E+01 -0.34270856682E+01 -0.10738596402E+01  0.67974099568E+01  0.00000000000E+00 0. -1.
</event>
<event>
 8    1  0.4042158E-011  0.9118800E+02  0.7816164E-02  0.1184000E+00
        -11   -1    0    0    0    0  0.00000000000E+00  0.00000000000E+00  0.45593999997E+02  0.45594000000E+02  0.51100000000E-03 0. -1.
         11   -1    0    0    0    0 -0.00000000000E+00 -0.00000000000E+00 -0.45593999997E+02  0.45594000000E+02  0.51100000000E-03 0.  1.
         23    2    1    2    0    0  0.00000000000E+00 -0.71054273576E-14  0.00000000000E+00  0.91188000000E+02  0.91188000000E+02 0.  0.
    9900012    2    3    3    0    0 -0.12445323665E+02 -0.23869650827E+02  0.34043754438E+02  0.47787268117E+02  0.19999986654E+02 0.  0.
        -12    1    3    3    0    0  0.12445323665E+02  0.23869650827E+02 -0.34043754438E+02  0.43400731883E+02  0.00000000000E+00 0.  1.
         11    1    4    4    0    0 -0.18178209235E+01 -0.53657711871E+00 -0.30120664734E+00  0.19191439810E+01  0.51100000000E-03 0.  1.
        -11    1    4    4    0    0  0.14980961709E+00 -0.12677646734E+02  0.25086724231E+02  0.28108520105E+02  0.51100000000E-03 0. -1.
         12    1    4    4    0    0 -0.10777312359E+02 -0.10655426974E+02  0.92582368547E+01  0.17759604031E+02  0.00000000000E+00 0. -1.
</event>
<event>
 8    1  0.4042158E-011  0.9118800E+02  0.7816164E-02  0.1184000E+00
        -11   -1    0    0    0    0  0.00000000000E+00  0.00000000000E+00  0.45593999997E+02  0.45594000000E+02  0.51100000000E-03 0. -1.
         11   -1    0    0    0    0 -0.00000000000E+00 -0.00000000000E+00 -0.45593999997E+02  0.45594000000E+02  0.51100000000E-03 0.  1.
         23    2    1    2    0    0  0.15543122345E-14  0.00000000000E+00  0.00000000000E+00  0.91188000000E+02  0.91188000000E+02 0.  0.
    9900012    2    3    3    0    0  0.13647711932E+00 -0.18329240229E+02  0.39340102223E+02  0.47787270556E+02  0.19999997775E+02 0.  0.
        -12    1    3    3    0    0 -0.13647711932E+00  0.18329240229E+02 -0.39340102223E+02  0.43400729444E+02  0.00000000000E+00 0.  1.
         11    1    4    4    0    0  0.66021860823E+01 -0.12227498157E+02  0.19604446859E+02  0.24029875347E+02  0.51100000000E-03 0. -1.
        -11    1    4    4    0    0 -0.11067555992E+01 -0.75693209075E+01  0.10789735258E+02  0.13226409723E+02  0.51100000000E-03 0.  1.
         12    1    4    4    0    0 -0.53589533638E+01  0.14675788363E+01  0.89459201050E+01  0.10530985487E+02  0.00000000000E+00 0. -1.
</event>
<event>
 8    1  0.4042158E-011  0.9118800E+02  0.7816164E-02  0.1184000E+00
        -11   -1    0    0    0    0  0.00000000000E+00  0.00000000000E+00  0.45593999997E+02  0.45594000000E+02  0.51100000000E-03 0. -1.
         11   -1    0    0    0    0 -0.00000000000E+00 -0.00000000000E+00 -0.45593999997E+02  0.45594000000E+02  0.51100000000E-03 0.  1.
         23    2    1    2    0    0  0.00000000000E+00  0.00000000000E+00  0.00000000000E+00  0.91188000000E+02  0.91188000000E+02 0.  0.
    9900012    2    3    3    0    0  0.11610118871E+02  0.30002495314E+02 -0.29132091270E+02  0.47787270432E+02  0.19999997209E+02 0.  0.
         12    1    3    3    0    0 -0.11610118871E+02 -0.30002495314E+02  0.29132091270E+02  0.43400729568E+02  0.00000000000E+00 0. -1.
         11    1    4    4    0    0  0.94362361956E+01  0.19187131240E+02 -0.27260803449E+02  0.34645922757E+02  0.51100000000E-03 0. -1.
        -11    1    4    4    0    0  0.11438891957E+01  0.70859047084E+01 -0.44927891153E+01  0.84678026857E+01  0.51100000000E-03 0.  1.
         12    1    4    4    0    0  0.10299934801E+01  0.37294593656E+01  0.26215012948E+01  0.46735449894E+01  0.00000000000E+00 0. -1.
</event>
<event>
 8    1  0.4042158E-011  0.9118800E+02  0.7816164E-02  0.1184000E+00
        -11   -1    0    0    0    0  0.00000000000E+00  0.00000000000E+00  0.45593999997E+02  0.45594000000E+02  0.51100000000E-03 0.  1.
         11   -1    0    0    0    0 -0.00000000000E+00 -0.00000000000E+00 -0.45593999997E+02  0.45594000000E+02  0.51100000000E-03 0. -1.
         23    2    1    2    0    0  0.00000000000E+00  0.35527136788E-14  0.00000000000E+00  0.91188000000E+02  0.91188000000E+02 0.  0.
    9900012    2    3    3    0    0 -0.19996406547E+02 -0.25710970029E+02 -0.28682948350E+02  0.47787288247E+02  0.20000078434E+02 0.  0.
         12    1    3    3    0    0  0.19996406547E+02  0.25710970029E+02  0.28682948350E+02  0.43400711753E+02  0.00000000000E+00 0. -1.
         11    1    4    4    0    0 -0.19084736074E+00  0.92692729937E-01  0.71672213788E+00  0.74746608039E+00  0.51100000000E-03 0. -1.
        -11    1    4    4    0    0 -0.41663534599E+01 -0.16590456929E+02 -0.20869724507E+02  0.26984202111E+02  0.51100000000E-03 0.  1.
        -12    1    4    4    0    0 -0.15639205726E+02 -0.92132058297E+01 -0.85299459804E+01  0.20055620056E+02  0.00000000000E+00 0.  1.
</event>
<event>
 8    1  0.4042158E-011  0.9118800E+02  0.7816164E-02  0.1184000E+00
        -11   -1    0    0    0    0  0.00000000000E+00  0.00000000000E+00  0.45593999997E+02  0.45594000000E+02  0.51100000000E-03 0.  1.
         11   -1    0    0    0    0 -0.00000000000E+00 -0.00000000000E+00 -0.45593999997E+02  0.45594000000E+02  0.51100000000E-03 0. -1.
         23    2    1    2    0    0  0.00000000000E+00  0.35527136788E-14  0.00000000000E+00  0.91188000000E+02  0.91188000000E+02 0.  0.
    9900012    2    3    3    0    0  0.20271886562E+02 -0.31522817540E+02 -0.21885739351E+02  0.47787274230E+02  0.20000014523E+02 0.  0.
         12    1    3    3    0    0 -0.20271886562E+02  0.31522817540E+02  0.21885739351E+02  0.43400725770E+02  0.00000000000E+00 0. -1.
         11    1    4    4    0    0  0.78627192641E+01 -0.19565385423E+02 -0.66532990858E+01  0.22110926031E+02  0.51100000000E-03 0. -1.
        -11    1    4    4    0    0  0.13944224421E+02 -0.12577231146E+02 -0.14937233701E+02  0.23994772116E+02  0.51100000000E-03 0.  1.
         12    1    4    4    0    0 -0.15350571232E+01  0.61979902865E+00 -0.29520656463E+00  0.16815760830E+01  0.00000000000E+00 0. -1.
</event>
<event>
 8    1  0.4042158E-011  0.9118800E+02  0.7816164E-02  0.1184000E+00
        -11   -1    0    0    0    0  0.00000000000E+00  0.00000000000E+00  0.45593999997E+02  0.45594000000E+02  0.51100000000E-03 0. -1.
         11   -1    0    0    0    0 -0.00000000000E+00 -0.00000000000E+00 -0.45593999997E+02  0.45594000000E+02  0.51100000000E-03 0.  1.
         23    2    1    2    0    0  0.17763568394E-14  0.71054273576E-14  0.00000000000E+00  0.91188000000E+02  0.91188000000E+02 0.  0.
    9900012    2    3    3    0    0  0.87420684649E+01  0.32719080037E+02 -0.27141502774E+02  0.47787272675E+02  0.20000007433E+02 0.  0.
         12    1    3    3    0    0 -0.87420684649E+01 -0.32719080037E+02  0.27141502774E+02  0.43400727325E+02  0.00000000000E+00 0. -1.
         11    1    4    4    0    0  0.11726046280E+02  0.13027043859E+02 -0.10909412656E+02  0.20645079748E+02  0.51100000000E-03 0. -1.
        -11    1    4    4    0    0  0.12559515009E+01  0.74727450271E+00  0.46753355481E+00  0.15344123439E+01  0.51100000000E-03 0.  1.
        -12    1    4    4    0    0 -0.42399293157E+01  0.18944761675E+02 -0.16699623674E+02  0.25607780583E+02  0.00000000000E+00 0.  1.
</event>
<event>
 8    1  0.4042158E-011  0.9118800E+02  0.7816164E-02  0.1184000E+00
        -11   -1    0    0    0    0  0.00000000000E+00  0.00000000000E+00  0.45593999997E+02  0.45594000000E+02  0.51100000000E-03 0. -1.
         11   -1    0    0    0    0 -0.00000000000E+00 -0.00000000000E+00 -0.45593999997E+02  0.45594000000E+02  0.51100000000E-03 0.  1.
         23    2    1    2    0    0 -0.71054273576E-14  0.13322676296E-14  0.00000000000E+00  0.91188000000E+02  0.91188000000E+02 0.  0.
    9900012    2    3    3    0    0  0.35574311651E+02 -0.38735989582E+01 -0.24557876593E+02  0.47787242852E+02  0.19999871457E+02 0.  0.
         12    1    3    3    0    0 -0.35574311651E+02  0.38735989582E+01  0.24557876593E+02  0.43400757148E+02  0.00000000000E+00 0. -1.
         11    1    4    4    0    0  0.22951817798E+02 -0.67117706655E+01 -0.15452074522E+02  0.28471045169E+02  0.51100000000E-03 0. -1.
        -11    1    4    4    0    0  0.12800432895E+02  0.63843360282E-01 -0.10160405854E+02  0.16342857941E+02  0.51100000000E-03 0.  1.
        -12    1    4    4    0    0 -0.17793904248E+00  0.27743283471E+01  0.10546037841E+01  0.29733397420E+01  0.00000000000E+00 0.  1.
</event>
<event>
 8    1  0.4042158E-011  0.9118800E+02  0.7816164E-02  0.1184000E+00
        -11   -1    0    0    0    0  0.00000000000E+00  0.00000000000E+00  0.45593999997E+02  0.45594000000E+02  0.51100000000E-03 0. -1.
         11   -1    0    0    0    0 -0.00000000000E+00 -0.00000000000E+00 -0.45593999997E+02  0.45594000000E+02  0.51100000000E-03 0.  1.
         23    2    1    2    0    0  0.17763568394E-14 -0.71054273576E-14  0.00000000000E+00  0.91188000000E+02  0.91188000000E+02 0.  0.
    9900012    2    3    3    0    0 -0.14511088248E+02  0.40778025027E+02  0.31944024571E+01  0.47787271731E+02  0.20000003129E+02 0.  0.
        -12    1    3    3    0    0  0.14511088248E+02 -0.40778025027E+02 -0.31944024571E+01  0.43400728269E+02  0.00000000000E+00 0.  1.
         11    1    4    4    0    0 -0.41089288155E+01  0.17867695504E+02  0.32697475233E-01  0.18334091415E+02  0.51100000000E-03 0. -1.
        -11    1    4    4    0    0  0.93367661626E-01  0.14748205578E+02 -0.25768183825E+01  0.14971916327E+02  0.51100000000E-03 0.  1.
        -12    1    4    4    0    0 -0.10495527094E+02  0.81621239454E+01  0.57385233643E+01  0.14481263988E+02  0.00000000000E+00 0.  1.
</event>
<event>
 8    1  0.4042158E-011  0.9118800E+02  0.7816164E-02  0.1184000E+00
        -11   -1    0    0    0    0  0.00000000000E+00  0.00000000000E+00  0.45593999997E+02  0.45594000000E+02  0.51100000000E-03 0. -1.
         11   -1    0    0    0    0 -0.00000000000E+00 -0.00000000000E+00 -0.45593999997E+02  0.45594000000E+02  0.51100000000E-03 0.  1.
         23    2    1    2    0    0  0.88817841970E-15 -0.35527136788E-14  0.00000000000E+00  0.91188000000E+02  0.91188000000E+02 0.  0.
    9900012    2    3    3    0    0  0.47088428092E+01 -0.19365435713E+02  0.38554175616E+02  0.47787334586E+02  0.20000289709E+02 0.  0.
        -12    1    3    3    0    0 -0.47088428092E+01  0.19365435713E+02 -0.38554175616E+02  0.43400665414E+02  0.00000000000E+00 0.  1.
         11    1    4    4    0    0  0.77946792525E+01 -0.75589139750E+01  0.25665560382E+02  0.27867816476E+02  0.51100000000E-03 0. -1.
        -11    1    4    4    0    0 -0.41058744143E+00  0.14219817808E+01  0.24296768027E+01  0.28449857396E+01  0.51100000000E-03 0.  1.
        -12    1    4    4    0    0 -0.26752490018E+01 -0.13228503519E+02  0.10458938431E+02  0.17074532371E+02  0.00000000000E+00 0.  1.
</event>
<event>
 8    1  0.4042158E-011  0.9118800E+02  0.7816164E-02  0.1184000E+00
        -11   -1    0    0    0    0  0.00000000000E+00  0.00000000000E+00  0.45593999997E+02  0.45594000000E+02  0.51100000000E-03 0. -1.
         11   -1    0    0    0    0 -0.00000000000E+00 -0.00000000000E+00 -0.45593999997E+02  0.45594000000E+02  0.51100000000E-03 0.  1.
         23    2    1    2    0    0 -0.71054273576E-14  0.22204460493E-15  0.00000000000E+00  0.91188000000E+02  0.91188000000E+02 0.  0.
    9900012    2    3    3    0    0  0.33437029045E+02  0.11877240979E+01 -0.27643763712E+02  0.47787271065E+02  0.20000000095E+02 0.  0.
         12    1    3    3    0    0 -0.33437029045E+02 -0.11877240979E+01  0.27643763712E+02  0.43400728935E+02  0.00000000000E+00 0. -1.
         11    1    4    4    0    0  0.16439755168E+02  0.62588385630E+01 -0.99806931865E+01  0.20225054929E+02  0.51100000000E-03 0.  1.
        -11    1    4    4    0    0  0.93585982087E+01  0.29037059561E+01 -0.10692588084E+02  0.14503320617E+02  0.51100000000E-03 0. -1.
        -12    1    4    4    0    0  0.76386756680E+01 -0.79748204212E+01 -0.69704824417E+01  0.13058895519E+02  0.00000000000E+00 0.  1.
</event>
<event>
 8    1  0.4042158E-011  0.9118800E+02  0.7816164E-02  0.1184000E+00
        -11   -1    0    0    0    0  0.00000000000E+00  0.00000000000E+00  0.45593999997E+02  0.45594000000E+02  0.51100000000E-03 0. -1.
         11   -1    0    0    0    0 -0.00000000000E+00 -0.00000000000E+00 -0.45593999997E+02  0.45594000000E+02  0.51100000000E-03 0.  1.
         23    2    1    2    0    0  0.00000000000E+00  0.00000000000E+00  0.71054273576E-14  0.91188000000E+02  0.91188000000E+02 0.  0.
    9900012    2    3    3    0    0 -0.15436689531E+02  0.11139878445E+02  0.39003015659E+02  0.47787268371E+02  0.19999987808E+02 0.  0.
        -12    1    3    3    0    0  0.15436689531E+02 -0.11139878445E+02 -0.39003015659E+02  0.43400731629E+02  0.00000000000E+00 0.  1.
         11    1    4    4    0    0 -0.32661345533E+01  0.47053283796E+01  0.19729205357E+01  0.60580661751E+01  0.51100000000E-03 0. -1.
        -11    1    4    4    0    0 -0.65335072254E+01  0.10377074570E+02  0.25673592529E+02  0.28451779327E+02  0.51100000000E-03 0.  1.
        -12    1    4    4    0    0 -0.56370477520E+01 -0.39425245045E+01  0.11356502595E+02  0.13277422868E+02  0.00000000000E+00 0.  1.
</event>
<event>
 8    1  0.4042158E-011  0.9118800E+02  0.7816164E-02  0.1184000E+00
        -11   -1    0    0    0    0  0.00000000000E+00  0.00000000000E+00  0.45593999997E+02  0.45594000000E+02  0.51100000000E-03 0. -1.
         11   -1    0    0    0    0 -0.00000000000E+00 -0.00000000000E+00 -0.45593999997E+02  0.45594000000E+02  0.51100000000E-03 0.  1.
         23    2    1    2    0    0  0.88817841970E-15 -0.35527136788E-14  0.00000000000E+00  0.91188000000E+02  0.91188000000E+02 0.  0.
    9900012    2    3    3    0    0  0.50561513426E+01  0.17106301424E+02  0.39565553627E+02  0.47787271336E+02  0.20000001329E+02 0.  0.
        -12    1    3    3    0    0 -0.50561513426E+01 -0.17106301424E+02 -0.39565553627E+02  0.43400728664E+02  0.00000000000E+00 0.  1.
         11    1    4    4    0    0  0.11382222239E+01  0.15436756137E+02  0.36759642143E+02  0.39885589887E+02  0.51100000000E-03 0. -1.
        -11    1    4    4    0    0 -0.93676039552E+00  0.21680240298E+01  0.16656566721E+01  0.28900277928E+01  0.51100000000E-03 0.  1.
        -12    1    4    4    0    0  0.48546895141E+01 -0.49847874333E+00  0.11402548115E+01  0.50116536564E+01  0.00000000000E+00 0.  1.
</event>
<event>
 8    1  0.4042158E-011  0.9118800E+02  0.7816164E-02  0.1184000E+00
        -11   -1    0    0    0    0  0.00000000000E+00  0.00000000000E+00  0.45593999997E+02  0.45594000000E+02  0.51100000000E-03 0. -1.
         11   -1    0    0    0    0 -0.00000000000E+00 -0.00000000000E+00 -0.45593999997E+02  0.45594000000E+02  0.51100000000E-03 0.  1.
         23    2    1    2    0    0  0.00000000000E+00  0.00000000000E+00  0.00000000000E+00  0.91188000000E+02  0.91188000000E+02 0.  0.
    9900012    2    3    3    0    0  0.33547467977E+02 -0.23370983203E+02 -0.14559814773E+02  0.47787266484E+02  0.19999979205E+02 0.  0.
         12    1    3    3    0    0 -0.33547467977E+02  0.23370983203E+02  0.14559814773E+02  0.43400733516E+02  0.00000000000E+00 0. -1.
         11    1    4    4    0    0  0.23702999808E+00 -0.20729774062E+01 -0.25895752649E+01  0.33255554213E+01  0.51100000000E-03 0. -1.
        -11    1    4    4    0    0  0.59601906480E+01  0.13818631607E+01 -0.57396643619E+01  0.83891099411E+01  0.51100000000E-03 0.  1.
         12    1    4    4    0    0  0.27350247331E+02 -0.22679868958E+02 -0.62305751458E+01  0.36072601121E+02  0.00000000000E+00 0. -1.
</event>
<event>
 8    1  0.4042158E-011  0.9118800E+02  0.7816164E-02  0.1184000E+00
        -11   -1    0    0    0    0  0.00000000000E+00  0.00000000000E+00  0.45593999997E+02  0.45594000000E+02  0.51100000000E-03 0. -1.
         11   -1    0    0    0    0 -0.00000000000E+00 -0.00000000000E+00 -0.45593999997E+02  0.45594000000E+02  0.51100000000E-03 0.  1.
         23    2    1    2    0    0  0.00000000000E+00  0.00000000000E+00  0.00000000000E+00  0.91188000000E+02  0.91188000000E+02 0.  0.
    9900012    2    3    3    0    0 -0.18339962006E+02 -0.13881349461E+01 -0.39310840880E+02  0.47787270332E+02  0.19999996753E+02 0.  0.
         12    1    3    3    0    0  0.18339962006E+02  0.13881349461E+01  0.39310840880E+02  0.43400729668E+02  0.00000000000E+00 0. -1.
         11    1    4    4    0    0 -0.33027952994E+01  0.63771143020E+00 -0.94039684190E+01  0.99874799096E+01  0.51100000000E-03 0. -1.
        -11    1    4    4    0    0 -0.14042922722E+02 -0.28534567384E+01 -0.32156399223E+02  0.35204827867E+02  0.51100000000E-03 0.  1.
         12    1    4    4    0    0 -0.99424398466E+00  0.82761036212E+00  0.22495267617E+01  0.25949625555E+01  0.00000000000E+00 0. -1.
</event>
<event>
 8    1  0.4042158E-011  0.9118800E+02  0.7816164E-02  0.1184000E+00
        -11   -1    0    0    0    0  0.00000000000E+00  0.00000000000E+00  0.45593999997E+02  0.45594000000E+02  0.51100000000E-03 0. -1.
         11   -1    0    0    0    0 -0.00000000000E+00 -0.00000000000E+00 -0.45593999997E+02  0.45594000000E+02  0.51100000000E-03 0.  1.
         23    2    1    2    0    0  0.00000000000E+00  0.88817841970E-15  0.35527136788E-14  0.91188000000E+02  0.91188000000E+02 0.  0.
    9900012    2    3    3    0    0  0.39180641267E+02  0.70056280568E+01 -0.17303805460E+02  0.47787272380E+02  0.20000006089E+02 0.  0.
         12    1    3    3    0    0 -0.39180641267E+02 -0.70056280568E+01  0.17303805460E+02  0.43400727620E+02  0.00000000000E+00 0. -1.
         11    1    4    4    0    0  0.21026148082E+01  0.18484472102E+01 -0.71310957924E+01  0.76609577458E+01  0.51100000000E-03 0. -1.
        -11    1    4    4    0    0  0.10836738847E+02 -0.19654052599E+01 -0.62234794772E+01  0.12650273663E+02  0.51100000000E-03 0.  1.
        -12    1    4    4    0    0  0.26241287612E+02  0.71225861064E+01 -0.39492301903E+01  0.27476040971E+02  0.00000000000E+00 0.  1.
</event>
<event>
 8    1  0.4042158E-011  0.9118800E+02  0.7816164E-02  0.1184000E+00
        -11   -1    0    0    0    0  0.00000000000E+00  0.00000000000E+00  0.45593999997E+02  0.45594000000E+02  0.51100000000E-03 0. -1.
         11   -1    0    0    0    0 -0.00000000000E+00 -0.00000000000E+00 -0.45593999997E+02  0.45594000000E+02  0.51100000000E-03 0.  1.
         23    2    1    2    0    0  0.00000000000E+00  0.00000000000E+00  0.00000000000E+00  0.91188000000E+02  0.91188000000E+02 0.  0.
    9900012    2    3    3    0    0  0.21604274516E+02  0.34709554338E+02  0.14564540128E+02  0.47787266494E+02  0.19999979253E+02 0.  0.
        -12    1    3    3    0    0 -0.21604274516E+02 -0.34709554338E+02 -0.14564540128E+02  0.43400733506E+02  0.00000000000E+00 0.  1.
         11    1    4    4    0    0  0.10507314401E+02  0.11854404329E+02  0.29050582227E+01  0.16104965739E+02  0.51100000000E-03 0. -1.
        -11    1    4    4    0    0  0.72939689835E+00 -0.13665850264E+01 -0.15653284722E+01  0.22022324938E+01  0.51100000000E-03 0.  1.
         12    1    4    4    0    0  0.10367563217E+02  0.24221735035E+02  0.13224810377E+02  0.29480068261E+02  0.00000000000E+00 0. -1.
</event>
<event>
 8    1  0.4042158E-011  0.9118800E+02  0.7816164E-02  0.1184000E+00
        -11   -1    0    0    0    0  0.00000000000E+00  0.00000000000E+00  0.45593999997E+02  0.45594000000E+02  0.51100000000E-03 0. -1.
         11   -1    0    0    0    0 -0.00000000000E+00 -0.00000000000E+00 -0.45593999997E+02  0.45594000000E+02  0.51100000000E-03 0.  1.
         23    2    1    2    0    0  0.00000000000E+00  0.88817841970E-15  0.00000000000E+00  0.91188000000E+02  0.91188000000E+02 0.  0.
    9900012    2    3    3    0    0  0.29441301462E+02  0.75897305965E+01 -0.30971411873E+02  0.47787278857E+02  0.20000035621E+02 0.  0.
         12    1    3    3    0    0 -0.29441301462E+02 -0.75897305965E+01  0.30971411873E+02  0.43400721143E+02  0.00000000000E+00 0. -1.
         11    1    4    4    0    0  0.16371806076E+01  0.55905189044E+01 -0.32178610960E+01  0.66549900268E+01  0.51100000000E-03 0. -1.
        -11    1    4    4    0    0  0.14698141733E+02  0.40940562164E+01 -0.77159903857E+01  0.17097753496E+02  0.51100000000E-03 0.  1.
        -12    1    4    4    0    0  0.13105979121E+02 -0.20948445243E+01 -0.20037560392E+02  0.24034535335E+02  0.00000000000E+00 0.  1.
</event>
<event>
 8    1  0.4042158E-011  0.9118800E+02  0.7816164E-02  0.1184000E+00
        -11   -1    0    0    0    0  0.00000000000E+00  0.00000000000E+00  0.45593999997E+02  0.45594000000E+02  0.51100000000E-03 0. -1.
         11   -1    0    0    0    0 -0.00000000000E+00 -0.00000000000E+00 -0.45593999997E+02  0.45594000000E+02  0.51100000000E-03 0.  1.
         23    2    1    2    0    0  0.00000000000E+00  0.00000000000E+00  0.00000000000E+00  0.91188000000E+02  0.91188000000E+02 0.  0.
    9900012    2    3    3    0    0 -0.24083944745E+02 -0.73007880450E+01 -0.35359375560E+02  0.47787270276E+02  0.19999996496E+02 0.  0.
         12    1    3    3    0    0  0.24083944745E+02  0.73007880450E+01  0.35359375560E+02  0.43400729724E+02  0.00000000000E+00 0. -1.
         11    1    4    4    0    0 -0.12834158304E+02  0.27424506605E+01 -0.24801747968E+02  0.28059995680E+02  0.51100000000E-03 0. -1.
        -11    1    4    4    0    0 -0.56403476633E+01 -0.12977593548E+01 -0.61382189425E+01  0.84365533930E+01  0.51100000000E-03 0.  1.
        -12    1    4    4    0    0 -0.56094387775E+01 -0.87454793507E+01 -0.44194086497E+01  0.11290721203E+02  0.00000000000E+00 0.  1.
</event>
<event>
 8    1  0.4042158E-011  0.9118800E+02  0.7816164E-02  0.1184000E+00
        -11   -1    0    0    0    0  0.00000000000E+00  0.00000000000E+00  0.45593999997E+02  0.45594000000E+02  0.51100000000E-03 0. -1.
         11   -1    0    0    0    0 -0.00000000000E+00 -0.00000000000E+00 -0.45593999997E+02  0.45594000000E+02  0.51100000000E-03 0.  1.
         23    2    1    2    0    0  0.00000000000E+00 -0.88817841970E-15  0.71054273576E-14  0.91188000000E+02  0.91188000000E+02 0.  0.
    9900012    2    3    3    0    0  0.23078057392E+02 -0.64632540829E+01  0.36183598338E+02  0.47787272184E+02  0.20000005194E+02 0.  0.
        -12    1    3    3    0    0 -0.23078057392E+02  0.64632540829E+01 -0.36183598338E+02  0.43400727816E+02  0.00000000000E+00 0.  1.
         11    1    4    4    0    0  0.13834668107E+02  0.41366236842E+01  0.16964235538E+02  0.22277679071E+02  0.51100000000E-03 0. -1.
        -11    1    4    4    0    0  0.48539779501E+01 -0.28956425701E+00  0.95163179943E+01  0.10686686008E+02  0.51100000000E-03 0.  1.
        -12    1    4    4    0    0  0.43894113349E+01 -0.10310313510E+02  0.97030448058E+01  0.14822907105E+02  0.00000000000E+00 0.  1.
</event>
<event>
 8    1  0.4042158E-011  0.9118800E+02  0.7816164E-02  0.1184000E+00
        -11   -1    0    0    0    0  0.00000000000E+00  0.00000000000E+00  0.45593999997E+02  0.45594000000E+02  0.51100000000E-03 0. -1.
         11   -1    0    0    0    0 -0.00000000000E+00 -0.00000000000E+00 -0.45593999997E+02  0.45594000000E+02  0.51100000000E-03 0.  1.
         23    2    1    2    0    0  0.00000000000E+00  0.00000000000E+00 -0.35527136788E-14  0.91188000000E+02  0.91188000000E+02 0.  0.
    9900012    2    3    3    0    0 -0.50383497971E+01 -0.33232047367E+02  0.27456687374E+02  0.47787267028E+02  0.19999981688E+02 0.  0.
        -12    1    3    3    0    0  0.50383497971E+01  0.33232047367E+02 -0.27456687374E+02  0.43400732972E+02  0.00000000000E+00 0.  1.
         11    1    4    4    0    0 -0.12085172395E+01 -0.14862680732E+02  0.16267744064E+02  0.22068060396E+02  0.51100000000E-03 0. -1.
        -11    1    4    4    0    0 -0.13311278634E+00  0.11533498575E+00  0.62228067057E+01  0.62252987664E+01  0.51100000000E-03 0.  1.
         12    1    4    4    0    0 -0.36967197713E+01 -0.18484701622E+02  0.49661366048E+01  0.19493907866E+02  0.00000000000E+00 0. -1.
</event>
<event>
 8    1  0.4042158E-011  0.9118800E+02  0.7816164E-02  0.1184000E+00
        -11   -1    0    0    0    0  0.00000000000E+00  0.00000000000E+00  0.45593999997E+02  0.45594000000E+02  0.51100000000E-03 0. -1.
         11   -1    0    0    0    0 -0.00000000000E+00 -0.00000000000E+00 -0.45593999997E+02  0.45594000000E+02  0.51100000000E-03 0.  1.
         23    2    1    2    0    0  0.00000000000E+00 -0.17763568394E-14  0.00000000000E+00  0.91188000000E+02  0.91188000000E+02 0.  0.
    9900012    2    3    3    0    0  0.37324819283E+01  0.97199284517E+01  0.42133300048E+02  0.47787269553E+02  0.19999993199E+02 0.  0.
        -12    1    3    3    0    0 -0.37324819283E+01 -0.97199284517E+01 -0.42133300048E+02  0.43400730447E+02  0.00000000000E+00 0.  1.
         11    1    4    4    0    0  0.65432280764E+01  0.45419889777E+00  0.14615706051E+02  0.16019956115E+02  0.51100000000E-03 0. -1.
        -11    1    4    4    0    0  0.35365395140E+01  0.86995600215E+01  0.14530027278E+02  0.17300611240E+02  0.51100000000E-03 0.  1.
         12    1    4    4    0    0 -0.63472856621E+01  0.56616953241E+00  0.12987566719E+02  0.14466702198E+02  0.00000000000E+00 0. -1.
</event>
<event>
 8    1  0.4042158E-011  0.9118800E+02  0.7816164E-02  0.1184000E+00
        -11   -1    0    0    0    0  0.00000000000E+00  0.00000000000E+00  0.45593999997E+02  0.45594000000E+02  0.51100000000E-03 0. -1.
         11   -1    0    0    0    0 -0.00000000000E+00 -0.00000000000E+00 -0.45593999997E+02  0.45594000000E+02  0.51100000000E-03 0.  1.
         23    2    1    2    0    0 -0.88817841970E-15  0.00000000000E+00  0.17763568394E-14  0.91188000000E+02  0.91188000000E+02 0.  0.
    9900012    2    3    3    0    0  0.57398634862E+01  0.41389842762E+02 -0.11728304892E+02  0.47787328895E+02  0.20000263761E+02 0.  0.
         12    1    3    3    0    0 -0.57398634862E+01 -0.41389842762E+02  0.11728304892E+02  0.43400671105E+02  0.00000000000E+00 0. -1.
         11    1    4    4    0    0 -0.18811289672E+01  0.89703839306E+01 -0.11776255970E+01  0.92408460847E+01  0.51100000000E-03 0. -1.
        -11    1    4    4    0    0  0.10259761916E+02  0.14933315478E+02 -0.32978460077E+00  0.18121130866E+02  0.51100000000E-03 0.  1.
        -12    1    4    4    0    0 -0.26387694626E+01  0.17486143354E+02 -0.10220894694E+02  0.20425351944E+02  0.00000000000E+00 0.  1.
</event>
<event>
 8    1  0.4042158E-011  0.9118800E+02  0.7816164E-02  0.1184000E+00
        -11   -1    0    0    0    0  0.00000000000E+00  0.00000000000E+00  0.45593999997E+02  0.45594000000E+02  0.51100000000E-03 0. -1.
         11   -1    0    0    0    0 -0.00000000000E+00 -0.00000000000E+00 -0.45593999997E+02  0.45594000000E+02  0.51100000000E-03 0.  1.
         23    2    1    2    0    0  0.00000000000E+00  0.00000000000E+00  0.00000000000E+00  0.91188000000E+02  0.91188000000E+02 0.  0.
    9900012    2    3    3    0    0  0.13402383937E+02 -0.85811618424E+01 -0.40377751748E+02  0.47787273394E+02  0.20000010711E+02 0.  0.
         12    1    3    3    0    0 -0.13402383937E+02  0.85811618424E+01  0.40377751748E+02  0.43400726606E+02  0.00000000000E+00 0. -1.
         11    1    4    4    0    0  0.29082622535E+01  0.34786366873E+00 -0.29016028437E+01  0.41228991973E+01  0.51100000000E-03 0. -1.
        -11    1    4    4    0    0  0.10043906775E+02  0.67966420922E+00 -0.29493705783E+02  0.31164413805E+02  0.51100000000E-03 0.  1.
         12    1    4    4    0    0  0.45021490834E+00 -0.96086897203E+01 -0.79824431214E+01  0.12499960392E+02  0.00000000000E+00 0. -1.
</event>
<event>
 8    1  0.4042158E-011  0.9118800E+02  0.7816164E-02  0.1184000E+00
        -11   -1    0    0    0    0  0.00000000000E+00  0.00000000000E+00  0.45593999997E+02  0.45594000000E+02  0.51100000000E-03 0. -1.
         11   -1    0    0    0    0 -0.00000000000E+00 -0.00000000000E+00 -0.45593999997E+02  0.45594000000E+02  0.51100000000E-03 0.  1.
         23    2    1    2    0    0  0.00000000000E+00 -0.17763568394E-14  0.00000000000E+00  0.91188000000E+02  0.91188000000E+02 0.  0.
    9900012    2    3    3    0    0 -0.18775218484E+02  0.42426781668E+01  0.38898758613E+02  0.47787279168E+02  0.20000037036E+02 0.  0.
        -12    1    3    3    0    0  0.18775218484E+02 -0.42426781668E+01 -0.38898758613E+02  0.43400720832E+02  0.00000000000E+00 0.  1.
         11    1    4    4    0    0 -0.16949468784E+02  0.21759644331E+01  0.27877064613E+02  0.32697859945E+02  0.51100000000E-03 0. -1.
        -11    1    4    4    0    0 -0.83460585795E+00  0.58737394916E+01  0.86719944754E+01  0.10507181877E+02  0.51100000000E-03 0.  1.
        -12    1    4    4    0    0 -0.99114384139E+00 -0.38070257579E+01  0.23496995251E+01  0.45822373459E+01  0.00000000000E+00 0.  1.
</event>
<event>
 8    1  0.4042158E-011  0.9118800E+02  0.7816164E-02  0.1184000E+00
        -11   -1    0    0    0    0  0.00000000000E+00  0.00000000000E+00  0.45593999997E+02  0.45594000000E+02  0.51100000000E-03 0. -1.
         11   -1    0    0    0    0 -0.00000000000E+00 -0.00000000000E+00 -0.45593999997E+02  0.45594000000E+02  0.51100000000E-03 0.  1.
         23    2    1    2    0    0  0.00000000000E+00  0.77715611724E-15  0.00000000000E+00  0.91188000000E+02  0.91188000000E+02 0.  0.
    9900012    2    3    3    0    0  0.10321544210E+02  0.55086950699E+00 -0.42151930751E+02  0.47787274221E+02  0.20000014483E+02 0.  0.
         12    1    3    3    0    0 -0.10321544210E+02 -0.55086950699E+00  0.42151930751E+02  0.43400725779E+02  0.00000000000E+00 0. -1.
         11    1    4    4    0    0  0.46099664288E+01 -0.38331493550E+01 -0.11625327905E+02  0.13080255105E+02  0.51100000000E-03 0. -1.
        -11    1    4    4    0    0  0.43718009616E+01 -0.34197839934E+01 -0.23416141637E+02  0.24064979859E+02  0.51100000000E-03 0.  1.
         12    1    4    4    0    0  0.13397768199E+01  0.78038028554E+01 -0.71104612095E+01  0.10642039257E+02  0.00000000000E+00 0. -1.
</event>
<event>
 8    1  0.4042158E-011  0.9118800E+02  0.7816164E-02  0.1184000E+00
        -11   -1    0    0    0    0  0.00000000000E+00  0.00000000000E+00  0.45593999997E+02  0.45594000000E+02  0.51100000000E-03 0. -1.
         11   -1    0    0    0    0 -0.00000000000E+00 -0.00000000000E+00 -0.45593999997E+02  0.45594000000E+02  0.51100000000E-03 0.  1.
         23    2    1    2    0    0  0.00000000000E+00  0.35527136788E-14  0.00000000000E+00  0.91188000000E+02  0.91188000000E+02 0.  0.
    9900012    2    3    3    0    0 -0.37941884903E+01 -0.20457102675E+02  0.38088499911E+02  0.47787277176E+02  0.20000027958E+02 0.  0.
        -12    1    3    3    0    0  0.37941884903E+01  0.20457102675E+02 -0.38088499911E+02  0.43400722824E+02  0.00000000000E+00 0.  1.
         11    1    4    4    0    0  0.14702767186E+00 -0.79288100788E+01  0.27134385860E+02  0.28269463077E+02  0.51100000000E-03 0. -1.
        -11    1    4    4    0    0 -0.43985315890E+00 -0.12544467273E+02  0.94266885910E+01  0.15697757420E+02  0.51100000000E-03 0.  1.
         12    1    4    4    0    0 -0.35013630032E+01  0.16174676196E-01  0.15274254597E+01  0.38200566796E+01  0.00000000000E+00 0. -1.
</event>
<event>
 8    1  0.4042158E-011  0.9118800E+02  0.7816164E-02  0.1184000E+00
        -11   -1    0    0    0    0  0.00000000000E+00  0.00000000000E+00  0.45593999997E+02  0.45594000000E+02  0.51100000000E-03 0. -1.
         11   -1    0    0    0    0 -0.00000000000E+00 -0.00000000000E+00 -0.45593999997E+02  0.45594000000E+02  0.51100000000E-03 0.  1.
         23    2    1    2    0    0  0.00000000000E+00  0.71054273576E-14  0.35527136788E-14  0.91188000000E+02  0.91188000000E+02 0.  0.
    9900012    2    3    3    0    0  0.60543078664E+01 -0.35559775477E+02  0.24134432965E+02  0.47787272699E+02  0.20000007544E+02 0.  0.
        -12    1    3    3    0    0 -0.60543078664E+01  0.35559775477E+02 -0.24134432965E+02  0.43400727301E+02  0.00000000000E+00 0.  1.
         11    1    4    4    0    0 -0.15412639907E+01 -0.25842052345E+02  0.10935563444E+02  0.28102912877E+02  0.51100000000E-03 0. -1.
        -11    1    4    4    0    0  0.46523374603E+01 -0.96717694793E+01  0.69761739087E+01  0.12800561369E+02  0.51100000000E-03 0.  1.
        -12    1    4    4    0    0  0.29432343969E+01 -0.45953652910E-01  0.62226956123E+01  0.68837984526E+01  0.00000000000E+00 0.  1.
</event>
<event>
 8    1  0.4042158E-011  0.9118800E+02  0.7816164E-02  0.1184000E+00
        -11   -1    0    0    0    0  0.00000000000E+00  0.00000000000E+00  0.45593999997E+02  0.45594000000E+02  0.51100000000E-03 0.  1.
         11   -1    0    0    0    0 -0.00000000000E+00 -0.00000000000E+00 -0.45593999997E+02  0.45594000000E+02  0.51100000000E-03 0. -1.
         23    2    1    2    0    0  0.00000000000E+00  0.00000000000E+00  0.33306690739E-15  0.91188000000E+02  0.91188000000E+02 0.  0.
    9900012    2    3    3    0    0 -0.11400735418E+02 -0.41866573292E+02  0.91466956549E+00  0.47787270193E+02  0.19999996120E+02 0.  0.
        -12    1    3    3    0    0  0.11400735418E+02  0.41866573292E+02 -0.91466956549E+00  0.43400729807E+02  0.00000000000E+00 0.  1.
         11    1    4    4    0    0 -0.69871928217E+01 -0.26812128987E+02  0.95268479763E+00  0.27723973974E+02  0.51100000000E-03 0. -1.
        -11    1    4    4    0    0 -0.68308501753E+01 -0.15184716484E+02 -0.22280899029E+01  0.16798824772E+02  0.51100000000E-03 0.  1.
         12    1    4    4    0    0  0.24173075785E+01  0.13027217876E+00  0.21900746708E+01  0.32644714478E+01  0.00000000000E+00 0. -1.
</event>
<event>
 8    1  0.4042158E-011  0.9118800E+02  0.7816164E-02  0.1184000E+00
        -11   -1    0    0    0    0  0.00000000000E+00  0.00000000000E+00  0.45593999997E+02  0.45594000000E+02  0.51100000000E-03 0. -1.
         11   -1    0    0    0    0 -0.00000000000E+00 -0.00000000000E+00 -0.45593999997E+02  0.45594000000E+02  0.51100000000E-03 0.  1.
         23    2    1    2    0    0 -0.88817841970E-15  0.00000000000E+00  0.71054273576E-14  0.91188000000E+02  0.91188000000E+02 0.  0.
    9900012    2    3    3    0    0  0.64507803178E+01  0.22670151834E+02 -0.36442761398E+02  0.47787271790E+02  0.20000003397E+02 0.  0.
         12    1    3    3    0    0 -0.64507803178E+01 -0.22670151834E+02  0.36442761398E+02  0.43400728210E+02  0.00000000000E+00 0. -1.
         11    1    4    4    0    0  0.11409116764E+01 -0.15754034156E+01 -0.44031614824E+01  0.48136687336E+01  0.51100000000E-03 0. -1.
        -11    1    4    4    0    0  0.55938471360E+01  0.86604142708E+01 -0.22366730950E+02  0.24628531316E+02  0.51100000000E-03 0.  1.
         12    1    4    4    0    0 -0.28397849460E+00  0.15585140979E+02 -0.96728689652E+01  0.18345071740E+02  0.00000000000E+00 0. -1.
</event>
<event>
 8    1  0.4042158E-011  0.9118800E+02  0.7816164E-02  0.1184000E+00
        -11   -1    0    0    0    0  0.00000000000E+00  0.00000000000E+00  0.45593999997E+02  0.45594000000E+02  0.51100000000E-03 0.  1.
         11   -1    0    0    0    0 -0.00000000000E+00 -0.00000000000E+00 -0.45593999997E+02  0.45594000000E+02  0.51100000000E-03 0. -1.
         23    2    1    2    0    0  0.66613381478E-15  0.71054273576E-14  0.00000000000E+00  0.91188000000E+02  0.91188000000E+02 0.  0.
    9900012    2    3    3    0    0 -0.18387572338E+01  0.40358840196E+02  0.15855803472E+02  0.47787268279E+02  0.19999987392E+02 0.  0.
        -12    1    3    3    0    0  0.18387572338E+01 -0.40358840196E+02 -0.15855803472E+02  0.43400731721E+02  0.00000000000E+00 0.  1.
         11    1    4    4    0    0 -0.30104418534E+01  0.15228852901E+02  0.52781803474E+00  0.15532524359E+02  0.51100000000E-03 0. -1.
        -11    1    4    4    0    0 -0.34860612544E+01  0.15881447477E+02  0.36828139177E+01  0.16671416126E+02  0.51100000000E-03 0.  1.
        -12    1    4    4    0    0  0.46577458740E+01  0.92485398179E+01  0.11645171520E+02  0.15583327793E+02  0.00000000000E+00 0.  1.
</event>
<event>
 8    1  0.4042158E-011  0.9118800E+02  0.7816164E-02  0.1184000E+00
        -11   -1    0    0    0    0  0.00000000000E+00  0.00000000000E+00  0.45593999997E+02  0.45594000000E+02  0.51100000000E-03 0. -1.
         11   -1    0    0    0    0 -0.00000000000E+00 -0.00000000000E+00 -0.45593999997E+02  0.45594000000E+02  0.51100000000E-03 0.  1.
         23    2    1    2    0    0  0.22204460493E-15 -0.66613381478E-15  0.00000000000E+00  0.91188000000E+02  0.91188000000E+02 0.  0.
    9900012    2    3    3    0    0 -0.70412765125E+00 -0.17061642068E+01  0.43361483586E+02  0.47787250573E+02  0.19999906660E+02 0.  0.
        -12    1    3    3    0    0  0.70412765125E+00  0.17061642068E+01 -0.43361483586E+02  0.43400749427E+02  0.00000000000E+00 0.  1.
         11    1    4    4    0    0 -0.59616247609E+01 -0.26528544967E+01  0.12341151929E+02  0.13960037176E+02  0.51100000000E-03 0. -1.
        -11    1    4    4    0    0 -0.24149094882E+01 -0.37730326742E+01  0.10689456941E+02  0.11590170549E+02  0.51100000000E-03 0.  1.
         12    1    4    4    0    0  0.76724065979E+01  0.47197229640E+01  0.20330874717E+02  0.22237042848E+02  0.00000000000E+00 0. -1.
</event>
<event>
 8    1  0.4042158E-011  0.9118800E+02  0.7816164E-02  0.1184000E+00
        -11   -1    0    0    0    0  0.00000000000E+00  0.00000000000E+00  0.45593999997E+02  0.45594000000E+02  0.51100000000E-03 0.  1.
         11   -1    0    0    0    0 -0.00000000000E+00 -0.00000000000E+00 -0.45593999997E+02  0.45594000000E+02  0.51100000000E-03 0. -1.
         23    2    1    2    0    0  0.00000000000E+00 -0.35527136788E-14  0.00000000000E+00  0.91188000000E+02  0.91188000000E+02 0.  0.
    9900012    2    3    3    0    0 -0.35900002688E+02 -0.24203195094E+02 -0.30022558682E+01  0.47787327355E+02  0.20000256740E+02 0.  0.
         12    1    3    3    0    0  0.35900002688E+02  0.24203195094E+02  0.30022558682E+01  0.43400672645E+02  0.00000000000E+00 0. -1.
         11    1    4    4    0    0 -0.13998697260E+02 -0.22229175693E+01  0.15125810338E+01  0.14254570816E+02  0.51100000000E-03 0. -1.
        -11    1    4    4    0    0 -0.20874066885E+02 -0.13932823852E+02 -0.29382455546E+01  0.25268231755E+02  0.51100000000E-03 0.  1.
         12    1    4    4    0    0 -0.10272385430E+01 -0.80474536726E+01 -0.15765913474E+01  0.82645247845E+01  0.00000000000E+00 0. -1.
</event>
<event>
 8    1  0.4042158E-011  0.9118800E+02  0.7816164E-02  0.1184000E+00
        -11   -1    0    0    0    0  0.00000000000E+00  0.00000000000E+00  0.45593999997E+02  0.45594000000E+02  0.51100000000E-03 0. -1.
         11   -1    0    0    0    0 -0.00000000000E+00 -0.00000000000E+00 -0.45593999997E+02  0.45594000000E+02  0.51100000000E-03 0.  1.
         23    2    1    2    0    0 -0.66613381478E-15 -0.71054273576E-14  0.35527136788E-14  0.91188000000E+02  0.91188000000E+02 0.  0.
    9900012    2    3    3    0    0 -0.52550817879E+00  0.32345055208E+02 -0.28933452444E+02  0.47787269297E+02  0.19999992031E+02 0.  0.
         12    1    3    3    0    0  0.52550817879E+00 -0.32345055208E+02  0.28933452444E+02  0.43400730703E+02  0.00000000000E+00 0. -1.
         11    1    4    4    0    0 -0.76769376856E+01  0.20048667444E+02 -0.12772898218E+02  0.24980619842E+02  0.51100000000E-03 0. -1.
        -11    1    4    4    0    0  0.41676774937E+01  0.34147222654E+01 -0.18402110439E+01  0.56935262174E+01  0.51100000000E-03 0.  1.
         12    1    4    4    0    0  0.29837520131E+01  0.88816654983E+01 -0.14320343182E+02  0.17113123238E+02  0.00000000000E+00 0. -1.
</event>
<event>
 8    1  0.4042158E-011  0.9118800E+02  0.7816164E-02  0.1184000E+00
        -11   -1    0    0    0    0  0.00000000000E+00  0.00000000000E+00  0.45593999997E+02  0.45594000000E+02  0.51100000000E-03 0. -1.
         11   -1    0    0    0    0 -0.00000000000E+00 -0.00000000000E+00 -0.45593999997E+02  0.45594000000E+02  0.51100000000E-03 0.  1.
         23    2    1    2    0    0  0.00000000000E+00 -0.44408920985E-15  0.35527136788E-14  0.91188000000E+02  0.91188000000E+02 0.  0.
    9900012    2    3    3    0    0 -0.35836530931E+02  0.33727129216E+01  0.24248534004E+02  0.47787267945E+02  0.19999985868E+02 0.  0.
        -12    1    3    3    0    0  0.35836530931E+02 -0.33727129216E+01 -0.24248534004E+02  0.43400732055E+02  0.00000000000E+00 0.  1.
         11    1    4    4    0    0 -0.22380569404E+02 -0.25992841562E+01  0.19581042316E+02  0.29850684806E+02  0.51100000000E-03 0. -1.
        -11    1    4    4    0    0  0.59435886016E+00  0.48915491058E+00  0.26021494312E+01  0.27136169414E+01  0.51100000000E-03 0.  1.
        -12    1    4    4    0    0 -0.14050320387E+02  0.54828421672E+01  0.20653422562E+01  0.15222966197E+02  0.00000000000E+00 0.  1.
</event>
<event>
 8    1  0.4042158E-011  0.9118800E+02  0.7816164E-02  0.1184000E+00
        -11   -1    0    0    0    0  0.00000000000E+00  0.00000000000E+00  0.45593999997E+02  0.45594000000E+02  0.51100000000E-03 0. -1.
         11   -1    0    0    0    0 -0.00000000000E+00 -0.00000000000E+00 -0.45593999997E+02  0.45594000000E+02  0.51100000000E-03 0.  1.
         23    2    1    2    0    0  0.00000000000E+00  0.00000000000E+00 -0.17763568394E-14  0.91188000000E+02  0.91188000000E+02 0.  0.
    9900012    2    3    3    0    0 -0.66731081958E+01  0.41913077321E+02  0.90766813242E+01  0.47787279184E+02  0.20000037109E+02 0.  0.
        -12    1    3    3    0    0  0.66731081958E+01 -0.41913077321E+02 -0.90766813242E+01  0.43400720816E+02  0.00000000000E+00 0.  1.
         11    1    4    4    0    0 -0.19190064095E+01  0.90794046523E+01  0.38924558929E+01  0.10063269229E+02  0.51100000000E-03 0. -1.
        -11    1    4    4    0    0  0.52243596004E+01  0.13086915215E+02  0.65872201882E+01  0.15554830541E+02  0.51100000000E-03 0.  1.
        -12    1    4    4    0    0 -0.99784613866E+01  0.19746757454E+02 -0.14029947569E+01  0.22169179414E+02  0.00000000000E+00 0.  1.
</event>
<event>
 8    1  0.5444307E-011  0.9118800E+02  0.7816164E-02  0.1184000E+00
        -11   -1    0    0    0    0  0.00000000000E+00  0.00000000000E+00  0.45593999997E+02  0.45594000000E+02  0.51100000000E-03 0. -1.
         11   -1    0    0    0    0 -0.00000000000E+00 -0.00000000000E+00 -0.45593999997E+02  0.45594000000E+02  0.51100000000E-03 0.  1.
         23    2    1    2    0    0  0.00000000000E+00  0.71054273576E-14  0.00000000000E+00  0.91188000000E+02  0.91188000000E+02 0.  0.
    9900012    2    3    3    0    0  0.16067406087E+02 -0.26241021074E+02  0.30608337160E+02  0.47787273865E+02  0.20000012858E+02 0.  0.
        -12    1    3    3    0    0 -0.16067406087E+02  0.26241021074E+02 -0.30608337160E+02  0.43400726135E+02  0.00000000000E+00 0.  1.
         11    1    4    4    0    0  0.71377294369E+01 -0.96999445573E+01  0.40152251404E+01  0.12694807565E+02  0.51100000000E-03 0. -1.
        -11    1    4    4    0    0  0.80567234506E+01 -0.15899157465E+02  0.14571775797E+02  0.23022394554E+02  0.51100000000E-03 0.  1.
        -12    1    4    4    0    0  0.87295319965E+00 -0.64191905141E+00  0.12021336223E+02  0.12070071746E+02  0.00000000000E+00 0.  1.
</event>
<event>
 8    1  0.4042158E-011  0.9118800E+02  0.7816164E-02  0.1184000E+00
        -11   -1    0    0    0    0  0.00000000000E+00  0.00000000000E+00  0.45593999997E+02  0.45594000000E+02  0.51100000000E-03 0. -1.
         11   -1    0    0    0    0 -0.00000000000E+00 -0.00000000000E+00 -0.45593999997E+02  0.45594000000E+02  0.51100000000E-03 0.  1.
         23    2    1    2    0    0  0.00000000000E+00  0.88817841970E-15 -0.71054273576E-14  0.91188000000E+02  0.91188000000E+02 0.  0.
    9900012    2    3    3    0    0 -0.22641368690E+02 -0.61528116806E+01  0.36512120810E+02  0.47787266898E+02  0.19999981095E+02 0.  0.
        -12    1    3    3    0    0  0.22641368690E+02  0.61528116806E+01 -0.36512120810E+02  0.43400733102E+02  0.00000000000E+00 0.  1.
         11    1    4    4    0    0 -0.58550249103E+01 -0.23234563964E+01  0.36219814513E+01  0.72662587499E+01  0.51100000000E-03 0. -1.
        -11    1    4    4    0    0 -0.15029123158E+02 -0.39213013084E+01  0.12185608514E+02  0.19741838870E+02  0.51100000000E-03 0.  1.
         12    1    4    4    0    0 -0.17572206215E+01  0.91946024211E-01  0.20704530845E+02  0.20779169278E+02  0.00000000000E+00 0. -1.
</event>
<event>
 8    1  0.4042158E-011  0.9118800E+02  0.7816164E-02  0.1184000E+00
        -11   -1    0    0    0    0  0.00000000000E+00  0.00000000000E+00  0.45593999997E+02  0.45594000000E+02  0.51100000000E-03 0. -1.
         11   -1    0    0    0    0 -0.00000000000E+00 -0.00000000000E+00 -0.45593999997E+02  0.45594000000E+02  0.51100000000E-03 0.  1.
         23    2    1    2    0    0  0.71054273576E-14  0.17763568394E-14  0.00000000000E+00  0.91188000000E+02  0.91188000000E+02 0.  0.
    9900012    2    3    3    0    0 -0.37629139909E+02 -0.12789886410E+02 -0.17438173612E+02  0.47787271162E+02  0.20000000538E+02 0.  0.
         12    1    3    3    0    0  0.37629139909E+02  0.12789886410E+02  0.17438173612E+02  0.43400728838E+02  0.00000000000E+00 0. -1.
         11    1    4    4    0    0 -0.32767757761E+02 -0.81650784071E+01 -0.10449802940E+02  0.35349580419E+02  0.51100000000E-03 0. -1.
        -11    1    4    4    0    0 -0.62470436068E+01 -0.22341489326E+01 -0.70405361514E+01  0.96739921872E+01  0.51100000000E-03 0.  1.
         12    1    4    4    0    0  0.13856614585E+01 -0.23906590707E+01  0.52165479583E-01  0.27636985558E+01  0.00000000000E+00 0. -1.
</event>
<event>
 8    1  0.4042158E-011  0.9118800E+02  0.7816164E-02  0.1184000E+00
        -11   -1    0    0    0    0  0.00000000000E+00  0.00000000000E+00  0.45593999997E+02  0.45594000000E+02  0.51100000000E-03 0. -1.
         11   -1    0    0    0    0 -0.00000000000E+00 -0.00000000000E+00 -0.45593999997E+02  0.45594000000E+02  0.51100000000E-03 0.  1.
         23    2    1    2    0    0 -0.17763568394E-14  0.00000000000E+00  0.35527136788E-14  0.91188000000E+02  0.91188000000E+02 0.  0.
    9900012    2    3    3    0    0 -0.98870776239E+01 -0.32864912223E+02  0.26566263916E+02  0.47787272612E+02  0.20000007146E+02 0.  0.
        -12    1    3    3    0    0  0.98870776239E+01  0.32864912223E+02 -0.26566263916E+02  0.43400727388E+02  0.00000000000E+00 0.  1.
         11    1    4    4    0    0 -0.10993622152E+00 -0.16754265912E+01  0.86248922794E+01  0.87868030209E+01  0.51100000000E-03 0. -1.
        -11    1    4    4    0    0 -0.77746960011E+00 -0.34513528520E+01  0.70196049890E+01  0.78607346953E+01  0.51100000000E-03 0.  1.
         12    1    4    4    0    0 -0.89996718023E+01 -0.27738132780E+02  0.10921766647E+02  0.31139734896E+02  0.00000000000E+00 0. -1.
</event>
<event>
 8    1  0.4042158E-011  0.9118800E+02  0.7816164E-02  0.1184000E+00
        -11   -1    0    0    0    0  0.00000000000E+00  0.00000000000E+00  0.45593999997E+02  0.45594000000E+02  0.51100000000E-03 0. -1.
         11   -1    0    0    0    0 -0.00000000000E+00 -0.00000000000E+00 -0.45593999997E+02  0.45594000000E+02  0.51100000000E-03 0.  1.
         23    2    1    2    0    0  0.00000000000E+00  0.00000000000E+00 -0.35527136788E-14  0.91188000000E+02  0.91188000000E+02 0.  0.
    9900012    2    3    3    0    0 -0.27996598282E+01 -0.37018225547E+02  0.22481904498E+02  0.47787272499E+02  0.20000006630E+02 0.  0.
        -12    1    3    3    0    0  0.27996598282E+01  0.37018225547E+02 -0.22481904498E+02  0.43400727501E+02  0.00000000000E+00 0.  1.
         11    1    4    4    0    0 -0.14032065532E+01 -0.77586505176E+00 -0.51222856631E-01  0.16042379037E+01  0.51100000000E-03 0. -1.
        -11    1    4    4    0    0  0.62068059348E+01 -0.29358031893E+02  0.17772403250E+02  0.34875160130E+02  0.51100000000E-03 0.  1.
         12    1    4    4    0    0 -0.76032592097E+01 -0.68843286022E+01  0.47607241042E+01  0.11307874465E+02  0.00000000000E+00 0. -1.
</event>
<event>
 8    1  0.4042158E-011  0.9118800E+02  0.7816164E-02  0.1184000E+00
        -11   -1    0    0    0    0  0.00000000000E+00  0.00000000000E+00  0.45593999997E+02  0.45594000000E+02  0.51100000000E-03 0. -1.
         11   -1    0    0    0    0 -0.00000000000E+00 -0.00000000000E+00 -0.45593999997E+02  0.45594000000E+02  0.51100000000E-03 0.  1.
         23    2    1    2    0    0  0.00000000000E+00  0.88817841970E-15  0.00000000000E+00  0.91188000000E+02  0.91188000000E+02 0.  0.
    9900012    2    3    3    0    0 -0.15100085972E+02 -0.66518833918E+01 -0.40141784407E+02  0.47787274149E+02  0.20000014156E+02 0.  0.
         12    1    3    3    0    0  0.15100085972E+02  0.66518833918E+01  0.40141784407E+02  0.43400725851E+02  0.00000000000E+00 0. -1.
         11    1    4    4    0    0 -0.59890613807E+01  0.15595915707E+01 -0.79423067078E+01  0.10068834004E+02  0.51100000000E-03 0. -1.
        -11    1    4    4    0    0 -0.13425801353E+02 -0.57608206024E+01 -0.22572699494E+02  0.26888026308E+02  0.51100000000E-03 0.  1.
         12    1    4    4    0    0  0.43147767624E+01 -0.24506543601E+01 -0.96267782046E+01  0.10830413838E+02  0.00000000000E+00 0. -1.
</event>
<event>
 8    1  0.4042158E-011  0.9118800E+02  0.7816164E-02  0.1184000E+00
        -11   -1    0    0    0    0  0.00000000000E+00  0.00000000000E+00  0.45593999997E+02  0.45594000000E+02  0.51100000000E-03 0. -1.
         11   -1    0    0    0    0 -0.00000000000E+00 -0.00000000000E+00 -0.45593999997E+02  0.45594000000E+02  0.51100000000E-03 0.  1.
         23    2    1    2    0    0 -0.26645352591E-14  0.00000000000E+00  0.00000000000E+00  0.91188000000E+02  0.91188000000E+02 0.  0.
    9900012    2    3    3    0    0  0.43381701469E+01  0.39519126945E+02  0.17408117164E+02  0.47787266620E+02  0.19999979828E+02 0.  0.
        -12    1    3    3    0    0 -0.43381701469E+01 -0.39519126945E+02 -0.17408117164E+02  0.43400733380E+02  0.00000000000E+00 0.  1.
         11    1    4    4    0    0  0.33647416597E+01  0.14279811928E+02  0.85157448489E+00  0.14695567172E+02  0.51100000000E-03 0. -1.
        -11    1    4    4    0    0  0.62107356728E+01  0.58085733063E+01  0.43022890857E+01  0.95300814839E+01  0.51100000000E-03 0.  1.
        -12    1    4    4    0    0 -0.52373071856E+01  0.19430741710E+02  0.12254253593E+02  0.23561617964E+02  0.00000000000E+00 0.  1.
</event>
<event>
 8    1  0.4042158E-011  0.9118800E+02  0.7816164E-02  0.1184000E+00
        -11   -1    0    0    0    0  0.00000000000E+00  0.00000000000E+00  0.45593999997E+02  0.45594000000E+02  0.51100000000E-03 0. -1.
         11   -1    0    0    0    0 -0.00000000000E+00 -0.00000000000E+00 -0.45593999997E+02  0.45594000000E+02  0.51100000000E-03 0.  1.
         23    2    1    2    0    0  0.00000000000E+00  0.00000000000E+00  0.00000000000E+00  0.91188000000E+02  0.91188000000E+02 0.  0.
    9900012    2    3    3    0    0 -0.21902316195E+02  0.51896246586E+01 -0.37107655388E+02  0.47787288633E+02  0.20000080192E+02 0.  0.
         12    1    3    3    0    0  0.21902316195E+02 -0.51896246586E+01  0.37107655388E+02  0.43400711367E+02  0.00000000000E+00 0. -1.
         11    1    4    4    0    0  0.88313626777E-01 -0.20789821505E+01 -0.18303056742E+01  0.27712786220E+01  0.51100000000E-03 0. -1.
        -11    1    4    4    0    0  0.17511003268E+01  0.10405396721E+01 -0.82884176328E+01  0.85350420199E+01  0.51100000000E-03 0.  1.
        -12    1    4    4    0    0 -0.23741730148E+02  0.62280671369E+01 -0.26988932081E+02  0.36480967991E+02  0.00000000000E+00 0.  1.
</event>
<event>
 8    1  0.4042158E-011  0.9118800E+02  0.7816164E-02  0.1184000E+00
        -11   -1    0    0    0    0  0.00000000000E+00  0.00000000000E+00  0.45593999997E+02  0.45594000000E+02  0.51100000000E-03 0. -1.
         11   -1    0    0    0    0 -0.00000000000E+00 -0.00000000000E+00 -0.45593999997E+02  0.45594000000E+02  0.51100000000E-03 0.  1.
         23    2    1    2    0    0  0.44408920985E-15  0.35527136788E-14  0.00000000000E+00  0.91188000000E+02  0.91188000000E+02 0.  0.
    9900012    2    3    3    0    0  0.22261871944E+01  0.23248502590E+02  0.36581070044E+02  0.47787268812E+02  0.19999989822E+02 0.  0.
        -12    1    3    3    0    0 -0.22261871944E+01 -0.23248502590E+02 -0.36581070044E+02  0.43400731188E+02  0.00000000000E+00 0.  1.
         11    1    4    4    0    0  0.51928666308E+01  0.59173589571E+01  0.25844778961E+02  0.27017283369E+02  0.51100000000E-03 0. -1.
        -11    1    4    4    0    0 -0.13189318045E+01  0.29593936440E+01  0.27268180534E+01  0.42347525078E+01  0.51100000000E-03 0.  1.
        -12    1    4    4    0    0 -0.16477476319E+01  0.14371749989E+02  0.80094730297E+01  0.16535232935E+02  0.00000000000E+00 0.  1.
</event>
<event>
 8    1  0.4042158E-011  0.9118800E+02  0.7816164E-02  0.1184000E+00
        -11   -1    0    0    0    0  0.00000000000E+00  0.00000000000E+00  0.45593999997E+02  0.45594000000E+02  0.51100000000E-03 0.  1.
         11   -1    0    0    0    0 -0.00000000000E+00 -0.00000000000E+00 -0.45593999997E+02  0.45594000000E+02  0.51100000000E-03 0. -1.
         23    2    1    2    0    0  0.00000000000E+00  0.00000000000E+00 -0.35527136788E-14  0.91188000000E+02  0.91188000000E+02 0.  0.
    9900012    2    3    3    0    0 -0.41202505992E+02 -0.75370102696E+01 -0.11365218544E+02  0.47787294748E+02  0.20000108072E+02 0.  0.
        -12    1    3    3    0    0  0.41202505992E+02  0.75370102696E+01  0.11365218544E+02  0.43400705252E+02  0.00000000000E+00 0.  1.
         11    1    4    4    0    0 -0.53945790279E+01  0.17548862197E+00  0.47489631141E+00  0.54182844067E+01  0.51100000000E-03 0.  1.
        -11    1    4    4    0    0 -0.28391289907E+02  0.11684445614E+01 -0.11878991491E+02  0.30798393536E+02  0.51100000000E-03 0. -1.
         12    1    4    4    0    0 -0.74166370573E+01 -0.88809434530E+01  0.38876635548E-01  0.11570616805E+02  0.00000000000E+00 0. -1.
</event>
<event>
 8    1  0.4042158E-011  0.9118800E+02  0.7816164E-02  0.1184000E+00
        -11   -1    0    0    0    0  0.00000000000E+00  0.00000000000E+00  0.45593999997E+02  0.45594000000E+02  0.51100000000E-03 0. -1.
         11   -1    0    0    0    0 -0.00000000000E+00 -0.00000000000E+00 -0.45593999997E+02  0.45594000000E+02  0.51100000000E-03 0.  1.
         23    2    1    2    0    0  0.00000000000E+00  0.00000000000E+00  0.35527136788E-14  0.91188000000E+02  0.91188000000E+02 0.  0.
    9900012    2    3    3    0    0  0.99829802818E+01  0.35032182294E+02 -0.23594697714E+02  0.47787268994E+02  0.19999990653E+02 0.  0.
         12    1    3    3    0    0 -0.99829802818E+01 -0.35032182294E+02  0.23594697714E+02  0.43400731006E+02  0.00000000000E+00 0. -1.
         11    1    4    4    0    0 -0.17024447688E+01  0.87202486443E+01 -0.77570618070E+00  0.89186756276E+01  0.51100000000E-03 0. -1.
        -11    1    4    4    0    0  0.85127676481E+01  0.71197348682E+01 -0.39825876248E+01  0.11790625177E+02  0.51100000000E-03 0.  1.
        -12    1    4    4    0    0  0.31726574025E+01  0.19192198782E+02 -0.18836403908E+02  0.27077968189E+02  0.00000000000E+00 0.  1.
</event>
<event>
 8    1  0.4042158E-011  0.9118800E+02  0.7816164E-02  0.1184000E+00
        -11   -1    0    0    0    0  0.00000000000E+00  0.00000000000E+00  0.45593999997E+02  0.45594000000E+02  0.51100000000E-03 0. -1.
         11   -1    0    0    0    0 -0.00000000000E+00 -0.00000000000E+00 -0.45593999997E+02  0.45594000000E+02  0.51100000000E-03 0.  1.
         23    2    1    2    0    0  0.00000000000E+00  0.00000000000E+00  0.00000000000E+00  0.91188000000E+02  0.91188000000E+02 0.  0.
    9900012    2    3    3    0    0  0.36912095324E+02  0.99290526277E+01  0.20555641090E+02  0.47787271343E+02  0.20000001361E+02 0.  0.
        -12    1    3    3    0    0 -0.36912095324E+02 -0.99290526277E+01 -0.20555641090E+02  0.43400728657E+02  0.00000000000E+00 0.  1.
         11    1    4    4    0    0  0.51417651628E+01  0.31993567367E+01  0.43476788545E+01  0.74549275114E+01  0.51100000000E-03 0. -1.
        -11    1    4    4    0    0  0.90217490861E+01 -0.47706533960E+01  0.15161601757E+00  0.10206570338E+02  0.51100000000E-03 0.  1.
        -12    1    4    4    0    0  0.22748581076E+02  0.11500349287E+02  0.16056346218E+02  0.30125773493E+02  0.00000000000E+00 0.  1.
</event>
<event>
 8    1  0.4042158E-011  0.9118800E+02  0.7816164E-02  0.1184000E+00
        -11   -1    0    0    0    0  0.00000000000E+00  0.00000000000E+00  0.45593999997E+02  0.45594000000E+02  0.51100000000E-03 0.  1.
         11   -1    0    0    0    0 -0.00000000000E+00 -0.00000000000E+00 -0.45593999997E+02  0.45594000000E+02  0.51100000000E-03 0. -1.
         23    2    1    2    0    0 -0.35527136788E-14 -0.14210854715E-13 -0.88817841970E-15  0.91188000000E+02  0.91188000000E+02 0.  0.
    9900012    2    3    3    0    0 -0.20132711127E+02 -0.38097050114E+02 -0.51876819698E+01  0.47787270410E+02  0.19999997109E+02 0.  0.
         12    1    3    3    0    0  0.20132711127E+02  0.38097050114E+02  0.51876819698E+01  0.43400729590E+02  0.00000000000E+00 0. -1.
         11    1    4    4    0    0 -0.14397353088E+02 -0.23669461632E+02  0.12849802501E+01  0.27734065053E+02  0.51100000000E-03 0. -1.
        -11    1    4    4    0    0 -0.52884783650E+00 -0.12592702152E+02 -0.16280960639E+01  0.12708521731E+02  0.51100000000E-03 0.  1.
         12    1    4    4    0    0 -0.52065102025E+01 -0.18348863297E+01 -0.48445661559E+01  0.73446836264E+01  0.00000000000E+00 0. -1.
</event>
<event>
 8    1  0.4042158E-011  0.9118800E+02  0.7816164E-02  0.1184000E+00
        -11   -1    0    0    0    0  0.00000000000E+00  0.00000000000E+00  0.45593999997E+02  0.45594000000E+02  0.51100000000E-03 0. -1.
         11   -1    0    0    0    0 -0.00000000000E+00 -0.00000000000E+00 -0.45593999997E+02  0.45594000000E+02  0.51100000000E-03 0.  1.
         23    2    1    2    0    0  0.00000000000E+00  0.17763568394E-14  0.71054273576E-14  0.91188000000E+02  0.91188000000E+02 0.  0.
    9900012    2    3    3    0    0 -0.17256659358E+02  0.15884087683E+02  0.36517484405E+02  0.47787271884E+02  0.20000003830E+02 0.  0.
        -12    1    3    3    0    0  0.17256659358E+02 -0.15884087683E+02 -0.36517484405E+02  0.43400728116E+02  0.00000000000E+00 0.  1.
         11    1    4    4    0    0 -0.16020494662E+01  0.96166761637E+01  0.17054809472E+02  0.19644682469E+02  0.51100000000E-03 0. -1.
        -11    1    4    4    0    0 -0.32488258187E+00 -0.67518113488E+00 -0.12486932905E+01  0.14562463569E+01  0.51100000000E-03 0.  1.
         12    1    4    4    0    0 -0.15329727309E+02  0.69425926542E+01  0.20711368224E+02  0.26686343059E+02  0.00000000000E+00 0. -1.
</event>
<event>
 8    1  0.4042158E-011  0.9118800E+02  0.7816164E-02  0.1184000E+00
        -11   -1    0    0    0    0  0.00000000000E+00  0.00000000000E+00  0.45593999997E+02  0.45594000000E+02  0.51100000000E-03 0. -1.
         11   -1    0    0    0    0 -0.00000000000E+00 -0.00000000000E+00 -0.45593999997E+02  0.45594000000E+02  0.51100000000E-03 0.  1.
         23    2    1    2    0    0  0.00000000000E+00 -0.22204460493E-15  0.00000000000E+00  0.91188000000E+02  0.91188000000E+02 0.  0.
    9900012    2    3    3    0    0 -0.69728018684E+01  0.15324108917E+01 -0.42809522751E+02  0.47787268586E+02  0.19999988793E+02 0.  0.
         12    1    3    3    0    0  0.69728018684E+01 -0.15324108917E+01  0.42809522751E+02  0.43400731414E+02  0.00000000000E+00 0. -1.
         11    1    4    4    0    0  0.36472120362E+01  0.13728012708E+01 -0.75111681535E+01  0.84619375002E+01  0.51100000000E-03 0. -1.
        -11    1    4    4    0    0 -0.22933730807E+01  0.54744700430E+01 -0.21831269874E+02  0.22623742549E+02  0.51100000000E-03 0.  1.
        -12    1    4    4    0    0 -0.83266408240E+01 -0.53148604221E+01 -0.13467084724E+02  0.16701588538E+02  0.00000000000E+00 0.  1.
</event>
<event>
 8    1  0.4042158E-011  0.9118800E+02  0.7816164E-02  0.1184000E+00
        -11   -1    0    0    0    0  0.00000000000E+00  0.00000000000E+00  0.45593999997E+02  0.45594000000E+02  0.51100000000E-03 0. -1.
         11   -1    0    0    0    0 -0.00000000000E+00 -0.00000000000E+00 -0.45593999997E+02  0.45594000000E+02  0.51100000000E-03 0.  1.
         23    2    1    2    0    0  0.00000000000E+00 -0.35527136788E-14  0.00000000000E+00  0.91188000000E+02  0.91188000000E+02 0.  0.
    9900012    2    3    3    0    0 -0.17294148247E+02 -0.13313638135E+02  0.37513773783E+02  0.47787265589E+02  0.19999975125E+02 0.  0.
        -12    1    3    3    0    0  0.17294148247E+02  0.13313638135E+02 -0.37513773783E+02  0.43400734411E+02  0.00000000000E+00 0.  1.
         11    1    4    4    0    0 -0.15375482123E+02 -0.15135339808E+02  0.29432205039E+02  0.36492994606E+02  0.51100000000E-03 0. -1.
        -11    1    4    4    0    0 -0.10085282498E+01 -0.28439091645E+01  0.41173594736E+01  0.51046643242E+01  0.51100000000E-03 0.  1.
        -12    1    4    4    0    0 -0.91013787429E+00  0.46656108378E+01  0.39642092713E+01  0.61896066584E+01  0.00000000000E+00 0.  1.
</event>
<event>
 8    1  0.4042158E-011  0.9118800E+02  0.7816164E-02  0.1184000E+00
        -11   -1    0    0    0    0  0.00000000000E+00  0.00000000000E+00  0.45593999997E+02  0.45594000000E+02  0.51100000000E-03 0. -1.
         11   -1    0    0    0    0 -0.00000000000E+00 -0.00000000000E+00 -0.45593999997E+02  0.45594000000E+02  0.51100000000E-03 0.  1.
         23    2    1    2    0    0  0.00000000000E+00 -0.17763568394E-14  0.00000000000E+00  0.91188000000E+02  0.91188000000E+02 0.  0.
    9900012    2    3    3    0    0  0.16791625940E+02 -0.11060633081E+02 -0.38462008264E+02  0.47787281279E+02  0.20000046663E+02 0.  0.
         12    1    3    3    0    0 -0.16791625940E+02  0.11060633081E+02  0.38462008264E+02  0.43400718721E+02  0.00000000000E+00 0. -1.
         11    1    4    4    0    0 -0.20440867963E+01 -0.28013753287E+01 -0.47520296478E+01  0.58828378014E+01  0.51100000000E-03 0. -1.
        -11    1    4    4    0    0  0.18293162753E+02 -0.83885250270E+01 -0.35070254382E+02  0.40434266388E+02  0.51100000000E-03 0.  1.
         12    1    4    4    0    0  0.54254998317E+00  0.12926727502E+00  0.13602757666E+01  0.14701770893E+01  0.00000000000E+00 0. -1.
</event>
<event>
 8    1  0.4042158E-011  0.9118800E+02  0.7816164E-02  0.1184000E+00
        -11   -1    0    0    0    0  0.00000000000E+00  0.00000000000E+00  0.45593999997E+02  0.45594000000E+02  0.51100000000E-03 0. -1.
         11   -1    0    0    0    0 -0.00000000000E+00 -0.00000000000E+00 -0.45593999997E+02  0.45594000000E+02  0.51100000000E-03 0.  1.
         23    2    1    2    0    0 -0.17763568394E-14  0.00000000000E+00  0.00000000000E+00  0.91188000000E+02  0.91188000000E+02 0.  0.
    9900012    2    3    3    0    0  0.15545849098E+02  0.41897406308E+01  0.40303797005E+02  0.47787269548E+02  0.19999993176E+02 0.  0.
        -12    1    3    3    0    0 -0.15545849098E+02 -0.41897406308E+01 -0.40303797005E+02  0.43400730452E+02  0.00000000000E+00 0.  1.
         11    1    4    4    0    0  0.19331718308E+01 -0.14025417066E+01 -0.70179043644E-01  0.23893936314E+01  0.51100000000E-03 0. -1.
        -11    1    4    4    0    0  0.91017607060E+01 -0.13774299043E+01  0.87434400455E+01  0.12695948377E+02  0.51100000000E-03 0.  1.
         12    1    4    4    0    0  0.45109165614E+01  0.69697122418E+01  0.31630536003E+02  0.32701927540E+02  0.00000000000E+00 0. -1.
</event>
<event>
 8    1  0.4042158E-011  0.9118800E+02  0.7816164E-02  0.1184000E+00
        -11   -1    0    0    0    0  0.00000000000E+00  0.00000000000E+00  0.45593999997E+02  0.45594000000E+02  0.51100000000E-03 0. -1.
         11   -1    0    0    0    0 -0.00000000000E+00 -0.00000000000E+00 -0.45593999997E+02  0.45594000000E+02  0.51100000000E-03 0.  1.
         23    2    1    2    0    0  0.00000000000E+00 -0.17763568394E-14  0.00000000000E+00  0.91188000000E+02  0.91188000000E+02 0.  0.
    9900012    2    3    3    0    0  0.71509976802E+01  0.14092595249E+02 -0.40421346065E+02  0.47787271592E+02  0.20000002496E+02 0.  0.
         12    1    3    3    0    0 -0.71509976802E+01 -0.14092595249E+02  0.40421346065E+02  0.43400728408E+02  0.00000000000E+00 0. -1.
         11    1    4    4    0    0  0.16216394964E+01  0.39702777396E+00 -0.74108419572E+00  0.18266230470E+01  0.51100000000E-03 0. -1.
        -11    1    4    4    0    0 -0.59075330766E+01  0.62008140903E+01 -0.92873799863E+01  0.12633466258E+02  0.51100000000E-03 0.  1.
         12    1    4    4    0    0  0.11436891260E+02  0.74947533848E+01 -0.30392881883E+02  0.33327182286E+02  0.00000000000E+00 0. -1.
</event>
<event>
 8    1  0.4042158E-011  0.9118800E+02  0.7816164E-02  0.1184000E+00
        -11   -1    0    0    0    0  0.00000000000E+00  0.00000000000E+00  0.45593999997E+02  0.45594000000E+02  0.51100000000E-03 0.  1.
         11   -1    0    0    0    0 -0.00000000000E+00 -0.00000000000E+00 -0.45593999997E+02  0.45594000000E+02  0.51100000000E-03 0. -1.
         23    2    1    2    0    0  0.00000000000E+00  0.00000000000E+00  0.00000000000E+00  0.91188000000E+02  0.91188000000E+02 0.  0.
    9900012    2    3    3    0    0 -0.24448016160E+02  0.24557090276E+02 -0.26131713793E+02  0.47787278315E+02  0.20000033151E+02 0.  0.
        -12    1    3    3    0    0  0.24448016160E+02 -0.24557090276E+02  0.26131713793E+02  0.43400721685E+02  0.00000000000E+00 0.  1.
         11    1    4    4    0    0 -0.10624802377E+02  0.84073783931E+01 -0.12700805757E+02  0.18570969392E+02  0.51100000000E-03 0. -1.
        -11    1    4    4    0    0 -0.13395529337E+02  0.50658511330E+01 -0.46122619944E+01  0.15045797250E+02  0.51100000000E-03 0.  1.
        -12    1    4    4    0    0 -0.42768444661E+00  0.11083860749E+02 -0.88186460414E+01  0.14170511674E+02  0.00000000000E+00 0.  1.
</event>
<event>
 8    1  0.4042158E-011  0.9118800E+02  0.7816164E-02  0.1184000E+00
        -11   -1    0    0    0    0  0.00000000000E+00  0.00000000000E+00  0.45593999997E+02  0.45594000000E+02  0.51100000000E-03 0. -1.
         11   -1    0    0    0    0 -0.00000000000E+00 -0.00000000000E+00 -0.45593999997E+02  0.45594000000E+02  0.51100000000E-03 0.  1.
         23    2    1    2    0    0  0.35527136788E-14  0.00000000000E+00 -0.35527136788E-14  0.91188000000E+02  0.91188000000E+02 0.  0.
    9900012    2    3    3    0    0  0.22368385283E+02  0.22301349160E+02 -0.29764548536E+02  0.47787272079E+02  0.20000004717E+02 0.  0.
         12    1    3    3    0    0 -0.22368385283E+02 -0.22301349160E+02  0.29764548536E+02  0.43400727921E+02  0.00000000000E+00 0. -1.
         11    1    4    4    0    0  0.78354688171E+01  0.69849001159E+01 -0.18593965070E+02  0.21352258394E+02  0.51100000000E-03 0.  1.
        -11    1    4    4    0    0  0.10701855275E+02  0.14188569450E+02 -0.39836719234E+01  0.18213040702E+02  0.51100000000E-03 0. -1.
         12    1    4    4    0    0  0.38310611910E+01  0.11278795950E+01 -0.71869115421E+01  0.82219729836E+01  0.00000000000E+00 0. -1.
</event>
<event>
 8    1  0.4042158E-011  0.9118800E+02  0.7816164E-02  0.1184000E+00
        -11   -1    0    0    0    0  0.00000000000E+00  0.00000000000E+00  0.45593999997E+02  0.45594000000E+02  0.51100000000E-03 0. -1.
         11   -1    0    0    0    0 -0.00000000000E+00 -0.00000000000E+00 -0.45593999997E+02  0.45594000000E+02  0.51100000000E-03 0.  1.
         23    2    1    2    0    0 -0.35527136788E-14  0.35527136788E-14 -0.71054273576E-14  0.91188000000E+02  0.91188000000E+02 0.  0.
    9900012    2    3    3    0    0  0.19641216753E+02 -0.16140073585E+02  0.35175908349E+02  0.47787263842E+02  0.19999967161E+02 0.  0.
        -12    1    3    3    0    0 -0.19641216753E+02  0.16140073585E+02 -0.35175908349E+02  0.43400736158E+02  0.00000000000E+00 0.  1.
         11    1    4    4    0    0  0.35757275526E+01 -0.95369956371E+01  0.13575243471E+02  0.16971368503E+02  0.51100000000E-03 0. -1.
        -11    1    4    4    0    0  0.13695416042E+01 -0.37101053380E+01  0.12903464559E+02  0.13495922485E+02  0.51100000000E-03 0.  1.
         12    1    4    4    0    0  0.14695947596E+02 -0.28929726101E+01  0.86972003191E+01  0.17319972854E+02  0.00000000000E+00 0. -1.
</event>
<event>
 8    1  0.4042158E-011  0.9118800E+02  0.7816164E-02  0.1184000E+00
        -11   -1    0    0    0    0  0.00000000000E+00  0.00000000000E+00  0.45593999997E+02  0.45594000000E+02  0.51100000000E-03 0. -1.
         11   -1    0    0    0    0 -0.00000000000E+00 -0.00000000000E+00 -0.45593999997E+02  0.45594000000E+02  0.51100000000E-03 0.  1.
         23    2    1    2    0    0  0.00000000000E+00  0.00000000000E+00  0.00000000000E+00  0.91188000000E+02  0.91188000000E+02 0.  0.
    9900012    2    3    3    0    0  0.37864049514E+02 -0.11106469275E+02 -0.18071620654E+02  0.47787269840E+02  0.19999994509E+02 0.  0.
         12    1    3    3    0    0 -0.37864049514E+02  0.11106469275E+02  0.18071620654E+02  0.43400730160E+02  0.00000000000E+00 0. -1.
         11    1    4    4    0    0  0.12460238893E+02 -0.39394156296E+01 -0.95808380239E+01  0.16203981186E+02  0.51100000000E-03 0.  1.
        -11    1    4    4    0    0  0.91464178087E+01 -0.10392443169E+02 -0.40527884297E+01  0.14425149153E+02  0.51100000000E-03 0. -1.
         12    1    4    4    0    0  0.16257392812E+02  0.32253895236E+01 -0.44379942000E+01  0.17158139501E+02  0.00000000000E+00 0. -1.
</event>
<event>
 8    1  0.4042158E-011  0.9118800E+02  0.7816164E-02  0.1184000E+00
        -11   -1    0    0    0    0  0.00000000000E+00  0.00000000000E+00  0.45593999997E+02  0.45594000000E+02  0.51100000000E-03 0. -1.
         11   -1    0    0    0    0 -0.00000000000E+00 -0.00000000000E+00 -0.45593999997E+02  0.45594000000E+02  0.51100000000E-03 0.  1.
         23    2    1    2    0    0  0.00000000000E+00  0.00000000000E+00  0.35527136788E-14  0.91188000000E+02  0.91188000000E+02 0.  0.
    9900012    2    3    3    0    0  0.29599576129E+02  0.98758433729E+01  0.30165478555E+02  0.47787270907E+02  0.19999999373E+02 0.  0.
        -12    1    3    3    0    0 -0.29599576129E+02 -0.98758433729E+01 -0.30165478555E+02  0.43400729093E+02  0.00000000000E+00 0.  1.
         11    1    4    4    0    0  0.11793414149E+01  0.23799849140E+01 -0.63513628431E+00  0.27310387629E+01  0.51100000000E-03 0. -1.
        -11    1    4    4    0    0  0.97400476803E+00  0.33069479933E+01  0.93675343162E+01  0.99817478302E+01  0.51100000000E-03 0.  1.
        -12    1    4    4    0    0  0.27446229947E+02  0.41889104656E+01  0.21433080523E+02  0.35074484314E+02  0.00000000000E+00 0.  1.
</event>
<event>
 8    1  0.4042158E-011  0.9118800E+02  0.7816164E-02  0.1184000E+00
        -11   -1    0    0    0    0  0.00000000000E+00  0.00000000000E+00  0.45593999997E+02  0.45594000000E+02  0.51100000000E-03 0. -1.
         11   -1    0    0    0    0 -0.00000000000E+00 -0.00000000000E+00 -0.45593999997E+02  0.45594000000E+02  0.51100000000E-03 0.  1.
         23    2    1    2    0    0  0.00000000000E+00  0.00000000000E+00  0.35527136788E-14  0.91188000000E+02  0.91188000000E+02 0.  0.
    9900012    2    3    3    0    0 -0.22203244779E+02  0.23802241319E+02 -0.28707015514E+02  0.47787268321E+02  0.19999987585E+02 0.  0.
         12    1    3    3    0    0  0.22203244779E+02 -0.23802241319E+02  0.28707015514E+02  0.43400731679E+02  0.00000000000E+00 0. -1.
         11    1    4    4    0    0 -0.19662228548E+01  0.59708460314E+01  0.36802343979E-01  0.62863653504E+01  0.51100000000E-03 0. -1.
        -11    1    4    4    0    0 -0.52771641339E+01  0.35960439404E+01 -0.35496190823E+00  0.63957791968E+01  0.51100000000E-03 0.  1.
        -12    1    4    4    0    0 -0.14959857790E+02  0.14235351347E+02 -0.28388855949E+02  0.35105123774E+02  0.00000000000E+00 0.  1.
</event>
<event>
 8    1  0.4042158E-011  0.9118800E+02  0.7816164E-02  0.1184000E+00
        -11   -1    0    0    0    0  0.00000000000E+00  0.00000000000E+00  0.45593999997E+02  0.45594000000E+02  0.51100000000E-03 0. -1.
         11   -1    0    0    0    0 -0.00000000000E+00 -0.00000000000E+00 -0.45593999997E+02  0.45594000000E+02  0.51100000000E-03 0.  1.
         23    2    1    2    0    0  0.00000000000E+00  0.00000000000E+00  0.00000000000E+00  0.91188000000E+02  0.91188000000E+02 0.  0.
    9900012    2    3    3    0    0 -0.17647502178E+02 -0.88108680751E+01 -0.38659506116E+02  0.47787272558E+02  0.20000006901E+02 0.  0.
         12    1    3    3    0    0  0.17647502178E+02  0.88108680751E+01  0.38659506116E+02  0.43400727442E+02  0.00000000000E+00 0. -1.
         11    1    4    4    0    0 -0.25289998161E+00  0.13622865646E+01 -0.53828416546E+01  0.55583061831E+01  0.51100000000E-03 0. -1.
        -11    1    4    4    0    0 -0.98546769009E+01 -0.26568532033E+01 -0.38040422437E+01  0.10892394751E+02  0.51100000000E-03 0.  1.
        -12    1    4    4    0    0 -0.75399252951E+01 -0.75163014364E+01 -0.29472622218E+02  0.31336571624E+02  0.00000000000E+00 0.  1.
</event>
<event>
 8    1  0.4042158E-011  0.9118800E+02  0.7816164E-02  0.1184000E+00
        -11   -1    0    0    0    0  0.00000000000E+00  0.00000000000E+00  0.45593999997E+02  0.45594000000E+02  0.51100000000E-03 0.  1.
         11   -1    0    0    0    0 -0.00000000000E+00 -0.00000000000E+00 -0.45593999997E+02  0.45594000000E+02  0.51100000000E-03 0. -1.
         23    2    1    2    0    0 -0.35527136788E-14  0.71054273576E-14  0.00000000000E+00  0.91188000000E+02  0.91188000000E+02 0.  0.
    9900012    2    3    3    0    0  0.14826576127E+02 -0.39917506907E+02 -0.83898298699E+01  0.47787263110E+02  0.19999963824E+02 0.  0.
         12    1    3    3    0    0 -0.14826576127E+02  0.39917506907E+02  0.83898298699E+01  0.43400736890E+02  0.00000000000E+00 0. -1.
         11    1    4    4    0    0  0.39606081883E+01 -0.46043482225E+01 -0.29493397935E+00  0.60805777759E+01  0.51100000000E-03 0. -1.
        -11    1    4    4    0    0  0.90386384091E+01 -0.36644423677E+02 -0.53018020851E+01  0.38113250669E+02  0.51100000000E-03 0.  1.
         12    1    4    4    0    0  0.18273295296E+01  0.13312649921E+01 -0.27930938055E+01  0.35934346655E+01  0.00000000000E+00 0. -1.
</event>
<event>
 8    1  0.4100283E-011  0.9118800E+02  0.7816164E-02  0.1184000E+00
        -11   -1    0    0    0    0  0.00000000000E+00  0.00000000000E+00  0.45593999997E+02  0.45594000000E+02  0.51100000000E-03 0. -1.
         11   -1    0    0    0    0 -0.00000000000E+00 -0.00000000000E+00 -0.45593999997E+02  0.45594000000E+02  0.51100000000E-03 0.  1.
         23    2    1    2    0    0 -0.99920072216E-15  0.00000000000E+00 -0.71054273576E-14  0.91188000000E+02  0.91188000000E+02 0.  0.
    9900012    2    3    3    0    0  0.17463160151E+00  0.10996405112E+02  0.41984187057E+02  0.47787269771E+02  0.19999994196E+02 0.  0.
        -12    1    3    3    0    0 -0.17463160151E+00 -0.10996405112E+02 -0.41984187057E+02  0.43400730229E+02  0.00000000000E+00 0.  1.
         11    1    4    4    0    0  0.25776423202E+01  0.28038930745E+01  0.61732242611E+01  0.72536028526E+01  0.51100000000E-03 0. -1.
        -11    1    4    4    0    0 -0.89599150469E+01  0.85434307274E+01  0.22097765443E+02  0.25329459609E+02  0.51100000000E-03 0.  1.
        -12    1    4    4    0    0  0.65569043282E+01 -0.35091869000E+00  0.13713197352E+02  0.15204207310E+02  0.00000000000E+00 0.  1.
</event>
<event>
 8    1  0.4042158E-011  0.9118800E+02  0.7816164E-02  0.1184000E+00
        -11   -1    0    0    0    0  0.00000000000E+00  0.00000000000E+00  0.45593999997E+02  0.45594000000E+02  0.51100000000E-03 0.  1.
         11   -1    0    0    0    0 -0.00000000000E+00 -0.00000000000E+00 -0.45593999997E+02  0.45594000000E+02  0.51100000000E-03 0. -1.
         23    2    1    2    0    0  0.00000000000E+00  0.00000000000E+00 -0.17763568394E-14  0.91188000000E+02  0.91188000000E+02 0.  0.
    9900012    2    3    3    0    0  0.19612131212E+02 -0.35356260101E+02 -0.15777357370E+02  0.47787241658E+02  0.19999866017E+02 0.  0.
         12    1    3    3    0    0 -0.19612131212E+02  0.35356260101E+02  0.15777357370E+02  0.43400758342E+02  0.00000000000E+00 0. -1.
         11    1    4    4    0    0  0.52917907715E+00 -0.13269784377E+01  0.10995866387E+01  0.18027737814E+01  0.51100000000E-03 0. -1.
        -11    1    4    4    0    0  0.42509983194E+00 -0.81919966895E+01  0.26352818832E+01  0.86159288817E+01  0.51100000000E-03 0.  1.
         12    1    4    4    0    0  0.18657852303E+02 -0.25837284974E+02 -0.19512225892E+02  0.37368538995E+02  0.00000000000E+00 0. -1.
</event>
<event>
 8    1  0.4091596E-011  0.9118800E+02  0.7816164E-02  0.1184000E+00
        -11   -1    0    0    0    0  0.00000000000E+00  0.00000000000E+00  0.45593999997E+02  0.45594000000E+02  0.51100000000E-03 0. -1.
         11   -1    0    0    0    0 -0.00000000000E+00 -0.00000000000E+00 -0.45593999997E+02  0.45594000000E+02  0.51100000000E-03 0.  1.
         23    2    1    2    0    0  0.17763568394E-14  0.00000000000E+00  0.00000000000E+00  0.91188000000E+02  0.91188000000E+02 0.  0.
    9900012    2    3    3    0    0 -0.10510667029E+02 -0.41258718455E+01  0.41906162079E+02  0.47787270051E+02  0.19999995472E+02 0.  0.
        -12    1    3    3    0    0  0.10510667029E+02  0.41258718455E+01 -0.41906162079E+02  0.43400729949E+02  0.00000000000E+00 0.  1.
         11    1    4    4    0    0 -0.44204837915E+01 -0.70259593368E+01  0.14684389609E+02  0.16868197296E+02  0.51100000000E-03 0. -1.
        -11    1    4    4    0    0  0.32156329782E+01 -0.48978120974E+00  0.14150040226E+02  0.14519084673E+02  0.51100000000E-03 0.  1.
        -12    1    4    4    0    0 -0.93058162155E+01  0.33898687010E+01  0.13071732243E+02  0.16399988082E+02  0.00000000000E+00 0.  1.
</event>
<event>
 8    1  0.4042158E-011  0.9118800E+02  0.7816164E-02  0.1184000E+00
        -11   -1    0    0    0    0  0.00000000000E+00  0.00000000000E+00  0.45593999997E+02  0.45594000000E+02  0.51100000000E-03 0. -1.
         11   -1    0    0    0    0 -0.00000000000E+00 -0.00000000000E+00 -0.45593999997E+02  0.45594000000E+02  0.51100000000E-03 0.  1.
         23    2    1    2    0    0  0.00000000000E+00 -0.17763568394E-14  0.35527136788E-14  0.91188000000E+02  0.91188000000E+02 0.  0.
    9900012    2    3    3    0    0  0.29386786406E+02  0.14123916058E+02  0.28645332604E+02  0.47787270743E+02  0.19999998627E+02 0.  0.
        -12    1    3    3    0    0 -0.29386786406E+02 -0.14123916058E+02 -0.28645332604E+02  0.43400729257E+02  0.00000000000E+00 0.  1.
         11    1    4    4    0    0  0.92232523112E+01  0.18611440304E+01  0.12781032442E+02  0.15870949274E+02  0.51100000000E-03 0. -1.
        -11    1    4    4    0    0  0.17825132105E+01  0.52524211446E+01  0.99199945817E+01  0.11365367306E+02  0.51100000000E-03 0.  1.
        -12    1    4    4    0    0  0.18381020884E+02  0.70103508827E+01  0.59443055798E+01  0.20550954164E+02  0.00000000000E+00 0.  1.
</event>
<event>
 8    1  0.4042158E-011  0.9118800E+02  0.7816164E-02  0.1184000E+00
        -11   -1    0    0    0    0  0.00000000000E+00  0.00000000000E+00  0.45593999997E+02  0.45594000000E+02  0.51100000000E-03 0. -1.
         11   -1    0    0    0    0 -0.00000000000E+00 -0.00000000000E+00 -0.45593999997E+02  0.45594000000E+02  0.51100000000E-03 0.  1.
         23    2    1    2    0    0  0.00000000000E+00  0.00000000000E+00  0.00000000000E+00  0.91188000000E+02  0.91188000000E+02 0.  0.
    9900012    2    3    3    0    0 -0.34482728656E+02  0.62023971943E+01 -0.25614348458E+02  0.47787272432E+02  0.20000006325E+02 0.  0.
         12    1    3    3    0    0  0.34482728656E+02 -0.62023971943E+01  0.25614348458E+02  0.43400727568E+02  0.00000000000E+00 0. -1.
         11    1    4    4    0    0 -0.23689523011E+02  0.25278869366E+01 -0.88992488161E+01  0.25431876505E+02  0.51100000000E-03 0. -1.
        -11    1    4    4    0    0 -0.17757416236E+01 -0.26168262819E+01 -0.12964719658E+01  0.34178762299E+01  0.51100000000E-03 0.  1.
        -12    1    4    4    0    0 -0.90174640219E+01  0.62913365396E+01 -0.15418627676E+02  0.18937519696E+02  0.00000000000E+00 0.  1.
</event>
<event>
 8    1  0.4042158E-011  0.9118800E+02  0.7816164E-02  0.1184000E+00
        -11   -1    0    0    0    0  0.00000000000E+00  0.00000000000E+00  0.45593999997E+02  0.45594000000E+02  0.51100000000E-03 0. -1.
         11   -1    0    0    0    0 -0.00000000000E+00 -0.00000000000E+00 -0.45593999997E+02  0.45594000000E+02  0.51100000000E-03 0.  1.
         23    2    1    2    0    0  0.00000000000E+00  0.35527136788E-14 -0.71054273576E-14  0.91188000000E+02  0.91188000000E+02 0.  0.
    9900012    2    3    3    0    0 -0.82722526480E+01 -0.11211755890E+02  0.41103398095E+02  0.47787274557E+02  0.20000016015E+02 0.  0.
        -12    1    3    3    0    0  0.82722526480E+01  0.11211755890E+02 -0.41103398095E+02  0.43400725443E+02  0.00000000000E+00 0.  1.
         11    1    4    4    0    0  0.28393539450E+01 -0.48052871794E+01  0.90741179626E+01  0.10653278029E+02  0.51100000000E-03 0. -1.
        -11    1    4    4    0    0 -0.84778836012E+01 -0.96767158776E+01  0.15825902795E+02  0.20395404877E+02  0.51100000000E-03 0.  1.
         12    1    4    4    0    0 -0.26337229917E+01  0.32702471675E+01  0.16203377337E+02  0.16738591651E+02  0.00000000000E+00 0. -1.
</event>
<event>
 8    1  0.4042158E-011  0.9118800E+02  0.7816164E-02  0.1184000E+00
        -11   -1    0    0    0    0  0.00000000000E+00  0.00000000000E+00  0.45593999997E+02  0.45594000000E+02  0.51100000000E-03 0. -1.
         11   -1    0    0    0    0 -0.00000000000E+00 -0.00000000000E+00 -0.45593999997E+02  0.45594000000E+02  0.51100000000E-03 0.  1.
         23    2    1    2    0    0  0.35527136788E-14  0.00000000000E+00  0.00000000000E+00  0.91188000000E+02  0.91188000000E+02 0.  0.
    9900012    2    3    3    0    0 -0.11107964089E+02 -0.19644782579E+02 -0.37071793879E+02  0.47787282838E+02  0.20000053772E+02 0.  0.
         12    1    3    3    0    0  0.11107964089E+02  0.19644782579E+02  0.37071793879E+02  0.43400717162E+02  0.00000000000E+00 0. -1.
         11    1    4    4    0    0 -0.61762519725E+01 -0.36007944550E+01 -0.39094308001E+01  0.81483408481E+01  0.51100000000E-03 0. -1.
        -11    1    4    4    0    0 -0.41668212928E+01 -0.10373671020E+01 -0.17153986074E+02  0.17683262388E+02  0.51100000000E-03 0.  1.
         12    1    4    4    0    0 -0.76489082419E+00 -0.15006621022E+02 -0.16008377005E+02  0.21955679602E+02  0.00000000000E+00 0. -1.
</event>
<event>
 8    1  0.4042158E-011  0.9118800E+02  0.7816164E-02  0.1184000E+00
        -11   -1    0    0    0    0  0.00000000000E+00  0.00000000000E+00  0.45593999997E+02  0.45594000000E+02  0.51100000000E-03 0. -1.
         11   -1    0    0    0    0 -0.00000000000E+00 -0.00000000000E+00 -0.45593999997E+02  0.45594000000E+02  0.51100000000E-03 0.  1.
         23    2    1    2    0    0 -0.71054273576E-14 -0.88817841970E-15  0.00000000000E+00  0.91188000000E+02  0.91188000000E+02 0.  0.
    9900012    2    3    3    0    0 -0.37339912155E+02 -0.41111927941E+01 -0.21735962033E+02  0.47787274298E+02  0.20000014835E+02 0.  0.
         12    1    3    3    0    0  0.37339912155E+02  0.41111927941E+01  0.21735962033E+02  0.43400725702E+02  0.00000000000E+00 0. -1.
         11    1    4    4    0    0 -0.66278885590E+01  0.49113465355E+01 -0.54843498027E+01  0.99059741854E+01  0.51100000000E-03 0. -1.
        -11    1    4    4    0    0 -0.23355621449E+02 -0.10949301850E+01 -0.11737491502E+02  0.26162045646E+02  0.51100000000E-03 0.  1.
         12    1    4    4    0    0 -0.73564021468E+01 -0.79276091445E+01 -0.45141207289E+01  0.11719254466E+02  0.00000000000E+00 0. -1.
</event>
<event>
 8    1  0.4042158E-011  0.9118800E+02  0.7816164E-02  0.1184000E+00
        -11   -1    0    0    0    0  0.00000000000E+00  0.00000000000E+00  0.45593999997E+02  0.45594000000E+02  0.51100000000E-03 0.  1.
         11   -1    0    0    0    0 -0.00000000000E+00 -0.00000000000E+00 -0.45593999997E+02  0.45594000000E+02  0.51100000000E-03 0. -1.
         23    2    1    2    0    0  0.00000000000E+00  0.88817841970E-15  0.00000000000E+00  0.91188000000E+02  0.91188000000E+02 0.  0.
    9900012    2    3    3    0    0  0.42337448062E+02 -0.40798089050E+01 -0.86324268636E+01  0.47787272556E+02  0.20000006891E+02 0.  0.
         12    1    3    3    0    0 -0.42337448062E+02  0.40798089050E+01  0.86324268636E+01  0.43400727444E+02  0.00000000000E+00 0. -1.
         11    1    4    4    0    0  0.31239198389E+02 -0.25506996189E+01 -0.10413374303E+02  0.33027745142E+02  0.51100000000E-03 0.  1.
        -11    1    4    4    0    0  0.28975466941E+01  0.29505027113E+01 -0.21038185904E+01  0.46397517192E+01  0.51100000000E-03 0. -1.
        -12    1    4    4    0    0  0.82007029789E+01 -0.44796119973E+01  0.38847660300E+01  0.10119775694E+02  0.00000000000E+00 0.  1.
</event>
<event>
 8    1  0.4042158E-011  0.9118800E+02  0.7816164E-02  0.1184000E+00
        -11   -1    0    0    0    0  0.00000000000E+00  0.00000000000E+00  0.45593999997E+02  0.45594000000E+02  0.51100000000E-03 0. -1.
         11   -1    0    0    0    0 -0.00000000000E+00 -0.00000000000E+00 -0.45593999997E+02  0.45594000000E+02  0.51100000000E-03 0.  1.
         23    2    1    2    0    0  0.00000000000E+00 -0.44408920985E-15  0.00000000000E+00  0.91188000000E+02  0.91188000000E+02 0.  0.
    9900012    2    3    3    0    0 -0.96950304627E+01 -0.21008823254E+01 -0.42251813793E+02  0.47787273151E+02  0.20000009603E+02 0.  0.
         12    1    3    3    0    0  0.96950304627E+01  0.21008823254E+01  0.42251813793E+02  0.43400726849E+02  0.00000000000E+00 0. -1.
         11    1    4    4    0    0 -0.52024909976E+01  0.84893877636E+00 -0.24255229020E+01  0.58025659182E+01  0.51100000000E-03 0. -1.
        -11    1    4    4    0    0  0.99595622774E+00 -0.28991078146E+01 -0.17804012275E+01  0.35449377598E+01  0.51100000000E-03 0.  1.
        -12    1    4    4    0    0 -0.54884956929E+01 -0.50713287170E-01 -0.38045889664E+02  0.38439769473E+02  0.00000000000E+00 0.  1.
</event>
<event>
 8    1  0.4042158E-011  0.9118800E+02  0.7816164E-02  0.1184000E+00
        -11   -1    0    0    0    0  0.00000000000E+00  0.00000000000E+00  0.45593999997E+02  0.45594000000E+02  0.51100000000E-03 0. -1.
         11   -1    0    0    0    0 -0.00000000000E+00 -0.00000000000E+00 -0.45593999997E+02  0.45594000000E+02  0.51100000000E-03 0.  1.
         23    2    1    2    0    0  0.00000000000E+00  0.17763568394E-14  0.71054273576E-14  0.91188000000E+02  0.91188000000E+02 0.  0.
    9900012    2    3    3    0    0 -0.22148730227E+01 -0.10118313585E+02 -0.42146617045E+02  0.47787271197E+02  0.20000000695E+02 0.  0.
         12    1    3    3    0    0  0.22148730227E+01  0.10118313585E+02  0.42146617045E+02  0.43400728803E+02  0.00000000000E+00 0. -1.
         11    1    4    4    0    0 -0.36757943270E+01  0.39513593268E+01 -0.17390390944E+02  0.18208525528E+02  0.51100000000E-03 0. -1.
        -11    1    4    4    0    0 -0.48133370811E+00  0.91678999347E+00 -0.21548119358E+01  0.23906904381E+01  0.51100000000E-03 0.  1.
        -12    1    4    4    0    0  0.19422550124E+01 -0.14986462906E+02 -0.22601414165E+02  0.27188055230E+02  0.00000000000E+00 0.  1.
</event>
<event>
 8    1  0.4042158E-011  0.9118800E+02  0.7816164E-02  0.1184000E+00
        -11   -1    0    0    0    0  0.00000000000E+00  0.00000000000E+00  0.45593999997E+02  0.45594000000E+02  0.51100000000E-03 0. -1.
         11   -1    0    0    0    0 -0.00000000000E+00 -0.00000000000E+00 -0.45593999997E+02  0.45594000000E+02  0.51100000000E-03 0.  1.
         23    2    1    2    0    0  0.00000000000E+00  0.00000000000E+00 -0.35527136788E-14  0.91188000000E+02  0.91188000000E+02 0.  0.
    9900012    2    3    3    0    0 -0.32891998292E+02 -0.13243042630E+02 -0.25027212659E+02  0.47787273010E+02  0.20000008963E+02 0.  0.
         12    1    3    3    0    0  0.32891998292E+02  0.13243042630E+02  0.25027212659E+02  0.43400726990E+02  0.00000000000E+00 0. -1.
         11    1    4    4    0    0  0.12431622312E+01  0.12112040667E+01 -0.19616787064E+01  0.26192844886E+01  0.51100000000E-03 0.  1.
        -11    1    4    4    0    0 -0.24183590370E+01 -0.20660030008E+01  0.11530606839E+01  0.33832496262E+01  0.51100000000E-03 0. -1.
        -12    1    4    4    0    0 -0.31716801486E+02 -0.12388243696E+02 -0.24218594637E+02  0.41784738895E+02  0.00000000000E+00 0.  1.
</event>
<event>
 8    1  0.5023702E-011  0.9118800E+02  0.7816164E-02  0.1184000E+00
        -11   -1    0    0    0    0  0.00000000000E+00  0.00000000000E+00  0.45593999997E+02  0.45594000000E+02  0.51100000000E-03 0. -1.
         11   -1    0    0    0    0 -0.00000000000E+00 -0.00000000000E+00 -0.45593999997E+02  0.45594000000E+02  0.51100000000E-03 0.  1.
         23    2    1    2    0    0 -0.71054273576E-14 -0.17763568394E-14  0.00000000000E+00  0.91188000000E+02  0.91188000000E+02 0.  0.
    9900012    2    3    3    0    0  0.34103574596E+02  0.89563013214E+01  0.25305217156E+02  0.47787272484E+02  0.20000006565E+02 0.  0.
        -12    1    3    3    0    0 -0.34103574596E+02 -0.89563013214E+01 -0.25305217156E+02  0.43400727516E+02  0.00000000000E+00 0.  1.
         11    1    4    4    0    0  0.17051255436E+02  0.31108221046E+01  0.17488883942E+02  0.24622826562E+02  0.51100000000E-03 0. -1.
        -11    1    4    4    0    0  0.80013575791E+00  0.31801536504E+01  0.56779927669E+01  0.65569197489E+01  0.51100000000E-03 0.  1.
        -12    1    4    4    0    0  0.16252183403E+02  0.26653255663E+01  0.21383404465E+01  0.16607526173E+02  0.00000000000E+00 0.  1.
</event>
<event>
 8    1  0.4042158E-011  0.9118800E+02  0.7816164E-02  0.1184000E+00
        -11   -1    0    0    0    0  0.00000000000E+00  0.00000000000E+00  0.45593999997E+02  0.45594000000E+02  0.51100000000E-03 0. -1.
         11   -1    0    0    0    0 -0.00000000000E+00 -0.00000000000E+00 -0.45593999997E+02  0.45594000000E+02  0.51100000000E-03 0.  1.
         23    2    1    2    0    0  0.17763568394E-14 -0.17763568394E-14  0.71054273576E-14  0.91188000000E+02  0.91188000000E+02 0.  0.
    9900012    2    3    3    0    0 -0.61527746152E+01  0.83422352997E+01 -0.42144680271E+02  0.47787267283E+02  0.19999982850E+02 0.  0.
         12    1    3    3    0    0  0.61527746152E+01 -0.83422352997E+01  0.42144680271E+02  0.43400732717E+02  0.00000000000E+00 0. -1.
         11    1    4    4    0    0 -0.23863567939E+01  0.48075709393E+01 -0.25702102435E+02  0.26256532653E+02  0.51100000000E-03 0. -1.
        -11    1    4    4    0    0 -0.55280406233E+01  0.37981913940E+01 -0.17972146417E+02  0.19182897021E+02  0.51100000000E-03 0.  1.
         12    1    4    4    0    0  0.17616228019E+01 -0.26352703358E+00  0.15295685822E+01  0.23478376096E+01  0.00000000000E+00 0. -1.
</event>
<event>
 8    1  0.4042158E-011  0.9118800E+02  0.7816164E-02  0.1184000E+00
        -11   -1    0    0    0    0  0.00000000000E+00  0.00000000000E+00  0.45593999997E+02  0.45594000000E+02  0.51100000000E-03 0. -1.
         11   -1    0    0    0    0 -0.00000000000E+00 -0.00000000000E+00 -0.45593999997E+02  0.45594000000E+02  0.51100000000E-03 0.  1.
         23    2    1    2    0    0  0.00000000000E+00 -0.22204460493E-15  0.00000000000E+00  0.91188000000E+02  0.91188000000E+02 0.  0.
    9900012    2    3    3    0    0 -0.17622086039E+02  0.77225176009E+00 -0.39654624323E+02  0.47787268217E+02  0.19999987107E+02 0.  0.
         12    1    3    3    0    0  0.17622086039E+02 -0.77225176009E+00  0.39654624323E+02  0.43400731783E+02  0.00000000000E+00 0. -1.
         11    1    4    4    0    0 -0.88907024879E+01  0.62015474858E+01 -0.89461265516E+01  0.14054784327E+02  0.51100000000E-03 0. -1.
        -11    1    4    4    0    0  0.97110884860E+00  0.59381279839E+00 -0.19876355973E+00  0.11554969706E+01  0.51100000000E-03 0.  1.
        -12    1    4    4    0    0 -0.97024923992E+01 -0.60231085241E+01 -0.30509734212E+02  0.32576986919E+02  0.00000000000E+00 0.  1.
</event>
<event>
 8    1  0.4042158E-011  0.9118800E+02  0.7816164E-02  0.1184000E+00
        -11   -1    0    0    0    0  0.00000000000E+00  0.00000000000E+00  0.45593999997E+02  0.45594000000E+02  0.51100000000E-03 0. -1.
         11   -1    0    0    0    0 -0.00000000000E+00 -0.00000000000E+00 -0.45593999997E+02  0.45594000000E+02  0.51100000000E-03 0.  1.
         23    2    1    2    0    0  0.71054273576E-14  0.35527136788E-14  0.35527136788E-14  0.91188000000E+02  0.91188000000E+02 0.  0.
    9900012    2    3    3    0    0  0.24691335339E+02  0.17592559267E+02  0.31055794062E+02  0.47787279646E+02  0.20000039220E+02 0.  0.
        -12    1    3    3    0    0 -0.24691335339E+02 -0.17592559267E+02 -0.31055794062E+02  0.43400720354E+02  0.00000000000E+00 0.  1.
         11    1    4    4    0    0  0.16103841391E+02 -0.57160254451E-02  0.17573385816E+02  0.23836057340E+02  0.51100000000E-03 0. -1.
        -11    1    4    4    0    0 -0.34686947547E-01  0.77715818192E+00  0.84802993107E-01  0.78254062694E+00  0.51100000000E-03 0.  1.
         12    1    4    4    0    0  0.86221808953E+01  0.16821117111E+02  0.13397605253E+02  0.23168681679E+02  0.00000000000E+00 0. -1.
</event>
<event>
 8    1  0.4042158E-011  0.9118800E+02  0.7816164E-02  0.1184000E+00
        -11   -1    0    0    0    0  0.00000000000E+00  0.00000000000E+00  0.45593999997E+02  0.45594000000E+02  0.51100000000E-03 0. -1.
         11   -1    0    0    0    0 -0.00000000000E+00 -0.00000000000E+00 -0.45593999997E+02  0.45594000000E+02  0.51100000000E-03 0.  1.
         23    2    1    2    0    0  0.00000000000E+00  0.00000000000E+00  0.00000000000E+00  0.91188000000E+02  0.91188000000E+02 0.  0.
    9900012    2    3    3    0    0  0.26763879968E+02 -0.88239195590E+01 -0.33006921036E+02  0.47787266554E+02  0.19999979528E+02 0.  0.
         12    1    3    3    0    0 -0.26763879968E+02  0.88239195590E+01  0.33006921036E+02  0.43400733446E+02  0.00000000000E+00 0. -1.
         11    1    4    4    0    0  0.47550701742E+01 -0.11751007262E+01 -0.25015236096E+01  0.54999249730E+01  0.51100000000E-03 0. -1.
        -11    1    4    4    0    0  0.75207938691E+00 -0.60945533504E+01 -0.14139145606E+02  0.15415078420E+02  0.51100000000E-03 0.  1.
        -12    1    4    4    0    0  0.21256730407E+02 -0.15542654824E+01 -0.16366251820E+02  0.26872263162E+02  0.00000000000E+00 0.  1.
</event>
<event>
 8    1  0.4042158E-011  0.9118800E+02  0.7816164E-02  0.1184000E+00
        -11   -1    0    0    0    0  0.00000000000E+00  0.00000000000E+00  0.45593999997E+02  0.45594000000E+02  0.51100000000E-03 0.  1.
         11   -1    0    0    0    0 -0.00000000000E+00 -0.00000000000E+00 -0.45593999997E+02  0.45594000000E+02  0.51100000000E-03 0. -1.
         23    2    1    2    0    0  0.00000000000E+00  0.00000000000E+00 -0.88817841970E-15  0.91188000000E+02  0.91188000000E+02 0.  0.
    9900012    2    3    3    0    0  0.14029874993E+01 -0.43025883824E+02  0.55161864650E+01  0.47787269984E+02  0.19999995167E+02 0.  0.
         12    1    3    3    0    0 -0.14029874993E+01  0.43025883824E+02 -0.55161864650E+01  0.43400730016E+02  0.00000000000E+00 0. -1.
         11    1    4    4    0    0  0.22881933789E+01 -0.66409793768E+01  0.41565594559E+01  0.81618271725E+01  0.51100000000E-03 0. -1.
        -11    1    4    4    0    0 -0.26553362279E+01 -0.98093586229E+00  0.30188786039E+01  0.41384385866E+01  0.51100000000E-03 0.  1.
        -12    1    4    4    0    0  0.17701303483E+01 -0.35403968585E+02 -0.16592515948E+01  0.35487004225E+02  0.00000000000E+00 0.  1.
</event>
<event>
 8    1  0.4042158E-011  0.9118800E+02  0.7816164E-02  0.1184000E+00
        -11   -1    0    0    0    0  0.00000000000E+00  0.00000000000E+00  0.45593999997E+02  0.45594000000E+02  0.51100000000E-03 0. -1.
         11   -1    0    0    0    0 -0.00000000000E+00 -0.00000000000E+00 -0.45593999997E+02  0.45594000000E+02  0.51100000000E-03 0.  1.
         23    2    1    2    0    0  0.00000000000E+00  0.00000000000E+00  0.00000000000E+00  0.91188000000E+02  0.91188000000E+02 0.  0.
    9900012    2    3    3    0    0 -0.17229450819E+02  0.22509312016E+02 -0.32864877689E+02  0.47787270876E+02  0.19999999232E+02 0.  0.
         12    1    3    3    0    0  0.17229450819E+02 -0.22509312016E+02  0.32864877689E+02  0.43400729124E+02  0.00000000000E+00 0. -1.
         11    1    4    4    0    0  0.72341368317E+00 -0.18651694218E+01  0.53907941418E+00  0.20719052114E+01  0.51100000000E-03 0. -1.
        -11    1    4    4    0    0 -0.25025676711E+01  0.24900068744E+01 -0.82264361713E+01  0.89519400984E+01  0.51100000000E-03 0.  1.
        -12    1    4    4    0    0 -0.15450296831E+02  0.21884474563E+02 -0.25177520932E+02  0.36763425566E+02  0.00000000000E+00 0.  1.
</event>
<event>
 8    1  0.4042158E-011  0.9118800E+02  0.7816164E-02  0.1184000E+00
        -11   -1    0    0    0    0  0.00000000000E+00  0.00000000000E+00  0.45593999997E+02  0.45594000000E+02  0.51100000000E-03 0. -1.
         11   -1    0    0    0    0 -0.00000000000E+00 -0.00000000000E+00 -0.45593999997E+02  0.45594000000E+02  0.51100000000E-03 0.  1.
         23    2    1    2    0    0  0.17763568394E-14 -0.71054273576E-14  0.00000000000E+00  0.91188000000E+02  0.91188000000E+02 0.  0.
    9900012    2    3    3    0    0  0.92483018626E+01 -0.25062560800E+02 -0.34204717570E+02  0.47787242573E+02  0.19999870186E+02 0.  0.
         12    1    3    3    0    0 -0.92483018626E+01  0.25062560800E+02  0.34204717570E+02  0.43400757427E+02  0.00000000000E+00 0. -1.
         11    1    4    4    0    0 -0.15229470796E+01 -0.73599695715E+00 -0.10547105022E+01  0.19933574272E+01  0.51100000000E-03 0. -1.
        -11    1    4    4    0    0 -0.32353847057E+01 -0.28536468579E+01 -0.11345975484E+02  0.12138458491E+02  0.51100000000E-03 0.  1.
         12    1    4    4    0    0  0.14006633648E+02 -0.21472916985E+02 -0.21804031583E+02  0.33655426655E+02  0.00000000000E+00 0. -1.
</event>
<event>
 8    1  0.4042158E-011  0.9118800E+02  0.7816164E-02  0.1184000E+00
        -11   -1    0    0    0    0  0.00000000000E+00  0.00000000000E+00  0.45593999997E+02  0.45594000000E+02  0.51100000000E-03 0. -1.
         11   -1    0    0    0    0 -0.00000000000E+00 -0.00000000000E+00 -0.45593999997E+02  0.45594000000E+02  0.51100000000E-03 0.  1.
         23    2    1    2    0    0  0.00000000000E+00  0.71054273576E-14  0.17763568394E-14  0.91188000000E+02  0.91188000000E+02 0.  0.
    9900012    2    3    3    0    0 -0.25975166835E+02  0.32567723483E+02  0.12175881877E+02  0.47787331751E+02  0.20000276783E+02 0.  0.
        -12    1    3    3    0    0  0.25975166835E+02 -0.32567723483E+02 -0.12175881877E+02  0.43400668249E+02  0.00000000000E+00 0.  1.
         11    1    4    4    0    0 -0.27730278262E+01  0.87396914337E+01  0.24567998500E+01  0.94925104923E+01  0.51100000000E-03 0. -1.
        -11    1    4    4    0    0 -0.12972248963E+02  0.10725090177E+02 -0.33343858929E+01  0.17158814994E+02  0.51100000000E-03 0.  1.
         12    1    4    4    0    0 -0.10229890046E+02  0.13102941873E+02  0.13053467920E+02  0.21136006264E+02  0.00000000000E+00 0. -1.
</event>
<event>
 8    1  0.4042158E-011  0.9118800E+02  0.7816164E-02  0.1184000E+00
        -11   -1    0    0    0    0  0.00000000000E+00  0.00000000000E+00  0.45593999997E+02  0.45594000000E+02  0.51100000000E-03 0. -1.
         11   -1    0    0    0    0 -0.00000000000E+00 -0.00000000000E+00 -0.45593999997E+02  0.45594000000E+02  0.51100000000E-03 0.  1.
         23    2    1    2    0    0 -0.35527136788E-14  0.00000000000E+00  0.00000000000E+00  0.91188000000E+02  0.91188000000E+02 0.  0.
    9900012    2    3    3    0    0  0.22394353829E+02  0.28930027783E+02 -0.23348870519E+02  0.47787270220E+02  0.19999996242E+02 0.  0.
         12    1    3    3    0    0 -0.22394353829E+02 -0.28930027783E+02  0.23348870519E+02  0.43400729780E+02  0.00000000000E+00 0. -1.
         11    1    4    4    0    0 -0.14961437642E+01  0.67293742003E+01 -0.12334991163E+01  0.70031738249E+01  0.51100000000E-03 0. -1.
        -11    1    4    4    0    0  0.67119598973E+01  0.12249953248E+01 -0.22913584964E+01  0.71973150014E+01  0.51100000000E-03 0.  1.
        -12    1    4    4    0    0  0.17178537695E+02  0.20975658257E+02 -0.19824012907E+02  0.33586781394E+02  0.00000000000E+00 0.  1.
</event>
<event>
 8    1  0.4042158E-011  0.9118800E+02  0.7816164E-02  0.1184000E+00
        -11   -1    0    0    0    0  0.00000000000E+00  0.00000000000E+00  0.45593999997E+02  0.45594000000E+02  0.51100000000E-03 0. -1.
         11   -1    0    0    0    0 -0.00000000000E+00 -0.00000000000E+00 -0.45593999997E+02  0.45594000000E+02  0.51100000000E-03 0.  1.
         23    2    1    2    0    0  0.00000000000E+00  0.35527136788E-14  0.00000000000E+00  0.91188000000E+02  0.91188000000E+02 0.  0.
    9900012    2    3    3    0    0 -0.38088791166E+02  0.13888273368E+02 -0.15491382221E+02  0.47787273362E+02  0.20000010566E+02 0.  0.
         12    1    3    3    0    0  0.38088791166E+02 -0.13888273368E+02  0.15491382221E+02  0.43400726638E+02  0.00000000000E+00 0. -1.
         11    1    4    4    0    0 -0.25898395738E+02  0.16114744985E+02 -0.60663614128E+01  0.31100042585E+02  0.51100000000E-03 0.  1.
        -11    1    4    4    0    0 -0.64998237755E+01 -0.95961789721E+00 -0.13171805877E+01  0.67010104151E+01  0.51100000000E-03 0. -1.
        -12    1    4    4    0    0 -0.56905716518E+01 -0.12668537198E+01 -0.81078402205E+01  0.99862203617E+01  0.00000000000E+00 0.  1.
</event>
<event>
 8    1  0.4042158E-011  0.9118800E+02  0.7816164E-02  0.1184000E+00
        -11   -1    0    0    0    0  0.00000000000E+00  0.00000000000E+00  0.45593999997E+02  0.45594000000E+02  0.51100000000E-03 0. -1.
         11   -1    0    0    0    0 -0.00000000000E+00 -0.00000000000E+00 -0.45593999997E+02  0.45594000000E+02  0.51100000000E-03 0.  1.
         23    2    1    2    0    0  0.00000000000E+00  0.35527136788E-14 -0.35527136788E-14  0.91188000000E+02  0.91188000000E+02 0.  0.
    9900012    2    3    3    0    0 -0.16330937021E+02  0.24678886434E+02  0.31747068997E+02  0.47787270404E+02  0.19999997079E+02 0.  0.
        -12    1    3    3    0    0  0.16330937021E+02 -0.24678886434E+02 -0.31747068997E+02  0.43400729596E+02  0.00000000000E+00 0.  1.
         11    1    4    4    0    0 -0.14755640007E+02  0.19170334067E+02  0.21347594317E+02  0.32263763011E+02  0.51100000000E-03 0. -1.
        -11    1    4    4    0    0 -0.32152020170E+01  0.28965535708E+01 -0.34873754320E+00  0.43415624761E+01  0.51100000000E-03 0.  1.
        -12    1    4    4    0    0  0.16399050030E+01  0.26119987966E+01  0.10748212223E+02  0.11181944916E+02  0.00000000000E+00 0.  1.
</event>
<event>
 8    1  0.4042158E-011  0.9118800E+02  0.7816164E-02  0.1184000E+00
        -11   -1    0    0    0    0  0.00000000000E+00  0.00000000000E+00  0.45593999997E+02  0.45594000000E+02  0.51100000000E-03 0. -1.
         11   -1    0    0    0    0 -0.00000000000E+00 -0.00000000000E+00 -0.45593999997E+02  0.45594000000E+02  0.51100000000E-03 0.  1.
         23    2    1    2    0    0  0.00000000000E+00  0.00000000000E+00  0.00000000000E+00  0.91188000000E+02  0.91188000000E+02 0.  0.
    9900012    2    3    3    0    0  0.47801141396E+01  0.25178588332E+02  0.35025884247E+02  0.47787269950E+02  0.19999995011E+02 0.  0.
        -12    1    3    3    0    0 -0.47801141396E+01 -0.25178588332E+02 -0.35025884247E+02  0.43400730050E+02  0.00000000000E+00 0.  1.
         11    1    4    4    0    0  0.35922324661E+01  0.12997278121E+02  0.14526227490E+02  0.19820309231E+02  0.51100000000E-03 0. -1.
        -11    1    4    4    0    0 -0.44083221066E+01  0.12010835284E+02  0.17304272023E+02  0.21520485555E+02  0.51100000000E-03 0.  1.
         12    1    4    4    0    0  0.55962037801E+01  0.17047492675E+00  0.31953847335E+01  0.64464751643E+01  0.00000000000E+00 0. -1.
</event>
<event>
 8    1  0.4042158E-011  0.9118800E+02  0.7816164E-02  0.1184000E+00
        -11   -1    0    0    0    0  0.00000000000E+00  0.00000000000E+00  0.45593999997E+02  0.45594000000E+02  0.51100000000E-03 0. -1.
         11   -1    0    0    0    0 -0.00000000000E+00 -0.00000000000E+00 -0.45593999997E+02  0.45594000000E+02  0.51100000000E-03 0.  1.
         23    2    1    2    0    0  0.00000000000E+00 -0.71054273576E-14  0.00000000000E+00  0.91188000000E+02  0.91188000000E+02 0.  0.
    9900012    2    3    3    0    0  0.11476443621E+02 -0.37798453698E+02 -0.17977525869E+02  0.47787270784E+02  0.19999998810E+02 0.  0.
         12    1    3    3    0    0 -0.11476443621E+02  0.37798453698E+02  0.17977525869E+02  0.43400729216E+02  0.00000000000E+00 0. -1.
         11    1    4    4    0    0  0.27792428782E+00  0.20640212125E+01 -0.15226724528E+01  0.25799141720E+01  0.51100000000E-03 0. -1.
        -11    1    4    4    0    0  0.29481613433E+01 -0.12229582415E+02 -0.13482862839E+01  0.12651964967E+02  0.51100000000E-03 0.  1.
        -12    1    4    4    0    0  0.82503579901E+01 -0.27632892495E+02 -0.15106567132E+02  0.32555391645E+02  0.00000000000E+00 0.  1.
</event>
<event>
 8    1  0.4042158E-011  0.9118800E+02  0.7816164E-02  0.1184000E+00
        -11   -1    0    0    0    0  0.00000000000E+00  0.00000000000E+00  0.45593999997E+02  0.45594000000E+02  0.51100000000E-03 0. -1.
         11   -1    0    0    0    0 -0.00000000000E+00 -0.00000000000E+00 -0.45593999997E+02  0.45594000000E+02  0.51100000000E-03 0.  1.
         23    2    1    2    0    0  0.00000000000E+00  0.00000000000E+00  0.00000000000E+00  0.91188000000E+02  0.91188000000E+02 0.  0.
    9900012    2    3    3    0    0  0.34651376248E+02  0.19398474645E+02 -0.17510129310E+02  0.47787270480E+02  0.19999997427E+02 0.  0.
         12    1    3    3    0    0 -0.34651376248E+02 -0.19398474645E+02  0.17510129310E+02  0.43400729520E+02  0.00000000000E+00 0. -1.
         11    1    4    4    0    0  0.93665595199E+01  0.10643670319E+02 -0.86855327894E+01  0.16627045294E+02  0.51100000000E-03 0. -1.
        -11    1    4    4    0    0  0.14142573410E+02  0.28173850236E+01 -0.11267664894E+02  0.18300555004E+02  0.51100000000E-03 0.  1.
         12    1    4    4    0    0  0.11142243318E+02  0.59374193023E+01  0.24430683734E+01  0.12859670182E+02  0.00000000000E+00 0. -1.
</event>
<event>
 8    1  0.4042158E-011  0.9118800E+02  0.7816164E-02  0.1184000E+00
        -11   -1    0    0    0    0  0.00000000000E+00  0.00000000000E+00  0.45593999997E+02  0.45594000000E+02  0.51100000000E-03 0. -1.
         11   -1    0    0    0    0 -0.00000000000E+00 -0.00000000000E+00 -0.45593999997E+02  0.45594000000E+02  0.51100000000E-03 0.  1.
         23    2    1    2    0    0 -0.88817841970E-15  0.00000000000E+00 -0.35527136788E-14  0.91188000000E+02  0.91188000000E+02 0.  0.
    9900012    2    3    3    0    0 -0.41049112938E+01 -0.29794962943E+02 -0.31289536785E+02  0.47787248559E+02  0.19999897478E+02 0.  0.
         12    1    3    3    0    0  0.41049112938E+01  0.29794962943E+02  0.31289536785E+02  0.43400751441E+02  0.00000000000E+00 0. -1.
         11    1    4    4    0    0 -0.64082513809E+01 -0.54594486957E+01 -0.41313371811E+01  0.93775910013E+01  0.51100000000E-03 0. -1.
        -11    1    4    4    0    0 -0.36141728249E+00  0.12838266263E+01 -0.20027619168E+01  0.24062187795E+01  0.51100000000E-03 0.  1.
        -12    1    4    4    0    0  0.26647573696E+01 -0.25619340873E+02 -0.25155437687E+02  0.36003438778E+02  0.00000000000E+00 0.  1.
</event>
<event>
 8    1  0.4042158E-011  0.9118800E+02  0.7816164E-02  0.1184000E+00
        -11   -1    0    0    0    0  0.00000000000E+00  0.00000000000E+00  0.45593999997E+02  0.45594000000E+02  0.51100000000E-03 0. -1.
         11   -1    0    0    0    0 -0.00000000000E+00 -0.00000000000E+00 -0.45593999997E+02  0.45594000000E+02  0.51100000000E-03 0.  1.
         23    2    1    2    0    0  0.00000000000E+00  0.00000000000E+00 -0.71054273576E-14  0.91188000000E+02  0.91188000000E+02 0.  0.
    9900012    2    3    3    0    0  0.11312457897E+02  0.12446023350E+02 -0.40009344504E+02  0.47787275944E+02  0.20000022339E+02 0.  0.
         12    1    3    3    0    0 -0.11312457897E+02 -0.12446023350E+02  0.40009344504E+02  0.43400724056E+02  0.00000000000E+00 0. -1.
         11    1    4    4    0    0 -0.40616224815E+01 -0.11137260474E+01 -0.23101002647E+01  0.48035118804E+01  0.51100000000E-03 0. -1.
        -11    1    4    4    0    0  0.29522111678E+01  0.35911264543E+01 -0.10099440391E+02  0.11118023046E+02  0.51100000000E-03 0.  1.
         12    1    4    4    0    0  0.12421869211E+02  0.99686229434E+01 -0.27599803849E+02  0.31865741017E+02  0.00000000000E+00 0. -1.
</event>
<event>
 8    1  0.4042158E-011  0.9118800E+02  0.7816164E-02  0.1184000E+00
        -11   -1    0    0    0    0  0.00000000000E+00  0.00000000000E+00  0.45593999997E+02  0.45594000000E+02  0.51100000000E-03 0. -1.
         11   -1    0    0    0    0 -0.00000000000E+00 -0.00000000000E+00 -0.45593999997E+02  0.45594000000E+02  0.51100000000E-03 0.  1.
         23    2    1    2    0    0 -0.35527136788E-14  0.35527136788E-14  0.00000000000E+00  0.91188000000E+02  0.91188000000E+02 0.  0.
    9900012    2    3    3    0    0  0.21143448786E+02 -0.89136844128E+01 -0.36839160235E+02  0.47787275084E+02  0.20000018418E+02 0.  0.
         12    1    3    3    0    0 -0.21143448786E+02  0.89136844128E+01  0.36839160235E+02  0.43400724916E+02  0.00000000000E+00 0. -1.
         11    1    4    4    0    0  0.21768421278E+01 -0.42665453281E+01 -0.21971704539E+01  0.52696877470E+01  0.51100000000E-03 0. -1.
        -11    1    4    4    0    0  0.70098275947E+01 -0.92909139268E+01 -0.19092805814E+02  0.22360545580E+02  0.51100000000E-03 0.  1.
        -12    1    4    4    0    0  0.11956779064E+02  0.46437748421E+01 -0.15549183967E+02  0.20157041757E+02  0.00000000000E+00 0.  1.
</event>
<event>
 8    1  0.4042158E-011  0.9118800E+02  0.7816164E-02  0.1184000E+00
        -11   -1    0    0    0    0  0.00000000000E+00  0.00000000000E+00  0.45593999997E+02  0.45594000000E+02  0.51100000000E-03 0. -1.
         11   -1    0    0    0    0 -0.00000000000E+00 -0.00000000000E+00 -0.45593999997E+02  0.45594000000E+02  0.51100000000E-03 0.  1.
         23    2    1    2    0    0 -0.35527136788E-14 -0.35527136788E-14  0.00000000000E+00  0.91188000000E+02  0.91188000000E+02 0.  0.
    9900012    2    3    3    0    0 -0.19880502256E+02 -0.31404974207E+02 -0.22407949656E+02  0.47787274399E+02  0.20000015294E+02 0.  0.
         12    1    3    3    0    0  0.19880502256E+02  0.31404974207E+02  0.22407949656E+02  0.43400725601E+02  0.00000000000E+00 0. -1.
         11    1    4    4    0    0 -0.90649336399E+00  0.24398006275E+00 -0.49256996713E+01  0.50143567886E+01  0.51100000000E-03 0. -1.
        -11    1    4    4    0    0 -0.39494803978E+01 -0.29084077905E+01 -0.72745503581E+01  0.87736146748E+01  0.51100000000E-03 0.  1.
        -12    1    4    4    0    0 -0.15024528494E+02 -0.28740546480E+02 -0.10207699627E+02  0.33999302935E+02  0.00000000000E+00 0.  1.
</event>
<event>
 8    1  0.4042158E-011  0.9118800E+02  0.7816164E-02  0.1184000E+00
        -11   -1    0    0    0    0  0.00000000000E+00  0.00000000000E+00  0.45593999997E+02  0.45594000000E+02  0.51100000000E-03 0. -1.
         11   -1    0    0    0    0 -0.00000000000E+00 -0.00000000000E+00 -0.45593999997E+02  0.45594000000E+02  0.51100000000E-03 0.  1.
         23    2    1    2    0    0  0.17763568394E-14  0.00000000000E+00  0.00000000000E+00  0.91188000000E+02  0.91188000000E+02 0.  0.
    9900012    2    3    3    0    0  0.11000658150E+02  0.25645155672E+02  0.33240560531E+02  0.47787270126E+02  0.19999995814E+02 0.  0.
        -12    1    3    3    0    0 -0.11000658150E+02 -0.25645155672E+02 -0.33240560531E+02  0.43400729874E+02  0.00000000000E+00 0.  1.
         11    1    4    4    0    0  0.12780600950E+01  0.82457141013E+01  0.90972374307E+01  0.12344430638E+02  0.51100000000E-03 0. -1.
        -11    1    4    4    0    0  0.11440780075E+02  0.37621833521E+01  0.13241782357E+02  0.17899448945E+02  0.51100000000E-03 0.  1.
        -12    1    4    4    0    0 -0.17181820200E+01  0.13637258218E+02  0.10901540743E+02  0.17543390543E+02  0.00000000000E+00 0.  1.
</event>
<event>
 8    1  0.4042158E-011  0.9118800E+02  0.7816164E-02  0.1184000E+00
        -11   -1    0    0    0    0  0.00000000000E+00  0.00000000000E+00  0.45593999997E+02  0.45594000000E+02  0.51100000000E-03 0. -1.
         11   -1    0    0    0    0 -0.00000000000E+00 -0.00000000000E+00 -0.45593999997E+02  0.45594000000E+02  0.51100000000E-03 0.  1.
         23    2    1    2    0    0  0.71054273576E-14  0.00000000000E+00  0.00000000000E+00  0.91188000000E+02  0.91188000000E+02 0.  0.
    9900012    2    3    3    0    0  0.16918923353E+02 -0.28245436424E+02  0.28276646974E+02  0.47787269472E+02  0.19999992833E+02 0.  0.
        -12    1    3    3    0    0 -0.16918923353E+02  0.28245436424E+02 -0.28276646974E+02  0.43400730528E+02  0.00000000000E+00 0.  1.
         11    1    4    4    0    0  0.17235724084E+02 -0.19116661858E+02  0.12732315177E+02  0.28716350662E+02  0.51100000000E-03 0. -1.
        -11    1    4    4    0    0 -0.91406784108E+00 -0.44676388415E+01  0.24882139562E+01  0.51948557044E+01  0.51100000000E-03 0.  1.
         12    1    4    4    0    0  0.59726711006E+00 -0.46611357240E+01  0.13056117841E+02  0.13876063106E+02  0.00000000000E+00 0. -1.
</event>
<event>
 8    1  0.4042158E-011  0.9118800E+02  0.7816164E-02  0.1184000E+00
        -11   -1    0    0    0    0  0.00000000000E+00  0.00000000000E+00  0.45593999997E+02  0.45594000000E+02  0.51100000000E-03 0. -1.
         11   -1    0    0    0    0 -0.00000000000E+00 -0.00000000000E+00 -0.45593999997E+02  0.45594000000E+02  0.51100000000E-03 0.  1.
         23    2    1    2    0    0  0.00000000000E+00  0.00000000000E+00  0.00000000000E+00  0.91188000000E+02  0.91188000000E+02 0.  0.
    9900012    2    3    3    0    0 -0.14267196324E+02  0.12488837831E+02  0.39039714662E+02  0.47787270948E+02  0.19999999562E+02 0.  0.
        -12    1    3    3    0    0  0.14267196324E+02 -0.12488837831E+02 -0.39039714662E+02  0.43400729052E+02  0.00000000000E+00 0.  1.
         11    1    4    4    0    0 -0.82480499519E+00 -0.76325336056E+00  0.14922830499E+02  0.14965083672E+02  0.51100000000E-03 0. -1.
        -11    1    4    4    0    0  0.10286028450E+01 -0.10027576794E+01  0.39305480334E+01  0.41848243548E+01  0.51100000000E-03 0.  1.
         12    1    4    4    0    0 -0.14470994173E+02  0.14254848871E+02  0.20186336130E+02  0.28637362921E+02  0.00000000000E+00 0. -1.
</event>
<event>
 8    1  0.4042158E-011  0.9118800E+02  0.7816164E-02  0.1184000E+00
        -11   -1    0    0    0    0  0.00000000000E+00  0.00000000000E+00  0.45593999997E+02  0.45594000000E+02  0.51100000000E-03 0. -1.
         11   -1    0    0    0    0 -0.00000000000E+00 -0.00000000000E+00 -0.45593999997E+02  0.45594000000E+02  0.51100000000E-03 0.  1.
         23    2    1    2    0    0 -0.13322676296E-14  0.35527136788E-14  0.71054273576E-14  0.91188000000E+02  0.91188000000E+02 0.  0.
    9900012    2    3    3    0    0 -0.31687086444E+01  0.27335155772E+02  0.33561455592E+02  0.47787276999E+02  0.20000027150E+02 0.  0.
        -12    1    3    3    0    0  0.31687086444E+01 -0.27335155772E+02 -0.33561455592E+02  0.43400723001E+02  0.00000000000E+00 0.  1.
         11    1    4    4    0    0  0.20198700445E+01  0.82619252128E+01  0.93212756507E+01  0.12618457245E+02  0.51100000000E-03 0. -1.
        -11    1    4    4    0    0 -0.84591890473E+01  0.18998654634E+02  0.15803485142E+02  0.26120047859E+02  0.51100000000E-03 0.  1.
        -12    1    4    4    0    0  0.32706103583E+01  0.74575924845E-01  0.84366947992E+01  0.90487718957E+01  0.00000000000E+00 0.  1.
</event>
<event>
 8    1  0.4042158E-011  0.9118800E+02  0.7816164E-02  0.1184000E+00
        -11   -1    0    0    0    0  0.00000000000E+00  0.00000000000E+00  0.45593999997E+02  0.45594000000E+02  0.51100000000E-03 0. -1.
         11   -1    0    0    0    0 -0.00000000000E+00 -0.00000000000E+00 -0.45593999997E+02  0.45594000000E+02  0.51100000000E-03 0.  1.
         23    2    1    2    0    0 -0.17763568394E-14  0.00000000000E+00  0.00000000000E+00  0.91188000000E+02  0.91188000000E+02 0.  0.
    9900012    2    3    3    0    0  0.15320326574E+02  0.20422064450E+02  0.35097723991E+02  0.47787270143E+02  0.19999995890E+02 0.  0.
        -12    1    3    3    0    0 -0.15320326574E+02 -0.20422064450E+02 -0.35097723991E+02  0.43400729857E+02  0.00000000000E+00 0.  1.
         11    1    4    4    0    0  0.88802629287E+01  0.13019711383E+02  0.13609871100E+02  0.20823077241E+02  0.51100000000E-03 0. -1.
        -11    1    4    4    0    0  0.30893341512E+01  0.18934434891E+01 -0.84375222171E+00  0.37203537220E+01  0.51100000000E-03 0.  1.
         12    1    4    4    0    0  0.33507294939E+01  0.55089095783E+01  0.22331605113E+02  0.23243839180E+02  0.00000000000E+00 0. -1.
</event>
<event>
 8    1  0.4042158E-011  0.9118800E+02  0.7816164E-02  0.1184000E+00
        -11   -1    0    0    0    0  0.00000000000E+00  0.00000000000E+00  0.45593999997E+02  0.45594000000E+02  0.51100000000E-03 0. -1.
         11   -1    0    0    0    0 -0.00000000000E+00 -0.00000000000E+00 -0.45593999997E+02  0.45594000000E+02  0.51100000000E-03 0.  1.
         23    2    1    2    0    0  0.00000000000E+00  0.88817841970E-15  0.71054273576E-14  0.91188000000E+02  0.91188000000E+02 0.  0.
    9900012    2    3    3    0    0 -0.17636172684E+02  0.67277609732E+01  0.39081019874E+02  0.47787268796E+02  0.19999989748E+02 0.  0.
        -12    1    3    3    0    0  0.17636172684E+02 -0.67277609732E+01 -0.39081019874E+02  0.43400731204E+02  0.00000000000E+00 0.  1.
         11    1    4    4    0    0 -0.21629818624E+01  0.39556149587E+01  0.13756478243E+02  0.14476397140E+02  0.51100000000E-03 0. -1.
        -11    1    4    4    0    0 -0.12558346204E+01 -0.22876072395E+01  0.14515655249E+02  0.14748373302E+02  0.51100000000E-03 0.  1.
        -12    1    4    4    0    0 -0.14217356201E+02  0.50597532539E+01  0.10808886382E+02  0.18562498354E+02  0.00000000000E+00 0.  1.
</event>
<event>
 8    1  0.4042158E-011  0.9118800E+02  0.7816164E-02  0.1184000E+00
        -11   -1    0    0    0    0  0.00000000000E+00  0.00000000000E+00  0.45593999997E+02  0.45594000000E+02  0.51100000000E-03 0. -1.
         11   -1    0    0    0    0 -0.00000000000E+00 -0.00000000000E+00 -0.45593999997E+02  0.45594000000E+02  0.51100000000E-03 0.  1.
         23    2    1    2    0    0 -0.11102230246E-14 -0.88817841970E-15  0.00000000000E+00  0.91188000000E+02  0.91188000000E+02 0.  0.
    9900012    2    3    3    0    0 -0.14229184334E+01  0.43813259263E+01  0.43155563139E+02  0.47787270241E+02  0.19999996338E+02 0.  0.
        -12    1    3    3    0    0  0.14229184334E+01 -0.43813259263E+01 -0.43155563139E+02  0.43400729759E+02  0.00000000000E+00 0.  1.
         11    1    4    4    0    0 -0.60349957154E+01  0.38320237579E+01  0.20272455892E+02  0.21496000733E+02  0.51100000000E-03 0.  1.
        -11    1    4    4    0    0  0.80546636526E+01 -0.13430702666E+01  0.19370882390E+02  0.21021715656E+02  0.51100000000E-03 0. -1.
         12    1    4    4    0    0 -0.34425863706E+01  0.18923724351E+01  0.35122248574E+01  0.52695538522E+01  0.00000000000E+00 0. -1.
</event>
<event>
 8    1  0.4042158E-011  0.9118800E+02  0.7816164E-02  0.1184000E+00
        -11   -1    0    0    0    0  0.00000000000E+00  0.00000000000E+00  0.45593999997E+02  0.45594000000E+02  0.51100000000E-03 0. -1.
         11   -1    0    0    0    0 -0.00000000000E+00 -0.00000000000E+00 -0.45593999997E+02  0.45594000000E+02  0.51100000000E-03 0.  1.
         23    2    1    2    0    0  0.00000000000E+00  0.00000000000E+00  0.35527136788E-14  0.91188000000E+02  0.91188000000E+02 0.  0.
    9900012    2    3    3    0    0 -0.14484788204E+02 -0.30259356019E+02 -0.27535165773E+02  0.47787273392E+02  0.20000010703E+02 0.  0.
         12    1    3    3    0    0  0.14484788204E+02  0.30259356019E+02  0.27535165773E+02  0.43400726608E+02  0.00000000000E+00 0. -1.
         11    1    4    4    0    0 -0.30293617586E+00  0.22360375298E+01 -0.59202764910E-01  0.22572415444E+01  0.51100000000E-03 0. -1.
        -11    1    4    4    0    0 -0.67790426199E+01 -0.70594353316E+01 -0.66506027042E+01  0.11833070719E+02  0.51100000000E-03 0.  1.
         12    1    4    4    0    0 -0.74028094079E+01 -0.25435958217E+02 -0.20825360304E+02  0.33696961129E+02  0.00000000000E+00 0. -1.
</event>
<event>
 8    1  0.4042158E-011  0.9118800E+02  0.7816164E-02  0.1184000E+00
        -11   -1    0    0    0    0  0.00000000000E+00  0.00000000000E+00  0.45593999997E+02  0.45594000000E+02  0.51100000000E-03 0. -1.
         11   -1    0    0    0    0 -0.00000000000E+00 -0.00000000000E+00 -0.45593999997E+02  0.45594000000E+02  0.51100000000E-03 0.  1.
         23    2    1    2    0    0  0.00000000000E+00  0.00000000000E+00  0.00000000000E+00  0.91188000000E+02  0.91188000000E+02 0.  0.
    9900012    2    3    3    0    0 -0.21450858955E+02 -0.28429924997E+02  0.24803696175E+02  0.47787270407E+02  0.19999997093E+02 0.  0.
        -12    1    3    3    0    0  0.21450858955E+02  0.28429924997E+02 -0.24803696175E+02  0.43400729593E+02  0.00000000000E+00 0.  1.
         11    1    4    4    0    0 -0.89062864565E+00 -0.26082246429E+01 -0.89649812061E+00  0.28982346892E+01  0.51100000000E-03 0. -1.
        -11    1    4    4    0    0  0.24553863058E+01 -0.69944045401E+00  0.75566254293E+00  0.26625485910E+01  0.51100000000E-03 0.  1.
        -12    1    4    4    0    0 -0.23015616615E+02 -0.25122259900E+02  0.24944531753E+02  0.42226487127E+02  0.00000000000E+00 0.  1.
</event>
<event>
 8    1  0.4042158E-011  0.9118800E+02  0.7816164E-02  0.1184000E+00
        -11   -1    0    0    0    0  0.00000000000E+00  0.00000000000E+00  0.45593999997E+02  0.45594000000E+02  0.51100000000E-03 0. -1.
         11   -1    0    0    0    0 -0.00000000000E+00 -0.00000000000E+00 -0.45593999997E+02  0.45594000000E+02  0.51100000000E-03 0.  1.
         23    2    1    2    0    0  0.00000000000E+00  0.00000000000E+00  0.00000000000E+00  0.91188000000E+02  0.91188000000E+02 0.  0.
    9900012    2    3    3    0    0 -0.42011028136E+02  0.43499537246E+01  0.99887447570E+01  0.47787267238E+02  0.19999982643E+02 0.  0.
        -12    1    3    3    0    0  0.42011028136E+02 -0.43499537246E+01 -0.99887447570E+01  0.43400732762E+02  0.00000000000E+00 0.  1.
         11    1    4    4    0    0 -0.18300478139E+02  0.23065727545E+01  0.17412153628E+01  0.18527266641E+02  0.51100000000E-03 0. -1.
        -11    1    4    4    0    0 -0.29783430593E+01 -0.23567802001E+01 -0.33814958966E+01  0.50852192726E+01  0.51100000000E-03 0.  1.
         12    1    4    4    0    0 -0.20732206938E+02  0.44001611702E+01  0.11629025291E+02  0.24174781324E+02  0.00000000000E+00 0. -1.
</event>
<event>
 8    1  0.4042158E-011  0.9118800E+02  0.7816164E-02  0.1184000E+00
        -11   -1    0    0    0    0  0.00000000000E+00  0.00000000000E+00  0.45593999997E+02  0.45594000000E+02  0.51100000000E-03 0. -1.
         11   -1    0    0    0    0 -0.00000000000E+00 -0.00000000000E+00 -0.45593999997E+02  0.45594000000E+02  0.51100000000E-03 0.  1.
         23    2    1    2    0    0  0.00000000000E+00  0.17763568394E-14  0.00000000000E+00  0.91188000000E+02  0.91188000000E+02 0.  0.
    9900012    2    3    3    0    0  0.36355529452E+02  0.10297569451E+02 -0.21350854615E+02  0.47787269002E+02  0.19999990688E+02 0.  0.
         12    1    3    3    0    0 -0.36355529452E+02 -0.10297569451E+02  0.21350854615E+02  0.43400730998E+02  0.00000000000E+00 0. -1.
         11    1    4    4    0    0  0.21272380129E+02  0.28528228204E+01 -0.16450121736E+02  0.27041805779E+02  0.51100000000E-03 0. -1.
        -11    1    4    4    0    0  0.15882551271E+02  0.58984471296E+01 -0.67209692706E+01  0.18226863187E+02  0.51100000000E-03 0.  1.
         12    1    4    4    0    0 -0.79940194843E+00  0.15462995010E+01  0.18202363914E+01  0.25186000363E+01  0.00000000000E+00 0. -1.
</event>
<event>
 8    1  0.7002000E-011  0.9118800E+02  0.7816164E-02  0.1184000E+00
        -11   -1    0    0    0    0  0.00000000000E+00  0.00000000000E+00  0.45593999997E+02  0.45594000000E+02  0.51100000000E-03 0. -1.
         11   -1    0    0    0    0 -0.00000000000E+00 -0.00000000000E+00 -0.45593999997E+02  0.45594000000E+02  0.51100000000E-03 0.  1.
         23    2    1    2    0    0  0.35527136788E-14  0.00000000000E+00 -0.71054273576E-14  0.91188000000E+02  0.91188000000E+02 0.  0.
    9900012    2    3    3    0    0  0.26930046542E+02  0.81817743023E+01  0.33037166992E+02  0.47787271430E+02  0.20000001760E+02 0.  0.
        -12    1    3    3    0    0 -0.26930046542E+02 -0.81817743023E+01 -0.33037166992E+02  0.43400728570E+02  0.00000000000E+00 0.  1.
         11    1    4    4    0    0  0.19727774682E+02  0.27082370345E+01  0.16803810918E+02  0.26055473578E+02  0.51100000000E-03 0. -1.
        -11    1    4    4    0    0  0.92982855365E+01  0.41047310820E+01  0.16320739863E+02  0.19226894734E+02  0.51100000000E-03 0.  1.
        -12    1    4    4    0    0 -0.20960136767E+01  0.13688061858E+01 -0.87383788564E-01  0.25049031186E+01  0.00000000000E+00 0.  1.
</event>
<event>
 8    1  0.4042158E-011  0.9118800E+02  0.7816164E-02  0.1184000E+00
        -11   -1    0    0    0    0  0.00000000000E+00  0.00000000000E+00  0.45593999997E+02  0.45594000000E+02  0.51100000000E-03 0. -1.
         11   -1    0    0    0    0 -0.00000000000E+00 -0.00000000000E+00 -0.45593999997E+02  0.45594000000E+02  0.51100000000E-03 0.  1.
         23    2    1    2    0    0  0.00000000000E+00  0.44408920985E-15  0.00000000000E+00  0.91188000000E+02  0.91188000000E+02 0.  0.
    9900012    2    3    3    0    0 -0.56274404997E+01  0.20276379505E+01 -0.42986556481E+02  0.47787269127E+02  0.19999991258E+02 0.  0.
         12    1    3    3    0    0  0.56274404997E+01 -0.20276379505E+01  0.42986556481E+02  0.43400730873E+02  0.00000000000E+00 0. -1.
         11    1    4    4    0    0  0.59774118532E+01  0.12211250047E+01 -0.95208566684E+01  0.11307842885E+02  0.51100000000E-03 0. -1.
        -11    1    4    4    0    0 -0.26332371897E+01 -0.16252556438E+01 -0.19232172711E+02  0.19479524159E+02  0.51100000000E-03 0.  1.
        -12    1    4    4    0    0 -0.89716151632E+01  0.24317685895E+01 -0.14233527101E+02  0.16999902083E+02  0.00000000000E+00 0.  1.
</event>
<event>
 8    1  0.4042158E-011  0.9118800E+02  0.7816164E-02  0.1184000E+00
        -11   -1    0    0    0    0  0.00000000000E+00  0.00000000000E+00  0.45593999997E+02  0.45594000000E+02  0.51100000000E-03 0. -1.
         11   -1    0    0    0    0 -0.00000000000E+00 -0.00000000000E+00 -0.45593999997E+02  0.45594000000E+02  0.51100000000E-03 0.  1.
         23    2    1    2    0    0  0.00000000000E+00  0.00000000000E+00 -0.35527136788E-14  0.91188000000E+02  0.91188000000E+02 0.  0.
    9900012    2    3    3    0    0 -0.23855421392E+01  0.31973603754E+02 -0.29251001703E+02  0.47787271332E+02  0.20000001311E+02 0.  0.
         12    1    3    3    0    0  0.23855421392E+01 -0.31973603754E+02  0.29251001703E+02  0.43400728668E+02  0.00000000000E+00 0. -1.
         11    1    4    4    0    0  0.80494587453E+01  0.12438947602E+02 -0.10492430559E+02  0.18155227975E+02  0.51100000000E-03 0. -1.
        -11    1    4    4    0    0 -0.42700385214E+01  0.12593050309E+02 -0.84304623225E+01  0.15744549542E+02  0.51100000000E-03 0.  1.
        -12    1    4    4    0    0 -0.61649623631E+01  0.69416058428E+01 -0.10328108822E+02  0.13887493815E+02  0.00000000000E+00 0.  1.
</event>
<event>
 8    1  0.4042158E-011  0.9118800E+02  0.7816164E-02  0.1184000E+00
        -11   -1    0    0    0    0  0.00000000000E+00  0.00000000000E+00  0.45593999997E+02  0.45594000000E+02  0.51100000000E-03 0. -1.
         11   -1    0    0    0    0 -0.00000000000E+00 -0.00000000000E+00 -0.45593999997E+02  0.45594000000E+02  0.51100000000E-03 0.  1.
         23    2    1    2    0    0  0.00000000000E+00 -0.17763568394E-14  0.71054273576E-14  0.91188000000E+02  0.91188000000E+02 0.  0.
    9900012    2    3    3    0    0 -0.13211685173E+02  0.95621724757E+01 -0.40219885276E+02  0.47787274900E+02  0.20000017580E+02 0.  0.
         12    1    3    3    0    0  0.13211685173E+02 -0.95621724757E+01  0.40219885276E+02  0.43400725100E+02  0.00000000000E+00 0. -1.
         11    1    4    4    0    0 -0.37552424035E+01 -0.26134512803E+01 -0.21751190947E+01  0.50658776575E+01  0.51100000000E-03 0. -1.
        -11    1    4    4    0    0 -0.88084483293E+00 -0.22384691675E+01 -0.74788518216E+01  0.78561986141E+01  0.51100000000E-03 0.  1.
        -12    1    4    4    0    0 -0.85755979362E+01  0.14414092923E+02 -0.30565914360E+02  0.34865198629E+02  0.00000000000E+00 0.  1.
</event>
<event>
 8    1  0.4042158E-011  0.9118800E+02  0.7816164E-02  0.1184000E+00
        -11   -1    0    0    0    0  0.00000000000E+00  0.00000000000E+00  0.45593999997E+02  0.45594000000E+02  0.51100000000E-03 0. -1.
         11   -1    0    0    0    0 -0.00000000000E+00 -0.00000000000E+00 -0.45593999997E+02  0.45594000000E+02  0.51100000000E-03 0.  1.
         23    2    1    2    0    0  0.35527136788E-14  0.00000000000E+00  0.00000000000E+00  0.91188000000E+02  0.91188000000E+02 0.  0.
    9900012    2    3    3    0    0  0.22669351087E+02  0.17643886021E+02  0.32533325146E+02  0.47787269157E+02  0.19999991395E+02 0.  0.
        -12    1    3    3    0    0 -0.22669351087E+02 -0.17643886021E+02 -0.32533325146E+02  0.43400730843E+02  0.00000000000E+00 0.  1.
         11    1    4    4    0    0  0.25706769703E+01 -0.54576348172E+00  0.63383494544E+01  0.68615531720E+01  0.51100000000E-03 0. -1.
        -11    1    4    4    0    0 -0.25409087017E+01  0.75731864234E+00  0.37416322519E+01  0.45857999004E+01  0.51100000000E-03 0.  1.
         12    1    4    4    0    0  0.22639582819E+02  0.17432330860E+02  0.22453343440E+02  0.36339916085E+02  0.00000000000E+00 0. -1.
</event>
<event>
 8    1  0.4042158E-011  0.9118800E+02  0.7816164E-02  0.1184000E+00
        -11   -1    0    0    0    0  0.00000000000E+00  0.00000000000E+00  0.45593999997E+02  0.45594000000E+02  0.51100000000E-03 0.  1.
         11   -1    0    0    0    0 -0.00000000000E+00 -0.00000000000E+00 -0.45593999997E+02  0.45594000000E+02  0.51100000000E-03 0. -1.
         23    2    1    2    0    0 -0.35527136788E-14  0.35527136788E-14  0.00000000000E+00  0.91188000000E+02  0.91188000000E+02 0.  0.
    9900012    2    3    3    0    0 -0.27195050193E+02  0.16490609541E+02 -0.29531535591E+02  0.47787279356E+02  0.20000037897E+02 0.  0.
         12    1    3    3    0    0  0.27195050193E+02 -0.16490609541E+02  0.29531535591E+02  0.43400720644E+02  0.00000000000E+00 0. -1.
         11    1    4    4    0    0 -0.10609820230E+02  0.32748268797E+01 -0.25981747090E+01  0.11403652419E+02  0.51100000000E-03 0. -1.
        -11    1    4    4    0    0 -0.15547208199E+02  0.95111551966E+01 -0.14266630207E+02  0.23145506987E+02  0.51100000000E-03 0.  1.
         12    1    4    4    0    0 -0.10380217634E+01  0.37046274648E+01 -0.12666730675E+02  0.13238119950E+02  0.00000000000E+00 0. -1.
</event>
<event>
 8    1  0.4042158E-011  0.9118800E+02  0.7816164E-02  0.1184000E+00
        -11   -1    0    0    0    0  0.00000000000E+00  0.00000000000E+00  0.45593999997E+02  0.45594000000E+02  0.51100000000E-03 0.  1.
         11   -1    0    0    0    0 -0.00000000000E+00 -0.00000000000E+00 -0.45593999997E+02  0.45594000000E+02  0.51100000000E-03 0. -1.
         23    2    1    2    0    0 -0.71054273576E-14  0.17763568394E-14  0.35527136788E-14  0.91188000000E+02  0.91188000000E+02 0.  0.
    9900012    2    3    3    0    0 -0.36569802626E+02  0.12554634420E+02 -0.19714319662E+02  0.47787266028E+02  0.19999977129E+02 0.  0.
         12    1    3    3    0    0  0.36569802626E+02 -0.12554634420E+02  0.19714319662E+02  0.43400733972E+02  0.00000000000E+00 0. -1.
         11    1    4    4    0    0 -0.24423902200E+01 -0.99388370053E+00 -0.11307269425E+01  0.28690797264E+01  0.51100000000E-03 0. -1.
        -11    1    4    4    0    0 -0.30939392691E+02  0.10930748524E+02 -0.22046776502E+02  0.39532108947E+02  0.51100000000E-03 0.  1.
         12    1    4    4    0    0 -0.31880197150E+01  0.26177695963E+01  0.34631837824E+01  0.53860773549E+01  0.00000000000E+00 0. -1.
</event>
<event>
 8    1  0.4042158E-011  0.9118800E+02  0.7816164E-02  0.1184000E+00
        -11   -1    0    0    0    0  0.00000000000E+00  0.00000000000E+00  0.45593999997E+02  0.45594000000E+02  0.51100000000E-03 0. -1.
         11   -1    0    0    0    0 -0.00000000000E+00 -0.00000000000E+00 -0.45593999997E+02  0.45594000000E+02  0.51100000000E-03 0.  1.
         23    2    1    2    0    0 -0.88817841970E-15  0.00000000000E+00  0.00000000000E+00  0.91188000000E+02  0.91188000000E+02 0.  0.
    9900012    2    3    3    0    0 -0.71078315905E+01  0.14663350859E+02  0.40225460471E+02  0.47787276521E+02  0.20000024972E+02 0.  0.
        -12    1    3    3    0    0  0.71078315905E+01 -0.14663350859E+02 -0.40225460471E+02  0.43400723479E+02  0.00000000000E+00 0.  1.
         11    1    4    4    0    0  0.12669526603E+00 -0.21939079919E+01  0.10746862827E+00  0.22001894770E+01  0.51100000000E-03 0.  1.
        -11    1    4    4    0    0  0.28340204942E+01  0.26480273508E+01  0.10939813649E+02  0.11607034245E+02  0.51100000000E-03 0. -1.
        -12    1    4    4    0    0 -0.10068547351E+02  0.14209231500E+02  0.29178178194E+02  0.33980052800E+02  0.00000000000E+00 0.  1.
</event>
<event>
 8    1  0.4042158E-011  0.9118800E+02  0.7816164E-02  0.1184000E+00
        -11   -1    0    0    0    0  0.00000000000E+00  0.00000000000E+00  0.45593999997E+02  0.45594000000E+02  0.51100000000E-03 0. -1.
         11   -1    0    0    0    0 -0.00000000000E+00 -0.00000000000E+00 -0.45593999997E+02  0.45594000000E+02  0.51100000000E-03 0.  1.
         23    2    1    2    0    0  0.17763568394E-14  0.00000000000E+00  0.00000000000E+00  0.91188000000E+02  0.91188000000E+02 0.  0.
    9900012    2    3    3    0    0  0.86954670007E+01  0.99399652781E+01  0.41342583581E+02  0.47787271052E+02  0.20000000033E+02 0.  0.
        -12    1    3    3    0    0 -0.86954670007E+01 -0.99399652781E+01 -0.41342583581E+02  0.43400728948E+02  0.00000000000E+00 0.  1.
         11    1    4    4    0    0  0.18823062465E+01 -0.32026463734E+01  0.72781997935E+01  0.81714266253E+01  0.51100000000E-03 0. -1.
        -11    1    4    4    0    0  0.25281470204E+01 -0.19408629239E+01  0.16073474529E+01  0.35695997453E+01  0.51100000000E-03 0.  1.
         12    1    4    4    0    0  0.42850137338E+01  0.15083474575E+02  0.32457036335E+02  0.36046244681E+02  0.00000000000E+00 0. -1.
</event>
<event>
 8    1  0.4042158E-011  0.9118800E+02  0.7816164E-02  0.1184000E+00
        -11   -1    0    0    0    0  0.00000000000E+00  0.00000000000E+00  0.45593999997E+02  0.45594000000E+02  0.51100000000E-03 0. -1.
         11   -1    0    0    0    0 -0.00000000000E+00 -0.00000000000E+00 -0.45593999997E+02  0.45594000000E+02  0.51100000000E-03 0.  1.
         23    2    1    2    0    0  0.35527136788E-14  0.00000000000E+00 -0.35527136788E-14  0.91188000000E+02  0.91188000000E+02 0.  0.
    9900012    2    3    3    0    0  0.20283855659E+02 -0.21426502258E+02 -0.31829127096E+02  0.47787272689E+02  0.20000007499E+02 0.  0.
         12    1    3    3    0    0 -0.20283855659E+02  0.21426502258E+02  0.31829127096E+02  0.43400727311E+02  0.00000000000E+00 0. -1.
         11    1    4    4    0    0  0.88269909351E+01  0.10075108208E+01 -0.38550711937E+01  0.96846487387E+01  0.51100000000E-03 0. -1.
        -11    1    4    4    0    0  0.29948478189E+01 -0.17542690070E+01 -0.29538875207E+01  0.45576337011E+01  0.51100000000E-03 0.  1.
        -12    1    4    4    0    0  0.84620169047E+01 -0.20679744072E+02 -0.25020168382E+02  0.33544990249E+02  0.00000000000E+00 0.  1.
</event>
<event>
 8    1  0.4042158E-011  0.9118800E+02  0.7816164E-02  0.1184000E+00
        -11   -1    0    0    0    0  0.00000000000E+00  0.00000000000E+00  0.45593999997E+02  0.45594000000E+02  0.51100000000E-03 0.  1.
         11   -1    0    0    0    0 -0.00000000000E+00 -0.00000000000E+00 -0.45593999997E+02  0.45594000000E+02  0.51100000000E-03 0. -1.
         23    2    1    2    0    0  0.00000000000E+00  0.13322676296E-14  0.00000000000E+00  0.91188000000E+02  0.91188000000E+02 0.  0.
    9900012    2    3    3    0    0 -0.36675064577E+02 -0.34393685443E+00  0.23204409278E+02  0.47787271156E+02  0.20000000509E+02 0.  0.
        -12    1    3    3    0    0  0.36675064577E+02  0.34393685443E+00 -0.23204409278E+02  0.43400728844E+02  0.00000000000E+00 0.  1.
         11    1    4    4    0    0 -0.11307273485E+02  0.47064371054E+01  0.31819708947E+01  0.12654245253E+02  0.51100000000E-03 0. -1.
        -11    1    4    4    0    0 -0.15379488296E+02  0.12205908711E+01  0.53963991577E+01  0.16344406580E+02  0.51100000000E-03 0.  1.
        -12    1    4    4    0    0 -0.99883027955E+01 -0.62709648309E+01  0.14626039225E+02  0.18788619323E+02  0.00000000000E+00 0.  1.
</event>
<event>
 8    1  0.4042158E-011  0.9118800E+02  0.7816164E-02  0.1184000E+00
        -11   -1    0    0    0    0  0.00000000000E+00  0.00000000000E+00  0.45593999997E+02  0.45594000000E+02  0.51100000000E-03 0.  1.
         11   -1    0    0    0    0 -0.00000000000E+00 -0.00000000000E+00 -0.45593999997E+02  0.45594000000E+02  0.51100000000E-03 0. -1.
         23    2    1    2    0    0 -0.35527136788E-14  0.00000000000E+00  0.00000000000E+00  0.91188000000E+02  0.91188000000E+02 0.  0.
    9900012    2    3    3    0    0  0.25235726440E+02  0.30594535213E+02  0.17628265680E+02  0.47787271611E+02  0.20000002584E+02 0.  0.
        -12    1    3    3    0    0 -0.25235726440E+02 -0.30594535213E+02 -0.17628265680E+02  0.43400728389E+02  0.00000000000E+00 0.  1.
         11    1    4    4    0    0  0.93083755590E+01  0.14201369604E+02  0.58477317870E+01  0.17958861921E+02  0.51100000000E-03 0. -1.
        -11    1    4    4    0    0 -0.20673522616E+01  0.65142955641E+01  0.36575966254E+01  0.77516453354E+01  0.51100000000E-03 0.  1.
         12    1    4    4    0    0  0.17994703142E+02  0.98788700446E+01  0.81229372672E+01  0.22076764355E+02  0.00000000000E+00 0. -1.
</event>
<event>
 8    1  0.4042158E-011  0.9118800E+02  0.7816164E-02  0.1184000E+00
        -11   -1    0    0    0    0  0.00000000000E+00  0.00000000000E+00  0.45593999997E+02  0.45594000000E+02  0.51100000000E-03 0. -1.
         11   -1    0    0    0    0 -0.00000000000E+00 -0.00000000000E+00 -0.45593999997E+02  0.45594000000E+02  0.51100000000E-03 0.  1.
         23    2    1    2    0    0 -0.17763568394E-14  0.00000000000E+00 -0.71054273576E-14  0.91188000000E+02  0.91188000000E+02 0.  0.
    9900012    2    3    3    0    0 -0.13873431270E+02  0.62299871716E+01 -0.40648967668E+02  0.47787269501E+02  0.19999992962E+02 0.  0.
         12    1    3    3    0    0  0.13873431270E+02 -0.62299871716E+01  0.40648967668E+02  0.43400730499E+02  0.00000000000E+00 0. -1.
         11    1    4    4    0    0 -0.62358567721E+01  0.35009023621E+00 -0.27558887940E+01  0.68266680132E+01  0.51100000000E-03 0. -1.
        -11    1    4    4    0    0 -0.78730083564E+01  0.11572299912E+00 -0.11453320499E+02  0.13898784232E+02  0.51100000000E-03 0.  1.
         12    1    4    4    0    0  0.23543385837E+00  0.57641739363E+01 -0.26439758375E+02  0.27061817256E+02  0.00000000000E+00 0. -1.
</event>
<event>
 8    1  0.4042158E-011  0.9118800E+02  0.7816164E-02  0.1184000E+00
        -11   -1    0    0    0    0  0.00000000000E+00  0.00000000000E+00  0.45593999997E+02  0.45594000000E+02  0.51100000000E-03 0. -1.
         11   -1    0    0    0    0 -0.00000000000E+00 -0.00000000000E+00 -0.45593999997E+02  0.45594000000E+02  0.51100000000E-03 0.  1.
         23    2    1    2    0    0  0.00000000000E+00 -0.17763568394E-14 -0.88817841970E-15  0.91188000000E+02  0.91188000000E+02 0.  0.
    9900012    2    3    3    0    0  0.41708731661E+02  0.92054844237E+01  0.76982819989E+01  0.47787276665E+02  0.20000025626E+02 0.  0.
        -12    1    3    3    0    0 -0.41708731661E+02 -0.92054844237E+01 -0.76982819989E+01  0.43400723335E+02  0.00000000000E+00 0.  1.
         11    1    4    4    0    0  0.10204095109E+02  0.10346266553E+02  0.39106899892E+01  0.15048663896E+02  0.51100000000E-03 0. -1.
        -11    1    4    4    0    0  0.17624250582E+01 -0.21069743890E+01  0.54261104805E-01  0.27474402069E+01  0.51100000000E-03 0.  1.
         12    1    4    4    0    0  0.29742211494E+02  0.96619225956E+00  0.37333309050E+01  0.29991172562E+02  0.00000000000E+00 0. -1.
</event>
<event>
 8    1  0.4042158E-011  0.9118800E+02  0.7816164E-02  0.1184000E+00
        -11   -1    0    0    0    0  0.00000000000E+00  0.00000000000E+00  0.45593999997E+02  0.45594000000E+02  0.51100000000E-03 0.  1.
         11   -1    0    0    0    0 -0.00000000000E+00 -0.00000000000E+00 -0.45593999997E+02  0.45594000000E+02  0.51100000000E-03 0. -1.
         23    2    1    2    0    0  0.00000000000E+00 -0.35527136788E-14  0.00000000000E+00  0.91188000000E+02  0.91188000000E+02 0.  0.
    9900012    2    3    3    0    0  0.13876851899E+02  0.18762146987E+02 -0.36592869804E+02  0.47787270759E+02  0.19999998696E+02 0.  0.
         12    1    3    3    0    0 -0.13876851899E+02 -0.18762146987E+02  0.36592869804E+02  0.43400729241E+02  0.00000000000E+00 0. -1.
         11    1    4    4    0    0  0.14298278134E+02  0.84910287247E+01 -0.12089950584E+02  0.20559796492E+02  0.51100000000E-03 0. -1.
        -11    1    4    4    0    0 -0.59202496301E+00  0.27268664626E+01 -0.18430407568E+01  0.33441132986E+01  0.51100000000E-03 0.  1.
         12    1    4    4    0    0  0.17059872747E+00  0.75442517993E+01 -0.22659878463E+02  0.23883360968E+02  0.00000000000E+00 0. -1.
</event>
<event>
 8    1  0.4042158E-011  0.9118800E+02  0.7816164E-02  0.1184000E+00
        -11   -1    0    0    0    0  0.00000000000E+00  0.00000000000E+00  0.45593999997E+02  0.45594000000E+02  0.51100000000E-03 0. -1.
         11   -1    0    0    0    0 -0.00000000000E+00 -0.00000000000E+00 -0.45593999997E+02  0.45594000000E+02  0.51100000000E-03 0.  1.
         23    2    1    2    0    0  0.00000000000E+00 -0.88817841970E-15  0.00000000000E+00  0.91188000000E+02  0.91188000000E+02 0.  0.
    9900012    2    3    3    0    0  0.10439601415E+02 -0.30672075729E+01 -0.42014647006E+02  0.47787267252E+02  0.19999982710E+02 0.  0.
         12    1    3    3    0    0 -0.10439601415E+02  0.30672075729E+01  0.42014647006E+02  0.43400732748E+02  0.00000000000E+00 0. -1.
         11    1    4    4    0    0 -0.17919977601E+01 -0.10231978650E+01 -0.29979252800E+01  0.36394705781E+01  0.51100000000E-03 0. -1.
        -11    1    4    4    0    0  0.12411740619E+02  0.38409449527E+01 -0.34051398398E+02  0.36445876261E+02  0.51100000000E-03 0.  1.
         12    1    4    4    0    0 -0.18014144312E+00 -0.58849546607E+01 -0.49653233274E+01  0.77019204127E+01  0.00000000000E+00 0. -1.
</event>
<event>
 8    1  0.4042158E-011  0.9118800E+02  0.7816164E-02  0.1184000E+00
        -11   -1    0    0    0    0  0.00000000000E+00  0.00000000000E+00  0.45593999997E+02  0.45594000000E+02  0.51100000000E-03 0. -1.
         11   -1    0    0    0    0 -0.00000000000E+00 -0.00000000000E+00 -0.45593999997E+02  0.45594000000E+02  0.51100000000E-03 0.  1.
         23    2    1    2    0    0  0.00000000000E+00  0.00000000000E+00 -0.71054273576E-14  0.91188000000E+02  0.91188000000E+02 0.  0.
    9900012    2    3    3    0    0  0.91875457739E+01  0.10933544064E+02  0.40983778599E+02  0.47787268538E+02  0.19999988573E+02 0.  0.
        -12    1    3    3    0    0 -0.91875457739E+01 -0.10933544064E+02 -0.40983778599E+02  0.43400731462E+02  0.00000000000E+00 0.  1.
         11    1    4    4    0    0 -0.13123906758E+01 -0.11734027382E+00  0.58361973012E+01  0.59830875997E+01  0.51100000000E-03 0. -1.
        -11    1    4    4    0    0 -0.13023309839E+01 -0.27999240053E+01  0.11829800467E+02  0.12226194002E+02  0.51100000000E-03 0.  1.
        -12    1    4    4    0    0  0.11802267434E+02  0.13850808343E+02  0.23317780831E+02  0.29577986937E+02  0.00000000000E+00 0.  1.
</event>
<event>
 8    1  0.4042158E-011  0.9118800E+02  0.7816164E-02  0.1184000E+00
        -11   -1    0    0    0    0  0.00000000000E+00  0.00000000000E+00  0.45593999997E+02  0.45594000000E+02  0.51100000000E-03 0. -1.
         11   -1    0    0    0    0 -0.00000000000E+00 -0.00000000000E+00 -0.45593999997E+02  0.45594000000E+02  0.51100000000E-03 0.  1.
         23    2    1    2    0    0  0.35527136788E-14  0.00000000000E+00 -0.71054273576E-14  0.91188000000E+02  0.91188000000E+02 0.  0.
    9900012    2    3    3    0    0  0.20665726947E+02  0.58370527875E+01 -0.37715779309E+02  0.47787268850E+02  0.19999989993E+02 0.  0.
         12    1    3    3    0    0 -0.20665726947E+02 -0.58370527875E+01  0.37715779309E+02  0.43400731150E+02  0.00000000000E+00 0. -1.
         11    1    4    4    0    0  0.36846168619E+01 -0.20723311555E+01  0.81795529545E+00  0.43058110692E+01  0.51100000000E-03 0. -1.
        -11    1    4    4    0    0  0.65622256641E+01  0.32988347737E+01 -0.78477256017E+01  0.10748577297E+02  0.51100000000E-03 0.  1.
         12    1    4    4    0    0  0.10418884421E+02  0.46105491693E+01 -0.30686009003E+02  0.32732880483E+02  0.00000000000E+00 0. -1.
</event>
<event>
 8    1  0.4042158E-011  0.9118800E+02  0.7816164E-02  0.1184000E+00
        -11   -1    0    0    0    0  0.00000000000E+00  0.00000000000E+00  0.45593999997E+02  0.45594000000E+02  0.51100000000E-03 0. -1.
         11   -1    0    0    0    0 -0.00000000000E+00 -0.00000000000E+00 -0.45593999997E+02  0.45594000000E+02  0.51100000000E-03 0.  1.
         23    2    1    2    0    0  0.00000000000E+00  0.00000000000E+00  0.00000000000E+00  0.91188000000E+02  0.91188000000E+02 0.  0.
    9900012    2    3    3    0    0  0.13093586961E+02 -0.15511966740E+02  0.38360922298E+02  0.47787268541E+02  0.19999988584E+02 0.  0.
        -12    1    3    3    0    0 -0.13093586961E+02  0.15511966740E+02 -0.38360922298E+02  0.43400731459E+02  0.00000000000E+00 0.  1.
         11    1    4    4    0    0  0.84122348333E-01  0.11737035561E+01  0.60144923022E+01  0.61285213977E+01  0.51100000000E-03 0. -1.
        -11    1    4    4    0    0  0.43922686029E+01 -0.98099887891E+00  0.18439209389E+02  0.18980485384E+02  0.51100000000E-03 0.  1.
         12    1    4    4    0    0  0.86171960100E+01 -0.15704671417E+02  0.13907220607E+02  0.22678261759E+02  0.00000000000E+00 0. -1.
</event>
<event>
 8    1  0.4042158E-011  0.9118800E+02  0.7816164E-02  0.1184000E+00
        -11   -1    0    0    0    0  0.00000000000E+00  0.00000000000E+00  0.45593999997E+02  0.45594000000E+02  0.51100000000E-03 0. -1.
         11   -1    0    0    0    0 -0.00000000000E+00 -0.00000000000E+00 -0.45593999997E+02  0.45594000000E+02  0.51100000000E-03 0.  1.
         23    2    1    2    0    0  0.22204460493E-15  0.35527136788E-14 -0.35527136788E-14  0.91188000000E+02  0.91188000000E+02 0.  0.
    9900012    2    3    3    0    0  0.12284056674E+01  0.30015309224E+02 -0.31324046018E+02  0.47787266974E+02  0.19999981440E+02 0.  0.
         12    1    3    3    0    0 -0.12284056674E+01 -0.30015309224E+02  0.31324046018E+02  0.43400733026E+02  0.00000000000E+00 0. -1.
         11    1    4    4    0    0  0.15596237062E+01 -0.90501657199E+00 -0.99640509739E+00  0.20601709831E+01  0.51100000000E-03 0. -1.
        -11    1    4    4    0    0 -0.44645331882E+01  0.18574752335E+01 -0.36198959659E+01  0.60403574312E+01  0.51100000000E-03 0.  1.
        -12    1    4    4    0    0  0.41333151495E+01  0.29062850563E+02 -0.26707744954E+02  0.39686738559E+02  0.00000000000E+00 0.  1.
</event>
<event>
 8    1  0.4042158E-011  0.9118800E+02  0.7816164E-02  0.1184000E+00
        -11   -1    0    0    0    0  0.00000000000E+00  0.00000000000E+00  0.45593999997E+02  0.45594000000E+02  0.51100000000E-03 0.  1.
         11   -1    0    0    0    0 -0.00000000000E+00 -0.00000000000E+00 -0.45593999997E+02  0.45594000000E+02  0.51100000000E-03 0. -1.
         23    2    1    2    0    0  0.00000000000E+00  0.00000000000E+00  0.00000000000E+00  0.91188000000E+02  0.91188000000E+02 0.  0.
    9900012    2    3    3    0    0 -0.25450388374E+02  0.95047990696E+01 -0.33846122008E+02  0.47787269030E+02  0.19999990816E+02 0.  0.
         12    1    3    3    0    0  0.25450388374E+02 -0.95047990696E+01  0.33846122008E+02  0.43400730970E+02  0.00000000000E+00 0. -1.
         11    1    4    4    0    0 -0.53529533724E+01  0.24110614287E+01  0.15911540023E+01  0.60826884139E+01  0.51100000000E-03 0. -1.
        -11    1    4    4    0    0 -0.16442497680E+01 -0.48118889313E-01 -0.83613200087E+00  0.18452614208E+01  0.51100000000E-03 0.  1.
        -12    1    4    4    0    0 -0.18453185233E+02  0.71418565302E+01 -0.34601144009E+02  0.39859319195E+02  0.00000000000E+00 0.  1.
</event>
<event>
 8    1  0.4042158E-011  0.9118800E+02  0.7816164E-02  0.1184000E+00
        -11   -1    0    0    0    0  0.00000000000E+00  0.00000000000E+00  0.45593999997E+02  0.45594000000E+02  0.51100000000E-03 0. -1.
         11   -1    0    0    0    0 -0.00000000000E+00 -0.00000000000E+00 -0.45593999997E+02  0.45594000000E+02  0.51100000000E-03 0.  1.
         23    2    1    2    0    0  0.00000000000E+00  0.00000000000E+00  0.00000000000E+00  0.91188000000E+02  0.91188000000E+02 0.  0.
    9900012    2    3    3    0    0  0.19388309658E+02 -0.11772498755E+02 -0.37001687623E+02  0.47787272295E+02  0.20000005704E+02 0.  0.
         12    1    3    3    0    0 -0.19388309658E+02  0.11772498755E+02  0.37001687623E+02  0.43400727705E+02  0.00000000000E+00 0. -1.
         11    1    4    4    0    0 -0.24923754008E+01 -0.18831474516E+01 -0.66301800414E+01  0.73292200885E+01  0.51100000000E-03 0. -1.
        -11    1    4    4    0    0 -0.12100506386E+01 -0.18599575330E+01 -0.18167443866E+01  0.28677909617E+01  0.51100000000E-03 0.  1.
        -12    1    4    4    0    0  0.23090735698E+02 -0.80293937707E+01 -0.28554763195E+02  0.37590261245E+02  0.00000000000E+00 0.  1.
</event>
<event>
 8    1  0.4042158E-011  0.9118800E+02  0.7816164E-02  0.1184000E+00
        -11   -1    0    0    0    0  0.00000000000E+00  0.00000000000E+00  0.45593999997E+02  0.45594000000E+02  0.51100000000E-03 0. -1.
         11   -1    0    0    0    0 -0.00000000000E+00 -0.00000000000E+00 -0.45593999997E+02  0.45594000000E+02  0.51100000000E-03 0.  1.
         23    2    1    2    0    0 -0.17763568394E-14  0.17763568394E-14  0.00000000000E+00  0.91188000000E+02  0.91188000000E+02 0.  0.
    9900012    2    3    3    0    0 -0.14862254106E+02  0.13072021228E+02  0.38624589811E+02  0.47787271041E+02  0.19999999986E+02 0.  0.
        -12    1    3    3    0    0  0.14862254106E+02 -0.13072021228E+02 -0.38624589811E+02  0.43400728959E+02  0.00000000000E+00 0.  1.
         11    1    4    4    0    0  0.21214231744E+01  0.31953467059E+01  0.48799359857E+01  0.62068069361E+01  0.51100000000E-03 0.  1.
        -11    1    4    4    0    0 -0.86923323678E+01  0.11997539187E+02  0.26531849260E+02  0.30388099874E+02  0.51100000000E-03 0. -1.
         12    1    4    4    0    0 -0.82913449131E+01 -0.21208646649E+01  0.72128045645E+01  0.11192364231E+02  0.00000000000E+00 0. -1.
</event>
<event>
 8    1  0.4042158E-011  0.9118800E+02  0.7816164E-02  0.1184000E+00
        -11   -1    0    0    0    0  0.00000000000E+00  0.00000000000E+00  0.45593999997E+02  0.45594000000E+02  0.51100000000E-03 0. -1.
         11   -1    0    0    0    0 -0.00000000000E+00 -0.00000000000E+00 -0.45593999997E+02  0.45594000000E+02  0.51100000000E-03 0.  1.
         23    2    1    2    0    0 -0.88817841970E-15 -0.35527136788E-14  0.00000000000E+00  0.91188000000E+02  0.91188000000E+02 0.  0.
    9900012    2    3    3    0    0  0.50815044155E+01 -0.26375840061E+02 -0.34089795502E+02  0.47787299736E+02  0.20000130816E+02 0.  0.
         12    1    3    3    0    0 -0.50815044155E+01  0.26375840061E+02  0.34089795502E+02  0.43400700264E+02  0.00000000000E+00 0. -1.
         11    1    4    4    0    0  0.66512570817E+01 -0.92002987956E+01 -0.20194517383E+02  0.23166856741E+02  0.51100000000E-03 0. -1.
        -11    1    4    4    0    0  0.37321151044E+01 -0.60260050253E+01 -0.17478130074E+01  0.73004294591E+01  0.51100000000E-03 0.  1.
         12    1    4    4    0    0 -0.53018677707E+01 -0.11149536240E+02 -0.12147465112E+02  0.17320013535E+02  0.00000000000E+00 0. -1.
</event>
<event>
 8    1  0.4042158E-011  0.9118800E+02  0.7816164E-02  0.1184000E+00
        -11   -1    0    0    0    0  0.00000000000E+00  0.00000000000E+00  0.45593999997E+02  0.45594000000E+02  0.51100000000E-03 0. -1.
         11   -1    0    0    0    0 -0.00000000000E+00 -0.00000000000E+00 -0.45593999997E+02  0.45594000000E+02  0.51100000000E-03 0.  1.
         23    2    1    2    0    0 -0.17763568394E-14  0.00000000000E+00  0.00000000000E+00  0.91188000000E+02  0.91188000000E+02 0.  0.
    9900012    2    3    3    0    0 -0.14009818883E+02  0.35337816009E+02 -0.20942456113E+02  0.47787277270E+02  0.20000028386E+02 0.  0.
         12    1    3    3    0    0  0.14009818883E+02 -0.35337816009E+02  0.20942456113E+02  0.43400722730E+02  0.00000000000E+00 0. -1.
         11    1    4    4    0    0 -0.96484325508E+01  0.80695296515E+01 -0.13361594700E+02  0.18350525134E+02  0.51100000000E-03 0. -1.
        -11    1    4    4    0    0 -0.54107534273E+00  0.25615031709E+01  0.12778516049E+01  0.29132397784E+01  0.51100000000E-03 0.  1.
        -12    1    4    4    0    0 -0.38203109895E+01  0.24706783187E+02 -0.88587130177E+01  0.26523512358E+02  0.00000000000E+00 0.  1.
</event>
<event>
 8    1  0.4042158E-011  0.9118800E+02  0.7816164E-02  0.1184000E+00
        -11   -1    0    0    0    0  0.00000000000E+00  0.00000000000E+00  0.45593999997E+02  0.45594000000E+02  0.51100000000E-03 0. -1.
         11   -1    0    0    0    0 -0.00000000000E+00 -0.00000000000E+00 -0.45593999997E+02  0.45594000000E+02  0.51100000000E-03 0.  1.
         23    2    1    2    0    0  0.00000000000E+00  0.00000000000E+00  0.35527136788E-14  0.91188000000E+02  0.91188000000E+02 0.  0.
    9900012    2    3    3    0    0 -0.11079323730E+02 -0.28728680986E+02  0.30586514065E+02  0.47787269958E+02  0.19999995048E+02 0.  0.
        -12    1    3    3    0    0  0.11079323730E+02  0.28728680986E+02 -0.30586514065E+02  0.43400730042E+02  0.00000000000E+00 0.  1.
         11    1    4    4    0    0 -0.89060676188E+01 -0.12500315562E+02  0.90868727030E+01  0.17836680895E+02  0.51100000000E-03 0. -1.
        -11    1    4    4    0    0 -0.28761047026E+00 -0.12113650013E+02  0.54706076145E+01  0.13294765299E+02  0.51100000000E-03 0.  1.
         12    1    4    4    0    0 -0.18856456410E+01 -0.41147154114E+01  0.16029033748E+02  0.16655823765E+02  0.00000000000E+00 0. -1.
</event>
<event>
 8    1  0.4042158E-011  0.9118800E+02  0.7816164E-02  0.1184000E+00
        -11   -1    0    0    0    0  0.00000000000E+00  0.00000000000E+00  0.45593999997E+02  0.45594000000E+02  0.51100000000E-03 0. -1.
         11   -1    0    0    0    0 -0.00000000000E+00 -0.00000000000E+00 -0.45593999997E+02  0.45594000000E+02  0.51100000000E-03 0.  1.
         23    2    1    2    0    0 -0.35527136788E-14  0.00000000000E+00  0.00000000000E+00  0.91188000000E+02  0.91188000000E+02 0.  0.
    9900012    2    3    3    0    0 -0.22573401387E+02 -0.51764922534E+01  0.36705153578E+02  0.47787276257E+02  0.20000023767E+02 0.  0.
        -12    1    3    3    0    0  0.22573401387E+02  0.51764922534E+01 -0.36705153578E+02  0.43400723743E+02  0.00000000000E+00 0.  1.
         11    1    4    4    0    0 -0.45482736739E+01  0.38784954300E+01  0.14479945297E+02  0.15665195061E+02  0.51100000000E-03 0. -1.
        -11    1    4    4    0    0 -0.73363801002E+01 -0.65399831054E+01  0.17699914312E+02  0.20245513550E+02  0.51100000000E-03 0.  1.
        -12    1    4    4    0    0 -0.10688747613E+02 -0.25150045780E+01  0.45252939683E+01  0.11876567647E+02  0.00000000000E+00 0.  1.
</event>
<event>
 8    1  0.4042158E-011  0.9118800E+02  0.7816164E-02  0.1184000E+00
        -11   -1    0    0    0    0  0.00000000000E+00  0.00000000000E+00  0.45593999997E+02  0.45594000000E+02  0.51100000000E-03 0. -1.
         11   -1    0    0    0    0 -0.00000000000E+00 -0.00000000000E+00 -0.45593999997E+02  0.45594000000E+02  0.51100000000E-03 0.  1.
         23    2    1    2    0    0  0.17763568394E-14  0.88817841970E-15 -0.71054273576E-14  0.91188000000E+02  0.91188000000E+02 0.  0.
    9900012    2    3    3    0    0 -0.63759032902E+01  0.54476800188E+01  0.42582788069E+02  0.47787271894E+02  0.20000003876E+02 0.  0.
        -12    1    3    3    0    0  0.63759032902E+01 -0.54476800188E+01 -0.42582788069E+02  0.43400728106E+02  0.00000000000E+00 0.  1.
         11    1    4    4    0    0 -0.24343751706E+00  0.22158858299E+01  0.18564498902E+02  0.18697861685E+02  0.51100000000E-03 0. -1.
        -11    1    4    4    0    0  0.38784864532E+01  0.42468989085E+01  0.12720577521E+02  0.13960368915E+02  0.51100000000E-03 0.  1.
         12    1    4    4    0    0 -0.10010952226E+02 -0.10151047196E+01  0.11297711646E+02  0.15129041295E+02  0.00000000000E+00 0. -1.
</event>
<event>
 8    1  0.4042158E-011  0.9118800E+02  0.7816164E-02  0.1184000E+00
        -11   -1    0    0    0    0  0.00000000000E+00  0.00000000000E+00  0.45593999997E+02  0.45594000000E+02  0.51100000000E-03 0. -1.
         11   -1    0    0    0    0 -0.00000000000E+00 -0.00000000000E+00 -0.45593999997E+02  0.45594000000E+02  0.51100000000E-03 0.  1.
         23    2    1    2    0    0 -0.88817841970E-15  0.00000000000E+00  0.00000000000E+00  0.91188000000E+02  0.91188000000E+02 0.  0.
    9900012    2    3    3    0    0  0.45929089208E+01 -0.37308698191E+02 -0.21693072870E+02  0.47787272085E+02  0.20000004743E+02 0.  0.
         12    1    3    3    0    0 -0.45929089208E+01  0.37308698191E+02  0.21693072870E+02  0.43400727915E+02  0.00000000000E+00 0. -1.
         11    1    4    4    0    0 -0.41626840252E+00 -0.10573623002E+02 -0.11724074912E+02  0.15793312369E+02  0.51100000000E-03 0.  1.
        -11    1    4    4    0    0 -0.36739522217E+01 -0.63383483879E+01  0.76104657626E+00  0.73655805858E+01  0.51100000000E-03 0. -1.
         12    1    4    4    0    0  0.86831295450E+01 -0.20396726801E+02 -0.10730044534E+02  0.24628379130E+02  0.00000000000E+00 0. -1.
</event>
<event>
 8    1  0.4042158E-011  0.9118800E+02  0.7816164E-02  0.1184000E+00
        -11   -1    0    0    0    0  0.00000000000E+00  0.00000000000E+00  0.45593999997E+02  0.45594000000E+02  0.51100000000E-03 0. -1.
         11   -1    0    0    0    0 -0.00000000000E+00 -0.00000000000E+00 -0.45593999997E+02  0.45594000000E+02  0.51100000000E-03 0.  1.
         23    2    1    2    0    0  0.00000000000E+00 -0.88817841970E-15  0.00000000000E+00  0.91188000000E+02  0.91188000000E+02 0.  0.
    9900012    2    3    3    0    0  0.22026924574E+02 -0.42917256870E+01  0.37148605356E+02  0.47787271948E+02  0.20000004121E+02 0.  0.
        -12    1    3    3    0    0 -0.22026924574E+02  0.42917256870E+01 -0.37148605356E+02  0.43400728052E+02  0.00000000000E+00 0.  1.
         11    1    4    4    0    0  0.14411863067E+02 -0.82247872809E+01  0.11922059185E+02  0.20432435448E+02  0.51100000000E-03 0. -1.
        -11    1    4    4    0    0 -0.95521957134E+00 -0.25940880860E+00  0.16971823237E+01  0.19647303786E+01  0.51100000000E-03 0.  1.
         12    1    4    4    0    0  0.85702810786E+01  0.41924704025E+01  0.23529363847E+02  0.25390106122E+02  0.00000000000E+00 0. -1.
</event>
<event>
 8    1  0.4042158E-011  0.9118800E+02  0.7816164E-02  0.1184000E+00
        -11   -1    0    0    0    0  0.00000000000E+00  0.00000000000E+00  0.45593999997E+02  0.45594000000E+02  0.51100000000E-03 0. -1.
         11   -1    0    0    0    0 -0.00000000000E+00 -0.00000000000E+00 -0.45593999997E+02  0.45594000000E+02  0.51100000000E-03 0.  1.
         23    2    1    2    0    0  0.00000000000E+00  0.00000000000E+00  0.00000000000E+00  0.91188000000E+02  0.91188000000E+02 0.  0.
    9900012    2    3    3    0    0  0.17626677832E+02 -0.17989802530E+02  0.35345314171E+02  0.47787262676E+02  0.19999961844E+02 0.  0.
        -12    1    3    3    0    0 -0.17626677832E+02  0.17989802530E+02 -0.35345314171E+02  0.43400737324E+02  0.00000000000E+00 0.  1.
         11    1    4    4    0    0  0.31105533597E+01 -0.14224845702E+01  0.24191106109E+00  0.34289248721E+01  0.51100000000E-03 0. -1.
        -11    1    4    4    0    0  0.34389512778E+01  0.28988558970E+01  0.39274031942E+01  0.59711177775E+01  0.51100000000E-03 0.  1.
         12    1    4    4    0    0  0.11077173194E+02 -0.19466173857E+02  0.31175999916E+02  0.38387220026E+02  0.00000000000E+00 0. -1.
</event>
<event>
 8    1  0.4660176E-011  0.9118800E+02  0.7816164E-02  0.1184000E+00
        -11   -1    0    0    0    0  0.00000000000E+00  0.00000000000E+00  0.45593999997E+02  0.45594000000E+02  0.51100000000E-03 0. -1.
         11   -1    0    0    0    0 -0.00000000000E+00 -0.00000000000E+00 -0.45593999997E+02  0.45594000000E+02  0.51100000000E-03 0.  1.
         23    2    1    2    0    0  0.00000000000E+00  0.00000000000E+00  0.35527136788E-14  0.91188000000E+02  0.91188000000E+02 0.  0.
    9900012    2    3    3    0    0  0.84108070019E+01  0.32289875078E+02  0.27753303242E+02  0.47787267888E+02  0.19999985609E+02 0.  0.
        -12    1    3    3    0    0 -0.84108070019E+01 -0.32289875078E+02 -0.27753303242E+02  0.43400732112E+02  0.00000000000E+00 0.  1.
         11    1    4    4    0    0  0.66806287733E+01  0.22552728361E+02  0.18953422945E+02  0.30207426221E+02  0.51100000000E-03 0. -1.
        -11    1    4    4    0    0  0.42234059858E+01  0.31910167224E+01  0.91449962188E+01  0.10566489575E+02  0.51100000000E-03 0.  1.
        -12    1    4    4    0    0 -0.24932277572E+01  0.65461299948E+01 -0.34511592119E+00  0.70133520914E+01  0.00000000000E+00 0.  1.
</event>
<event>
 8    1  0.4042158E-011  0.9118800E+02  0.7816164E-02  0.1184000E+00
        -11   -1    0    0    0    0  0.00000000000E+00  0.00000000000E+00  0.45593999997E+02  0.45594000000E+02  0.51100000000E-03 0. -1.
         11   -1    0    0    0    0 -0.00000000000E+00 -0.00000000000E+00 -0.45593999997E+02  0.45594000000E+02  0.51100000000E-03 0.  1.
         23    2    1    2    0    0  0.35527136788E-14 -0.35527136788E-14 -0.35527136788E-14  0.91188000000E+02  0.91188000000E+02 0.  0.
    9900012    2    3    3    0    0  0.27409041034E+02 -0.18170010170E+02 -0.28323457449E+02  0.47787273718E+02  0.20000012188E+02 0.  0.
         12    1    3    3    0    0 -0.27409041034E+02  0.18170010170E+02  0.28323457449E+02  0.43400726282E+02  0.00000000000E+00 0. -1.
         11    1    4    4    0    0  0.95402689640E+01 -0.13380489787E+01 -0.10644952239E+02  0.14356953556E+02  0.51100000000E-03 0. -1.
        -11    1    4    4    0    0  0.14092670642E+02 -0.51902658405E+01 -0.50501602769E+01  0.15844442066E+02  0.51100000000E-03 0.  1.
         12    1    4    4    0    0  0.37761014283E+01 -0.11641695351E+02 -0.12628344933E+02  0.17585878095E+02  0.00000000000E+00 0. -1.
</event>
<event>
 8    1  0.4042158E-011  0.9118800E+02  0.7816164E-02  0.1184000E+00
        -11   -1    0    0    0    0  0.00000000000E+00  0.00000000000E+00  0.45593999997E+02  0.45594000000E+02  0.51100000000E-03 0. -1.
         11   -1    0    0    0    0 -0.00000000000E+00 -0.00000000000E+00 -0.45593999997E+02  0.45594000000E+02  0.51100000000E-03 0.  1.
         23    2    1    2    0    0 -0.71054273576E-14  0.00000000000E+00  0.71054273576E-14  0.91188000000E+02  0.91188000000E+02 0.  0.
    9900012    2    3    3    0    0 -0.25799080187E+02  0.16931672895E+02  0.30518017210E+02  0.47787268900E+02  0.19999990225E+02 0.  0.
        -12    1    3    3    0    0  0.25799080187E+02 -0.16931672895E+02 -0.30518017210E+02  0.43400731100E+02  0.00000000000E+00 0.  1.
         11    1    4    4    0    0 -0.17600777297E+02  0.15670724840E+02  0.25662345554E+02  0.34841282382E+02  0.51100000000E-03 0. -1.
        -11    1    4    4    0    0 -0.95925031644E+01  0.19925320701E+01  0.55106370165E+01  0.11240703786E+02  0.51100000000E-03 0.  1.
        -12    1    4    4    0    0  0.13942002740E+01 -0.73158401481E+00 -0.65496536014E+00  0.17052827325E+01  0.00000000000E+00 0.  1.
</event>
<event>
 8    1  0.4042158E-011  0.9118800E+02  0.7816164E-02  0.1184000E+00
        -11   -1    0    0    0    0  0.00000000000E+00  0.00000000000E+00  0.45593999997E+02  0.45594000000E+02  0.51100000000E-03 0. -1.
         11   -1    0    0    0    0 -0.00000000000E+00 -0.00000000000E+00 -0.45593999997E+02  0.45594000000E+02  0.51100000000E-03 0.  1.
         23    2    1    2    0    0  0.00000000000E+00 -0.35527136788E-14  0.35527136788E-14  0.91188000000E+02  0.91188000000E+02 0.  0.
    9900012    2    3    3    0    0 -0.24607448712E+02  0.29251159385E+02 -0.20553990575E+02  0.47787269752E+02  0.19999994109E+02 0.  0.
         12    1    3    3    0    0  0.24607448712E+02 -0.29251159385E+02  0.20553990575E+02  0.43400730248E+02  0.00000000000E+00 0. -1.
         11    1    4    4    0    0 -0.10875325902E+02  0.11836199613E+02 -0.11811532643E+02  0.19946945590E+02  0.51100000000E-03 0.  1.
        -11    1    4    4    0    0 -0.21295153836E+01 -0.12737591700E+01 -0.49239986366E+01  0.55138970816E+01  0.51100000000E-03 0. -1.
         12    1    4    4    0    0 -0.11602607426E+02  0.18688718942E+02 -0.38184592953E+01  0.22326427080E+02  0.00000000000E+00 0. -1.
</event>
<event>
 8    1  0.4042158E-011  0.9118800E+02  0.7816164E-02  0.1184000E+00
        -11   -1    0    0    0    0  0.00000000000E+00  0.00000000000E+00  0.45593999997E+02  0.45594000000E+02  0.51100000000E-03 0. -1.
         11   -1    0    0    0    0 -0.00000000000E+00 -0.00000000000E+00 -0.45593999997E+02  0.45594000000E+02  0.51100000000E-03 0.  1.
         23    2    1    2    0    0 -0.35527136788E-14  0.44408920985E-15  0.35527136788E-14  0.91188000000E+02  0.91188000000E+02 0.  0.
    9900012    2    3    3    0    0  0.31611730642E+02  0.32867913942E+01  0.29555348923E+02  0.47787272335E+02  0.20000005886E+02 0.  0.
        -12    1    3    3    0    0 -0.31611730642E+02 -0.32867913942E+01 -0.29555348923E+02  0.43400727665E+02  0.00000000000E+00 0.  1.
         11    1    4    4    0    0  0.47549282723E+01  0.26331293958E+01  0.37201407378E+01  0.65865135436E+01  0.51100000000E-03 0. -1.
        -11    1    4    4    0    0 -0.14630815004E+01  0.19507656923E+01 -0.51960565099E+00  0.24932076842E+01  0.51100000000E-03 0.  1.
         12    1    4    4    0    0  0.28319883870E+02 -0.12971036939E+01  0.26354813837E+02  0.38707551108E+02  0.00000000000E+00 0. -1.
</event>
<event>
 8    1  0.4042158E-011  0.9118800E+02  0.7816164E-02  0.1184000E+00
        -11   -1    0    0    0    0  0.00000000000E+00  0.00000000000E+00  0.45593999997E+02  0.45594000000E+02  0.51100000000E-03 0. -1.
         11   -1    0    0    0    0 -0.00000000000E+00 -0.00000000000E+00 -0.45593999997E+02  0.45594000000E+02  0.51100000000E-03 0.  1.
         23    2    1    2    0    0  0.17763568394E-14 -0.17763568394E-14  0.00000000000E+00  0.91188000000E+02  0.91188000000E+02 0.  0.
    9900012    2    3    3    0    0 -0.95703910414E+01  0.11550546635E+02 -0.40726108300E+02  0.47787269482E+02  0.19999992876E+02 0.  0.
         12    1    3    3    0    0  0.95703910414E+01 -0.11550546635E+02  0.40726108300E+02  0.43400730518E+02  0.00000000000E+00 0. -1.
         11    1    4    4    0    0 -0.57456857292E+01  0.77763023424E+01 -0.21756506710E+02  0.23808178576E+02  0.51100000000E-03 0.  1.
        -11    1    4    4    0    0 -0.68329056679E+01  0.72298552099E+01 -0.11391404759E+02  0.15123607667E+02  0.51100000000E-03 0. -1.
         12    1    4    4    0    0  0.30082003557E+01 -0.34556109175E+01 -0.75781968306E+01  0.88554832390E+01  0.00000000000E+00 0. -1.
</event>
<event>
 8    1  0.4042158E-011  0.9118800E+02  0.7816164E-02  0.1184000E+00
        -11   -1    0    0    0    0  0.00000000000E+00  0.00000000000E+00  0.45593999997E+02  0.45594000000E+02  0.51100000000E-03 0. -1.
         11   -1    0    0    0    0 -0.00000000000E+00 -0.00000000000E+00 -0.45593999997E+02  0.45594000000E+02  0.51100000000E-03 0.  1.
         23    2    1    2    0    0  0.71054273576E-14  0.00000000000E+00  0.00000000000E+00  0.91188000000E+02  0.91188000000E+02 0.  0.
    9900012    2    3    3    0    0 -0.34777755740E+02  0.11934029004E+02 -0.23058840047E+02  0.47787269051E+02  0.19999990913E+02 0.  0.
         12    1    3    3    0    0  0.34777755740E+02 -0.11934029004E+02  0.23058840047E+02  0.43400730949E+02  0.00000000000E+00 0. -1.
         11    1    4    4    0    0 -0.18695416562E+02 -0.61031220331E+00 -0.16646392992E+02  0.25039837885E+02  0.51100000000E-03 0. -1.
        -11    1    4    4    0    0 -0.15716813351E+01 -0.10528614907E+01 -0.14454968164E+00  0.18972597106E+01  0.51100000000E-03 0.  1.
        -12    1    4    4    0    0 -0.14510657843E+02  0.13597202698E+02 -0.62678973731E+01  0.20850171455E+02  0.00000000000E+00 0.  1.
</event>
<event>
 8    1  0.4042158E-011  0.9118800E+02  0.7816164E-02  0.1184000E+00
        -11   -1    0    0    0    0  0.00000000000E+00  0.00000000000E+00  0.45593999997E+02  0.45594000000E+02  0.51100000000E-03 0.  1.
         11   -1    0    0    0    0 -0.00000000000E+00 -0.00000000000E+00 -0.45593999997E+02  0.45594000000E+02  0.51100000000E-03 0. -1.
         23    2    1    2    0    0  0.00000000000E+00  0.00000000000E+00  0.00000000000E+00  0.91188000000E+02  0.91188000000E+02 0.  0.
    9900012    2    3    3    0    0 -0.33086878485E+02 -0.24832006265E+02 -0.13124534375E+02  0.47787268835E+02  0.19999989928E+02 0.  0.
         12    1    3    3    0    0  0.33086878485E+02  0.24832006265E+02  0.13124534375E+02  0.43400731165E+02  0.00000000000E+00 0. -1.
         11    1    4    4    0    0  0.62686428278E+00 -0.61034714867E+00  0.36630573348E-01  0.87568517798E+00  0.51100000000E-03 0. -1.
        -11    1    4    4    0    0 -0.18818499029E+02 -0.40769996250E+01 -0.16064625219E+01  0.19321970752E+02  0.51100000000E-03 0.  1.
        -12    1    4    4    0    0 -0.14895243739E+02 -0.20144659492E+02 -0.11554702427E+02  0.27589612905E+02  0.00000000000E+00 0.  1.
</event>
<event>
 8    1  0.4042158E-011  0.9118800E+02  0.7816164E-02  0.1184000E+00
        -11   -1    0    0    0    0  0.00000000000E+00  0.00000000000E+00  0.45593999997E+02  0.45594000000E+02  0.51100000000E-03 0. -1.
         11   -1    0    0    0    0 -0.00000000000E+00 -0.00000000000E+00 -0.45593999997E+02  0.45594000000E+02  0.51100000000E-03 0.  1.
         23    2    1    2    0    0  0.00000000000E+00 -0.35527136788E-14 -0.71054273576E-14  0.91188000000E+02  0.91188000000E+02 0.  0.
    9900012    2    3    3    0    0 -0.13763276218E+02  0.17655208613E+02  0.37181838255E+02  0.47787271211E+02  0.20000000758E+02 0.  0.
        -12    1    3    3    0    0  0.13763276218E+02 -0.17655208613E+02 -0.37181838255E+02  0.43400728789E+02  0.00000000000E+00 0.  1.
         11    1    4    4    0    0 -0.69550024420E+01  0.10942593830E+02  0.22930617077E+02  0.26342467965E+02  0.51100000000E-03 0. -1.
        -11    1    4    4    0    0 -0.47956829817E+01  0.50784547896E+00  0.14119623411E+02  0.14920464061E+02  0.51100000000E-03 0.  1.
        -12    1    4    4    0    0 -0.20125907944E+01  0.62047693042E+01  0.13159776761E+00  0.65243391846E+01  0.00000000000E+00 0.  1.
</event>
<event>
 8    1  0.4042158E-011  0.9118800E+02  0.7816164E-02  0.1184000E+00
        -11   -1    0    0    0    0  0.00000000000E+00  0.00000000000E+00  0.45593999997E+02  0.45594000000E+02  0.51100000000E-03 0. -1.
         11   -1    0    0    0    0 -0.00000000000E+00 -0.00000000000E+00 -0.45593999997E+02  0.45594000000E+02  0.51100000000E-03 0.  1.
         23    2    1    2    0    0 -0.66613381478E-15  0.17763568394E-14  0.00000000000E+00  0.91188000000E+02  0.91188000000E+02 0.  0.
    9900012    2    3    3    0    0 -0.15016326401E+01 -0.83340106049E+01  0.42566570783E+02  0.47787267499E+02  0.19999983836E+02 0.  0.
        -12    1    3    3    0    0  0.15016326401E+01  0.83340106049E+01 -0.42566570783E+02  0.43400732501E+02  0.00000000000E+00 0.  1.
         11    1    4    4    0    0  0.55592435960E+01 -0.50507200137E+01  0.23972059725E+02  0.25121198414E+02  0.51100000000E-03 0. -1.
        -11    1    4    4    0    0  0.24530158470E+01 -0.18756449359E+01  0.66417246462E+01  0.73244683909E+01  0.51100000000E-03 0.  1.
        -12    1    4    4    0    0 -0.95138920831E+01 -0.14076456553E+01  0.11952786412E+02  0.15341600694E+02  0.00000000000E+00 0.  1.
</event>
<event>
 8    1  0.4042158E-011  0.9118800E+02  0.7816164E-02  0.1184000E+00
        -11   -1    0    0    0    0  0.00000000000E+00  0.00000000000E+00  0.45593999997E+02  0.45594000000E+02  0.51100000000E-03 0. -1.
         11   -1    0    0    0    0 -0.00000000000E+00 -0.00000000000E+00 -0.45593999997E+02  0.45594000000E+02  0.51100000000E-03 0.  1.
         23    2    1    2    0    0 -0.17763568394E-14  0.00000000000E+00  0.00000000000E+00  0.91188000000E+02  0.91188000000E+02 0.  0.
    9900012    2    3    3    0    0 -0.96571210417E+01  0.18733695966E+02 -0.37939582147E+02  0.47787271379E+02  0.20000001527E+02 0.  0.
         12    1    3    3    0    0  0.96571210417E+01 -0.18733695966E+02  0.37939582147E+02  0.43400728621E+02  0.00000000000E+00 0. -1.
         11    1    4    4    0    0 -0.75793748788E+01  0.63200335322E+01 -0.93299574066E+01  0.13580789847E+02  0.51100000000E-03 0. -1.
        -11    1    4    4    0    0  0.19830622071E+01  0.61506500860E+01 -0.23016225014E+01  0.68600654952E+01  0.51100000000E-03 0.  1.
        -12    1    4    4    0    0 -0.40608083700E+01  0.62630123473E+01 -0.26308002239E+02  0.27346416037E+02  0.00000000000E+00 0.  1.
</event>
<event>
 8    1  0.4042158E-011  0.9118800E+02  0.7816164E-02  0.1184000E+00
        -11   -1    0    0    0    0  0.00000000000E+00  0.00000000000E+00  0.45593999997E+02  0.45594000000E+02  0.51100000000E-03 0. -1.
         11   -1    0    0    0    0 -0.00000000000E+00 -0.00000000000E+00 -0.45593999997E+02  0.45594000000E+02  0.51100000000E-03 0.  1.
         23    2    1    2    0    0  0.00000000000E+00  0.44408920985E-15  0.00000000000E+00  0.91188000000E+02  0.91188000000E+02 0.  0.
    9900012    2    3    3    0    0  0.18657913399E+02  0.38181573351E+01 -0.38999067886E+02  0.47787270124E+02  0.19999995802E+02 0.  0.
         12    1    3    3    0    0 -0.18657913399E+02 -0.38181573351E+01  0.38999067886E+02  0.43400729876E+02  0.00000000000E+00 0. -1.
         11    1    4    4    0    0  0.64082941971E+01 -0.72525209629E+01 -0.15717218674E+02  0.18457959203E+02  0.51100000000E-03 0. -1.
        -11    1    4    4    0    0  0.51719939334E+00 -0.47223284098E+00  0.12875972529E+00  0.71209437335E+00  0.51100000000E-03 0.  1.
        -12    1    4    4    0    0  0.11732419809E+02  0.11542911139E+02 -0.23410608937E+02  0.28617216548E+02  0.00000000000E+00 0.  1.
</event>
<event>
 8    1  0.4042158E-011  0.9118800E+02  0.7816164E-02  0.1184000E+00
        -11   -1    0    0    0    0  0.00000000000E+00  0.00000000000E+00  0.45593999997E+02  0.45594000000E+02  0.51100000000E-03 0. -1.
         11   -1    0    0    0    0 -0.00000000000E+00 -0.00000000000E+00 -0.45593999997E+02  0.45594000000E+02  0.51100000000E-03 0.  1.
         23    2    1    2    0    0  0.00000000000E+00  0.17763568394E-14 -0.35527136788E-14  0.91188000000E+02  0.91188000000E+02 0.  0.
    9900012    2    3    3    0    0  0.36553344248E+02 -0.13233614746E+02  0.19296411724E+02  0.47787227652E+02  0.19999802156E+02 0.  0.
        -12    1    3    3    0    0 -0.36553344248E+02  0.13233614746E+02 -0.19296411724E+02  0.43400772348E+02  0.00000000000E+00 0.  1.
         11    1    4    4    0    0  0.82844768617E+01 -0.42047898773E+01 -0.12439874133E+01  0.93733835796E+01  0.51100000000E-03 0.  1.
        -11    1    4    4    0    0  0.30390393351E+01  0.28372374451E+01  0.75403865981E+00  0.42254290862E+01  0.51100000000E-03 0. -1.
         12    1    4    4    0    0  0.25229828051E+02 -0.11866062314E+02  0.19786360478E+02  0.34188414986E+02  0.00000000000E+00 0. -1.
</event>
<event>
 8    1  0.4042158E-011  0.9118800E+02  0.7816164E-02  0.1184000E+00
        -11   -1    0    0    0    0  0.00000000000E+00  0.00000000000E+00  0.45593999997E+02  0.45594000000E+02  0.51100000000E-03 0. -1.
         11   -1    0    0    0    0 -0.00000000000E+00 -0.00000000000E+00 -0.45593999997E+02  0.45594000000E+02  0.51100000000E-03 0.  1.
         23    2    1    2    0    0  0.00000000000E+00  0.13322676296E-14  0.00000000000E+00  0.91188000000E+02  0.91188000000E+02 0.  0.
    9900012    2    3    3    0    0  0.61914482381E+01 -0.66062010736E+00  0.42951756701E+02  0.47787264363E+02  0.19999969535E+02 0.  0.
        -12    1    3    3    0    0 -0.61914482381E+01  0.66062010736E+00 -0.42951756701E+02  0.43400735637E+02  0.00000000000E+00 0.  1.
         11    1    4    4    0    0  0.13487628086E+00 -0.10249681762E+01 -0.44268516230E+00  0.11245985005E+01  0.51100000000E-03 0. -1.
        -11    1    4    4    0    0  0.85283683952E+00 -0.53564049125E+01  0.46207819646E+01  0.71253091503E+01  0.51100000000E-03 0.  1.
         12    1    4    4    0    0  0.52037351177E+01  0.57207529813E+01  0.38773659898E+02  0.39537356712E+02  0.00000000000E+00 0. -1.
</event>
<event>
 8    1  0.4042158E-011  0.9118800E+02  0.7816164E-02  0.1184000E+00
        -11   -1    0    0    0    0  0.00000000000E+00  0.00000000000E+00  0.45593999997E+02  0.45594000000E+02  0.51100000000E-03 0. -1.
         11   -1    0    0    0    0 -0.00000000000E+00 -0.00000000000E+00 -0.45593999997E+02  0.45594000000E+02  0.51100000000E-03 0.  1.
         23    2    1    2    0    0  0.00000000000E+00  0.00000000000E+00  0.00000000000E+00  0.91188000000E+02  0.91188000000E+02 0.  0.
    9900012    2    3    3    0    0  0.46068134947E+01 -0.28447632869E+02  0.32452009258E+02  0.47787269001E+02  0.19999990681E+02 0.  0.
        -12    1    3    3    0    0 -0.46068134947E+01  0.28447632869E+02 -0.32452009258E+02  0.43400730999E+02  0.00000000000E+00 0.  1.
         11    1    4    4    0    0 -0.43496382301E+00 -0.19697861609E+01  0.54150649787E+01  0.57785967182E+01  0.51100000000E-03 0. -1.
        -11    1    4    4    0    0 -0.74117744604E-01 -0.31096272959E+01  0.14829571960E+02  0.15152276402E+02  0.51100000000E-03 0.  1.
         12    1    4    4    0    0  0.51158950623E+01 -0.23368219412E+02  0.12207372319E+02  0.26856395881E+02  0.00000000000E+00 0. -1.
</event>
<event>
 8    1  0.4042158E-011  0.9118800E+02  0.7816164E-02  0.1184000E+00
        -11   -1    0    0    0    0  0.00000000000E+00  0.00000000000E+00  0.45593999997E+02  0.45594000000E+02  0.51100000000E-03 0. -1.
         11   -1    0    0    0    0 -0.00000000000E+00 -0.00000000000E+00 -0.45593999997E+02  0.45594000000E+02  0.51100000000E-03 0.  1.
         23    2    1    2    0    0 -0.35527136788E-14 -0.88817841970E-15  0.35527136788E-14  0.91188000000E+02  0.91188000000E+02 0.  0.
    9900012    2    3    3    0    0  0.30136773404E+02 -0.56651260068E+01 -0.30713241434E+02  0.47787286144E+02  0.20000068843E+02 0.  0.
         12    1    3    3    0    0 -0.30136773404E+02  0.56651260068E+01  0.30713241434E+02  0.43400713856E+02  0.00000000000E+00 0. -1.
         11    1    4    4    0    0  0.24139261829E+01  0.30176227445E+01 -0.35724467720E+00  0.38808131448E+01  0.51100000000E-03 0. -1.
        -11    1    4    4    0    0  0.46552175551E+01 -0.58243294159E+00 -0.13281774831E+02  0.14086015105E+02  0.51100000000E-03 0.  1.
         12    1    4    4    0    0  0.23067629666E+02 -0.81003158097E+01 -0.17074221925E+02  0.29820457893E+02  0.00000000000E+00 0. -1.
</event>
<event>
 8    1  0.4042158E-011  0.9118800E+02  0.7816164E-02  0.1184000E+00
        -11   -1    0    0    0    0  0.00000000000E+00  0.00000000000E+00  0.45593999997E+02  0.45594000000E+02  0.51100000000E-03 0.  1.
         11   -1    0    0    0    0 -0.00000000000E+00 -0.00000000000E+00 -0.45593999997E+02  0.45594000000E+02  0.51100000000E-03 0. -1.
         23    2    1    2    0    0  0.71054273576E-14  0.35527136788E-14 -0.88817841970E-15  0.91188000000E+02  0.91188000000E+02 0.  0.
    9900012    2    3    3    0    0 -0.37013438508E+02 -0.21380009318E+02  0.75182741234E+01  0.47787264125E+02  0.19999968453E+02 0.  0.
        -12    1    3    3    0    0  0.37013438508E+02  0.21380009318E+02 -0.75182741234E+01  0.43400735875E+02  0.00000000000E+00 0.  1.
         11    1    4    4    0    0 -0.15366255410E+02 -0.50683546107E+01 -0.20281187178E+01  0.16307154551E+02  0.51100000000E-03 0. -1.
        -11    1    4    4    0    0 -0.18209618589E+02 -0.63282455630E+01  0.45940005127E+01  0.19817712835E+02  0.51100000000E-03 0.  1.
        -12    1    4    4    0    0 -0.34375645102E+01 -0.99834091448E+01  0.49523923285E+01  0.11662396739E+02  0.00000000000E+00 0.  1.
</event>
<event>
 8    1  0.4042158E-011  0.9118800E+02  0.7816164E-02  0.1184000E+00
        -11   -1    0    0    0    0  0.00000000000E+00  0.00000000000E+00  0.45593999997E+02  0.45594000000E+02  0.51100000000E-03 0. -1.
         11   -1    0    0    0    0 -0.00000000000E+00 -0.00000000000E+00 -0.45593999997E+02  0.45594000000E+02  0.51100000000E-03 0.  1.
         23    2    1    2    0    0  0.00000000000E+00  0.00000000000E+00  0.00000000000E+00  0.91188000000E+02  0.91188000000E+02 0.  0.
    9900012    2    3    3    0    0 -0.11389888495E+02 -0.97304665231E+01  0.40733420358E+02  0.47787273361E+02  0.20000010563E+02 0.  0.
        -12    1    3    3    0    0  0.11389888495E+02  0.97304665231E+01 -0.40733420358E+02  0.43400726639E+02  0.00000000000E+00 0.  1.
         11    1    4    4    0    0  0.63007315600E+00 -0.56530621158E+01  0.29446889029E+02  0.29991221669E+02  0.51100000000E-03 0. -1.
        -11    1    4    4    0    0 -0.40905381602E+01 -0.26124601272E+01  0.73874669273E+01  0.88392374230E+01  0.51100000000E-03 0.  1.
        -12    1    4    4    0    0 -0.79294234908E+01 -0.14649442800E+01  0.38990644024E+01  0.89568142692E+01  0.00000000000E+00 0.  1.
</event>
<event>
 8    1  0.4042158E-011  0.9118800E+02  0.7816164E-02  0.1184000E+00
        -11   -1    0    0    0    0  0.00000000000E+00  0.00000000000E+00  0.45593999997E+02  0.45594000000E+02  0.51100000000E-03 0. -1.
         11   -1    0    0    0    0 -0.00000000000E+00 -0.00000000000E+00 -0.45593999997E+02  0.45594000000E+02  0.51100000000E-03 0.  1.
         23    2    1    2    0    0  0.00000000000E+00  0.88817841970E-15 -0.35527136788E-14  0.91188000000E+02  0.91188000000E+02 0.  0.
    9900012    2    3    3    0    0 -0.39703785858E+02  0.43442930690E+01 -0.16981176586E+02  0.47787264385E+02  0.19999969635E+02 0.  0.
         12    1    3    3    0    0  0.39703785858E+02 -0.43442930690E+01  0.16981176586E+02  0.43400735615E+02  0.00000000000E+00 0. -1.
         11    1    4    4    0    0 -0.11297916305E+02 -0.19870747087E+00 -0.97227264229E+01  0.14906837587E+02  0.51100000000E-03 0. -1.
        -11    1    4    4    0    0 -0.26021577620E+02  0.65961057691E+01 -0.10059840637E+02  0.28667603790E+02  0.51100000000E-03 0.  1.
         12    1    4    4    0    0 -0.23842919333E+01 -0.20531052293E+01  0.28013904742E+01  0.42128230077E+01  0.00000000000E+00 0. -1.
</event>
<event>
 8    1  0.4042158E-011  0.9118800E+02  0.7816164E-02  0.1184000E+00
        -11   -1    0    0    0    0  0.00000000000E+00  0.00000000000E+00  0.45593999997E+02  0.45594000000E+02  0.51100000000E-03 0. -1.
         11   -1    0    0    0    0 -0.00000000000E+00 -0.00000000000E+00 -0.45593999997E+02  0.45594000000E+02  0.51100000000E-03 0.  1.
         23    2    1    2    0    0  0.00000000000E+00  0.00000000000E+00  0.00000000000E+00  0.91188000000E+02  0.91188000000E+02 0.  0.
    9900012    2    3    3    0    0 -0.13945278724E+01 -0.15819654335E+02  0.40390797831E+02  0.47787277417E+02  0.20000029056E+02 0.  0.
        -12    1    3    3    0    0  0.13945278724E+01  0.15819654335E+02 -0.40390797831E+02  0.43400722583E+02  0.00000000000E+00 0.  1.
         11    1    4    4    0    0  0.26805964990E+01  0.36996077424E+01  0.45694009365E+01  0.64615880570E+01  0.51100000000E-03 0. -1.
        -11    1    4    4    0    0  0.83401402793E-01 -0.10483109132E+02  0.15677235297E+02  0.18859433706E+02  0.51100000000E-03 0.  1.
        -12    1    4    4    0    0 -0.41585257743E+01 -0.90361529454E+01  0.20144161597E+02  0.22466255654E+02  0.00000000000E+00 0.  1.
</event>
<event>
 8    1  0.4042158E-011  0.9118800E+02  0.7816164E-02  0.1184000E+00
        -11   -1    0    0    0    0  0.00000000000E+00  0.00000000000E+00  0.45593999997E+02  0.45594000000E+02  0.51100000000E-03 0. -1.
         11   -1    0    0    0    0 -0.00000000000E+00 -0.00000000000E+00 -0.45593999997E+02  0.45594000000E+02  0.51100000000E-03 0.  1.
         23    2    1    2    0    0  0.44408920985E-15  0.00000000000E+00  0.00000000000E+00  0.91188000000E+02  0.91188000000E+02 0.  0.
    9900012    2    3    3    0    0 -0.38331914870E+01  0.29179621411E+02  0.31897953408E+02  0.47787273114E+02  0.20000009434E+02 0.  0.
        -12    1    3    3    0    0  0.38331914870E+01 -0.29179621411E+02 -0.31897953408E+02  0.43400726886E+02  0.00000000000E+00 0.  1.
         11    1    4    4    0    0  0.27517745055E+01  0.17309298346E+02  0.25694325960E+02  0.31102772529E+02  0.51100000000E-03 0. -1.
        -11    1    4    4    0    0 -0.14660648203E+01 -0.56821810717E+00  0.20968095467E+01  0.26208449803E+01  0.51100000000E-03 0.  1.
         12    1    4    4    0    0 -0.51189011721E+01  0.12438541171E+02  0.41068179010E+01  0.14063655604E+02  0.00000000000E+00 0. -1.
</event>
<event>
 8    1  0.4042158E-011  0.9118800E+02  0.7816164E-02  0.1184000E+00
        -11   -1    0    0    0    0  0.00000000000E+00  0.00000000000E+00  0.45593999997E+02  0.45594000000E+02  0.51100000000E-03 0. -1.
         11   -1    0    0    0    0 -0.00000000000E+00 -0.00000000000E+00 -0.45593999997E+02  0.45594000000E+02  0.51100000000E-03 0.  1.
         23    2    1    2    0    0  0.44408920985E-15  0.00000000000E+00  0.00000000000E+00  0.91188000000E+02  0.91188000000E+02 0.  0.
    9900012    2    3    3    0    0  0.11390913098E+01 -0.21868338808E+02 -0.37471340808E+02  0.47787272435E+02  0.20000006339E+02 0.  0.
         12    1    3    3    0    0 -0.11390913098E+01  0.21868338808E+02  0.37471340808E+02  0.43400727565E+02  0.00000000000E+00 0. -1.
         11    1    4    4    0    0 -0.44623331257E+01 -0.30294871030E+01 -0.54644063337E+00  0.54211444049E+01  0.51100000000E-03 0. -1.
        -11    1    4    4    0    0 -0.29313288820E-01 -0.73867702420E+01 -0.18801595541E+02  0.20200624472E+02  0.51100000000E-03 0.  1.
        -12    1    4    4    0    0  0.56307377243E+01 -0.11452081463E+02 -0.18123304634E+02  0.22165503558E+02  0.00000000000E+00 0.  1.
</event>
<event>
 8    1  0.4042158E-011  0.9118800E+02  0.7816164E-02  0.1184000E+00
        -11   -1    0    0    0    0  0.00000000000E+00  0.00000000000E+00  0.45593999997E+02  0.45594000000E+02  0.51100000000E-03 0. -1.
         11   -1    0    0    0    0 -0.00000000000E+00 -0.00000000000E+00 -0.45593999997E+02  0.45594000000E+02  0.51100000000E-03 0.  1.
         23    2    1    2    0    0 -0.88817841970E-15 -0.17763568394E-14  0.00000000000E+00  0.91188000000E+02  0.91188000000E+02 0.  0.
    9900012    2    3    3    0    0 -0.52655982261E+01 -0.10633726822E+02 -0.41747108856E+02  0.47787265345E+02  0.19999974014E+02 0.  0.
         12    1    3    3    0    0  0.52655982261E+01  0.10633726822E+02  0.41747108856E+02  0.43400734655E+02  0.00000000000E+00 0. -1.
         11    1    4    4    0    0  0.19703677532E+01 -0.22371552391E+01 -0.10520362626E+02  0.10934589279E+02  0.51100000000E-03 0. -1.
        -11    1    4    4    0    0 -0.49513893270E+01 -0.22732171711E+00 -0.26857146619E+02  0.27310698566E+02  0.51100000000E-03 0.  1.
         12    1    4    4    0    0 -0.22845766523E+01 -0.81692498655E+01 -0.43695996104E+01  0.95419774995E+01  0.00000000000E+00 0. -1.
</event>
<event>
 8    1  0.4042158E-011  0.9118800E+02  0.7816164E-02  0.1184000E+00
        -11   -1    0    0    0    0  0.00000000000E+00  0.00000000000E+00  0.45593999997E+02  0.45594000000E+02  0.51100000000E-03 0. -1.
         11   -1    0    0    0    0 -0.00000000000E+00 -0.00000000000E+00 -0.45593999997E+02  0.45594000000E+02  0.51100000000E-03 0.  1.
         23    2    1    2    0    0  0.00000000000E+00 -0.88817841970E-15  0.00000000000E+00  0.91188000000E+02  0.91188000000E+02 0.  0.
    9900012    2    3    3    0    0 -0.27006028330E+02  0.70734978264E+01  0.33230459700E+02  0.47787269712E+02  0.19999993927E+02 0.  0.
        -12    1    3    3    0    0  0.27006028330E+02 -0.70734978264E+01 -0.33230459700E+02  0.43400730288E+02  0.00000000000E+00 0.  1.
         11    1    4    4    0    0 -0.30621598090E+01 -0.31601171280E+01  0.24062375498E+01  0.50152908555E+01  0.51100000000E-03 0. -1.
        -11    1    4    4    0    0 -0.13516659174E+02  0.17049187096E+01  0.67947198299E+01  0.15224159776E+02  0.51100000000E-03 0.  1.
         12    1    4    4    0    0 -0.10427209346E+02  0.85286962448E+01  0.24029502320E+02  0.27547819081E+02  0.00000000000E+00 0. -1.
</event>
<event>
 8    1  0.4042158E-011  0.9118800E+02  0.7816164E-02  0.1184000E+00
        -11   -1    0    0    0    0  0.00000000000E+00  0.00000000000E+00  0.45593999997E+02  0.45594000000E+02  0.51100000000E-03 0.  1.
         11   -1    0    0    0    0 -0.00000000000E+00 -0.00000000000E+00 -0.45593999997E+02  0.45594000000E+02  0.51100000000E-03 0. -1.
         23    2    1    2    0    0  0.35527136788E-14  0.00000000000E+00  0.00000000000E+00  0.91188000000E+02  0.91188000000E+02 0.  0.
    9900012    2    3    3    0    0  0.17594579778E+02 -0.16224761451E+02  0.36205124435E+02  0.47787272391E+02  0.20000006138E+02 0.  0.
        -12    1    3    3    0    0 -0.17594579778E+02  0.16224761451E+02 -0.36205124435E+02  0.43400727609E+02  0.00000000000E+00 0.  1.
         11    1    4    4    0    0  0.31895896529E+01 -0.88687179262E+01  0.17707642089E+02  0.20059616856E+02  0.51100000000E-03 0. -1.
        -11    1    4    4    0    0 -0.17380207087E+01 -0.11728086347E+00  0.55150947393E+01  0.57836615590E+01  0.51100000000E-03 0.  1.
        -12    1    4    4    0    0  0.16143010833E+02 -0.72387626612E+01  0.12982387606E+02  0.21943993976E+02  0.00000000000E+00 0.  1.
</event>
<event>
 8    1  0.4042158E-011  0.9118800E+02  0.7816164E-02  0.1184000E+00
        -11   -1    0    0    0    0  0.00000000000E+00  0.00000000000E+00  0.45593999997E+02  0.45594000000E+02  0.51100000000E-03 0. -1.
         11   -1    0    0    0    0 -0.00000000000E+00 -0.00000000000E+00 -0.45593999997E+02  0.45594000000E+02  0.51100000000E-03 0.  1.
         23    2    1    2    0    0 -0.71054273576E-14  0.00000000000E+00  0.17763568394E-14  0.91188000000E+02  0.91188000000E+02 0.  0.
    9900012    2    3    3    0    0  0.38092979197E+02 -0.18358106832E+02 -0.97738625707E+01  0.47787267977E+02  0.19999986013E+02 0.  0.
         12    1    3    3    0    0 -0.38092979197E+02  0.18358106832E+02  0.97738625707E+01  0.43400732023E+02  0.00000000000E+00 0. -1.
         11    1    4    4    0    0 -0.14988869335E+01 -0.14184127750E+01 -0.10370900415E+01  0.23095698420E+01  0.51100000000E-03 0. -1.
        -11    1    4    4    0    0  0.95221799739E+01  0.47246542714E-01 -0.49573078245E+01  0.10735410790E+02  0.51100000000E-03 0.  1.
         12    1    4    4    0    0  0.30069686157E+02 -0.16986940600E+02 -0.37794647047E+01  0.34742287345E+02  0.00000000000E+00 0. -1.
</event>
<event>
 8    1  0.4042158E-011  0.9118800E+02  0.7816164E-02  0.1184000E+00
        -11   -1    0    0    0    0  0.00000000000E+00  0.00000000000E+00  0.45593999997E+02  0.45594000000E+02  0.51100000000E-03 0. -1.
         11   -1    0    0    0    0 -0.00000000000E+00 -0.00000000000E+00 -0.45593999997E+02  0.45594000000E+02  0.51100000000E-03 0.  1.
         23    2    1    2    0    0  0.35527136788E-14 -0.71054273576E-14  0.35527136788E-14  0.91188000000E+02  0.91188000000E+02 0.  0.
    9900012    2    3    3    0    0 -0.20302653237E+02  0.34643359444E+02 -0.16470072716E+02  0.47787269853E+02  0.19999994569E+02 0.  0.
         12    1    3    3    0    0  0.20302653237E+02 -0.34643359444E+02  0.16470072716E+02  0.43400730147E+02  0.00000000000E+00 0. -1.
         11    1    4    4    0    0 -0.16752821405E+02  0.18613407747E+02 -0.71074178444E+01  0.26031353435E+02  0.51100000000E-03 0. -1.
        -11    1    4    4    0    0 -0.56487459884E+01  0.15824768458E+02 -0.99993648143E+01  0.19552977393E+02  0.51100000000E-03 0.  1.
         12    1    4    4    0    0  0.20989141563E+01  0.20518323922E+00  0.63670994299E+00  0.22029390252E+01  0.00000000000E+00 0. -1.
</event>
<event>
 8    1  0.4042158E-011  0.9118800E+02  0.7816164E-02  0.1184000E+00
        -11   -1    0    0    0    0  0.00000000000E+00  0.00000000000E+00  0.45593999997E+02  0.45594000000E+02  0.51100000000E-03 0. -1.
         11   -1    0    0    0    0 -0.00000000000E+00 -0.00000000000E+00 -0.45593999997E+02  0.45594000000E+02  0.51100000000E-03 0.  1.
         23    2    1    2    0    0  0.00000000000E+00 -0.33306690739E-15  0.35527136788E-14  0.91188000000E+02  0.91188000000E+02 0.  0.
    9900012    2    3    3    0    0 -0.35462446030E+02  0.64116486309E+00 -0.25012524159E+02  0.47787279550E+02  0.20000038779E+02 0.  0.
         12    1    3    3    0    0  0.35462446030E+02 -0.64116486309E+00  0.25012524159E+02  0.43400720450E+02  0.00000000000E+00 0. -1.
         11    1    4    4    0    0  0.15360396412E+01 -0.26383890626E-01  0.14312490353E+00  0.15429189506E+01  0.51100000000E-03 0.  1.
        -11    1    4    4    0    0 -0.80154249793E+01 -0.20652678019E+01 -0.85123300050E+00  0.83208753490E+01  0.51100000000E-03 0. -1.
        -12    1    4    4    0    0 -0.28983060692E+02  0.27328165556E+01 -0.24304416062E+02  0.37923485250E+02  0.00000000000E+00 0.  1.
</event>
<event>
 8    1  0.4042158E-011  0.9118800E+02  0.7816164E-02  0.1184000E+00
        -11   -1    0    0    0    0  0.00000000000E+00  0.00000000000E+00  0.45593999997E+02  0.45594000000E+02  0.51100000000E-03 0. -1.
         11   -1    0    0    0    0 -0.00000000000E+00 -0.00000000000E+00 -0.45593999997E+02  0.45594000000E+02  0.51100000000E-03 0.  1.
         23    2    1    2    0    0 -0.35527136788E-14  0.35527136788E-14  0.00000000000E+00  0.91188000000E+02  0.91188000000E+02 0.  0.
    9900012    2    3    3    0    0 -0.16777822790E+02  0.20376060446E+02 -0.34452061721E+02  0.47787265748E+02  0.19999975849E+02 0.  0.
         12    1    3    3    0    0  0.16777822790E+02 -0.20376060446E+02  0.34452061721E+02  0.43400734252E+02  0.00000000000E+00 0. -1.
         11    1    4    4    0    0 -0.50622515075E+01  0.78701360878E+01 -0.10530690013E+02  0.14087613878E+02  0.51100000000E-03 0. -1.
        -11    1    4    4    0    0  0.35002310300E+01  0.59905666738E+01 -0.93812835601E+01  0.11668204139E+02  0.51100000000E-03 0.  1.
         12    1    4    4    0    0 -0.15215802312E+02  0.65153576841E+01 -0.14540088147E+02  0.22031447730E+02  0.00000000000E+00 0. -1.
</event>
<event>
 8    1  0.4042158E-011  0.9118800E+02  0.7816164E-02  0.1184000E+00
        -11   -1    0    0    0    0  0.00000000000E+00  0.00000000000E+00  0.45593999997E+02  0.45594000000E+02  0.51100000000E-03 0. -1.
         11   -1    0    0    0    0 -0.00000000000E+00 -0.00000000000E+00 -0.45593999997E+02  0.45594000000E+02  0.51100000000E-03 0.  1.
         23    2    1    2    0    0  0.00000000000E+00 -0.35527136788E-14  0.00000000000E+00  0.91188000000E+02  0.91188000000E+02 0.  0.
    9900012    2    3    3    0    0  0.14752906390E+02  0.20895605612E+02 -0.35062068346E+02  0.47787271693E+02  0.20000002958E+02 0.  0.
         12    1    3    3    0    0 -0.14752906390E+02 -0.20895605612E+02  0.35062068346E+02  0.43400728307E+02  0.00000000000E+00 0. -1.
         11    1    4    4    0    0  0.72087498246E+00  0.77973952260E+01 -0.11298195170E+02  0.13746572206E+02  0.51100000000E-03 0. -1.
        -11    1    4    4    0    0  0.12755383194E+02  0.15902282574E+02 -0.23242378064E+02  0.30915862108E+02  0.51100000000E-03 0.  1.
         12    1    4    4    0    0  0.12766482133E+01 -0.28040721879E+01 -0.52149511129E+00  0.31248373793E+01  0.00000000000E+00 0. -1.
</event>
<event>
 8    1  0.4042158E-011  0.9118800E+02  0.7816164E-02  0.1184000E+00
        -11   -1    0    0    0    0  0.00000000000E+00  0.00000000000E+00  0.45593999997E+02  0.45594000000E+02  0.51100000000E-03 0. -1.
         11   -1    0    0    0    0 -0.00000000000E+00 -0.00000000000E+00 -0.45593999997E+02  0.45594000000E+02  0.51100000000E-03 0.  1.
         23    2    1    2    0    0  0.00000000000E+00  0.00000000000E+00  0.00000000000E+00  0.91188000000E+02  0.91188000000E+02 0.  0.
    9900012    2    3    3    0    0  0.44610368445E+01 -0.20872352362E+02 -0.37789797991E+02  0.47787253750E+02  0.19999921149E+02 0.  0.
         12    1    3    3    0    0 -0.44610368445E+01  0.20872352362E+02  0.37789797991E+02  0.43400746250E+02  0.00000000000E+00 0. -1.
         11    1    4    4    0    0  0.14186769838E+00  0.49311818778E+00 -0.75926356782E+01  0.76099545856E+01  0.51100000000E-03 0. -1.
        -11    1    4    4    0    0 -0.31788857324E+01 -0.13752208621E+02 -0.23949082360E+02  0.27799048592E+02  0.51100000000E-03 0.  1.
        -12    1    4    4    0    0  0.74980548786E+01 -0.76132619288E+01 -0.62480799522E+01  0.12378250573E+02  0.00000000000E+00 0.  1.
</event>
<event>
 8    1  0.4042158E-011  0.9118800E+02  0.7816164E-02  0.1184000E+00
        -11   -1    0    0    0    0  0.00000000000E+00  0.00000000000E+00  0.45593999997E+02  0.45594000000E+02  0.51100000000E-03 0.  1.
         11   -1    0    0    0    0 -0.00000000000E+00 -0.00000000000E+00 -0.45593999997E+02  0.45594000000E+02  0.51100000000E-03 0. -1.
         23    2    1    2    0    0 -0.88817841970E-15  0.00000000000E+00  0.35527136788E-14  0.91188000000E+02  0.91188000000E+02 0.  0.
    9900012    2    3    3    0    0 -0.31774652782E+01  0.36162935691E+02  0.23785889971E+02  0.47787276906E+02  0.20000026724E+02 0.  0.
         12    1    3    3    0    0  0.31774652782E+01 -0.36162935691E+02 -0.23785889971E+02  0.43400723094E+02  0.00000000000E+00 0. -1.
         11    1    4    4    0    0 -0.41730173914E+01  0.24950347005E+01  0.27151056824E+01  0.55687585182E+01  0.51100000000E-03 0. -1.
        -11    1    4    4    0    0 -0.42687032127E+01  0.80008781969E+01  0.10734150320E+02  0.14051970054E+02  0.51100000000E-03 0.  1.
        -12    1    4    4    0    0  0.52642553259E+01  0.25667022794E+02  0.10336633969E+02  0.28166548334E+02  0.00000000000E+00 0.  1.
</event>
<event>
 8    1  0.4042158E-011  0.9118800E+02  0.7816164E-02  0.1184000E+00
        -11   -1    0    0    0    0  0.00000000000E+00  0.00000000000E+00  0.45593999997E+02  0.45594000000E+02  0.51100000000E-03 0. -1.
         11   -1    0    0    0    0 -0.00000000000E+00 -0.00000000000E+00 -0.45593999997E+02  0.45594000000E+02  0.51100000000E-03 0.  1.
         23    2    1    2    0    0  0.00000000000E+00  0.00000000000E+00  0.71054273576E-14  0.91188000000E+02  0.91188000000E+02 0.  0.
    9900012    2    3    3    0    0  0.14346378183E+02 -0.10074712916E+02  0.39702706133E+02  0.47787270956E+02  0.19999999595E+02 0.  0.
        -12    1    3    3    0    0 -0.14346378183E+02  0.10074712916E+02 -0.39702706133E+02  0.43400729044E+02  0.00000000000E+00 0.  1.
         11    1    4    4    0    0  0.57404295390E+01  0.11690932683E+01  0.56421220744E+01  0.81334403622E+01  0.51100000000E-03 0.  1.
        -11    1    4    4    0    0 -0.88456277421E+00 -0.28222780188E+01 -0.35019523292E+00  0.29783118506E+01  0.51100000000E-03 0. -1.
         12    1    4    4    0    0  0.94905114183E+01 -0.84215281660E+01  0.34410779291E+02  0.36675518743E+02  0.00000000000E+00 0. -1.
</event>
<event>
 8    1  0.4042158E-011  0.9118800E+02  0.7816164E-02  0.1184000E+00
        -11   -1    0    0    0    0  0.00000000000E+00  0.00000000000E+00  0.45593999997E+02  0.45594000000E+02  0.51100000000E-03 0. -1.
         11   -1    0    0    0    0 -0.00000000000E+00 -0.00000000000E+00 -0.45593999997E+02  0.45594000000E+02  0.51100000000E-03 0.  1.
         23    2    1    2    0    0  0.00000000000E+00  0.00000000000E+00  0.71054273576E-14  0.91188000000E+02  0.91188000000E+02 0.  0.
    9900012    2    3    3    0    0  0.17697328200E+02  0.16803399324E+02 -0.35889725297E+02  0.47787285304E+02  0.20000065014E+02 0.  0.
         12    1    3    3    0    0 -0.17697328200E+02 -0.16803399324E+02  0.35889725297E+02  0.43400714696E+02  0.00000000000E+00 0. -1.
         11    1    4    4    0    0  0.24598259830E+01  0.70950583731E+01 -0.11941495233E+02  0.14106378197E+02  0.51100000000E-03 0.  1.
        -11    1    4    4    0    0  0.13473616554E+01 -0.22948944540E+01 -0.10741021023E+02  0.11065778638E+02  0.51100000000E-03 0. -1.
         12    1    4    4    0    0  0.13890140562E+02  0.12003235405E+02 -0.13207209041E+02  0.22615128469E+02  0.00000000000E+00 0. -1.
</event>
<event>
 8    1  0.4042158E-011  0.9118800E+02  0.7816164E-02  0.1184000E+00
        -11   -1    0    0    0    0  0.00000000000E+00  0.00000000000E+00  0.45593999997E+02  0.45594000000E+02  0.51100000000E-03 0. -1.
         11   -1    0    0    0    0 -0.00000000000E+00 -0.00000000000E+00 -0.45593999997E+02  0.45594000000E+02  0.51100000000E-03 0.  1.
         23    2    1    2    0    0  0.00000000000E+00 -0.35527136788E-14  0.00000000000E+00  0.91188000000E+02  0.91188000000E+02 0.  0.
    9900012    2    3    3    0    0  0.16045969095E+02  0.23619681004E+02 -0.32684269373E+02  0.47787263608E+02  0.19999966093E+02 0.  0.
         12    1    3    3    0    0 -0.16045969095E+02 -0.23619681004E+02  0.32684269373E+02  0.43400736392E+02  0.00000000000E+00 0. -1.
         11    1    4    4    0    0  0.18865289804E+00  0.30534298443E+01 -0.94990923883E+01  0.99795681366E+01  0.51100000000E-03 0. -1.
        -11    1    4    4    0    0  0.56064179124E+01  0.75726876875E+01 -0.18247458543E+02  0.20536486169E+02  0.51100000000E-03 0.  1.
         12    1    4    4    0    0  0.10250898285E+02  0.12993563472E+02 -0.49377184413E+01  0.17271209302E+02  0.00000000000E+00 0. -1.
</event>
<event>
 8    1  0.4042158E-011  0.9118800E+02  0.7816164E-02  0.1184000E+00
        -11   -1    0    0    0    0  0.00000000000E+00  0.00000000000E+00  0.45593999997E+02  0.45594000000E+02  0.51100000000E-03 0. -1.
         11   -1    0    0    0    0 -0.00000000000E+00 -0.00000000000E+00 -0.45593999997E+02  0.45594000000E+02  0.51100000000E-03 0.  1.
         23    2    1    2    0    0  0.00000000000E+00  0.00000000000E+00  0.35527136788E-14  0.91188000000E+02  0.91188000000E+02 0.  0.
    9900012    2    3    3    0    0  0.11461857775E+02 -0.30734151904E+02  0.28419378723E+02  0.47787270007E+02  0.19999995269E+02 0.  0.
        -12    1    3    3    0    0 -0.11461857775E+02  0.30734151904E+02 -0.28419378723E+02  0.43400729993E+02  0.00000000000E+00 0.  1.
         11    1    4    4    0    0  0.14757019119E+02 -0.15081547371E+02  0.18830441049E+02  0.28280880374E+02  0.51100000000E-03 0. -1.
        -11    1    4    4    0    0  0.13786149342E+01 -0.27867018240E+01  0.29774811529E+01  0.43048438380E+01  0.51100000000E-03 0.  1.
        -12    1    4    4    0    0 -0.46737762778E+01 -0.12865902709E+02  0.66114565218E+01  0.15201545795E+02  0.00000000000E+00 0.  1.
</event>
<event>
 8    1  0.4042158E-011  0.9118800E+02  0.7816164E-02  0.1184000E+00
        -11   -1    0    0    0    0  0.00000000000E+00  0.00000000000E+00  0.45593999997E+02  0.45594000000E+02  0.51100000000E-03 0. -1.
         11   -1    0    0    0    0 -0.00000000000E+00 -0.00000000000E+00 -0.45593999997E+02  0.45594000000E+02  0.51100000000E-03 0.  1.
         23    2    1    2    0    0  0.00000000000E+00  0.11102230246E-15  0.00000000000E+00  0.91188000000E+02  0.91188000000E+02 0.  0.
    9900012    2    3    3    0    0 -0.29236284472E+02 -0.21144659323E+00 -0.32075194938E+02  0.47787272245E+02  0.20000005472E+02 0.  0.
         12    1    3    3    0    0  0.29236284472E+02  0.21144659323E+00  0.32075194938E+02  0.43400727755E+02  0.00000000000E+00 0. -1.
         11    1    4    4    0    0 -0.38102776356E+01 -0.62967824953E+01 -0.14044532702E+02  0.15856121359E+02  0.51100000000E-03 0. -1.
        -11    1    4    4    0    0 -0.91880832454E+01  0.10456502019E+01 -0.77261690947E+01  0.12050226023E+02  0.51100000000E-03 0.  1.
         12    1    4    4    0    0 -0.16237923591E+02  0.50396857001E+01 -0.10304493141E+02  0.19880924863E+02  0.00000000000E+00 0. -1.
</event>
<event>
 8    1  0.4042158E-011  0.9118800E+02  0.7816164E-02  0.1184000E+00
        -11   -1    0    0    0    0  0.00000000000E+00  0.00000000000E+00  0.45593999997E+02  0.45594000000E+02  0.51100000000E-03 0. -1.
         11   -1    0    0    0    0 -0.00000000000E+00 -0.00000000000E+00 -0.45593999997E+02  0.45594000000E+02  0.51100000000E-03 0.  1.
         23    2    1    2    0    0  0.00000000000E+00  0.00000000000E+00  0.00000000000E+00  0.91188000000E+02  0.91188000000E+02 0.  0.
    9900012    2    3    3    0    0 -0.24654921091E+02 -0.23177998829E+02  0.27176066737E+02  0.47787269971E+02  0.19999995108E+02 0.  0.
        -12    1    3    3    0    0  0.24654921091E+02  0.23177998829E+02 -0.27176066737E+02  0.43400730029E+02  0.00000000000E+00 0.  1.
         11    1    4    4    0    0 -0.97509567775E+01 -0.31134589743E+01  0.11412777696E+02  0.15330566847E+02  0.51100000000E-03 0. -1.
        -11    1    4    4    0    0 -0.20918103426E+01 -0.65716453617E+01  0.11434209741E+02  0.13353027594E+02  0.51100000000E-03 0.  1.
         12    1    4    4    0    0 -0.12812153971E+02 -0.13492894493E+02  0.43290793002E+01  0.19103675530E+02  0.00000000000E+00 0. -1.
</event>
<event>
 8    1  0.4042158E-011  0.9118800E+02  0.7816164E-02  0.1184000E+00
        -11   -1    0    0    0    0  0.00000000000E+00  0.00000000000E+00  0.45593999997E+02  0.45594000000E+02  0.51100000000E-03 0. -1.
         11   -1    0    0    0    0 -0.00000000000E+00 -0.00000000000E+00 -0.45593999997E+02  0.45594000000E+02  0.51100000000E-03 0.  1.
         23    2    1    2    0    0  0.00000000000E+00  0.00000000000E+00  0.00000000000E+00  0.91188000000E+02  0.91188000000E+02 0.  0.
    9900012    2    3    3    0    0  0.34572028953E+02 -0.25689980666E+02  0.53312918636E+01  0.47787274598E+02  0.20000016200E+02 0.  0.
        -12    1    3    3    0    0 -0.34572028953E+02  0.25689980666E+02 -0.53312918636E+01  0.43400725402E+02  0.00000000000E+00 0.  1.
         11    1    4    4    0    0  0.65608604680E+01 -0.24926103844E+01 -0.73268185055E+00  0.70565444493E+01  0.51100000000E-03 0. -1.
        -11    1    4    4    0    0  0.13537775870E+02 -0.20135476286E+02 -0.11112750390E+01  0.24288756931E+02  0.51100000000E-03 0.  1.
         12    1    4    4    0    0  0.14473392615E+02 -0.30618939955E+01  0.71752487532E+01  0.16441973218E+02  0.00000000000E+00 0. -1.
</event>
<event>
 8    1  0.4042158E-011  0.9118800E+02  0.7816164E-02  0.1184000E+00
        -11   -1    0    0    0    0  0.00000000000E+00  0.00000000000E+00  0.45593999997E+02  0.45594000000E+02  0.51100000000E-03 0.  1.
         11   -1    0    0    0    0 -0.00000000000E+00 -0.00000000000E+00 -0.45593999997E+02  0.45594000000E+02  0.51100000000E-03 0. -1.
         23    2    1    2    0    0  0.00000000000E+00  0.00000000000E+00  0.00000000000E+00  0.91188000000E+02  0.91188000000E+02 0.  0.
    9900012    2    3    3    0    0 -0.26651406630E+02  0.25841757482E+02  0.22483979028E+02  0.47787271687E+02  0.20000002930E+02 0.  0.
        -12    1    3    3    0    0  0.26651406630E+02 -0.25841757482E+02 -0.22483979028E+02  0.43400728313E+02  0.00000000000E+00 0.  1.
         11    1    4    4    0    0 -0.11406616252E+02  0.81170806699E+00  0.34696095153E+01  0.11950228230E+02  0.51100000000E-03 0.  1.
        -11    1    4    4    0    0 -0.10675717756E+02  0.98670066937E+01  0.93571720091E+01  0.17288303531E+02  0.51100000000E-03 0. -1.
        -12    1    4    4    0    0 -0.45690726219E+01  0.15163042722E+02  0.96571975037E+01  0.18548739926E+02  0.00000000000E+00 0.  1.
</event>
<event>
 8    1  0.4042158E-011  0.9118800E+02  0.7816164E-02  0.1184000E+00
        -11   -1    0    0    0    0  0.00000000000E+00  0.00000000000E+00  0.45593999997E+02  0.45594000000E+02  0.51100000000E-03 0. -1.
         11   -1    0    0    0    0 -0.00000000000E+00 -0.00000000000E+00 -0.45593999997E+02  0.45594000000E+02  0.51100000000E-03 0.  1.
         23    2    1    2    0    0  0.00000000000E+00  0.00000000000E+00 -0.35527136788E-14  0.91188000000E+02  0.91188000000E+02 0.  0.
    9900012    2    3    3    0    0 -0.95736802461E+01  0.33954286875E+02  0.25279914673E+02  0.47787273779E+02  0.20000012468E+02 0.  0.
        -12    1    3    3    0    0  0.95736802461E+01 -0.33954286875E+02 -0.25279914673E+02  0.43400726221E+02  0.00000000000E+00 0.  1.
         11    1    4    4    0    0  0.11488970065E+01  0.26232804594E+01  0.28831347739E+01  0.40637459426E+01  0.51100000000E-03 0.  1.
        -11    1    4    4    0    0  0.10535701244E+01  0.67032699543E+00 -0.23086328836E+01  0.26247160494E+01  0.51100000000E-03 0. -1.
         12    1    4    4    0    0 -0.11776147377E+02  0.30660679420E+02  0.24705412782E+02  0.41098811787E+02  0.00000000000E+00 0. -1.
</event>
<event>
 8    1  0.4042158E-011  0.9118800E+02  0.7816164E-02  0.1184000E+00
        -11   -1    0    0    0    0  0.00000000000E+00  0.00000000000E+00  0.45593999997E+02  0.45594000000E+02  0.51100000000E-03 0. -1.
         11   -1    0    0    0    0 -0.00000000000E+00 -0.00000000000E+00 -0.45593999997E+02  0.45594000000E+02  0.51100000000E-03 0.  1.
         23    2    1    2    0    0  0.00000000000E+00 -0.17763568394E-14 -0.71054273576E-14  0.91188000000E+02  0.91188000000E+02 0.  0.
    9900012    2    3    3    0    0 -0.38801907586E+01  0.89299123983E+01  0.42294488708E+02  0.47787274306E+02  0.20000014869E+02 0.  0.
        -12    1    3    3    0    0  0.38801907586E+01 -0.89299123983E+01 -0.42294488708E+02  0.43400725694E+02  0.00000000000E+00 0.  1.
         11    1    4    4    0    0 -0.20373350217E+01  0.33035989085E+01  0.22900672801E+02  0.23227253707E+02  0.51100000000E-03 0. -1.
        -11    1    4    4    0    0 -0.50145397028E+01  0.67352723839E+01  0.19465367439E+02  0.21199293203E+02  0.51100000000E-03 0.  1.
         12    1    4    4    0    0  0.31716839660E+01 -0.11089588941E+01 -0.71551532439E-01  0.33607273960E+01  0.00000000000E+00 0. -1.
</event>
<event>
 8    1  0.4042158E-011  0.9118800E+02  0.7816164E-02  0.1184000E+00
        -11   -1    0    0    0    0  0.00000000000E+00  0.00000000000E+00  0.45593999997E+02  0.45594000000E+02  0.51100000000E-03 0. -1.
         11   -1    0    0    0    0 -0.00000000000E+00 -0.00000000000E+00 -0.45593999997E+02  0.45594000000E+02  0.51100000000E-03 0.  1.
         23    2    1    2    0    0  0.00000000000E+00  0.00000000000E+00  0.00000000000E+00  0.91188000000E+02  0.91188000000E+02 0.  0.
    9900012    2    3    3    0    0  0.16974886616E+02  0.26810393958E+02 -0.29608773491E+02  0.47787268815E+02  0.19999989834E+02 0.  0.
         12    1    3    3    0    0 -0.16974886616E+02 -0.26810393958E+02  0.29608773491E+02  0.43400731185E+02  0.00000000000E+00 0. -1.
         11    1    4    4    0    0 -0.29131583666E+00  0.16920132277E+01 -0.40120800409E+01  0.43640073551E+01  0.51100000000E-03 0. -1.
        -11    1    4    4    0    0  0.10552275912E+02  0.21784852866E+02 -0.10138477376E+02  0.26243457567E+02  0.51100000000E-03 0.  1.
        -12    1    4    4    0    0  0.67139265399E+01  0.33335278642E+01 -0.15458216073E+02  0.17179803892E+02  0.00000000000E+00 0.  1.
</event>
<event>
 8    1  0.4042158E-011  0.9118800E+02  0.7816164E-02  0.1184000E+00
        -11   -1    0    0    0    0  0.00000000000E+00  0.00000000000E+00  0.45593999997E+02  0.45594000000E+02  0.51100000000E-03 0. -1.
         11   -1    0    0    0    0 -0.00000000000E+00 -0.00000000000E+00 -0.45593999997E+02  0.45594000000E+02  0.51100000000E-03 0.  1.
         23    2    1    2    0    0  0.00000000000E+00  0.00000000000E+00  0.00000000000E+00  0.91188000000E+02  0.91188000000E+02 0.  0.
    9900012    2    3    3    0    0 -0.34428087176E+01 -0.13286632907E+02 -0.41173241582E+02  0.47787269958E+02  0.19999995045E+02 0.  0.
         12    1    3    3    0    0  0.34428087176E+01  0.13286632907E+02  0.41173241582E+02  0.43400730042E+02  0.00000000000E+00 0. -1.
         11    1    4    4    0    0  0.25326442682E+01  0.17364474739E+00 -0.13914271108E+02  0.14143952072E+02  0.51100000000E-03 0. -1.
        -11    1    4    4    0    0 -0.18949157215E+01 -0.10468437135E+01  0.10929663134E+01  0.24251109202E+01  0.51100000000E-03 0.  1.
        -12    1    4    4    0    0 -0.40805372643E+01 -0.12413433941E+02 -0.28351936787E+02  0.31218206965E+02  0.00000000000E+00 0.  1.
</event>
<event>
 8    1  0.4042158E-011  0.9118800E+02  0.7816164E-02  0.1184000E+00
        -11   -1    0    0    0    0  0.00000000000E+00  0.00000000000E+00  0.45593999997E+02  0.45594000000E+02  0.51100000000E-03 0. -1.
         11   -1    0    0    0    0 -0.00000000000E+00 -0.00000000000E+00 -0.45593999997E+02  0.45594000000E+02  0.51100000000E-03 0.  1.
         23    2    1    2    0    0  0.71054273576E-14  0.35527136788E-14  0.00000000000E+00  0.91188000000E+02  0.91188000000E+02 0.  0.
    9900012    2    3    3    0    0  0.36018675776E+02 -0.23951168806E+02  0.35523886301E+01  0.47787274697E+02  0.20000016652E+02 0.  0.
        -12    1    3    3    0    0 -0.36018675776E+02  0.23951168806E+02 -0.35523886301E+01  0.43400725303E+02  0.00000000000E+00 0.  1.
         11    1    4    4    0    0  0.32162035003E+02 -0.17131787923E+02  0.49069085816E+01  0.36769177379E+02  0.51100000000E-03 0. -1.
        -11    1    4    4    0    0  0.19638271853E+01 -0.29810108608E+00  0.25132342573E+01  0.32034088350E+01  0.51100000000E-03 0.  1.
         12    1    4    4    0    0  0.18928135879E+01 -0.65212797969E+01 -0.38677542088E+01  0.78146884831E+01  0.00000000000E+00 0. -1.
</event>
<event>
 8    1  0.4042158E-011  0.9118800E+02  0.7816164E-02  0.1184000E+00
        -11   -1    0    0    0    0  0.00000000000E+00  0.00000000000E+00  0.45593999997E+02  0.45594000000E+02  0.51100000000E-03 0.  1.
         11   -1    0    0    0    0 -0.00000000000E+00 -0.00000000000E+00 -0.45593999997E+02  0.45594000000E+02  0.51100000000E-03 0. -1.
         23    2    1    2    0    0  0.00000000000E+00 -0.35527136788E-14 -0.17763568394E-14  0.91188000000E+02  0.91188000000E+02 0.  0.
    9900012    2    3    3    0    0 -0.26948757673E+02  0.30824431049E+02  0.14395914875E+02  0.47787268961E+02  0.19999990500E+02 0.  0.
        -12    1    3    3    0    0  0.26948757673E+02 -0.30824431049E+02 -0.14395914875E+02  0.43400731039E+02  0.00000000000E+00 0.  1.
         11    1    4    4    0    0 -0.84995183116E+01  0.17946167155E+01  0.54123104910E+01  0.10235016649E+02  0.51100000000E-03 0. -1.
        -11    1    4    4    0    0 -0.10507725952E-01  0.42142586693E+01 -0.21012891148E+01  0.47090872522E+01  0.51100000000E-03 0.  1.
         12    1    4    4    0    0 -0.18438731636E+02  0.24815555665E+02  0.11084893499E+02  0.32843165060E+02  0.00000000000E+00 0. -1.
</event>
<event>
 8    1  0.4042158E-011  0.9118800E+02  0.7816164E-02  0.1184000E+00
        -11   -1    0    0    0    0  0.00000000000E+00  0.00000000000E+00  0.45593999997E+02  0.45594000000E+02  0.51100000000E-03 0. -1.
         11   -1    0    0    0    0 -0.00000000000E+00 -0.00000000000E+00 -0.45593999997E+02  0.45594000000E+02  0.51100000000E-03 0.  1.
         23    2    1    2    0    0  0.88817841970E-15  0.00000000000E+00  0.00000000000E+00  0.91188000000E+02  0.91188000000E+02 0.  0.
    9900012    2    3    3    0    0  0.47634068759E+01  0.36641557741E+02 -0.22766849629E+02  0.47787271426E+02  0.20000001738E+02 0.  0.
         12    1    3    3    0    0 -0.47634068759E+01 -0.36641557741E+02  0.22766849629E+02  0.43400728574E+02  0.00000000000E+00 0. -1.
         11    1    4    4    0    0  0.10597405281E+02  0.24234918122E+02 -0.15717880148E+02  0.30768295560E+02  0.51100000000E-03 0. -1.
        -11    1    4    4    0    0  0.13217856179E+01  0.31295884013E+01 -0.10354055276E+00  0.33988471116E+01  0.51100000000E-03 0.  1.
        -12    1    4    4    0    0 -0.71557840226E+01  0.92770512181E+01 -0.69454289283E+01  0.13620128754E+02  0.00000000000E+00 0.  1.
</event>
<event>
 8    1  0.4042158E-011  0.9118800E+02  0.7816164E-02  0.1184000E+00
        -11   -1    0    0    0    0  0.00000000000E+00  0.00000000000E+00  0.45593999997E+02  0.45594000000E+02  0.51100000000E-03 0. -1.
         11   -1    0    0    0    0 -0.00000000000E+00 -0.00000000000E+00 -0.45593999997E+02  0.45594000000E+02  0.51100000000E-03 0.  1.
         23    2    1    2    0    0 -0.88817841970E-15  0.00000000000E+00  0.00000000000E+00  0.91188000000E+02  0.91188000000E+02 0.  0.
    9900012    2    3    3    0    0  0.27839560790E+01 -0.25254179203E+02  0.35186634892E+02  0.47787271277E+02  0.20000001060E+02 0.  0.
        -12    1    3    3    0    0 -0.27839560790E+01  0.25254179203E+02 -0.35186634892E+02  0.43400728723E+02  0.00000000000E+00 0.  1.
         11    1    4    4    0    0 -0.20664745429E+01  0.95522049338E-01 -0.81727077925E-01  0.20702949246E+01  0.51100000000E-03 0.  1.
        -11    1    4    4    0    0 -0.33159046551E+01 -0.58061432432E+01  0.35328105351E+01  0.75622267607E+01  0.51100000000E-03 0. -1.
         12    1    4    4    0    0  0.81663352770E+01 -0.19543558010E+02  0.31735551435E+02  0.38154749592E+02  0.00000000000E+00 0. -1.
</event>
<event>
 8    1  0.4042158E-011  0.9118800E+02  0.7816164E-02  0.1184000E+00
        -11   -1    0    0    0    0  0.00000000000E+00  0.00000000000E+00  0.45593999997E+02  0.45594000000E+02  0.51100000000E-03 0. -1.
         11   -1    0    0    0    0 -0.00000000000E+00 -0.00000000000E+00 -0.45593999997E+02  0.45594000000E+02  0.51100000000E-03 0.  1.
         23    2    1    2    0    0  0.00000000000E+00  0.00000000000E+00  0.00000000000E+00  0.91188000000E+02  0.91188000000E+02 0.  0.
    9900012    2    3    3    0    0  0.69160849554E+01 -0.96702694868E+01  0.41740589770E+02  0.47787272155E+02  0.20000005066E+02 0.  0.
        -12    1    3    3    0    0 -0.69160849554E+01  0.96702694868E+01 -0.41740589770E+02  0.43400727845E+02  0.00000000000E+00 0.  1.
         11    1    4    4    0    0  0.40572111353E+01  0.99815635227E+00  0.57404752750E+01  0.71000235875E+01  0.51100000000E-03 0. -1.
        -11    1    4    4    0    0  0.89676958394E+01 -0.39796759743E+01  0.16739591755E+02  0.19402868909E+02  0.51100000000E-03 0.  1.
        -12    1    4    4    0    0 -0.61088220193E+01 -0.66887498648E+01  0.19260522740E+02  0.21284379658E+02  0.00000000000E+00 0.  1.
</event>
<event>
 8    1  0.4042158E-011  0.9118800E+02  0.7816164E-02  0.1184000E+00
        -11   -1    0    0    0    0  0.00000000000E+00  0.00000000000E+00  0.45593999997E+02  0.45594000000E+02  0.51100000000E-03 0.  1.
         11   -1    0    0    0    0 -0.00000000000E+00 -0.00000000000E+00 -0.45593999997E+02  0.45594000000E+02  0.51100000000E-03 0. -1.
         23    2    1    2    0    0  0.00000000000E+00  0.35527136788E-14  0.00000000000E+00  0.91188000000E+02  0.91188000000E+02 0.  0.
    9900012    2    3    3    0    0 -0.30680420029E+02 -0.30678988696E+02 -0.10650884187E+01  0.47787274961E+02  0.20000017859E+02 0.  0.
        -12    1    3    3    0    0  0.30680420029E+02  0.30678988696E+02  0.10650884187E+01  0.43400725039E+02  0.00000000000E+00 0.  1.
         11    1    4    4    0    0 -0.38804549336E+01 -0.43185550352E+01 -0.58057426200E+01  0.82106330885E+01  0.51100000000E-03 0. -1.
        -11    1    4    4    0    0 -0.42354779311E+01 -0.11541645182E+02  0.16691240506E+01  0.12407047279E+02  0.51100000000E-03 0.  1.
        -12    1    4    4    0    0 -0.22564487164E+02 -0.14818788478E+02  0.30715301507E+01  0.27169594594E+02  0.00000000000E+00 0.  1.
</event>
<event>
 8    1  0.4042158E-011  0.9118800E+02  0.7816164E-02  0.1184000E+00
        -11   -1    0    0    0    0  0.00000000000E+00  0.00000000000E+00  0.45593999997E+02  0.45594000000E+02  0.51100000000E-03 0. -1.
         11   -1    0    0    0    0 -0.00000000000E+00 -0.00000000000E+00 -0.45593999997E+02  0.45594000000E+02  0.51100000000E-03 0.  1.
         23    2    1    2    0    0  0.00000000000E+00 -0.17763568394E-14  0.00000000000E+00  0.91188000000E+02  0.91188000000E+02 0.  0.
    9900012    2    3    3    0    0  0.20390163185E+02  0.10176071774E+02 -0.36936596805E+02  0.47787269879E+02  0.19999994687E+02 0.  0.
         12    1    3    3    0    0 -0.20390163185E+02 -0.10176071774E+02  0.36936596805E+02  0.43400730121E+02  0.00000000000E+00 0. -1.
         11    1    4    4    0    0  0.41305112844E+01  0.54291453173E+01 -0.90033700084E+01  0.11295902537E+02  0.51100000000E-03 0. -1.
        -11    1    4    4    0    0  0.94672953810E+01  0.10813920122E+02 -0.17261799354E+02  0.22461973810E+02  0.51100000000E-03 0.  1.
         12    1    4    4    0    0  0.67923565199E+01 -0.60669936655E+01 -0.10671427443E+02  0.14029393533E+02  0.00000000000E+00 0. -1.
</event>
<event>
 8    1  0.4042158E-011  0.9118800E+02  0.7816164E-02  0.1184000E+00
        -11   -1    0    0    0    0  0.00000000000E+00  0.00000000000E+00  0.45593999997E+02  0.45594000000E+02  0.51100000000E-03 0. -1.
         11   -1    0    0    0    0 -0.00000000000E+00 -0.00000000000E+00 -0.45593999997E+02  0.45594000000E+02  0.51100000000E-03 0.  1.
         23    2    1    2    0    0  0.00000000000E+00  0.00000000000E+00  0.22204460493E-15  0.91188000000E+02  0.91188000000E+02 0.  0.
    9900012    2    3    3    0    0 -0.15151731744E+02 -0.40651170594E+02 -0.12372832360E+01  0.47787268263E+02  0.19999987319E+02 0.  0.
         12    1    3    3    0    0  0.15151731744E+02  0.40651170594E+02  0.12372832360E+01  0.43400731737E+02  0.00000000000E+00 0. -1.
         11    1    4    4    0    0 -0.10614881016E+02 -0.96018046996E+01 -0.38867872324E+01  0.14831637392E+02  0.51100000000E-03 0. -1.
        -11    1    4    4    0    0 -0.71623187859E+01 -0.16491829081E+02  0.25722679319E+01  0.18163033871E+02  0.51100000000E-03 0.  1.
         12    1    4    4    0    0  0.26254680581E+01 -0.14557536814E+02  0.77236064501E-01  0.14792597000E+02  0.00000000000E+00 0. -1.
</event>
<event>
 8    1  0.4042158E-011  0.9118800E+02  0.7816164E-02  0.1184000E+00
        -11   -1    0    0    0    0  0.00000000000E+00  0.00000000000E+00  0.45593999997E+02  0.45594000000E+02  0.51100000000E-03 0. -1.
         11   -1    0    0    0    0 -0.00000000000E+00 -0.00000000000E+00 -0.45593999997E+02  0.45594000000E+02  0.51100000000E-03 0.  1.
         23    2    1    2    0    0  0.00000000000E+00  0.00000000000E+00  0.00000000000E+00  0.91188000000E+02  0.91188000000E+02 0.  0.
    9900012    2    3    3    0    0 -0.11071718851E+02  0.21026812382E+02 -0.36316849285E+02  0.47787270291E+02  0.19999996566E+02 0.  0.
         12    1    3    3    0    0  0.11071718851E+02 -0.21026812382E+02  0.36316849285E+02  0.43400729709E+02  0.00000000000E+00 0. -1.
         11    1    4    4    0    0  0.29726643354E+01  0.16299020504E+01 -0.62011380805E+01  0.70673494111E+01  0.51100000000E-03 0. -1.
        -11    1    4    4    0    0 -0.56672550328E+01  0.85322090113E+01 -0.23190600105E+02  0.25351928993E+02  0.51100000000E-03 0.  1.
         12    1    4    4    0    0 -0.83771281540E+01  0.10864701320E+02 -0.69251110997E+01  0.15367991887E+02  0.00000000000E+00 0. -1.
</event>
<event>
 8    1  0.4042158E-011  0.9118800E+02  0.7816164E-02  0.1184000E+00
        -11   -1    0    0    0    0  0.00000000000E+00  0.00000000000E+00  0.45593999997E+02  0.45594000000E+02  0.51100000000E-03 0. -1.
         11   -1    0    0    0    0 -0.00000000000E+00 -0.00000000000E+00 -0.45593999997E+02  0.45594000000E+02  0.51100000000E-03 0.  1.
         23    2    1    2    0    0  0.00000000000E+00 -0.35527136788E-14  0.00000000000E+00  0.91188000000E+02  0.91188000000E+02 0.  0.
    9900012    2    3    3    0    0 -0.66600812664E+01 -0.25056691673E+02 -0.34805587866E+02  0.47787269283E+02  0.19999991970E+02 0.  0.
         12    1    3    3    0    0  0.66600812664E+01  0.25056691673E+02  0.34805587866E+02  0.43400730717E+02  0.00000000000E+00 0. -1.
         11    1    4    4    0    0  0.20392114752E+01 -0.25887120354E+01  0.15927530361E+01  0.36601469831E+01  0.51100000000E-03 0. -1.
        -11    1    4    4    0    0 -0.13307832471E+01 -0.87551603419E+00 -0.65378521276E+00  0.17219023615E+01  0.51100000000E-03 0.  1.
        -12    1    4    4    0    0 -0.73685094945E+01 -0.21592463603E+02 -0.35744555689E+02  0.42405219939E+02  0.00000000000E+00 0.  1.
</event>
<event>
 8    1  0.4042158E-011  0.9118800E+02  0.7816164E-02  0.1184000E+00
        -11   -1    0    0    0    0  0.00000000000E+00  0.00000000000E+00  0.45593999997E+02  0.45594000000E+02  0.51100000000E-03 0. -1.
         11   -1    0    0    0    0 -0.00000000000E+00 -0.00000000000E+00 -0.45593999997E+02  0.45594000000E+02  0.51100000000E-03 0.  1.
         23    2    1    2    0    0 -0.71054273576E-14  0.00000000000E+00 -0.35527136788E-14  0.91188000000E+02  0.91188000000E+02 0.  0.
    9900012    2    3    3    0    0  0.29312050987E+02 -0.69709316180E+01  0.31238325489E+02  0.47787271895E+02  0.20000003879E+02 0.  0.
        -12    1    3    3    0    0 -0.29312050987E+02  0.69709316180E+01 -0.31238325489E+02  0.43400728105E+02  0.00000000000E+00 0.  1.
         11    1    4    4    0    0  0.26081781816E+02 -0.98700843188E+01  0.25098090205E+02  0.37517889591E+02  0.51100000000E-03 0. -1.
        -11    1    4    4    0    0  0.23985964703E+01 -0.57289275498E+00 -0.69133140003E+00  0.25611346122E+01  0.51100000000E-03 0.  1.
         12    1    4    4    0    0  0.83167270069E+00  0.34720454558E+01  0.68315666840E+01  0.77082476923E+01  0.00000000000E+00 0. -1.
</event>
<event>
 8    1  0.4042158E-011  0.9118800E+02  0.7816164E-02  0.1184000E+00
        -11   -1    0    0    0    0  0.00000000000E+00  0.00000000000E+00  0.45593999997E+02  0.45594000000E+02  0.51100000000E-03 0. -1.
         11   -1    0    0    0    0 -0.00000000000E+00 -0.00000000000E+00 -0.45593999997E+02  0.45594000000E+02  0.51100000000E-03 0.  1.
         23    2    1    2    0    0  0.00000000000E+00  0.00000000000E+00  0.71054273576E-14  0.91188000000E+02  0.91188000000E+02 0.  0.
    9900012    2    3    3    0    0  0.20775283792E+02 -0.81770720608E+01  0.37217555253E+02  0.47787270246E+02  0.19999996360E+02 0.  0.
        -12    1    3    3    0    0 -0.20775283792E+02  0.81770720608E+01 -0.37217555253E+02  0.43400729754E+02  0.00000000000E+00 0.  1.
         11    1    4    4    0    0  0.11701210835E+02  0.36287720400E+01  0.88303398630E+01  0.15101696060E+02  0.51100000000E-03 0. -1.
        -11    1    4    4    0    0  0.95472737595E+00 -0.12616369817E+01  0.30734021121E+00  0.16117352458E+01  0.51100000000E-03 0.  1.
        -12    1    4    4    0    0  0.81193455813E+01 -0.10544207119E+02  0.28079875179E+02  0.31073838941E+02  0.00000000000E+00 0.  1.
</event>
<event>
 8    1  0.4042158E-011  0.9118800E+02  0.7816164E-02  0.1184000E+00
        -11   -1    0    0    0    0  0.00000000000E+00  0.00000000000E+00  0.45593999997E+02  0.45594000000E+02  0.51100000000E-03 0. -1.
         11   -1    0    0    0    0 -0.00000000000E+00 -0.00000000000E+00 -0.45593999997E+02  0.45594000000E+02  0.51100000000E-03 0.  1.
         23    2    1    2    0    0  0.11102230246E-15 -0.17763568394E-14 -0.71054273576E-14  0.91188000000E+02  0.91188000000E+02 0.  0.
    9900012    2    3    3    0    0  0.16323254035E+00 -0.11976792762E+02 -0.41715146072E+02  0.47787267039E+02  0.19999981740E+02 0.  0.
         12    1    3    3    0    0 -0.16323254035E+00  0.11976792762E+02  0.41715146072E+02  0.43400732961E+02  0.00000000000E+00 0. -1.
         11    1    4    4    0    0 -0.13319635584E+01 -0.45374583626E+00 -0.35068293921E+01  0.37786062048E+01  0.51100000000E-03 0. -1.
        -11    1    4    4    0    0 -0.22060224348E+01 -0.10155387410E+02 -0.38664313364E+02  0.40036577734E+02  0.51100000000E-03 0.  1.
         12    1    4    4    0    0  0.37012185336E+01 -0.13676595155E+01  0.45599668468E+00  0.39720831009E+01  0.00000000000E+00 0. -1.
</event>
<event>
 8    1  0.4042158E-011  0.9118800E+02  0.7816164E-02  0.1184000E+00
        -11   -1    0    0    0    0  0.00000000000E+00  0.00000000000E+00  0.45593999997E+02  0.45594000000E+02  0.51100000000E-03 0. -1.
         11   -1    0    0    0    0 -0.00000000000E+00 -0.00000000000E+00 -0.45593999997E+02  0.45594000000E+02  0.51100000000E-03 0.  1.
         23    2    1    2    0    0 -0.71054273576E-14  0.88817841970E-15 -0.35527136788E-14  0.91188000000E+02  0.91188000000E+02 0.  0.
    9900012    2    3    3    0    0 -0.37171277845E+02  0.49198110400E+01 -0.21856692681E+02  0.47787268990E+02  0.19999990631E+02 0.  0.
         12    1    3    3    0    0  0.37171277845E+02 -0.49198110400E+01  0.21856692681E+02  0.43400731010E+02  0.00000000000E+00 0. -1.
         11    1    4    4    0    0 -0.33935231863E+01 -0.37825040490E+01 -0.10077701906E+01  0.51806309958E+01  0.51100000000E-03 0. -1.
        -11    1    4    4    0    0 -0.16840384581E+01 -0.17840822178E+01 -0.44269379269E+01  0.50612957390E+01  0.51100000000E-03 0.  1.
        -12    1    4    4    0    0 -0.32093716200E+02  0.10486397307E+02 -0.16421984564E+02  0.37545342255E+02  0.00000000000E+00 0.  1.
</event>
<event>
 8    1  0.4042158E-011  0.9118800E+02  0.7816164E-02  0.1184000E+00
        -11   -1    0    0    0    0  0.00000000000E+00  0.00000000000E+00  0.45593999997E+02  0.45594000000E+02  0.51100000000E-03 0. -1.
         11   -1    0    0    0    0 -0.00000000000E+00 -0.00000000000E+00 -0.45593999997E+02  0.45594000000E+02  0.51100000000E-03 0.  1.
         23    2    1    2    0    0  0.00000000000E+00 -0.88817841970E-15  0.00000000000E+00  0.91188000000E+02  0.91188000000E+02 0.  0.
    9900012    2    3    3    0    0 -0.66869516393E+01 -0.59451570323E+01  0.42468369547E+02  0.47787278505E+02  0.20000034014E+02 0.  0.
        -12    1    3    3    0    0  0.66869516393E+01  0.59451570323E+01 -0.42468369547E+02  0.43400721495E+02  0.00000000000E+00 0.  1.
         11    1    4    4    0    0 -0.23622212588E+01 -0.22078962278E+00  0.55487357547E+01  0.60346753078E+01  0.51100000000E-03 0. -1.
        -11    1    4    4    0    0 -0.97345619476E+01 -0.89296652930E+01  0.25235356048E+02  0.28483746482E+02  0.51100000000E-03 0.  1.
        -12    1    4    4    0    0  0.54098315671E+01  0.32052978835E+01  0.11684277744E+02  0.13268856715E+02  0.00000000000E+00 0.  1.
</event>
<event>
 8    1  0.4042158E-011  0.9118800E+02  0.7816164E-02  0.1184000E+00
        -11   -1    0    0    0    0  0.00000000000E+00  0.00000000000E+00  0.45593999997E+02  0.45594000000E+02  0.51100000000E-03 0. -1.
         11   -1    0    0    0    0 -0.00000000000E+00 -0.00000000000E+00 -0.45593999997E+02  0.45594000000E+02  0.51100000000E-03 0.  1.
         23    2    1    2    0    0  0.00000000000E+00  0.22204460493E-14  0.35527136788E-14  0.91188000000E+02  0.91188000000E+02 0.  0.
    9900012    2    3    3    0    0 -0.38292749297E+02  0.32016708684E+01  0.20175183807E+02  0.47787269745E+02  0.19999994074E+02 0.  0.
        -12    1    3    3    0    0  0.38292749297E+02 -0.32016708684E+01 -0.20175183807E+02  0.43400730255E+02  0.00000000000E+00 0.  1.
         11    1    4    4    0    0 -0.80023158492E+01  0.48527923947E+01 -0.31066509738E+00  0.93639289852E+01  0.51100000000E-03 0. -1.
        -11    1    4    4    0    0 -0.46518226747E+01  0.41099373815E+01  0.33742494818E+01  0.70651680308E+01  0.51100000000E-03 0.  1.
        -12    1    4    4    0    0 -0.25638610773E+02 -0.57610589078E+01  0.17111599422E+02  0.31358172729E+02  0.00000000000E+00 0.  1.
</event>
<event>
 8    1  0.4042158E-011  0.9118800E+02  0.7816164E-02  0.1184000E+00
        -11   -1    0    0    0    0  0.00000000000E+00  0.00000000000E+00  0.45593999997E+02  0.45594000000E+02  0.51100000000E-03 0.  1.
         11   -1    0    0    0    0 -0.00000000000E+00 -0.00000000000E+00 -0.45593999997E+02  0.45594000000E+02  0.51100000000E-03 0. -1.
         23    2    1    2    0    0  0.35527136788E-14  0.71054273576E-14 -0.17763568394E-14  0.91188000000E+02  0.91188000000E+02 0.  0.
    9900012    2    3    3    0    0 -0.31397377740E+02 -0.28056538531E+02  0.10519413782E+02  0.47787277084E+02  0.20000027538E+02 0.  0.
        -12    1    3    3    0    0  0.31397377740E+02  0.28056538531E+02 -0.10519413782E+02  0.43400722916E+02  0.00000000000E+00 0.  1.
         11    1    4    4    0    0 -0.77725687351E+01 -0.19630144630E+01  0.32123744947E+01  0.86362955414E+01  0.51100000000E-03 0. -1.
        -11    1    4    4    0    0 -0.24549632715E+02 -0.24854743158E+02  0.35821207075E+01  0.35118005537E+02  0.51100000000E-03 0.  1.
        -12    1    4    4    0    0  0.92482371016E+00 -0.12387809101E+01  0.37249185795E+01  0.40329760056E+01  0.00000000000E+00 0.  1.
</event>
<event>
 8    1  0.4042158E-011  0.9118800E+02  0.7816164E-02  0.1184000E+00
        -11   -1    0    0    0    0  0.00000000000E+00  0.00000000000E+00  0.45593999997E+02  0.45594000000E+02  0.51100000000E-03 0. -1.
         11   -1    0    0    0    0 -0.00000000000E+00 -0.00000000000E+00 -0.45593999997E+02  0.45594000000E+02  0.51100000000E-03 0.  1.
         23    2    1    2    0    0 -0.35527136788E-14 -0.35527136788E-14 -0.17763568394E-14  0.91188000000E+02  0.91188000000E+02 0.  0.
    9900012    2    3    3    0    0 -0.30418962042E+02 -0.28666712614E+02 -0.11684575021E+02  0.47787274692E+02  0.20000016633E+02 0.  0.
         12    1    3    3    0    0  0.30418962042E+02  0.28666712614E+02  0.11684575021E+02  0.43400725308E+02  0.00000000000E+00 0. -1.
         11    1    4    4    0    0 -0.82111830424E+01 -0.50043529524E+01  0.33005713681E+01  0.10166653680E+02  0.51100000000E-03 0. -1.
        -11    1    4    4    0    0 -0.27927997529E+01  0.11100753220E+01 -0.17441373048E+01  0.34747680325E+01  0.51100000000E-03 0.  1.
         12    1    4    4    0    0 -0.19414979246E+02 -0.24772434984E+02 -0.13241009085E+02  0.34145852980E+02  0.00000000000E+00 0. -1.
</event>
<event>
 8    1  0.4042158E-011  0.9118800E+02  0.7816164E-02  0.1184000E+00
        -11   -1    0    0    0    0  0.00000000000E+00  0.00000000000E+00  0.45593999997E+02  0.45594000000E+02  0.51100000000E-03 0. -1.
         11   -1    0    0    0    0 -0.00000000000E+00 -0.00000000000E+00 -0.45593999997E+02  0.45594000000E+02  0.51100000000E-03 0.  1.
         23    2    1    2    0    0  0.00000000000E+00  0.00000000000E+00  0.00000000000E+00  0.91188000000E+02  0.91188000000E+02 0.  0.
    9900012    2    3    3    0    0  0.82029477708E+01  0.40595995163E+02 -0.12973081950E+02  0.47787262325E+02  0.19999960247E+02 0.  0.
         12    1    3    3    0    0 -0.82029477708E+01 -0.40595995163E+02  0.12973081950E+02  0.43400737675E+02  0.00000000000E+00 0. -1.
         11    1    4    4    0    0 -0.18615555392E+01  0.14687777991E+01 -0.36670205271E+01  0.43668910057E+01  0.51100000000E-03 0. -1.
        -11    1    4    4    0    0  0.42794490878E+00  0.11898185823E+02 -0.83101399008E+01  0.14519241997E+02  0.51100000000E-03 0.  1.
        -12    1    4    4    0    0  0.96365584012E+01  0.27229031540E+02 -0.99592152246E+00  0.28901129323E+02  0.00000000000E+00 0.  1.
</event>
<event>
 8    1  0.4042158E-011  0.9118800E+02  0.7816164E-02  0.1184000E+00
        -11   -1    0    0    0    0  0.00000000000E+00  0.00000000000E+00  0.45593999997E+02  0.45594000000E+02  0.51100000000E-03 0. -1.
         11   -1    0    0    0    0 -0.00000000000E+00 -0.00000000000E+00 -0.45593999997E+02  0.45594000000E+02  0.51100000000E-03 0.  1.
         23    2    1    2    0    0  0.00000000000E+00  0.44408920985E-15  0.71054273576E-14  0.91188000000E+02  0.91188000000E+02 0.  0.
    9900012    2    3    3    0    0  0.80236746988E+01  0.12912721272E+01 -0.42633039120E+02  0.47787276918E+02  0.20000026782E+02 0.  0.
         12    1    3    3    0    0 -0.80236746988E+01 -0.12912721272E+01  0.42633039120E+02  0.43400723082E+02  0.00000000000E+00 0. -1.
         11    1    4    4    0    0 -0.15955881892E+01  0.71690413455E+01 -0.10907276760E+02  0.13149514898E+02  0.51100000000E-03 0. -1.
        -11    1    4    4    0    0  0.31977941854E+01 -0.61345796379E+00 -0.21100404834E+01  0.38800115242E+01  0.51100000000E-03 0.  1.
        -12    1    4    4    0    0  0.64214687025E+01 -0.52643112544E+01 -0.29615721877E+02  0.30757750496E+02  0.00000000000E+00 0.  1.
</event>
<event>
 8    1  0.4042158E-011  0.9118800E+02  0.7816164E-02  0.1184000E+00
        -11   -1    0    0    0    0  0.00000000000E+00  0.00000000000E+00  0.45593999997E+02  0.45594000000E+02  0.51100000000E-03 0. -1.
         11   -1    0    0    0    0 -0.00000000000E+00 -0.00000000000E+00 -0.45593999997E+02  0.45594000000E+02  0.51100000000E-03 0.  1.
         23    2    1    2    0    0  0.44408920985E-15  0.00000000000E+00  0.00000000000E+00  0.91188000000E+02  0.91188000000E+02 0.  0.
    9900012    2    3    3    0    0  0.24606938736E+01 -0.77320270275E+01 -0.42635480212E+02  0.47787269255E+02  0.19999991843E+02 0.  0.
         12    1    3    3    0    0 -0.24606938736E+01  0.77320270275E+01  0.42635480212E+02  0.43400730745E+02  0.00000000000E+00 0. -1.
         11    1    4    4    0    0  0.49650954741E+01 -0.62351864083E+01 -0.13756271999E+02  0.15898576735E+02  0.51100000000E-03 0. -1.
        -11    1    4    4    0    0  0.48897215645E+01 -0.15207007967E+01 -0.18148736825E+02  0.18857321031E+02  0.51100000000E-03 0.  1.
        -12    1    4    4    0    0 -0.73941231650E+01  0.23860177473E-01 -0.10730471388E+02  0.13031371489E+02  0.00000000000E+00 0.  1.
</event>
<event>
 8    1  0.4042158E-011  0.9118800E+02  0.7816164E-02  0.1184000E+00
        -11   -1    0    0    0    0  0.00000000000E+00  0.00000000000E+00  0.45593999997E+02  0.45594000000E+02  0.51100000000E-03 0. -1.
         11   -1    0    0    0    0 -0.00000000000E+00 -0.00000000000E+00 -0.45593999997E+02  0.45594000000E+02  0.51100000000E-03 0.  1.
         23    2    1    2    0    0  0.00000000000E+00  0.00000000000E+00  0.17763568394E-14  0.91188000000E+02  0.91188000000E+02 0.  0.
    9900012    2    3    3    0    0  0.39980360234E+02  0.11445004764E+02  0.12417976219E+02  0.47787268764E+02  0.19999989601E+02 0.  0.
        -12    1    3    3    0    0 -0.39980360234E+02 -0.11445004764E+02 -0.12417976219E+02  0.43400731236E+02  0.00000000000E+00 0.  1.
         11    1    4    4    0    0  0.23225522842E+01  0.57270680160E+00 -0.14954062479E+01  0.28210782160E+01  0.51100000000E-03 0. -1.
        -11    1    4    4    0    0  0.20219522304E+02 -0.98162152270E+00  0.10586879537E+01  0.20271001047E+02  0.51100000000E-03 0.  1.
         12    1    4    4    0    0  0.17438285646E+02  0.11853919486E+02  0.12854694513E+02  0.24695189500E+02  0.00000000000E+00 0. -1.
</event>
<event>
 8    1  0.4042158E-011  0.9118800E+02  0.7816164E-02  0.1184000E+00
        -11   -1    0    0    0    0  0.00000000000E+00  0.00000000000E+00  0.45593999997E+02  0.45594000000E+02  0.51100000000E-03 0. -1.
         11   -1    0    0    0    0 -0.00000000000E+00 -0.00000000000E+00 -0.45593999997E+02  0.45594000000E+02  0.51100000000E-03 0.  1.
         23    2    1    2    0    0 -0.17763568394E-14  0.00000000000E+00  0.00000000000E+00  0.91188000000E+02  0.91188000000E+02 0.  0.
    9900012    2    3    3    0    0 -0.96842809742E+01 -0.22856636589E+01 -0.42244687814E+02  0.47787271840E+02  0.20000003625E+02 0.  0.
         12    1    3    3    0    0  0.96842809742E+01  0.22856636589E+01  0.42244687814E+02  0.43400728160E+02  0.00000000000E+00 0. -1.
         11    1    4    4    0    0 -0.19181912737E+01  0.33779428450E+00 -0.10304538090E+00  0.19504310684E+01  0.51100000000E-03 0. -1.
        -11    1    4    4    0    0 -0.12651813801E+02 -0.30086739492E+01 -0.28069314152E+02  0.30935528258E+02  0.51100000000E-03 0.  1.
         12    1    4    4    0    0  0.48857241005E+01  0.38521600582E+00 -0.14072328281E+02  0.14901312513E+02  0.00000000000E+00 0. -1.
</event>
<event>
 8    1  0.4042158E-011  0.9118800E+02  0.7816164E-02  0.1184000E+00
        -11   -1    0    0    0    0  0.00000000000E+00  0.00000000000E+00  0.45593999997E+02  0.45594000000E+02  0.51100000000E-03 0. -1.
         11   -1    0    0    0    0 -0.00000000000E+00 -0.00000000000E+00 -0.45593999997E+02  0.45594000000E+02  0.51100000000E-03 0.  1.
         23    2    1    2    0    0  0.00000000000E+00 -0.35527136788E-14  0.00000000000E+00  0.91188000000E+02  0.91188000000E+02 0.  0.
    9900012    2    3    3    0    0 -0.18058466491E+02  0.18890923524E+02  0.34650373086E+02  0.47787267764E+02  0.19999985043E+02 0.  0.
        -12    1    3    3    0    0  0.18058466491E+02 -0.18890923524E+02 -0.34650373086E+02  0.43400732236E+02  0.00000000000E+00 0.  1.
         11    1    4    4    0    0 -0.76447468572E+01  0.61379415273E+00  0.78670551396E+01  0.10986785454E+02  0.51100000000E-03 0. -1.
        -11    1    4    4    0    0  0.31427538247E+00  0.11922207489E+01 -0.15739395188E+01  0.19993611980E+01  0.51100000000E-03 0.  1.
         12    1    4    4    0    0 -0.10727995017E+02  0.17084908623E+02  0.28357257465E+02  0.34801121112E+02  0.00000000000E+00 0. -1.
</event>
<event>
 8    1  0.4042158E-011  0.9118800E+02  0.7816164E-02  0.1184000E+00
        -11   -1    0    0    0    0  0.00000000000E+00  0.00000000000E+00  0.45593999997E+02  0.45594000000E+02  0.51100000000E-03 0. -1.
         11   -1    0    0    0    0 -0.00000000000E+00 -0.00000000000E+00 -0.45593999997E+02  0.45594000000E+02  0.51100000000E-03 0.  1.
         23    2    1    2    0    0  0.00000000000E+00  0.00000000000E+00  0.00000000000E+00  0.91188000000E+02  0.91188000000E+02 0.  0.
    9900012    2    3    3    0    0 -0.21468627593E+02 -0.30028393241E+02 -0.22825798966E+02  0.47787268787E+02  0.19999989706E+02 0.  0.
         12    1    3    3    0    0  0.21468627593E+02  0.30028393241E+02  0.22825798966E+02  0.43400731213E+02  0.00000000000E+00 0. -1.
         11    1    4    4    0    0  0.23691650912E+00 -0.10880305602E+02 -0.56100269972E+01  0.12243756882E+02  0.51100000000E-03 0. -1.
        -11    1    4    4    0    0 -0.14925108544E+02 -0.15960202860E+02 -0.17575299206E+02  0.28042433612E+02  0.51100000000E-03 0.  1.
         12    1    4    4    0    0 -0.67804355581E+01 -0.31878847793E+01  0.35952723712E+00  0.75010782930E+01  0.00000000000E+00 0. -1.
</event>
<event>
 8    1  0.4042158E-011  0.9118800E+02  0.7816164E-02  0.1184000E+00
        -11   -1    0    0    0    0  0.00000000000E+00  0.00000000000E+00  0.45593999997E+02  0.45594000000E+02  0.51100000000E-03 0. -1.
         11   -1    0    0    0    0 -0.00000000000E+00 -0.00000000000E+00 -0.45593999997E+02  0.45594000000E+02  0.51100000000E-03 0.  1.
         23    2    1    2    0    0  0.35527136788E-14  0.00000000000E+00  0.71054273576E-14  0.91188000000E+02  0.91188000000E+02 0.  0.
    9900012    2    3    3    0    0  0.25420498077E+02 -0.11861688662E+02  0.33116791547E+02  0.47787271173E+02  0.20000000584E+02 0.  0.
        -12    1    3    3    0    0 -0.25420498077E+02  0.11861688662E+02 -0.33116791547E+02  0.43400728827E+02  0.00000000000E+00 0.  1.
         11    1    4    4    0    0  0.10756802513E+02 -0.12833477616E+02  0.91700495614E+01  0.19091798167E+02  0.51100000000E-03 0. -1.
        -11    1    4    4    0    0  0.33667206861E+00  0.13389837137E+01  0.31439499508E+01  0.34337511590E+01  0.51100000000E-03 0.  1.
         12    1    4    4    0    0  0.14327023495E+02 -0.36719475965E+00  0.20802792035E+02  0.25261721847E+02  0.00000000000E+00 0. -1.
</event>
<event>
 8    1  0.4042158E-011  0.9118800E+02  0.7816164E-02  0.1184000E+00
        -11   -1    0    0    0    0  0.00000000000E+00  0.00000000000E+00  0.45593999997E+02  0.45594000000E+02  0.51100000000E-03 0. -1.
         11   -1    0    0    0    0 -0.00000000000E+00 -0.00000000000E+00 -0.45593999997E+02  0.45594000000E+02  0.51100000000E-03 0.  1.
         23    2    1    2    0    0 -0.35527136788E-14  0.00000000000E+00  0.35527136788E-14  0.91188000000E+02  0.91188000000E+02 0.  0.
    9900012    2    3    3    0    0  0.29794841443E+02 -0.13394914735E+02 -0.28573883854E+02  0.47787272404E+02  0.20000006199E+02 0.  0.
         12    1    3    3    0    0 -0.29794841443E+02  0.13394914735E+02  0.28573883854E+02  0.43400727596E+02  0.00000000000E+00 0. -1.
         11    1    4    4    0    0  0.12293387854E+01  0.46412571087E+00 -0.27548698948E+01  0.30522114808E+01  0.51100000000E-03 0. -1.
        -11    1    4    4    0    0  0.20266791482E+02 -0.76695860510E+01 -0.26651220543E+02  0.34348987524E+02  0.51100000000E-03 0.  1.
         12    1    4    4    0    0  0.82987111749E+01 -0.61894543946E+01  0.83220658401E+00  0.10386073400E+02  0.00000000000E+00 0. -1.
</event>
<event>
 8    1  0.4042158E-011  0.9118800E+02  0.7816164E-02  0.1184000E+00
        -11   -1    0    0    0    0  0.00000000000E+00  0.00000000000E+00  0.45593999997E+02  0.45594000000E+02  0.51100000000E-03 0. -1.
         11   -1    0    0    0    0 -0.00000000000E+00 -0.00000000000E+00 -0.45593999997E+02  0.45594000000E+02  0.51100000000E-03 0.  1.
         23    2    1    2    0    0  0.00000000000E+00  0.35527136788E-14  0.00000000000E+00  0.91188000000E+02  0.91188000000E+02 0.  0.
    9900012    2    3    3    0    0 -0.14209705623E+02  0.15806851637E+02  0.37839763233E+02  0.47787309060E+02  0.20000173325E+02 0.  0.
        -12    1    3    3    0    0  0.14209705623E+02 -0.15806851637E+02 -0.37839763233E+02  0.43400690940E+02  0.00000000000E+00 0.  1.
         11    1    4    4    0    0  0.18616606681E+01  0.48136312403E+01  0.66819342995E+01  0.84430487624E+01  0.51100000000E-03 0. -1.
        -11    1    4    4    0    0 -0.38779534181E+01  0.33791609135E+01  0.12686443348E+00  0.51452255575E+01  0.51100000000E-03 0.  1.
         12    1    4    4    0    0 -0.12193412873E+02  0.76140594834E+01  0.31030964500E+02  0.34199034740E+02  0.00000000000E+00 0. -1.
</event>
<event>
 8    1  0.4042158E-011  0.9118800E+02  0.7816164E-02  0.1184000E+00
        -11   -1    0    0    0    0  0.00000000000E+00  0.00000000000E+00  0.45593999997E+02  0.45594000000E+02  0.51100000000E-03 0. -1.
         11   -1    0    0    0    0 -0.00000000000E+00 -0.00000000000E+00 -0.45593999997E+02  0.45594000000E+02  0.51100000000E-03 0.  1.
         23    2    1    2    0    0  0.00000000000E+00  0.00000000000E+00  0.17763568394E-14  0.91188000000E+02  0.91188000000E+02 0.  0.
    9900012    2    3    3    0    0  0.41026958608E+02 -0.91379576840E+01  0.10812479054E+02  0.47787270668E+02  0.19999998282E+02 0.  0.
        -12    1    3    3    0    0 -0.41026958608E+02  0.91379576840E+01 -0.10812479054E+02  0.43400729332E+02  0.00000000000E+00 0.  1.
         11    1    4    4    0    0  0.14134423042E+02 -0.73318508798E+01  0.12891501755E+01  0.15974976071E+02  0.51100000000E-03 0. -1.
        -11    1    4    4    0    0  0.15446332806E+02  0.22907637973E+01 -0.11185273126E+01  0.15655283438E+02  0.51100000000E-03 0.  1.
        -12    1    4    4    0    0  0.11446202761E+02 -0.40968706014E+01  0.10641856191E+02  0.16157011158E+02  0.00000000000E+00 0.  1.
</event>
<event>
 8    1  0.4042158E-011  0.9118800E+02  0.7816164E-02  0.1184000E+00
        -11   -1    0    0    0    0  0.00000000000E+00  0.00000000000E+00  0.45593999997E+02  0.45594000000E+02  0.51100000000E-03 0. -1.
         11   -1    0    0    0    0 -0.00000000000E+00 -0.00000000000E+00 -0.45593999997E+02  0.45594000000E+02  0.51100000000E-03 0.  1.
         23    2    1    2    0    0  0.35527136788E-14  0.35527136788E-14  0.35527136788E-14  0.91188000000E+02  0.91188000000E+02 0.  0.
    9900012    2    3    3    0    0 -0.11584335447E+02 -0.27994391066E+02 -0.31076396766E+02  0.47787248914E+02  0.19999899096E+02 0.  0.
         12    1    3    3    0    0  0.11584335447E+02  0.27994391066E+02  0.31076396766E+02  0.43400751086E+02  0.00000000000E+00 0. -1.
         11    1    4    4    0    0 -0.44892625362E+01 -0.18535528708E+01 -0.49747600343E+01  0.69525084699E+01  0.51100000000E-03 0. -1.
        -11    1    4    4    0    0  0.38014069864E+01 -0.66787637426E+01 -0.18876313806E+01  0.79132630877E+01  0.51100000000E-03 0.  1.
        -12    1    4    4    0    0 -0.10896479898E+02 -0.19462074453E+02 -0.24214005351E+02  0.32921477356E+02  0.00000000000E+00 0.  1.
</event>
<event>
 8    1  0.4042158E-011  0.9118800E+02  0.7816164E-02  0.1184000E+00
        -11   -1    0    0    0    0  0.00000000000E+00  0.00000000000E+00  0.45593999997E+02  0.45594000000E+02  0.51100000000E-03 0. -1.
         11   -1    0    0    0    0 -0.00000000000E+00 -0.00000000000E+00 -0.45593999997E+02  0.45594000000E+02  0.51100000000E-03 0.  1.
         23    2    1    2    0    0 -0.17763568394E-14  0.00000000000E+00  0.00000000000E+00  0.91188000000E+02  0.91188000000E+02 0.  0.
    9900012    2    3    3    0    0  0.11101042699E+02  0.21340214908E+02 -0.36124579770E+02  0.47787272069E+02  0.20000004673E+02 0.  0.
         12    1    3    3    0    0 -0.11101042699E+02 -0.21340214908E+02  0.36124579770E+02  0.43400727931E+02  0.00000000000E+00 0. -1.
         11    1    4    4    0    0  0.10336346404E+02  0.87960407643E+01 -0.71352417870E+01  0.15333690545E+02  0.51100000000E-03 0. -1.
        -11    1    4    4    0    0  0.31649563993E+01  0.36815221590E+01 -0.61339863505E+01  0.78228091646E+01  0.51100000000E-03 0.  1.
        -12    1    4    4    0    0 -0.24002601044E+01  0.88626519847E+01 -0.22855351633E+02  0.24630772360E+02  0.00000000000E+00 0.  1.
</event>
<event>
 8    1  0.4042158E-011  0.9118800E+02  0.7816164E-02  0.1184000E+00
        -11   -1    0    0    0    0  0.00000000000E+00  0.00000000000E+00  0.45593999997E+02  0.45594000000E+02  0.51100000000E-03 0. -1.
         11   -1    0    0    0    0 -0.00000000000E+00 -0.00000000000E+00 -0.45593999997E+02  0.45594000000E+02  0.51100000000E-03 0.  1.
         23    2    1    2    0    0  0.00000000000E+00  0.00000000000E+00  0.00000000000E+00  0.91188000000E+02  0.91188000000E+02 0.  0.
    9900012    2    3    3    0    0  0.16099365863E+02 -0.79228575404E+01  0.39517869634E+02  0.47787271052E+02  0.20000000035E+02 0.  0.
        -12    1    3    3    0    0 -0.16099365863E+02  0.79228575404E+01 -0.39517869634E+02  0.43400728948E+02  0.00000000000E+00 0.  1.
         11    1    4    4    0    0  0.19803162497E+01 -0.18545915205E+01 -0.48248744465E+00  0.27557134380E+01  0.51100000000E-03 0. -1.
        -11    1    4    4    0    0  0.91698286111E+01  0.27778370154E+01  0.12690986351E+02  0.15901675071E+02  0.51100000000E-03 0.  1.
         12    1    4    4    0    0  0.49492210024E+01 -0.88461030353E+01  0.27309370728E+02  0.29129882543E+02  0.00000000000E+00 0. -1.
</event>
<event>
 8    1  0.4042158E-011  0.9118800E+02  0.7816164E-02  0.1184000E+00
        -11   -1    0    0    0    0  0.00000000000E+00  0.00000000000E+00  0.45593999997E+02  0.45594000000E+02  0.51100000000E-03 0. -1.
         11   -1    0    0    0    0 -0.00000000000E+00 -0.00000000000E+00 -0.45593999997E+02  0.45594000000E+02  0.51100000000E-03 0.  1.
         23    2    1    2    0    0  0.00000000000E+00  0.00000000000E+00  0.00000000000E+00  0.91188000000E+02  0.91188000000E+02 0.  0.
    9900012    2    3    3    0    0  0.22766943084E+02  0.11051531871E+02  0.35258395179E+02  0.47787257095E+02  0.19999936400E+02 0.  0.
        -12    1    3    3    0    0 -0.22766943084E+02 -0.11051531871E+02 -0.35258395179E+02  0.43400742905E+02  0.00000000000E+00 0.  1.
         11    1    4    4    0    0  0.29147970810E+00  0.69810674168E+00 -0.17059455171E+01  0.18661628577E+01  0.51100000000E-03 0. -1.
        -11    1    4    4    0    0 -0.83578318830E+00 -0.10119186234E+01  0.17641596358E+01  0.21988115699E+01  0.51100000000E-03 0.  1.
         12    1    4    4    0    0  0.23311246564E+02  0.11365343753E+02  0.35200181060E+02  0.43722282668E+02  0.00000000000E+00 0. -1.
</event>
<event>
 8    1  0.4042158E-011  0.9118800E+02  0.7816164E-02  0.1184000E+00
        -11   -1    0    0    0    0  0.00000000000E+00  0.00000000000E+00  0.45593999997E+02  0.45594000000E+02  0.51100000000E-03 0. -1.
         11   -1    0    0    0    0 -0.00000000000E+00 -0.00000000000E+00 -0.45593999997E+02  0.45594000000E+02  0.51100000000E-03 0.  1.
         23    2    1    2    0    0 -0.17763568394E-14 -0.17763568394E-14 -0.71054273576E-14  0.91188000000E+02  0.91188000000E+02 0.  0.
    9900012    2    3    3    0    0  0.12134326779E+02 -0.94613267564E+01 -0.40581581049E+02  0.47787270618E+02  0.19999998058E+02 0.  0.
         12    1    3    3    0    0 -0.12134326779E+02  0.94613267564E+01  0.40581581049E+02  0.43400729382E+02  0.00000000000E+00 0. -1.
         11    1    4    4    0    0  0.31851310529E+01 -0.20803670626E+00 -0.36128080183E+01  0.48208631108E+01  0.51100000000E-03 0. -1.
        -11    1    4    4    0    0  0.14009134519E+02 -0.41937862538E+01 -0.22672118862E+02  0.26979041256E+02  0.51100000000E-03 0.  1.
         12    1    4    4    0    0 -0.50599387925E+01 -0.50595037963E+01 -0.14296654169E+02  0.15987366252E+02  0.00000000000E+00 0. -1.
</event>
<event>
 8    1  0.4042158E-011  0.9118800E+02  0.7816164E-02  0.1184000E+00
        -11   -1    0    0    0    0  0.00000000000E+00  0.00000000000E+00  0.45593999997E+02  0.45594000000E+02  0.51100000000E-03 0. -1.
         11   -1    0    0    0    0 -0.00000000000E+00 -0.00000000000E+00 -0.45593999997E+02  0.45594000000E+02  0.51100000000E-03 0.  1.
         23    2    1    2    0    0  0.00000000000E+00  0.00000000000E+00  0.00000000000E+00  0.91188000000E+02  0.91188000000E+02 0.  0.
    9900012    2    3    3    0    0 -0.83690400356E+01  0.27639570342E+02 -0.32398087864E+02  0.47787276768E+02  0.20000026097E+02 0.  0.
         12    1    3    3    0    0  0.83690400356E+01 -0.27639570342E+02  0.32398087864E+02  0.43400723232E+02  0.00000000000E+00 0. -1.
         11    1    4    4    0    0  0.35043594776E+01  0.80459475528E+01 -0.35826362122E+01  0.94790869740E+01  0.51100000000E-03 0. -1.
        -11    1    4    4    0    0 -0.31098939881E+01  0.13993792521E+02 -0.12833908867E+02  0.19240761077E+02  0.51100000000E-03 0.  1.
         12    1    4    4    0    0 -0.87635055251E+01  0.55998302677E+01 -0.15981542785E+02  0.19067428718E+02  0.00000000000E+00 0. -1.
</event>
<event>
 8    1  0.4042158E-011  0.9118800E+02  0.7816164E-02  0.1184000E+00
        -11   -1    0    0    0    0  0.00000000000E+00  0.00000000000E+00  0.45593999997E+02  0.45594000000E+02  0.51100000000E-03 0. -1.
         11   -1    0    0    0    0 -0.00000000000E+00 -0.00000000000E+00 -0.45593999997E+02  0.45594000000E+02  0.51100000000E-03 0.  1.
         23    2    1    2    0    0  0.00000000000E+00 -0.71054273576E-14  0.88817841970E-15  0.91188000000E+02  0.91188000000E+02 0.  0.
    9900012    2    3    3    0    0 -0.12577178946E+02  0.41435647996E+02 -0.29197318650E+01  0.47787272019E+02  0.20000004443E+02 0.  0.
         12    1    3    3    0    0  0.12577178946E+02 -0.41435647996E+02  0.29197318650E+01  0.43400727981E+02  0.00000000000E+00 0. -1.
         11    1    4    4    0    0 -0.81337677174E+01  0.13633236005E+02  0.63577250944E+01  0.17100993243E+02  0.51100000000E-03 0. -1.
        -11    1    4    4    0    0 -0.45174999265E+01  0.13344003424E+02 -0.12363792440E+01  0.14142095561E+02  0.51100000000E-03 0.  1.
        -12    1    4    4    0    0  0.74088697630E-01  0.14458408567E+02 -0.80410777153E+01  0.16544183215E+02  0.00000000000E+00 0.  1.
</event>
<event>
 8    1  0.4042158E-011  0.9118800E+02  0.7816164E-02  0.1184000E+00
        -11   -1    0    0    0    0  0.00000000000E+00  0.00000000000E+00  0.45593999997E+02  0.45594000000E+02  0.51100000000E-03 0. -1.
         11   -1    0    0    0    0 -0.00000000000E+00 -0.00000000000E+00 -0.45593999997E+02  0.45594000000E+02  0.51100000000E-03 0.  1.
         23    2    1    2    0    0  0.35527136788E-14  0.00000000000E+00  0.00000000000E+00  0.91188000000E+02  0.91188000000E+02 0.  0.
    9900012    2    3    3    0    0  0.21506059389E+02  0.23699477829E+02  0.29316312979E+02  0.47787285184E+02  0.20000064470E+02 0.  0.
        -12    1    3    3    0    0 -0.21506059389E+02 -0.23699477829E+02 -0.29316312979E+02  0.43400714816E+02  0.00000000000E+00 0.  1.
         11    1    4    4    0    0  0.85323190971E+01  0.16247026821E+01  0.72024353460E+01  0.11283403882E+02  0.51100000000E-03 0. -1.
        -11    1    4    4    0    0  0.15447770943E+02  0.14946225370E+02  0.16142701589E+02  0.26881407976E+02  0.51100000000E-03 0.  1.
        -12    1    4    4    0    0 -0.24740306507E+01  0.71285497763E+01  0.59711760443E+01  0.96224733268E+01  0.00000000000E+00 0.  1.
</event>
<event>
 8    1  0.4042158E-011  0.9118800E+02  0.7816164E-02  0.1184000E+00
        -11   -1    0    0    0    0  0.00000000000E+00  0.00000000000E+00  0.45593999997E+02  0.45594000000E+02  0.51100000000E-03 0. -1.
         11   -1    0    0    0    0 -0.00000000000E+00 -0.00000000000E+00 -0.45593999997E+02  0.45594000000E+02  0.51100000000E-03 0.  1.
         23    2    1    2    0    0  0.00000000000E+00  0.88817841970E-15  0.00000000000E+00  0.91188000000E+02  0.91188000000E+02 0.  0.
    9900012    2    3    3    0    0  0.33082420731E+02  0.76888358664E+01 -0.27019604046E+02  0.47787265430E+02  0.19999974401E+02 0.  0.
         12    1    3    3    0    0 -0.33082420731E+02 -0.76888358664E+01  0.27019604046E+02  0.43400734570E+02  0.00000000000E+00 0. -1.
         11    1    4    4    0    0  0.25120336185E+01  0.30028720528E+00  0.35686365660E+00  0.25549632555E+01  0.51100000000E-03 0. -1.
        -11    1    4    4    0    0  0.22599855260E+02 -0.22190201321E+01 -0.22074782490E+02  0.31669757346E+02  0.51100000000E-03 0.  1.
        -12    1    4    4    0    0  0.79705318530E+01  0.96075687932E+01 -0.53016852125E+01  0.13562544829E+02  0.00000000000E+00 0.  1.
</event>
<event>
 8    1  0.4042158E-011  0.9118800E+02  0.7816164E-02  0.1184000E+00
        -11   -1    0    0    0    0  0.00000000000E+00  0.00000000000E+00  0.45593999997E+02  0.45594000000E+02  0.51100000000E-03 0. -1.
         11   -1    0    0    0    0 -0.00000000000E+00 -0.00000000000E+00 -0.45593999997E+02  0.45594000000E+02  0.51100000000E-03 0.  1.
         23    2    1    2    0    0  0.35527136788E-14 -0.88817841970E-15  0.00000000000E+00  0.91188000000E+02  0.91188000000E+02 0.  0.
    9900012    2    3    3    0    0  0.21236627869E+02  0.17667729504E+01 -0.37808826677E+02  0.47787271612E+02  0.20000002588E+02 0.  0.
         12    1    3    3    0    0 -0.21236627869E+02 -0.17667729504E+01  0.37808826677E+02  0.43400728388E+02  0.00000000000E+00 0. -1.
         11    1    4    4    0    0 -0.11184574119E+01 -0.57250587865E-01 -0.25816681349E+01  0.28141135783E+01  0.51100000000E-03 0. -1.
        -11    1    4    4    0    0  0.12595321978E+02  0.86358028159E+01 -0.24927419406E+02  0.29233464805E+02  0.51100000000E-03 0.  1.
        -12    1    4    4    0    0  0.97597633028E+01 -0.68117792776E+01 -0.10299739136E+02  0.15739693228E+02  0.00000000000E+00 0.  1.
</event>
<event>
 8    1  0.4042158E-011  0.9118800E+02  0.7816164E-02  0.1184000E+00
        -11   -1    0    0    0    0  0.00000000000E+00  0.00000000000E+00  0.45593999997E+02  0.45594000000E+02  0.51100000000E-03 0. -1.
         11   -1    0    0    0    0 -0.00000000000E+00 -0.00000000000E+00 -0.45593999997E+02  0.45594000000E+02  0.51100000000E-03 0.  1.
         23    2    1    2    0    0  0.35527136788E-14  0.35527136788E-14  0.00000000000E+00  0.91188000000E+02  0.91188000000E+02 0.  0.
    9900012    2    3    3    0    0  0.18837114027E+02  0.26708796372E+02 -0.28555687774E+02  0.47787262993E+02  0.19999963290E+02 0.  0.
         12    1    3    3    0    0 -0.18837114027E+02 -0.26708796372E+02  0.28555687774E+02  0.43400737007E+02  0.00000000000E+00 0. -1.
         11    1    4    4    0    0  0.16872607749E+02  0.22075135876E+02 -0.11920273193E+02  0.30233911911E+02  0.51100000000E-03 0.  1.
        -11    1    4    4    0    0  0.17294565449E+00 -0.26055384269E+00 -0.18500879938E+01  0.18763326865E+01  0.51100000000E-03 0. -1.
        -12    1    4    4    0    0  0.17915606237E+01  0.48942143382E+01 -0.14785326588E+02  0.15677018395E+02  0.00000000000E+00 0.  1.
</event>
<event>
 8    1  0.4042158E-011  0.9118800E+02  0.7816164E-02  0.1184000E+00
        -11   -1    0    0    0    0  0.00000000000E+00  0.00000000000E+00  0.45593999997E+02  0.45594000000E+02  0.51100000000E-03 0. -1.
         11   -1    0    0    0    0 -0.00000000000E+00 -0.00000000000E+00 -0.45593999997E+02  0.45594000000E+02  0.51100000000E-03 0.  1.
         23    2    1    2    0    0  0.88817841970E-15 -0.35527136788E-14  0.00000000000E+00  0.91188000000E+02  0.91188000000E+02 0.  0.
    9900012    2    3    3    0    0  0.78308849189E+01 -0.18616516758E+02 -0.38415178119E+02  0.47787269997E+02  0.19999995226E+02 0.  0.
         12    1    3    3    0    0 -0.78308849189E+01  0.18616516758E+02  0.38415178119E+02  0.43400730003E+02  0.00000000000E+00 0. -1.
         11    1    4    4    0    0 -0.67417124046E+00 -0.19596943135E+01  0.11639848837E+01  0.23769244276E+01  0.51100000000E-03 0. -1.
        -11    1    4    4    0    0 -0.56866306023E+00 -0.89626578575E+01 -0.95445410583E+01  0.13105375913E+02  0.51100000000E-03 0.  1.
         12    1    4    4    0    0  0.90737192196E+01 -0.76941645868E+01 -0.30034621945E+02  0.32304969657E+02  0.00000000000E+00 0. -1.
</event>
<event>
 8    1  0.4042158E-011  0.9118800E+02  0.7816164E-02  0.1184000E+00
        -11   -1    0    0    0    0  0.00000000000E+00  0.00000000000E+00  0.45593999997E+02  0.45594000000E+02  0.51100000000E-03 0. -1.
         11   -1    0    0    0    0 -0.00000000000E+00 -0.00000000000E+00 -0.45593999997E+02  0.45594000000E+02  0.51100000000E-03 0.  1.
         23    2    1    2    0    0 -0.17763568394E-14  0.71054273576E-14  0.00000000000E+00  0.91188000000E+02  0.91188000000E+02 0.  0.
    9900012    2    3    3    0    0 -0.11778359624E+02 -0.32542552730E+02  0.26189258607E+02  0.47787253924E+02  0.19999921939E+02 0.  0.
        -12    1    3    3    0    0  0.11778359624E+02  0.32542552730E+02 -0.26189258607E+02  0.43400746076E+02  0.00000000000E+00 0.  1.
         11    1    4    4    0    0 -0.85614621085E+01 -0.18441371910E+02  0.18597507210E+02  0.27554493391E+02  0.51100000000E-03 0. -1.
        -11    1    4    4    0    0  0.44474135432E+01 -0.60597047868E+01  0.42362762169E+01  0.86281832256E+01  0.51100000000E-03 0.  1.
         12    1    4    4    0    0 -0.76643110584E+01 -0.80414760334E+01  0.33554751803E+01  0.11604577307E+02  0.00000000000E+00 0. -1.
</event>
<event>
 8    1  0.4042158E-011  0.9118800E+02  0.7816164E-02  0.1184000E+00
        -11   -1    0    0    0    0  0.00000000000E+00  0.00000000000E+00  0.45593999997E+02  0.45594000000E+02  0.51100000000E-03 0. -1.
         11   -1    0    0    0    0 -0.00000000000E+00 -0.00000000000E+00 -0.45593999997E+02  0.45594000000E+02  0.51100000000E-03 0.  1.
         23    2    1    2    0    0  0.35527136788E-14  0.88817841970E-15  0.00000000000E+00  0.91188000000E+02  0.91188000000E+02 0.  0.
    9900012    2    3    3    0    0 -0.27154875105E+02  0.55364745837E+01 -0.33400359362E+02  0.47787265003E+02  0.19999972455E+02 0.  0.
         12    1    3    3    0    0  0.27154875105E+02 -0.55364745837E+01  0.33400359362E+02  0.43400734997E+02  0.00000000000E+00 0. -1.
         11    1    4    4    0    0 -0.74452530076E+01 -0.17987125394E+01 -0.41809692410E+01  0.87262628428E+01  0.51100000000E-03 0. -1.
        -11    1    4    4    0    0 -0.16168824775E+02  0.10994452682E+02 -0.17330815007E+02  0.26127878472E+02  0.51100000000E-03 0.  1.
        -12    1    4    4    0    0 -0.35407973218E+01 -0.36592655585E+01 -0.11888575114E+02  0.12933123688E+02  0.00000000000E+00 0.  1.
</event>
<event>
 8    1  0.4042158E-011  0.9118800E+02  0.7816164E-02  0.1184000E+00
        -11   -1    0    0    0    0  0.00000000000E+00  0.00000000000E+00  0.45593999997E+02  0.45594000000E+02  0.51100000000E-03 0. -1.
         11   -1    0    0    0    0 -0.00000000000E+00 -0.00000000000E+00 -0.45593999997E+02  0.45594000000E+02  0.51100000000E-03 0.  1.
         23    2    1    2    0    0  0.00000000000E+00  0.00000000000E+00 -0.35527136788E-14  0.91188000000E+02  0.91188000000E+02 0.  0.
    9900012    2    3    3    0    0 -0.38490592278E+02 -0.53198768254E+01 -0.19333813884E+02  0.47787272556E+02  0.20000006894E+02 0.  0.
         12    1    3    3    0    0  0.38490592278E+02  0.53198768254E+01  0.19333813884E+02  0.43400727444E+02  0.00000000000E+00 0. -1.
         11    1    4    4    0    0 -0.33187551504E+02 -0.65194928107E+01 -0.13511888616E+02  0.36420989767E+02  0.51100000000E-03 0. -1.
        -11    1    4    4    0    0 -0.66321434101E+01  0.16432167862E+01 -0.68138321627E+01  0.96495490372E+01  0.51100000000E-03 0.  1.
         12    1    4    4    0    0  0.13291026367E+01 -0.44360080092E+00  0.99190689463E+00  0.17167337525E+01  0.00000000000E+00 0. -1.
</event>
<event>
 8    1  0.4042158E-011  0.9118800E+02  0.7816164E-02  0.1184000E+00
        -11   -1    0    0    0    0  0.00000000000E+00  0.00000000000E+00  0.45593999997E+02  0.45594000000E+02  0.51100000000E-03 0. -1.
         11   -1    0    0    0    0 -0.00000000000E+00 -0.00000000000E+00 -0.45593999997E+02  0.45594000000E+02  0.51100000000E-03 0.  1.
         23    2    1    2    0    0  0.00000000000E+00  0.00000000000E+00  0.00000000000E+00  0.91188000000E+02  0.91188000000E+02 0.  0.
    9900012    2    3    3    0    0  0.59325952287E+01  0.17222317372E+02  0.39393145813E+02  0.47787264536E+02  0.19999970324E+02 0.  0.
        -12    1    3    3    0    0 -0.59325952287E+01 -0.17222317372E+02 -0.39393145813E+02  0.43400735464E+02  0.00000000000E+00 0.  1.
         11    1    4    4    0    0  0.27671578094E+01 -0.63544252320E+00  0.31964009466E+01  0.42752694435E+01  0.51100000000E-03 0. -1.
        -11    1    4    4    0    0  0.35434555998E+01  0.10536446284E+01  0.10504677660E+00  0.36982806380E+01  0.51100000000E-03 0.  1.
         12    1    4    4    0    0 -0.37801818056E+00  0.16804115266E+02  0.36091698090E+02  0.39813714454E+02  0.00000000000E+00 0. -1.
</event>
<event>
 8    1  0.4042158E-011  0.9118800E+02  0.7816164E-02  0.1184000E+00
        -11   -1    0    0    0    0  0.00000000000E+00  0.00000000000E+00  0.45593999997E+02  0.45594000000E+02  0.51100000000E-03 0. -1.
         11   -1    0    0    0    0 -0.00000000000E+00 -0.00000000000E+00 -0.45593999997E+02  0.45594000000E+02  0.51100000000E-03 0.  1.
         23    2    1    2    0    0  0.00000000000E+00  0.00000000000E+00  0.00000000000E+00  0.91188000000E+02  0.91188000000E+02 0.  0.
    9900012    2    3    3    0    0  0.16290856228E+01  0.37468816732E+02 -0.21841647250E+02  0.47787266113E+02  0.19999977517E+02 0.  0.
         12    1    3    3    0    0 -0.16290856228E+01 -0.37468816732E+02  0.21841647250E+02  0.43400733887E+02  0.00000000000E+00 0. -1.
         11    1    4    4    0    0  0.63814743671E+00  0.31478495457E+02 -0.87016588500E+01  0.32665299254E+02  0.51100000000E-03 0. -1.
        -11    1    4    4    0    0 -0.23120955568E+00 -0.23527377795E+00  0.17448715274E+00  0.37317239558E+00  0.51100000000E-03 0.  1.
        -12    1    4    4    0    0  0.12221477418E+01  0.62255950535E+01 -0.13314475553E+02  0.14748794464E+02  0.00000000000E+00 0.  1.
</event>
<event>
 8    1  0.4042158E-011  0.9118800E+02  0.7816164E-02  0.1184000E+00
        -11   -1    0    0    0    0  0.00000000000E+00  0.00000000000E+00  0.45593999997E+02  0.45594000000E+02  0.51100000000E-03 0. -1.
         11   -1    0    0    0    0 -0.00000000000E+00 -0.00000000000E+00 -0.45593999997E+02  0.45594000000E+02  0.51100000000E-03 0.  1.
         23    2    1    2    0    0  0.00000000000E+00  0.00000000000E+00  0.00000000000E+00  0.91188000000E+02  0.91188000000E+02 0.  0.
    9900012    2    3    3    0    0  0.25563392493E+01  0.61296367438E+01 -0.42889575030E+02  0.47787274623E+02  0.20000016316E+02 0.  0.
         12    1    3    3    0    0 -0.25563392493E+01 -0.61296367438E+01  0.42889575030E+02  0.43400725377E+02  0.00000000000E+00 0. -1.
         11    1    4    4    0    0  0.31298407365E+01 -0.15120579241E+01 -0.18757712265E+01  0.39497772288E+01  0.51100000000E-03 0. -1.
        -11    1    4    4    0    0 -0.60892829935E+01  0.31299653831E+01 -0.10742896821E+02  0.12739147657E+02  0.51100000000E-03 0.  1.
        -12    1    4    4    0    0  0.55157815063E+01  0.45117292848E+01 -0.30270906983E+02  0.31098349737E+02  0.00000000000E+00 0.  1.
</event>
<event>
 8    1  0.4042158E-011  0.9118800E+02  0.7816164E-02  0.1184000E+00
        -11   -1    0    0    0    0  0.00000000000E+00  0.00000000000E+00  0.45593999997E+02  0.45594000000E+02  0.51100000000E-03 0. -1.
         11   -1    0    0    0    0 -0.00000000000E+00 -0.00000000000E+00 -0.45593999997E+02  0.45594000000E+02  0.51100000000E-03 0.  1.
         23    2    1    2    0    0  0.44408920985E-15 -0.35527136788E-14  0.71054273576E-14  0.91188000000E+02  0.91188000000E+02 0.  0.
    9900012    2    3    3    0    0 -0.28321065971E+01 -0.25047267246E+02  0.35330385870E+02  0.47787278923E+02  0.20000035921E+02 0.  0.
        -12    1    3    3    0    0  0.28321065971E+01  0.25047267246E+02 -0.35330385870E+02  0.43400721077E+02  0.00000000000E+00 0.  1.
         11    1    4    4    0    0  0.14879019821E+01 -0.37865216918E+01  0.63970006292E+01  0.75811091630E+01  0.51100000000E-03 0. -1.
        -11    1    4    4    0    0  0.50629009881E+01 -0.13814533328E+02  0.99576714768E+01  0.17765965186E+02  0.51100000000E-03 0.  1.
         12    1    4    4    0    0 -0.93829095673E+01 -0.74462122265E+01  0.18975713764E+02  0.22440204574E+02  0.00000000000E+00 0. -1.
</event>
<event>
 8    1  0.4042158E-011  0.9118800E+02  0.7816164E-02  0.1184000E+00
        -11   -1    0    0    0    0  0.00000000000E+00  0.00000000000E+00  0.45593999997E+02  0.45594000000E+02  0.51100000000E-03 0. -1.
         11   -1    0    0    0    0 -0.00000000000E+00 -0.00000000000E+00 -0.45593999997E+02  0.45594000000E+02  0.51100000000E-03 0.  1.
         23    2    1    2    0    0  0.00000000000E+00  0.00000000000E+00 -0.71054273576E-14  0.91188000000E+02  0.91188000000E+02 0.  0.
    9900012    2    3    3    0    0  0.16940478865E+02  0.18805982781E+02  0.35255899267E+02  0.47787271369E+02  0.20000001481E+02 0.  0.
        -12    1    3    3    0    0 -0.16940478865E+02 -0.18805982781E+02 -0.35255899267E+02  0.43400728631E+02  0.00000000000E+00 0.  1.
         11    1    4    4    0    0  0.58499509833E+00 -0.63952128371E+00  0.45020929506E+01  0.45847625822E+01  0.51100000000E-03 0. -1.
        -11    1    4    4    0    0  0.30491799215E+01  0.96697058331E+01  0.22637089257E+02  0.24804002084E+02  0.51100000000E-03 0.  1.
        -12    1    4    4    0    0  0.13306303845E+02  0.97757982317E+01  0.81167170601E+01  0.18398506703E+02  0.00000000000E+00 0.  1.
</event>
<event>
 8    1  0.4042158E-011  0.9118800E+02  0.7816164E-02  0.1184000E+00
        -11   -1    0    0    0    0  0.00000000000E+00  0.00000000000E+00  0.45593999997E+02  0.45594000000E+02  0.51100000000E-03 0. -1.
         11   -1    0    0    0    0 -0.00000000000E+00 -0.00000000000E+00 -0.45593999997E+02  0.45594000000E+02  0.51100000000E-03 0.  1.
         23    2    1    2    0    0 -0.35527136788E-14  0.17763568394E-14  0.00000000000E+00  0.91188000000E+02  0.91188000000E+02 0.  0.
    9900012    2    3    3    0    0 -0.20872511572E+02  0.12914858103E+02 -0.35793398605E+02  0.47787277853E+02  0.20000031044E+02 0.  0.
         12    1    3    3    0    0  0.20872511572E+02 -0.12914858103E+02  0.35793398605E+02  0.43400722147E+02  0.00000000000E+00 0. -1.
         11    1    4    4    0    0 -0.12095657385E+02 -0.22647165034E+00 -0.10823731014E+02  0.16232971703E+02  0.51100000000E-03 0. -1.
        -11    1    4    4    0    0 -0.96306583738E+01  0.12635341058E+02 -0.16062979899E+02  0.22592493175E+02  0.51100000000E-03 0.  1.
         12    1    4    4    0    0  0.85380418737E+00  0.50598869506E+00 -0.89066876925E+01  0.89618129751E+01  0.00000000000E+00 0. -1.
</event>
<event>
 8    1  0.4042158E-011  0.9118800E+02  0.7816164E-02  0.1184000E+00
        -11   -1    0    0    0    0  0.00000000000E+00  0.00000000000E+00  0.45593999997E+02  0.45594000000E+02  0.51100000000E-03 0. -1.
         11   -1    0    0    0    0 -0.00000000000E+00 -0.00000000000E+00 -0.45593999997E+02  0.45594000000E+02  0.51100000000E-03 0.  1.
         23    2    1    2    0    0  0.00000000000E+00  0.00000000000E+00  0.00000000000E+00  0.91188000000E+02  0.91188000000E+02 0.  0.
    9900012    2    3    3    0    0  0.62365377387E+01 -0.10077700032E+02 -0.41751274604E+02  0.47787269914E+02  0.19999994846E+02 0.  0.
         12    1    3    3    0    0 -0.62365377387E+01  0.10077700032E+02  0.41751274604E+02  0.43400730086E+02  0.00000000000E+00 0. -1.
         11    1    4    4    0    0  0.31066044100E+01 -0.74128321805E+01 -0.97763051158E+01  0.12656113696E+02  0.51100000000E-03 0. -1.
        -11    1    4    4    0    0 -0.15414715628E+01 -0.22828187705E+01 -0.29863910307E+02  0.29990674137E+02  0.51100000000E-03 0.  1.
         12    1    4    4    0    0  0.46714048916E+01 -0.38204908139E+00 -0.21110591818E+01  0.51404820816E+01  0.00000000000E+00 0. -1.
</event>
<event>
 8    1  0.4042158E-011  0.9118800E+02  0.7816164E-02  0.1184000E+00
        -11   -1    0    0    0    0  0.00000000000E+00  0.00000000000E+00  0.45593999997E+02  0.45594000000E+02  0.51100000000E-03 0. -1.
         11   -1    0    0    0    0 -0.00000000000E+00 -0.00000000000E+00 -0.45593999997E+02  0.45594000000E+02  0.51100000000E-03 0.  1.
         23    2    1    2    0    0  0.00000000000E+00  0.00000000000E+00  0.00000000000E+00  0.91188000000E+02  0.91188000000E+02 0.  0.
    9900012    2    3    3    0    0  0.22040404371E+02 -0.12991745684E+02 -0.35057929515E+02  0.47787270713E+02  0.19999998489E+02 0.  0.
         12    1    3    3    0    0 -0.22040404371E+02  0.12991745684E+02  0.35057929515E+02  0.43400729287E+02  0.00000000000E+00 0. -1.
         11    1    4    4    0    0  0.44626017071E+01 -0.20312124726E+01 -0.56695258412E+00  0.49357951334E+01  0.51100000000E-03 0. -1.
        -11    1    4    4    0    0 -0.70249876134E+00  0.21921553236E+01 -0.10395873713E+01  0.25258249417E+01  0.51100000000E-03 0.  1.
        -12    1    4    4    0    0  0.18280301426E+02 -0.13152688535E+02 -0.33451389559E+02  0.40325650638E+02  0.00000000000E+00 0.  1.
</event>
<event>
 8    1  0.4042158E-011  0.9118800E+02  0.7816164E-02  0.1184000E+00
        -11   -1    0    0    0    0  0.00000000000E+00  0.00000000000E+00  0.45593999997E+02  0.45594000000E+02  0.51100000000E-03 0. -1.
         11   -1    0    0    0    0 -0.00000000000E+00 -0.00000000000E+00 -0.45593999997E+02  0.45594000000E+02  0.51100000000E-03 0.  1.
         23    2    1    2    0    0  0.00000000000E+00  0.00000000000E+00  0.00000000000E+00  0.91188000000E+02  0.91188000000E+02 0.  0.
    9900012    2    3    3    0    0  0.22029905311E+02  0.74140947700E+01 -0.36651610602E+02  0.47787238612E+02  0.19999852128E+02 0.  0.
         12    1    3    3    0    0 -0.22029905311E+02 -0.74140947700E+01  0.36651610602E+02  0.43400761388E+02  0.00000000000E+00 0. -1.
         11    1    4    4    0    0 -0.86037109633E+00 -0.26165784029E+01 -0.18711738843E+01  0.33298668034E+01  0.51100000000E-03 0. -1.
        -11    1    4    4    0    0  0.29998193680E+01  0.38150433664E+01 -0.13050716817E+01  0.50256028975E+01  0.51100000000E-03 0.  1.
        -12    1    4    4    0    0  0.19890457040E+02  0.62156298065E+01 -0.33475365037E+02  0.39431768911E+02  0.00000000000E+00 0.  1.
</event>
<event>
 8    1  0.4042158E-011  0.9118800E+02  0.7816164E-02  0.1184000E+00
        -11   -1    0    0    0    0  0.00000000000E+00  0.00000000000E+00  0.45593999997E+02  0.45594000000E+02  0.51100000000E-03 0.  1.
         11   -1    0    0    0    0 -0.00000000000E+00 -0.00000000000E+00 -0.45593999997E+02  0.45594000000E+02  0.51100000000E-03 0. -1.
         23    2    1    2    0    0 -0.35527136788E-14  0.35527136788E-14  0.00000000000E+00  0.91188000000E+02  0.91188000000E+02 0.  0.
    9900012    2    3    3    0    0  0.25354366942E+02 -0.26116710804E+02 -0.23636762033E+02  0.47787273905E+02  0.20000013040E+02 0.  0.
         12    1    3    3    0    0 -0.25354366942E+02  0.26116710804E+02  0.23636762033E+02  0.43400726095E+02  0.00000000000E+00 0. -1.
         11    1    4    4    0    0  0.83714452681E-01 -0.58650992949E+01 -0.14309087640E+01  0.60377063527E+01  0.51100000000E-03 0. -1.
        -11    1    4    4    0    0  0.48434801602E+01 -0.16906922463E+01  0.15228896203E+01  0.53513487450E+01  0.51100000000E-03 0.  1.
         12    1    4    4    0    0  0.20427172329E+02 -0.18560919263E+02 -0.23728742889E+02  0.36398218807E+02  0.00000000000E+00 0. -1.
</event>
<event>
 8    1  0.4042158E-011  0.9118800E+02  0.7816164E-02  0.1184000E+00
        -11   -1    0    0    0    0  0.00000000000E+00  0.00000000000E+00  0.45593999997E+02  0.45594000000E+02  0.51100000000E-03 0. -1.
         11   -1    0    0    0    0 -0.00000000000E+00 -0.00000000000E+00 -0.45593999997E+02  0.45594000000E+02  0.51100000000E-03 0.  1.
         23    2    1    2    0    0 -0.35527136788E-14 -0.71054273576E-14 -0.35527136788E-14  0.91188000000E+02  0.91188000000E+02 0.  0.
    9900012    2    3    3    0    0  0.29735469722E+02  0.17295183046E+02  0.26463209145E+02  0.47787274725E+02  0.20000016781E+02 0.  0.
        -12    1    3    3    0    0 -0.29735469722E+02 -0.17295183046E+02 -0.26463209145E+02  0.43400725275E+02  0.00000000000E+00 0.  1.
         11    1    4    4    0    0  0.12609543413E+02  0.14631572067E+02  0.10673325095E+02  0.22068152507E+02  0.51100000000E-03 0. -1.
        -11    1    4    4    0    0  0.15069140510E+02  0.60765228219E+01  0.13489707288E+02  0.21118127955E+02  0.51100000000E-03 0.  1.
        -12    1    4    4    0    0  0.20567857984E+01 -0.34129118436E+01  0.23001767617E+01  0.46009942630E+01  0.00000000000E+00 0.  1.
</event>
<event>
 8    1  0.4042158E-011  0.9118800E+02  0.7816164E-02  0.1184000E+00
        -11   -1    0    0    0    0  0.00000000000E+00  0.00000000000E+00  0.45593999997E+02  0.45594000000E+02  0.51100000000E-03 0.  1.
         11   -1    0    0    0    0 -0.00000000000E+00 -0.00000000000E+00 -0.45593999997E+02  0.45594000000E+02  0.51100000000E-03 0. -1.
         23    2    1    2    0    0  0.35527136788E-14  0.00000000000E+00  0.00000000000E+00  0.91188000000E+02  0.91188000000E+02 0.  0.
    9900012    2    3    3    0    0  0.20553415503E+02 -0.34085809213E+02 -0.17301424206E+02  0.47787256250E+02  0.19999932544E+02 0.  0.
         12    1    3    3    0    0 -0.20553415503E+02  0.34085809213E+02  0.17301424206E+02  0.43400743750E+02  0.00000000000E+00 0. -1.
         11    1    4    4    0    0  0.60441887707E+01 -0.20074572751E+02 -0.72881095864E+01  0.22195432653E+02  0.51100000000E-03 0. -1.
        -11    1    4    4    0    0  0.12326183388E+02 -0.13376258887E+02 -0.12615643409E+02  0.22136249854E+02  0.51100000000E-03 0.  1.
         12    1    4    4    0    0  0.21830433443E+01 -0.63497757505E+00  0.26023287893E+01  0.34555737427E+01  0.00000000000E+00 0. -1.
</event>
<event>
 8    1  0.4042158E-011  0.9118800E+02  0.7816164E-02  0.1184000E+00
        -11   -1    0    0    0    0  0.00000000000E+00  0.00000000000E+00  0.45593999997E+02  0.45594000000E+02  0.51100000000E-03 0. -1.
         11   -1    0    0    0    0 -0.00000000000E+00 -0.00000000000E+00 -0.45593999997E+02  0.45594000000E+02  0.51100000000E-03 0.  1.
         23    2    1    2    0    0  0.00000000000E+00  0.00000000000E+00  0.00000000000E+00  0.91188000000E+02  0.91188000000E+02 0.  0.
    9900012    2    3    3    0    0 -0.20173306895E+02  0.24454562708E+02 -0.29641773385E+02  0.47787277913E+02  0.20000031315E+02 0.  0.
         12    1    3    3    0    0  0.20173306895E+02 -0.24454562708E+02  0.29641773385E+02  0.43400722087E+02  0.00000000000E+00 0. -1.
         11    1    4    4    0    0 -0.19493591398E+01  0.57069670074E+01 -0.13491412915E+02  0.14777946278E+02  0.51100000000E-03 0. -1.
        -11    1    4    4    0    0 -0.33627618431E+01  0.75566081240E+01 -0.10892772951E+02  0.13677097513E+02  0.51100000000E-03 0.  1.
         12    1    4    4    0    0 -0.14861185912E+02  0.11190987577E+02 -0.52575875190E+01  0.19332234122E+02  0.00000000000E+00 0. -1.
</event>
<event>
 8    1  0.4042158E-011  0.9118800E+02  0.7816164E-02  0.1184000E+00
        -11   -1    0    0    0    0  0.00000000000E+00  0.00000000000E+00  0.45593999997E+02  0.45594000000E+02  0.51100000000E-03 0. -1.
         11   -1    0    0    0    0 -0.00000000000E+00 -0.00000000000E+00 -0.45593999997E+02  0.45594000000E+02  0.51100000000E-03 0.  1.
         23    2    1    2    0    0  0.00000000000E+00  0.00000000000E+00  0.00000000000E+00  0.91188000000E+02  0.91188000000E+02 0.  0.
    9900012    2    3    3    0    0 -0.14468822940E+02 -0.39077623685E+02  0.12133262480E+02  0.47787267650E+02  0.19999984522E+02 0.  0.
        -12    1    3    3    0    0  0.14468822940E+02  0.39077623685E+02 -0.12133262480E+02  0.43400732350E+02  0.00000000000E+00 0.  1.
         11    1    4    4    0    0 -0.95528466020E+01 -0.24905756816E+02  0.12065834648E+02  0.29276918670E+02  0.51100000000E-03 0.  1.
        -11    1    4    4    0    0 -0.90719830762E-01 -0.12427031474E+02  0.27387720083E+01  0.12725573218E+02  0.51100000000E-03 0. -1.
        -12    1    4    4    0    0 -0.48252565070E+01 -0.17448353955E+01 -0.26713441763E+01  0.57847757626E+01  0.00000000000E+00 0.  1.
</event>
<event>
 8    1  0.4042158E-011  0.9118800E+02  0.7816164E-02  0.1184000E+00
        -11   -1    0    0    0    0  0.00000000000E+00  0.00000000000E+00  0.45593999997E+02  0.45594000000E+02  0.51100000000E-03 0.  1.
         11   -1    0    0    0    0 -0.00000000000E+00 -0.00000000000E+00 -0.45593999997E+02  0.45594000000E+02  0.51100000000E-03 0. -1.
         23    2    1    2    0    0  0.00000000000E+00  0.35527136788E-14  0.17763568394E-14  0.91188000000E+02  0.91188000000E+02 0.  0.
    9900012    2    3    3    0    0 -0.35332282187E+02  0.22716344328E+02  0.10918856970E+02  0.47787263811E+02  0.19999967022E+02 0.  0.
        -12    1    3    3    0    0  0.35332282187E+02 -0.22716344328E+02 -0.10918856970E+02  0.43400736189E+02  0.00000000000E+00 0.  1.
         11    1    4    4    0    0 -0.99227247011E+01  0.68429751208E+01  0.45709595914E+00  0.12062160295E+02  0.51100000000E-03 0. -1.
        -11    1    4    4    0    0 -0.12410778831E+02 -0.63058663450E+00  0.74851274874E+01  0.14506970892E+02  0.51100000000E-03 0.  1.
         12    1    4    4    0    0 -0.12998778655E+02  0.16503955842E+02  0.29766335234E+01  0.21218132625E+02  0.00000000000E+00 0. -1.
</event>
<event>
 8    1  0.4042158E-011  0.9118800E+02  0.7816164E-02  0.1184000E+00
        -11   -1    0    0    0    0  0.00000000000E+00  0.00000000000E+00  0.45593999997E+02  0.45594000000E+02  0.51100000000E-03 0. -1.
         11   -1    0    0    0    0 -0.00000000000E+00 -0.00000000000E+00 -0.45593999997E+02  0.45594000000E+02  0.51100000000E-03 0.  1.
         23    2    1    2    0    0  0.00000000000E+00  0.00000000000E+00  0.00000000000E+00  0.91188000000E+02  0.91188000000E+02 0.  0.
    9900012    2    3    3    0    0 -0.14179726516E+02  0.45637803115E+01 -0.40764326843E+02  0.47787273304E+02  0.20000010300E+02 0.  0.
         12    1    3    3    0    0  0.14179726516E+02 -0.45637803115E+01  0.40764326843E+02  0.43400726696E+02  0.00000000000E+00 0. -1.
         11    1    4    4    0    0 -0.11052128154E-01  0.24919683641E+01  0.36180720886E-02  0.24919955515E+01  0.51100000000E-03 0. -1.
        -11    1    4    4    0    0 -0.65635982751E+01  0.77838617212E+01 -0.22621056423E+02  0.24806884520E+02  0.51100000000E-03 0.  1.
        -12    1    4    4    0    0 -0.76050761129E+01 -0.57120497738E+01 -0.18146888492E+02  0.20488393232E+02  0.00000000000E+00 0.  1.
</event>
<event>
 8    1  0.4042158E-011  0.9118800E+02  0.7816164E-02  0.1184000E+00
        -11   -1    0    0    0    0  0.00000000000E+00  0.00000000000E+00  0.45593999997E+02  0.45594000000E+02  0.51100000000E-03 0.  1.
         11   -1    0    0    0    0 -0.00000000000E+00 -0.00000000000E+00 -0.45593999997E+02  0.45594000000E+02  0.51100000000E-03 0. -1.
         23    2    1    2    0    0  0.17763568394E-14 -0.71054273576E-14  0.35527136788E-14  0.91188000000E+02  0.91188000000E+02 0.  0.
    9900012    2    3    3    0    0 -0.10625799537E+02 -0.38698703261E+02  0.16526542761E+02  0.47787264228E+02  0.19999968921E+02 0.  0.
        -12    1    3    3    0    0  0.10625799537E+02  0.38698703261E+02 -0.16526542761E+02  0.43400735772E+02  0.00000000000E+00 0.  1.
         11    1    4    4    0    0 -0.85771856171E+01 -0.20669658793E+02  0.10021341133E+02  0.24519995638E+02  0.51100000000E-03 0. -1.
        -11    1    4    4    0    0 -0.32278978207E+01 -0.18921604318E+02  0.83247787558E+01  0.20922437140E+02  0.51100000000E-03 0.  1.
         12    1    4    4    0    0  0.11792839011E+01  0.89255984902E+00 -0.18195771278E+01  0.23448314497E+01  0.00000000000E+00 0. -1.
</event>
<event>
 8    1  0.4452657E-011  0.9118800E+02  0.7816164E-02  0.1184000E+00
        -11   -1    0    0    0    0  0.00000000000E+00  0.00000000000E+00  0.45593999997E+02  0.45594000000E+02  0.51100000000E-03 0. -1.
         11   -1    0    0    0    0 -0.00000000000E+00 -0.00000000000E+00 -0.45593999997E+02  0.45594000000E+02  0.51100000000E-03 0.  1.
         23    2    1    2    0    0  0.00000000000E+00  0.00000000000E+00  0.00000000000E+00  0.91188000000E+02  0.91188000000E+02 0.  0.
    9900012    2    3    3    0    0  0.47126281580E+01 -0.13774921402E+02  0.40886011376E+02  0.47787271319E+02  0.20000001251E+02 0.  0.
        -12    1    3    3    0    0 -0.47126281580E+01  0.13774921402E+02 -0.40886011376E+02  0.43400728681E+02  0.00000000000E+00 0.  1.
         11    1    4    4    0    0 -0.43912394969E+01 -0.73431052759E+01  0.17633528110E+02  0.19599629927E+02  0.51100000000E-03 0. -1.
        -11    1    4    4    0    0  0.35089585642E+01 -0.45243522464E+01  0.21153867987E+02  0.21915033300E+02  0.51100000000E-03 0.  1.
        -12    1    4    4    0    0  0.55949090907E+01 -0.19074638802E+01  0.20986152793E+01  0.62726080922E+01  0.00000000000E+00 0.  1.
</event>
<event>
 8    1  0.4042158E-011  0.9118800E+02  0.7816164E-02  0.1184000E+00
        -11   -1    0    0    0    0  0.00000000000E+00  0.00000000000E+00  0.45593999997E+02  0.45594000000E+02  0.51100000000E-03 0. -1.
         11   -1    0    0    0    0 -0.00000000000E+00 -0.00000000000E+00 -0.45593999997E+02  0.45594000000E+02  0.51100000000E-03 0.  1.
         23    2    1    2    0    0 -0.17763568394E-14  0.00000000000E+00  0.00000000000E+00  0.91188000000E+02  0.91188000000E+02 0.  0.
    9900012    2    3    3    0    0  0.14081917319E+02 -0.27928881208E+02 -0.30088218191E+02  0.47787266425E+02  0.19999978939E+02 0.  0.
         12    1    3    3    0    0 -0.14081917319E+02  0.27928881208E+02  0.30088218191E+02  0.43400733575E+02  0.00000000000E+00 0. -1.
         11    1    4    4    0    0  0.17494802644E+01 -0.43503383664E+01 -0.84304648430E+01  0.96467021737E+01  0.51100000000E-03 0.  1.
        -11    1    4    4    0    0  0.14852501449E+02 -0.10972472178E+02 -0.14042800962E+02  0.23198969893E+02  0.51100000000E-03 0. -1.
         12    1    4    4    0    0 -0.25200643940E+01 -0.12606070663E+02 -0.76149523862E+01  0.14941594358E+02  0.00000000000E+00 0. -1.
</event>
<event>
 8    1  0.4042158E-011  0.9118800E+02  0.7816164E-02  0.1184000E+00
        -11   -1    0    0    0    0  0.00000000000E+00  0.00000000000E+00  0.45593999997E+02  0.45594000000E+02  0.51100000000E-03 0. -1.
         11   -1    0    0    0    0 -0.00000000000E+00 -0.00000000000E+00 -0.45593999997E+02  0.45594000000E+02  0.51100000000E-03 0.  1.
         23    2    1    2    0    0 -0.17763568394E-14  0.17763568394E-14  0.71054273576E-14  0.91188000000E+02  0.91188000000E+02 0.  0.
    9900012    2    3    3    0    0  0.11329065378E+02 -0.14001556650E+02  0.39487112339E+02  0.47787270146E+02  0.19999995905E+02 0.  0.
        -12    1    3    3    0    0 -0.11329065378E+02  0.14001556650E+02 -0.39487112339E+02  0.43400729854E+02  0.00000000000E+00 0.  1.
         11    1    4    4    0    0  0.54549950543E+01 -0.28547353150E+01  0.20469169454E+02  0.21375064518E+02  0.51100000000E-03 0. -1.
        -11    1    4    4    0    0 -0.79932217668E+00 -0.11781560590E+01  0.12839966374E+02  0.12918657221E+02  0.51100000000E-03 0.  1.
        -12    1    4    4    0    0  0.66733925001E+01 -0.99686652760E+01  0.61779765105E+01  0.13493548407E+02  0.00000000000E+00 0.  1.
</event>
<event>
 8    1  0.4042158E-011  0.9118800E+02  0.7816164E-02  0.1184000E+00
        -11   -1    0    0    0    0  0.00000000000E+00  0.00000000000E+00  0.45593999997E+02  0.45594000000E+02  0.51100000000E-03 0. -1.
         11   -1    0    0    0    0 -0.00000000000E+00 -0.00000000000E+00 -0.45593999997E+02  0.45594000000E+02  0.51100000000E-03 0.  1.
         23    2    1    2    0    0 -0.55511151231E-16  0.22204460493E-15  0.00000000000E+00  0.91188000000E+02  0.91188000000E+02 0.  0.
    9900012    2    3    3    0    0 -0.29462313466E+00 -0.12387530379E+01  0.43382042665E+02  0.47787274918E+02  0.20000017662E+02 0.  0.
        -12    1    3    3    0    0  0.29462313466E+00  0.12387530379E+01 -0.43382042665E+02  0.43400725082E+02  0.00000000000E+00 0.  1.
         11    1    4    4    0    0 -0.16956900319E+00  0.80675878320E+01  0.21194557723E+02  0.22678712583E+02  0.51100000000E-03 0. -1.
        -11    1    4    4    0    0 -0.52231533971E+00 -0.11163744924E+01 -0.21636331917E+00  0.12513667202E+01  0.51100000000E-03 0.  1.
         12    1    4    4    0    0  0.39726120824E+00 -0.81899663775E+01  0.22403848261E+02  0.23857195615E+02  0.00000000000E+00 0. -1.
</event>
<event>
 8    1  0.4042158E-011  0.9118800E+02  0.7816164E-02  0.1184000E+00
        -11   -1    0    0    0    0  0.00000000000E+00  0.00000000000E+00  0.45593999997E+02  0.45594000000E+02  0.51100000000E-03 0. -1.
         11   -1    0    0    0    0 -0.00000000000E+00 -0.00000000000E+00 -0.45593999997E+02  0.45594000000E+02  0.51100000000E-03 0.  1.
         23    2    1    2    0    0 -0.44408920985E-15  0.17763568394E-14  0.00000000000E+00  0.91188000000E+02  0.91188000000E+02 0.  0.
    9900012    2    3    3    0    0 -0.31530054593E+01 -0.13110679486E+02  0.41252782769E+02  0.47787269059E+02  0.19999990947E+02 0.  0.
        -12    1    3    3    0    0  0.31530054593E+01  0.13110679486E+02 -0.41252782769E+02  0.43400730941E+02  0.00000000000E+00 0.  1.
         11    1    4    4    0    0 -0.21278433868E+01 -0.24608094003E+00  0.10384759413E+02  0.10603372182E+02  0.51100000000E-03 0. -1.
        -11    1    4    4    0    0 -0.40531166421E+01  0.19991954477E+01  0.29080422363E+01  0.53741275443E+01  0.51100000000E-03 0.  1.
        -12    1    4    4    0    0  0.30279545695E+01 -0.14863793993E+02  0.27959981120E+02  0.31809769333E+02  0.00000000000E+00 0.  1.
</event>
<event>
 8    1  0.4726093E-011  0.9118800E+02  0.7816164E-02  0.1184000E+00
        -11   -1    0    0    0    0  0.00000000000E+00  0.00000000000E+00  0.45593999997E+02  0.45594000000E+02  0.51100000000E-03 0. -1.
         11   -1    0    0    0    0 -0.00000000000E+00 -0.00000000000E+00 -0.45593999997E+02  0.45594000000E+02  0.51100000000E-03 0.  1.
         23    2    1    2    0    0  0.17763568394E-14  0.71054273576E-14  0.00000000000E+00  0.91188000000E+02  0.91188000000E+02 0.  0.
    9900012    2    3    3    0    0 -0.14263933220E+02 -0.35614611948E+02  0.20291956715E+02  0.47787264034E+02  0.19999968035E+02 0.  0.
        -12    1    3    3    0    0  0.14263933220E+02  0.35614611948E+02 -0.20291956715E+02  0.43400735966E+02  0.00000000000E+00 0.  1.
         11    1    4    4    0    0  0.57233081925E+00 -0.12078156231E+02  0.18371591665E+01  0.12230477283E+02  0.51100000000E-03 0. -1.
        -11    1    4    4    0    0 -0.27527629387E+01 -0.15174563146E+02  0.70579200325E+01  0.16960521982E+02  0.51100000000E-03 0.  1.
        -12    1    4    4    0    0 -0.12083501101E+02 -0.83618925704E+01  0.11396877516E+02  0.18596264768E+02  0.00000000000E+00 0.  1.
</event>
<event>
 8    1  0.5086373E-011  0.9118800E+02  0.7816164E-02  0.1184000E+00
        -11   -1    0    0    0    0  0.00000000000E+00  0.00000000000E+00  0.45593999997E+02  0.45594000000E+02  0.51100000000E-03 0. -1.
         11   -1    0    0    0    0 -0.00000000000E+00 -0.00000000000E+00 -0.45593999997E+02  0.45594000000E+02  0.51100000000E-03 0.  1.
         23    2    1    2    0    0  0.00000000000E+00  0.00000000000E+00  0.00000000000E+00  0.91188000000E+02  0.91188000000E+02 0.  0.
    9900012    2    3    3    0    0 -0.54443334929E+01 -0.37565598986E+02  0.21043012479E+02  0.47787269954E+02  0.19999995027E+02 0.  0.
        -12    1    3    3    0    0  0.54443334929E+01  0.37565598986E+02 -0.21043012479E+02  0.43400730046E+02  0.00000000000E+00 0.  1.
         11    1    4    4    0    0 -0.35577952939E+01 -0.16928963987E+02  0.14539685136E+02  0.22597570071E+02  0.51100000000E-03 0. -1.
        -11    1    4    4    0    0  0.24839638230E+01 -0.53737861459E+01  0.71715253528E+01  0.92993779342E+01  0.51100000000E-03 0.  1.
        -12    1    4    4    0    0 -0.43705020219E+01 -0.15262848853E+02 -0.66819800913E+00  0.15890321948E+02  0.00000000000E+00 0.  1.
</event>
<event>
 8    1  0.4042158E-011  0.9118800E+02  0.7816164E-02  0.1184000E+00
        -11   -1    0    0    0    0  0.00000000000E+00  0.00000000000E+00  0.45593999997E+02  0.45594000000E+02  0.51100000000E-03 0. -1.
         11   -1    0    0    0    0 -0.00000000000E+00 -0.00000000000E+00 -0.45593999997E+02  0.45594000000E+02  0.51100000000E-03 0.  1.
         23    2    1    2    0    0  0.00000000000E+00  0.49960036108E-15  0.00000000000E+00  0.91188000000E+02  0.91188000000E+02 0.  0.
    9900012    2    3    3    0    0 -0.10342720576E+02 -0.16197529210E+00 -0.42150031644E+02  0.47787271060E+02  0.20000000071E+02 0.  0.
         12    1    3    3    0    0  0.10342720576E+02  0.16197529210E+00  0.42150031644E+02  0.43400728940E+02  0.00000000000E+00 0. -1.
         11    1    4    4    0    0 -0.14442304125E+01  0.40829529353E+01 -0.49753281373E+01  0.65962259279E+01  0.51100000000E-03 0. -1.
        -11    1    4    4    0    0 -0.40495233318E+01 -0.12234813949E+01 -0.71974519839E+00  0.42911046772E+01  0.51100000000E-03 0.  1.
         12    1    4    4    0    0 -0.48489668317E+01 -0.30214468325E+01 -0.36454958309E+02  0.36899940455E+02  0.00000000000E+00 0. -1.
</event>
<event>
 8    1  0.4042158E-011  0.9118800E+02  0.7816164E-02  0.1184000E+00
        -11   -1    0    0    0    0  0.00000000000E+00  0.00000000000E+00  0.45593999997E+02  0.45594000000E+02  0.51100000000E-03 0. -1.
         11   -1    0    0    0    0 -0.00000000000E+00 -0.00000000000E+00 -0.45593999997E+02  0.45594000000E+02  0.51100000000E-03 0.  1.
         23    2    1    2    0    0  0.00000000000E+00 -0.17763568394E-14  0.71054273576E-14  0.91188000000E+02  0.91188000000E+02 0.  0.
    9900012    2    3    3    0    0 -0.33874433001E+01  0.11890611358E+02 -0.41602423531E+02  0.47787273575E+02  0.20000011538E+02 0.  0.
         12    1    3    3    0    0  0.33874433001E+01 -0.11890611358E+02  0.41602423531E+02  0.43400726425E+02  0.00000000000E+00 0. -1.
         11    1    4    4    0    0 -0.13233962177E+01  0.16091032043E+00 -0.24423279448E+02  0.24459637139E+02  0.51100000000E-03 0. -1.
        -11    1    4    4    0    0 -0.45888371702E+01  0.10463694075E+02 -0.17019103129E+02  0.20498687564E+02  0.51100000000E-03 0.  1.
        -12    1    4    4    0    0  0.25247900878E+01  0.12660069628E+01 -0.16004095361E+00  0.28289488727E+01  0.00000000000E+00 0.  1.
</event>
<event>
 8    1  0.4042158E-011  0.9118800E+02  0.7816164E-02  0.1184000E+00
        -11   -1    0    0    0    0  0.00000000000E+00  0.00000000000E+00  0.45593999997E+02  0.45594000000E+02  0.51100000000E-03 0. -1.
         11   -1    0    0    0    0 -0.00000000000E+00 -0.00000000000E+00 -0.45593999997E+02  0.45594000000E+02  0.51100000000E-03 0.  1.
         23    2    1    2    0    0  0.00000000000E+00  0.00000000000E+00  0.00000000000E+00  0.91188000000E+02  0.91188000000E+02 0.  0.
    9900012    2    3    3    0    0 -0.23461041469E+01 -0.72353039041E+01 -0.42729022668E+02  0.47787271833E+02  0.20000003595E+02 0.  0.
         12    1    3    3    0    0  0.23461041469E+01  0.72353039041E+01  0.42729022668E+02  0.43400728167E+02  0.00000000000E+00 0. -1.
         11    1    4    4    0    0 -0.61458457506E+01 -0.46845164637E+01 -0.84263629810E+01  0.11433271966E+02  0.51100000000E-03 0. -1.
        -11    1    4    4    0    0 -0.12610172046E+01  0.28043884808E+01 -0.33960851579E+01  0.45812829865E+01  0.51100000000E-03 0.  1.
        -12    1    4    4    0    0  0.50607588082E+01 -0.53551759212E+01 -0.30906574529E+02  0.31772716881E+02  0.00000000000E+00 0.  1.
</event>
<event>
 8    1  0.4042158E-011  0.9118800E+02  0.7816164E-02  0.1184000E+00
        -11   -1    0    0    0    0  0.00000000000E+00  0.00000000000E+00  0.45593999997E+02  0.45594000000E+02  0.51100000000E-03 0. -1.
         11   -1    0    0    0    0 -0.00000000000E+00 -0.00000000000E+00 -0.45593999997E+02  0.45594000000E+02  0.51100000000E-03 0.  1.
         23    2    1    2    0    0  0.00000000000E+00  0.44408920985E-15  0.00000000000E+00  0.91188000000E+02  0.91188000000E+02 0.  0.
    9900012    2    3    3    0    0 -0.28416282410E+02 -0.20112486612E+01  0.32742823342E+02  0.47787277568E+02  0.20000029742E+02 0.  0.
        -12    1    3    3    0    0  0.28416282410E+02  0.20112486612E+01 -0.32742823342E+02  0.43400722432E+02  0.00000000000E+00 0.  1.
         11    1    4    4    0    0 -0.14020276961E+02  0.45679117257E+01  0.98230170156E+01  0.17717947035E+02  0.51100000000E-03 0. -1.
        -11    1    4    4    0    0 -0.11291888733E+01  0.78095102711E+00 -0.10314485587E+01  0.17172182182E+01  0.51100000000E-03 0.  1.
         12    1    4    4    0    0 -0.13266816576E+02 -0.73601114140E+01  0.23951254886E+02  0.28352112314E+02  0.00000000000E+00 0. -1.
</event>
<event>
 8    1  0.4042158E-011  0.9118800E+02  0.7816164E-02  0.1184000E+00
        -11   -1    0    0    0    0  0.00000000000E+00  0.00000000000E+00  0.45593999997E+02  0.45594000000E+02  0.51100000000E-03 0.  1.
         11   -1    0    0    0    0 -0.00000000000E+00 -0.00000000000E+00 -0.45593999997E+02  0.45594000000E+02  0.51100000000E-03 0. -1.
         23    2    1    2    0    0  0.00000000000E+00  0.00000000000E+00  0.17763568394E-14  0.91188000000E+02  0.91188000000E+02 0.  0.
    9900012    2    3    3    0    0  0.38431606421E+02  0.17995772376E+02 -0.90987713458E+01  0.47787264574E+02  0.19999970499E+02 0.  0.
        -12    1    3    3    0    0 -0.38431606421E+02 -0.17995772376E+02  0.90987713458E+01  0.43400735426E+02  0.00000000000E+00 0.  1.
         11    1    4    4    0    0  0.26864433759E+02  0.16580728950E+02 -0.62227991155E+01  0.32176724550E+02  0.51100000000E-03 0. -1.
        -11    1    4    4    0    0  0.97485737224E+01  0.35922394083E+01 -0.54920065709E+01  0.11751638610E+02  0.51100000000E-03 0.  1.
        -12    1    4    4    0    0  0.18185989401E+01 -0.21771959822E+01  0.26160343405E+01  0.38589014137E+01  0.00000000000E+00 0.  1.
</event>
<event>
 8    1  0.4042158E-011  0.9118800E+02  0.7816164E-02  0.1184000E+00
        -11   -1    0    0    0    0  0.00000000000E+00  0.00000000000E+00  0.45593999997E+02  0.45594000000E+02  0.51100000000E-03 0. -1.
         11   -1    0    0    0    0 -0.00000000000E+00 -0.00000000000E+00 -0.45593999997E+02  0.45594000000E+02  0.51100000000E-03 0.  1.
         23    2    1    2    0    0  0.00000000000E+00  0.00000000000E+00  0.00000000000E+00  0.91188000000E+02  0.91188000000E+02 0.  0.
    9900012    2    3    3    0    0  0.14289519865E+02  0.16689652783E+02  0.37428441935E+02  0.47787272429E+02  0.20000006314E+02 0.  0.
        -12    1    3    3    0    0 -0.14289519865E+02 -0.16689652783E+02 -0.37428441935E+02  0.43400727571E+02  0.00000000000E+00 0.  1.
         11    1    4    4    0    0  0.77037946234E+01  0.30678859245E+01  0.49979206621E+01  0.96819206179E+01  0.51100000000E-03 0.  1.
        -11    1    4    4    0    0  0.30927133058E+01  0.62705951409E+01  0.30672606687E+01  0.76350066984E+01  0.51100000000E-03 0. -1.
         12    1    4    4    0    0  0.34930119355E+01  0.73511717179E+01  0.29363260604E+02  0.30470345113E+02  0.00000000000E+00 0. -1.
</event>
<event>
 8    1  0.4042158E-011  0.9118800E+02  0.7816164E-02  0.1184000E+00
        -11   -1    0    0    0    0  0.00000000000E+00  0.00000000000E+00  0.45593999997E+02  0.45594000000E+02  0.51100000000E-03 0. -1.
         11   -1    0    0    0    0 -0.00000000000E+00 -0.00000000000E+00 -0.45593999997E+02  0.45594000000E+02  0.51100000000E-03 0.  1.
         23    2    1    2    0    0  0.00000000000E+00  0.00000000000E+00  0.00000000000E+00  0.91188000000E+02  0.91188000000E+02 0.  0.
    9900012    2    3    3    0    0  0.33395127281E+02 -0.14939260395E+02  0.23349669113E+02  0.47787273336E+02  0.20000010449E+02 0.  0.
        -12    1    3    3    0    0 -0.33395127281E+02  0.14939260395E+02 -0.23349669113E+02  0.43400726664E+02  0.00000000000E+00 0.  1.
         11    1    4    4    0    0  0.10459551086E+02 -0.34038911688E+01  0.35518670247E+01  0.11558738843E+02  0.51100000000E-03 0. -1.
        -11    1    4    4    0    0  0.71117914294E+01 -0.12602956818E+02  0.89862578137E+01  0.17034228120E+02  0.51100000000E-03 0.  1.
         12    1    4    4    0    0  0.15823784765E+02  0.10675875910E+01  0.10811544274E+02  0.19194306374E+02  0.00000000000E+00 0. -1.
</event>
<event>
 8    1  0.4042158E-011  0.9118800E+02  0.7816164E-02  0.1184000E+00
        -11   -1    0    0    0    0  0.00000000000E+00  0.00000000000E+00  0.45593999997E+02  0.45594000000E+02  0.51100000000E-03 0. -1.
         11   -1    0    0    0    0 -0.00000000000E+00 -0.00000000000E+00 -0.45593999997E+02  0.45594000000E+02  0.51100000000E-03 0.  1.
         23    2    1    2    0    0  0.00000000000E+00 -0.35527136788E-14  0.00000000000E+00  0.91188000000E+02  0.91188000000E+02 0.  0.
    9900012    2    3    3    0    0  0.92453781957E+01 -0.30056893577E+02 -0.29912020715E+02  0.47787275896E+02  0.20000022120E+02 0.  0.
         12    1    3    3    0    0 -0.92453781957E+01  0.30056893577E+02  0.29912020715E+02  0.43400724104E+02  0.00000000000E+00 0. -1.
         11    1    4    4    0    0  0.20907685259E+01 -0.16119605725E+02 -0.94142125410E+01  0.18784046417E+02  0.51100000000E-03 0. -1.
        -11    1    4    4    0    0  0.23430434710E+01 -0.64607548343E+01 -0.23601330589E+00  0.68765477005E+01  0.51100000000E-03 0.  1.
        -12    1    4    4    0    0  0.48115661988E+01 -0.74765330175E+01 -0.20261794868E+02  0.22126681778E+02  0.00000000000E+00 0.  1.
</event>
<event>
 8    1  0.4042158E-011  0.9118800E+02  0.7816164E-02  0.1184000E+00
        -11   -1    0    0    0    0  0.00000000000E+00  0.00000000000E+00  0.45593999997E+02  0.45594000000E+02  0.51100000000E-03 0. -1.
         11   -1    0    0    0    0 -0.00000000000E+00 -0.00000000000E+00 -0.45593999997E+02  0.45594000000E+02  0.51100000000E-03 0.  1.
         23    2    1    2    0    0  0.00000000000E+00  0.35527136788E-14  0.17763568394E-14  0.91188000000E+02  0.91188000000E+02 0.  0.
    9900012    2    3    3    0    0  0.28164620465E+02  0.31139683842E+02  0.10986211915E+02  0.47787278716E+02  0.20000034979E+02 0.  0.
        -12    1    3    3    0    0 -0.28164620465E+02 -0.31139683842E+02 -0.10986211915E+02  0.43400721284E+02  0.00000000000E+00 0.  1.
         11    1    4    4    0    0 -0.10805465883E+01  0.16522594661E+01  0.38900372456E+01  0.43623310634E+01  0.51100000000E-03 0. -1.
        -11    1    4    4    0    0  0.50423631270E+01  0.50128194304E+00  0.50960238997E+00  0.50927796289E+01  0.51100000000E-03 0.  1.
         12    1    4    4    0    0  0.24202803926E+02  0.28986142433E+02  0.65865722796E+01  0.38332168024E+02  0.00000000000E+00 0. -1.
</event>
<event>
 8    1  0.4042158E-011  0.9118800E+02  0.7816164E-02  0.1184000E+00
        -11   -1    0    0    0    0  0.00000000000E+00  0.00000000000E+00  0.45593999997E+02  0.45594000000E+02  0.51100000000E-03 0. -1.
         11   -1    0    0    0    0 -0.00000000000E+00 -0.00000000000E+00 -0.45593999997E+02  0.45594000000E+02  0.51100000000E-03 0.  1.
         23    2    1    2    0    0  0.35527136788E-14 -0.17763568394E-14  0.00000000000E+00  0.91188000000E+02  0.91188000000E+02 0.  0.
    9900012    2    3    3    0    0  0.24823417560E+02 -0.11013462119E+02 -0.33854455383E+02  0.47787279310E+02  0.20000037684E+02 0.  0.
         12    1    3    3    0    0 -0.24823417560E+02  0.11013462119E+02  0.33854455383E+02  0.43400720690E+02  0.00000000000E+00 0. -1.
         11    1    4    4    0    0  0.11120197732E+02 -0.84340161420E+01 -0.66551379887E+01  0.15462285982E+02  0.51100000000E-03 0. -1.
        -11    1    4    4    0    0  0.64147400253E+01 -0.26427632290E+01 -0.40015094753E+01  0.80090676997E+01  0.51100000000E-03 0.  1.
        -12    1    4    4    0    0  0.72884798031E+01  0.63317252290E-01 -0.23197807919E+02  0.24315925628E+02  0.00000000000E+00 0.  1.
</event>
<event>
 8    1  0.4042158E-011  0.9118800E+02  0.7816164E-02  0.1184000E+00
        -11   -1    0    0    0    0  0.00000000000E+00  0.00000000000E+00  0.45593999997E+02  0.45594000000E+02  0.51100000000E-03 0. -1.
         11   -1    0    0    0    0 -0.00000000000E+00 -0.00000000000E+00 -0.45593999997E+02  0.45594000000E+02  0.51100000000E-03 0.  1.
         23    2    1    2    0    0  0.00000000000E+00  0.00000000000E+00  0.00000000000E+00  0.91188000000E+02  0.91188000000E+02 0.  0.
    9900012    2    3    3    0    0 -0.60610077945E+01 -0.10275722960E+02  0.41728850623E+02  0.47787271065E+02  0.20000000092E+02 0.  0.
        -12    1    3    3    0    0  0.60610077945E+01  0.10275722960E+02 -0.41728850623E+02  0.43400728935E+02  0.00000000000E+00 0.  1.
         11    1    4    4    0    0 -0.52604293804E+01 -0.39469563174E+01  0.18852917468E+02  0.19967049826E+02  0.51100000000E-03 0. -1.
        -11    1    4    4    0    0 -0.53348974670E+01  0.23243006711E+01  0.62735697350E+01  0.85569376575E+01  0.51100000000E-03 0.  1.
         12    1    4    4    0    0  0.45343190530E+01 -0.86530673138E+01  0.16602363420E+02  0.19263283581E+02  0.00000000000E+00 0. -1.
</event>
<event>
 8    1  0.4042158E-011  0.9118800E+02  0.7816164E-02  0.1184000E+00
        -11   -1    0    0    0    0  0.00000000000E+00  0.00000000000E+00  0.45593999997E+02  0.45594000000E+02  0.51100000000E-03 0. -1.
         11   -1    0    0    0    0 -0.00000000000E+00 -0.00000000000E+00 -0.45593999997E+02  0.45594000000E+02  0.51100000000E-03 0.  1.
         23    2    1    2    0    0  0.00000000000E+00  0.88817841970E-15  0.00000000000E+00  0.91188000000E+02  0.91188000000E+02 0.  0.
    9900012    2    3    3    0    0  0.34243349766E+02  0.29454164968E+01 -0.26501713020E+02  0.47787271037E+02  0.19999999965E+02 0.  0.
         12    1    3    3    0    0 -0.34243349766E+02 -0.29454164968E+01  0.26501713020E+02  0.43400728963E+02  0.00000000000E+00 0. -1.
         11    1    4    4    0    0  0.99384015567E+01 -0.25486112848E+01 -0.36451959276E+01  0.10888282628E+02  0.51100000000E-03 0. -1.
        -11    1    4    4    0    0  0.16804957623E+01 -0.40417155937E+01 -0.41610363696E+01  0.60393505344E+01  0.51100000000E-03 0.  1.
         12    1    4    4    0    0  0.22624452447E+02  0.95357433752E+01 -0.18695480723E+02  0.30859637874E+02  0.00000000000E+00 0. -1.
</event>
<event>
 8    1  0.4042158E-011  0.9118800E+02  0.7816164E-02  0.1184000E+00
        -11   -1    0    0    0    0  0.00000000000E+00  0.00000000000E+00  0.45593999997E+02  0.45594000000E+02  0.51100000000E-03 0.  1.
         11   -1    0    0    0    0 -0.00000000000E+00 -0.00000000000E+00 -0.45593999997E+02  0.45594000000E+02  0.51100000000E-03 0. -1.
         23    2    1    2    0    0  0.00000000000E+00 -0.17763568394E-14 -0.88817841970E-15  0.91188000000E+02  0.91188000000E+02 0.  0.
    9900012    2    3    3    0    0 -0.41279673965E+02  0.12607180226E+02  0.45465013397E+01  0.47787272467E+02  0.20000006487E+02 0.  0.
         12    1    3    3    0    0  0.41279673965E+02 -0.12607180226E+02 -0.45465013397E+01  0.43400727533E+02  0.00000000000E+00 0. -1.
         11    1    4    4    0    0 -0.16174511384E+02  0.76249033305E+01  0.48371441412E+01  0.18524360530E+02  0.51100000000E-03 0. -1.
        -11    1    4    4    0    0 -0.18247451182E+02  0.71998608940E+01  0.50929497266E+01  0.20266859863E+02  0.51100000000E-03 0.  1.
         12    1    4    4    0    0 -0.68577113990E+01 -0.22175839981E+01 -0.53835925281E+01  0.89960520746E+01  0.00000000000E+00 0. -1.
</event>
<event>
 8    1  0.4042158E-011  0.9118800E+02  0.7816164E-02  0.1184000E+00
        -11   -1    0    0    0    0  0.00000000000E+00  0.00000000000E+00  0.45593999997E+02  0.45594000000E+02  0.51100000000E-03 0. -1.
         11   -1    0    0    0    0 -0.00000000000E+00 -0.00000000000E+00 -0.45593999997E+02  0.45594000000E+02  0.51100000000E-03 0.  1.
         23    2    1    2    0    0  0.35527136788E-14  0.00000000000E+00  0.35527136788E-14  0.91188000000E+02  0.91188000000E+02 0.  0.
    9900012    2    3    3    0    0  0.19505546344E+02 -0.26045201707E+02 -0.28719412317E+02  0.47787268279E+02  0.19999987390E+02 0.  0.
         12    1    3    3    0    0 -0.19505546344E+02  0.26045201707E+02  0.28719412317E+02  0.43400731721E+02  0.00000000000E+00 0. -1.
         11    1    4    4    0    0  0.35086084122E+01 -0.55853750942E+01 -0.10737283140E+01  0.66827868952E+01  0.51100000000E-03 0. -1.
        -11    1    4    4    0    0  0.10350604758E+01 -0.61295228004E+01  0.40845277423E+00  0.62297057619E+01  0.51100000000E-03 0.  1.
        -12    1    4    4    0    0  0.14961877456E+02 -0.14330303813E+02 -0.28054136777E+02  0.34874775622E+02  0.00000000000E+00 0.  1.
</event>
<event>
 8    1  0.4042158E-011  0.9118800E+02  0.7816164E-02  0.1184000E+00
        -11   -1    0    0    0    0  0.00000000000E+00  0.00000000000E+00  0.45593999997E+02  0.45594000000E+02  0.51100000000E-03 0. -1.
         11   -1    0    0    0    0 -0.00000000000E+00 -0.00000000000E+00 -0.45593999997E+02  0.45594000000E+02  0.51100000000E-03 0.  1.
         23    2    1    2    0    0  0.00000000000E+00  0.00000000000E+00 -0.88817841970E-15  0.91188000000E+02  0.91188000000E+02 0.  0.
    9900012    2    3    3    0    0 -0.42364114427E+02 -0.81014164699E+01  0.48241081244E+01  0.47787272366E+02  0.20000006024E+02 0.  0.
        -12    1    3    3    0    0  0.42364114427E+02  0.81014164699E+01 -0.48241081244E+01  0.43400727634E+02  0.00000000000E+00 0.  1.
         11    1    4    4    0    0 -0.11155250439E+02 -0.33165815707E+01 -0.25403070029E+01  0.11911863229E+02  0.51100000000E-03 0. -1.
        -11    1    4    4    0    0 -0.17164466840E+02  0.48898468162E+01  0.18072268299E+01  0.17938661959E+02  0.51100000000E-03 0.  1.
         12    1    4    4    0    0 -0.14044397148E+02 -0.96746817154E+01  0.55571882974E+01  0.17936747178E+02  0.00000000000E+00 0. -1.
</event>
<event>
 8    1  0.4042158E-011  0.9118800E+02  0.7816164E-02  0.1184000E+00
        -11   -1    0    0    0    0  0.00000000000E+00  0.00000000000E+00  0.45593999997E+02  0.45594000000E+02  0.51100000000E-03 0. -1.
         11   -1    0    0    0    0 -0.00000000000E+00 -0.00000000000E+00 -0.45593999997E+02  0.45594000000E+02  0.51100000000E-03 0.  1.
         23    2    1    2    0    0  0.00000000000E+00  0.00000000000E+00  0.00000000000E+00  0.91188000000E+02  0.91188000000E+02 0.  0.
    9900012    2    3    3    0    0  0.15338490608E+02 -0.31798242821E+02  0.25243327453E+02  0.47787272799E+02  0.20000008001E+02 0.  0.
        -12    1    3    3    0    0 -0.15338490608E+02  0.31798242821E+02 -0.25243327453E+02  0.43400727201E+02  0.00000000000E+00 0.  1.
         11    1    4    4    0    0 -0.53251508825E+00  0.11952174154E+00  0.38523017317E-02  0.54577730556E+00  0.51100000000E-03 0.  1.
        -11    1    4    4    0    0 -0.17195067839E+01  0.11237979895E+01  0.32010264118E+01  0.38034452607E+01  0.51100000000E-03 0. -1.
         12    1    4    4    0    0  0.17590512480E+02 -0.33041562552E+02  0.22038448739E+02  0.43438050233E+02  0.00000000000E+00 0. -1.
</event>
<event>
 8    1  0.4042158E-011  0.9118800E+02  0.7816164E-02  0.1184000E+00
        -11   -1    0    0    0    0  0.00000000000E+00  0.00000000000E+00  0.45593999997E+02  0.45594000000E+02  0.51100000000E-03 0. -1.
         11   -1    0    0    0    0 -0.00000000000E+00 -0.00000000000E+00 -0.45593999997E+02  0.45594000000E+02  0.51100000000E-03 0.  1.
         23    2    1    2    0    0  0.00000000000E+00 -0.35527136788E-14  0.00000000000E+00  0.91188000000E+02  0.91188000000E+02 0.  0.
    9900012    2    3    3    0    0 -0.90428366162E+01 -0.17709513562E+02 -0.38577501105E+02  0.47787270097E+02  0.19999995679E+02 0.  0.
         12    1    3    3    0    0  0.90428366162E+01  0.17709513562E+02  0.38577501105E+02  0.43400729903E+02  0.00000000000E+00 0. -1.
         11    1    4    4    0    0 -0.33230536706E+01 -0.10010425514E+02 -0.29251882002E+02  0.31095400071E+02  0.51100000000E-03 0. -1.
        -11    1    4    4    0    0 -0.75201975225E+01 -0.53532483810E+01 -0.10051377966E+02  0.13647008400E+02  0.51100000000E-03 0.  1.
         12    1    4    4    0    0  0.18004145769E+01 -0.23458396666E+01  0.72575886301E+00  0.30448616253E+01  0.00000000000E+00 0. -1.
</event>
<event>
 8    1  0.4042158E-011  0.9118800E+02  0.7816164E-02  0.1184000E+00
        -11   -1    0    0    0    0  0.00000000000E+00  0.00000000000E+00  0.45593999997E+02  0.45594000000E+02  0.51100000000E-03 0.  1.
         11   -1    0    0    0    0 -0.00000000000E+00 -0.00000000000E+00 -0.45593999997E+02  0.45594000000E+02  0.51100000000E-03 0. -1.
         23    2    1    2    0    0 -0.22204460493E-15  0.00000000000E+00  0.00000000000E+00  0.91188000000E+02  0.91188000000E+02 0.  0.
    9900012    2    3    3    0    0 -0.14029352741E+01 -0.22578613774E+02 -0.37038637638E+02  0.47787277593E+02  0.20000029857E+02 0.  0.
         12    1    3    3    0    0  0.14029352741E+01  0.22578613774E+02  0.37038637638E+02  0.43400722407E+02  0.00000000000E+00 0. -1.
         11    1    4    4    0    0  0.51354435173E+00 -0.33791276180E+01  0.61835250738E+00  0.34734120608E+01  0.51100000000E-03 0.  1.
        -11    1    4    4    0    0  0.25924770617E+01  0.50421389700E+00 -0.79921239684E+01  0.84171975595E+01  0.51100000000E-03 0. -1.
        -12    1    4    4    0    0 -0.45089566875E+01 -0.19703700053E+02 -0.29664866177E+02  0.35896667972E+02  0.00000000000E+00 0.  1.
</event>
<event>
 8    1  0.4042158E-011  0.9118800E+02  0.7816164E-02  0.1184000E+00
        -11   -1    0    0    0    0  0.00000000000E+00  0.00000000000E+00  0.45593999997E+02  0.45594000000E+02  0.51100000000E-03 0. -1.
         11   -1    0    0    0    0 -0.00000000000E+00 -0.00000000000E+00 -0.45593999997E+02  0.45594000000E+02  0.51100000000E-03 0.  1.
         23    2    1    2    0    0 -0.88817841970E-15  0.00000000000E+00 -0.71054273576E-14  0.91188000000E+02  0.91188000000E+02 0.  0.
    9900012    2    3    3    0    0 -0.75366745105E+01 -0.40867473527E+01 -0.42545509630E+02  0.47787270095E+02  0.19999995670E+02 0.  0.
         12    1    3    3    0    0  0.75366745105E+01  0.40867473527E+01  0.42545509630E+02  0.43400729905E+02  0.00000000000E+00 0. -1.
         11    1    4    4    0    0 -0.54563857651E+01  0.33612901159E+00 -0.38693597791E+01  0.66975423620E+01  0.51100000000E-03 0. -1.
        -11    1    4    4    0    0 -0.32914868766E+01  0.40598472366E+01 -0.16844197201E+02  0.17636417580E+02  0.51100000000E-03 0.  1.
        -12    1    4    4    0    0  0.12111981312E+01 -0.84827236010E+01 -0.21831952650E+02  0.23453310153E+02  0.00000000000E+00 0.  1.
</event>
<event>
 8    1  0.4042158E-011  0.9118800E+02  0.7816164E-02  0.1184000E+00
        -11   -1    0    0    0    0  0.00000000000E+00  0.00000000000E+00  0.45593999997E+02  0.45594000000E+02  0.51100000000E-03 0.  1.
         11   -1    0    0    0    0 -0.00000000000E+00 -0.00000000000E+00 -0.45593999997E+02  0.45594000000E+02  0.51100000000E-03 0. -1.
         23    2    1    2    0    0 -0.35527136788E-14  0.00000000000E+00 -0.17763568394E-14  0.91188000000E+02  0.91188000000E+02 0.  0.
    9900012    2    3    3    0    0  0.25558904949E+02 -0.32501184729E+02  0.13192348400E+02  0.47787277802E+02  0.20000030813E+02 0.  0.
         12    1    3    3    0    0 -0.25558904949E+02  0.32501184729E+02 -0.13192348400E+02  0.43400722198E+02  0.00000000000E+00 0. -1.
         11    1    4    4    0    0  0.14052434616E+02 -0.10422543862E+02  0.10263138284E+02  0.20283795179E+02  0.51100000000E-03 0. -1.
        -11    1    4    4    0    0  0.12548873620E+02 -0.13573818505E+02  0.11958322946E+00  0.18486132054E+02  0.51100000000E-03 0.  1.
         12    1    4    4    0    0 -0.10424032873E+01 -0.85048223630E+01  0.28096268863E+01  0.90173505687E+01  0.00000000000E+00 0. -1.
</event>
<event>
 8    1  0.4042158E-011  0.9118800E+02  0.7816164E-02  0.1184000E+00
        -11   -1    0    0    0    0  0.00000000000E+00  0.00000000000E+00  0.45593999997E+02  0.45594000000E+02  0.51100000000E-03 0. -1.
         11   -1    0    0    0    0 -0.00000000000E+00 -0.00000000000E+00 -0.45593999997E+02  0.45594000000E+02  0.51100000000E-03 0.  1.
         23    2    1    2    0    0  0.00000000000E+00 -0.88817841970E-15  0.35527136788E-14  0.91188000000E+02  0.91188000000E+02 0.  0.
    9900012    2    3    3    0    0 -0.35328513266E+02  0.61985439206E+01  0.24435579131E+02  0.47787270469E+02  0.19999997377E+02 0.  0.
        -12    1    3    3    0    0  0.35328513266E+02 -0.61985439206E+01 -0.24435579131E+02  0.43400729531E+02  0.00000000000E+00 0.  1.
         11    1    4    4    0    0 -0.18070697615E+02  0.84099178590E+01  0.14848618934E+02  0.24854744320E+02  0.51100000000E-03 0. -1.
        -11    1    4    4    0    0 -0.32946628203E+01  0.40471008404E+01  0.42389733656E+01  0.67232970904E+01  0.51100000000E-03 0.  1.
        -12    1    4    4    0    0 -0.13963152831E+02 -0.62584747788E+01  0.53479868310E+01  0.16209229059E+02  0.00000000000E+00 0.  1.
</event>
<event>
 8    1  0.4042158E-011  0.9118800E+02  0.7816164E-02  0.1184000E+00
        -11   -1    0    0    0    0  0.00000000000E+00  0.00000000000E+00  0.45593999997E+02  0.45594000000E+02  0.51100000000E-03 0. -1.
         11   -1    0    0    0    0 -0.00000000000E+00 -0.00000000000E+00 -0.45593999997E+02  0.45594000000E+02  0.51100000000E-03 0.  1.
         23    2    1    2    0    0  0.71054273576E-14  0.00000000000E+00  0.00000000000E+00  0.91188000000E+02  0.91188000000E+02 0.  0.
    9900012    2    3    3    0    0  0.21853887377E+02  0.80497312459E+01 -0.36622844549E+02  0.47787270634E+02  0.19999998130E+02 0.  0.
         12    1    3    3    0    0 -0.21853887377E+02 -0.80497312459E+01  0.36622844549E+02  0.43400729366E+02  0.00000000000E+00 0. -1.
         11    1    4    4    0    0  0.10495829071E+02  0.11468438604E+02 -0.17183831586E+02  0.23172647241E+02  0.51100000000E-03 0. -1.
        -11    1    4    4    0    0  0.95928574599E+01  0.71277296320E+00 -0.16921621306E+02  0.19464640439E+02  0.51100000000E-03 0.  1.
         12    1    4    4    0    0  0.17652008459E+01 -0.41314803216E+01 -0.25173916570E+01  0.51499829542E+01  0.00000000000E+00 0. -1.
</event>
<event>
 8    1  0.4042158E-011  0.9118800E+02  0.7816164E-02  0.1184000E+00
        -11   -1    0    0    0    0  0.00000000000E+00  0.00000000000E+00  0.45593999997E+02  0.45594000000E+02  0.51100000000E-03 0. -1.
         11   -1    0    0    0    0 -0.00000000000E+00 -0.00000000000E+00 -0.45593999997E+02  0.45594000000E+02  0.51100000000E-03 0.  1.
         23    2    1    2    0    0  0.35527136788E-14 -0.71054273576E-14  0.00000000000E+00  0.91188000000E+02  0.91188000000E+02 0.  0.
    9900012    2    3    3    0    0 -0.20564746824E+02  0.35827158290E+02  0.13308993937E+02  0.47787269561E+02  0.19999993235E+02 0.  0.
        -12    1    3    3    0    0  0.20564746824E+02 -0.35827158290E+02 -0.13308993937E+02  0.43400730439E+02  0.00000000000E+00 0.  1.
         11    1    4    4    0    0  0.86678565368E+00  0.42742961921E+01 -0.14182685563E+01  0.45861106905E+01  0.51100000000E-03 0. -1.
        -11    1    4    4    0    0 -0.61636573344E+01  0.43385254546E+01 -0.19967635866E+01  0.77974700986E+01  0.51100000000E-03 0.  1.
         12    1    4    4    0    0 -0.15267875143E+02  0.27214336643E+02  0.16724026079E+02  0.35403688772E+02  0.00000000000E+00 0. -1.
</event>
<event>
 8    1  0.4042158E-011  0.9118800E+02  0.7816164E-02  0.1184000E+00
        -11   -1    0    0    0    0  0.00000000000E+00  0.00000000000E+00  0.45593999997E+02  0.45594000000E+02  0.51100000000E-03 0. -1.
         11   -1    0    0    0    0 -0.00000000000E+00 -0.00000000000E+00 -0.45593999997E+02  0.45594000000E+02  0.51100000000E-03 0.  1.
         23    2    1    2    0    0  0.00000000000E+00  0.55511151231E-16  0.00000000000E+00  0.91188000000E+02  0.91188000000E+02 0.  0.
    9900012    2    3    3    0    0 -0.24158621476E+02 -0.46516749757E+00 -0.36052296071E+02  0.47787269310E+02  0.19999992092E+02 0.  0.
         12    1    3    3    0    0  0.24158621476E+02  0.46516749757E+00  0.36052296071E+02  0.43400730690E+02  0.00000000000E+00 0. -1.
         11    1    4    4    0    0 -0.12467679538E+02 -0.29497260608E+01 -0.82768622155E+01  0.15252880557E+02  0.51100000000E-03 0. -1.
        -11    1    4    4    0    0 -0.10166613023E+02  0.19099746923E+01 -0.90685025475E+01  0.13756662473E+02  0.51100000000E-03 0.  1.
         12    1    4    4    0    0 -0.15243289149E+01  0.57458387089E+00 -0.18706931308E+02  0.18777726280E+02  0.00000000000E+00 0. -1.
</event>
<event>
 8    1  0.4042158E-011  0.9118800E+02  0.7816164E-02  0.1184000E+00
        -11   -1    0    0    0    0  0.00000000000E+00  0.00000000000E+00  0.45593999997E+02  0.45594000000E+02  0.51100000000E-03 0. -1.
         11   -1    0    0    0    0 -0.00000000000E+00 -0.00000000000E+00 -0.45593999997E+02  0.45594000000E+02  0.51100000000E-03 0.  1.
         23    2    1    2    0    0  0.26645352591E-14 -0.88817841970E-15  0.00000000000E+00  0.91188000000E+02  0.91188000000E+02 0.  0.
    9900012    2    3    3    0    0  0.54828939319E+01  0.64630278104E+01  0.42565130500E+02  0.47787272024E+02  0.20000004466E+02 0.  0.
        -12    1    3    3    0    0 -0.54828939319E+01 -0.64630278104E+01 -0.42565130500E+02  0.43400727976E+02  0.00000000000E+00 0.  1.
         11    1    4    4    0    0  0.37080555897E+01 -0.18064398879E+01  0.11561260508E+02  0.12275000860E+02  0.51100000000E-03 0. -1.
        -11    1    4    4    0    0  0.47278716000E+01 -0.17804716748E+01  0.36823743619E+01  0.62516182268E+01  0.51100000000E-03 0.  1.
        -12    1    4    4    0    0 -0.29530332578E+01  0.10049939373E+02  0.27321495630E+02  0.29260652937E+02  0.00000000000E+00 0.  1.
</event>
<event>
 8    1  0.4952286E-011  0.9118800E+02  0.7816164E-02  0.1184000E+00
        -11   -1    0    0    0    0  0.00000000000E+00  0.00000000000E+00  0.45593999997E+02  0.45594000000E+02  0.51100000000E-03 0. -1.
         11   -1    0    0    0    0 -0.00000000000E+00 -0.00000000000E+00 -0.45593999997E+02  0.45594000000E+02  0.51100000000E-03 0.  1.
         23    2    1    2    0    0 -0.66613381478E-15  0.00000000000E+00  0.71054273576E-14  0.91188000000E+02  0.91188000000E+02 0.  0.
    9900012    2    3    3    0    0  0.17650034047E+01  0.14793935298E+01  0.43339583334E+02  0.47787270446E+02  0.19999997271E+02 0.  0.
        -12    1    3    3    0    0 -0.17650034047E+01 -0.14793935298E+01 -0.43339583334E+02  0.43400729554E+02  0.00000000000E+00 0.  1.
         11    1    4    4    0    0  0.37045485838E+01  0.53933232033E+00  0.21163981707E+02  0.21492526179E+02  0.51100000000E-03 0. -1.
        -11    1    4    4    0    0  0.44260075530E+01  0.47840277948E+01  0.12442611277E+02  0.14046175296E+02  0.51100000000E-03 0.  1.
        -12    1    4    4    0    0 -0.63655527321E+01 -0.38439665853E+01  0.97329903496E+01  0.12248568971E+02  0.00000000000E+00 0.  1.
</event>
<event>
 8    1  0.4042158E-011  0.9118800E+02  0.7816164E-02  0.1184000E+00
        -11   -1    0    0    0    0  0.00000000000E+00  0.00000000000E+00  0.45593999997E+02  0.45594000000E+02  0.51100000000E-03 0. -1.
         11   -1    0    0    0    0 -0.00000000000E+00 -0.00000000000E+00 -0.45593999997E+02  0.45594000000E+02  0.51100000000E-03 0.  1.
         23    2    1    2    0    0 -0.71054273576E-14  0.88817841970E-15  0.00000000000E+00  0.91188000000E+02  0.91188000000E+02 0.  0.
    9900012    2    3    3    0    0  0.40002981494E+02 -0.45365009050E+01 -0.16211211324E+02  0.47787288698E+02  0.20000080490E+02 0.  0.
         12    1    3    3    0    0 -0.40002981494E+02  0.45365009050E+01  0.16211211324E+02  0.43400711302E+02  0.00000000000E+00 0. -1.
         11    1    4    4    0    0  0.40405100916E+01 -0.28171940005E+01 -0.53034017824E+00  0.49541462234E+01  0.51100000000E-03 0. -1.
        -11    1    4    4    0    0  0.22426447433E+02 -0.36252607210E+00 -0.18338636158E+02  0.28972099441E+02  0.51100000000E-03 0.  1.
        -12    1    4    4    0    0  0.13536023969E+02 -0.13567808324E+01  0.26577650113E+01  0.13861043034E+02  0.00000000000E+00 0.  1.
</event>
<event>
 8    1  0.4042158E-011  0.9118800E+02  0.7816164E-02  0.1184000E+00
        -11   -1    0    0    0    0  0.00000000000E+00  0.00000000000E+00  0.45593999997E+02  0.45594000000E+02  0.51100000000E-03 0. -1.
         11   -1    0    0    0    0 -0.00000000000E+00 -0.00000000000E+00 -0.45593999997E+02  0.45594000000E+02  0.51100000000E-03 0.  1.
         23    2    1    2    0    0  0.00000000000E+00  0.00000000000E+00  0.00000000000E+00  0.91188000000E+02  0.91188000000E+02 0.  0.
    9900012    2    3    3    0    0  0.18267273327E+02  0.21656985544E+02  0.32877119274E+02  0.47787271096E+02  0.20000000234E+02 0.  0.
        -12    1    3    3    0    0 -0.18267273327E+02 -0.21656985544E+02 -0.32877119274E+02  0.43400728904E+02  0.00000000000E+00 0.  1.
         11    1    4    4    0    0  0.11468161659E+01  0.12370258096E+01  0.12698224140E+02  0.12809774266E+02  0.51100000000E-03 0. -1.
        -11    1    4    4    0    0  0.79802015740E+01  0.24722622413E+01  0.47889656008E+01  0.96296360024E+01  0.51100000000E-03 0.  1.
         12    1    4    4    0    0  0.91402555868E+01  0.17947697493E+02  0.15389929534E+02  0.25347860828E+02  0.00000000000E+00 0. -1.
</event>
<event>
 8    1  0.4042158E-011  0.9118800E+02  0.7816164E-02  0.1184000E+00
        -11   -1    0    0    0    0  0.00000000000E+00  0.00000000000E+00  0.45593999997E+02  0.45594000000E+02  0.51100000000E-03 0. -1.
         11   -1    0    0    0    0 -0.00000000000E+00 -0.00000000000E+00 -0.45593999997E+02  0.45594000000E+02  0.51100000000E-03 0.  1.
         23    2    1    2    0    0  0.22204460493E-15  0.00000000000E+00  0.00000000000E+00  0.91188000000E+02  0.91188000000E+02 0.  0.
    9900012    2    3    3    0    0 -0.17518940964E+01 -0.11722134350E+02 -0.41750988752E+02  0.47787278480E+02  0.20000033903E+02 0.  0.
         12    1    3    3    0    0  0.17518940964E+01  0.11722134350E+02  0.41750988752E+02  0.43400721520E+02  0.00000000000E+00 0. -1.
         11    1    4    4    0    0  0.16283246210E+01  0.31453248018E+01 -0.34239658780E+01  0.49262614400E+01  0.51100000000E-03 0. -1.
        -11    1    4    4    0    0 -0.30271052298E+01 -0.13040526462E+01 -0.18776936458E+02  0.19064030591E+02  0.51100000000E-03 0.  1.
         12    1    4    4    0    0 -0.35311348762E+00 -0.13563406506E+02 -0.19550086417E+02  0.23796986449E+02  0.00000000000E+00 0. -1.
</event>
<event>
 8    1  0.4042158E-011  0.9118800E+02  0.7816164E-02  0.1184000E+00
        -11   -1    0    0    0    0  0.00000000000E+00  0.00000000000E+00  0.45593999997E+02  0.45594000000E+02  0.51100000000E-03 0. -1.
         11   -1    0    0    0    0 -0.00000000000E+00 -0.00000000000E+00 -0.45593999997E+02  0.45594000000E+02  0.51100000000E-03 0.  1.
         23    2    1    2    0    0  0.71054273576E-14  0.22204460493E-15  0.00000000000E+00  0.91188000000E+02  0.91188000000E+02 0.  0.
    9900012    2    3    3    0    0  0.40315550139E+02 -0.18183733911E+01  0.15967739030E+02  0.47787323110E+02  0.20000237386E+02 0.  0.
        -12    1    3    3    0    0 -0.40315550139E+02  0.18183733911E+01 -0.15967739030E+02  0.43400676890E+02  0.00000000000E+00 0.  1.
         11    1    4    4    0    0  0.50727767095E-01 -0.75670412093E+00 -0.17510859297E+00  0.77835577562E+00  0.51100000000E-03 0.  1.
        -11    1    4    4    0    0  0.39973756194E+02 -0.27479038383E+01  0.18470164812E+02  0.44120280464E+02  0.51100000000E-03 0. -1.
         12    1    4    4    0    0  0.29106617766E+00  0.16862345681E+01 -0.23273171888E+01  0.28886868705E+01  0.00000000000E+00 0. -1.
</event>
<event>
 8    1  0.4042158E-011  0.9118800E+02  0.7816164E-02  0.1184000E+00
        -11   -1    0    0    0    0  0.00000000000E+00  0.00000000000E+00  0.45593999997E+02  0.45594000000E+02  0.51100000000E-03 0. -1.
         11   -1    0    0    0    0 -0.00000000000E+00 -0.00000000000E+00 -0.45593999997E+02  0.45594000000E+02  0.51100000000E-03 0.  1.
         23    2    1    2    0    0  0.44408920985E-15  0.00000000000E+00  0.00000000000E+00  0.91188000000E+02  0.91188000000E+02 0.  0.
    9900012    2    3    3    0    0  0.21997102009E+01 -0.37039855526E+02  0.22512954456E+02  0.47787277187E+02  0.20000028008E+02 0.  0.
        -12    1    3    3    0    0 -0.21997102009E+01  0.37039855526E+02 -0.22512954456E+02  0.43400722813E+02  0.00000000000E+00 0.  1.
         11    1    4    4    0    0  0.49124349219E+01 -0.52159999271E+01  0.35916209842E+01  0.80148870021E+01  0.51100000000E-03 0. -1.
        -11    1    4    4    0    0 -0.15238786816E+01 -0.10319776639E+02  0.14374400363E+02  0.17760725835E+02  0.51100000000E-03 0.  1.
         12    1    4    4    0    0 -0.11888460394E+01 -0.21504078959E+02  0.45469331087E+01  0.22011664351E+02  0.00000000000E+00 0. -1.
</event>
<event>
 8    1  0.4042158E-011  0.9118800E+02  0.7816164E-02  0.1184000E+00
        -11   -1    0    0    0    0  0.00000000000E+00  0.00000000000E+00  0.45593999997E+02  0.45594000000E+02  0.51100000000E-03 0. -1.
         11   -1    0    0    0    0 -0.00000000000E+00 -0.00000000000E+00 -0.45593999997E+02  0.45594000000E+02  0.51100000000E-03 0.  1.
         23    2    1    2    0    0  0.00000000000E+00 -0.17763568394E-14  0.00000000000E+00  0.91188000000E+02  0.91188000000E+02 0.  0.
    9900012    2    3    3    0    0  0.26894475890E+02 -0.14974623633E+02 -0.30595278182E+02  0.47787271511E+02  0.20000002126E+02 0.  0.
         12    1    3    3    0    0 -0.26894475890E+02  0.14974623633E+02  0.30595278182E+02  0.43400728489E+02  0.00000000000E+00 0. -1.
         11    1    4    4    0    0 -0.27108826280E+01 -0.19165927198E+01 -0.34161041509E+01  0.47636099869E+01  0.51100000000E-03 0. -1.
        -11    1    4    4    0    0  0.10326087682E+02 -0.86786475407E+01 -0.12608615318E+02  0.18464132540E+02  0.51100000000E-03 0.  1.
        -12    1    4    4    0    0  0.19279270836E+02 -0.43793833722E+01 -0.14570558713E+02  0.24559528984E+02  0.00000000000E+00 0.  1.
</event>
<event>
 8    1  0.4042158E-011  0.9118800E+02  0.7816164E-02  0.1184000E+00
        -11   -1    0    0    0    0  0.00000000000E+00  0.00000000000E+00  0.45593999997E+02  0.45594000000E+02  0.51100000000E-03 0. -1.
         11   -1    0    0    0    0 -0.00000000000E+00 -0.00000000000E+00 -0.45593999997E+02  0.45594000000E+02  0.51100000000E-03 0.  1.
         23    2    1    2    0    0  0.00000000000E+00  0.00000000000E+00  0.00000000000E+00  0.91188000000E+02  0.91188000000E+02 0.  0.
    9900012    2    3    3    0    0 -0.72252513819E+01  0.77085647423E+01  0.42095102277E+02  0.47787264250E+02  0.19999969023E+02 0.  0.
        -12    1    3    3    0    0  0.72252513819E+01 -0.77085647423E+01 -0.42095102277E+02  0.43400735750E+02  0.00000000000E+00 0.  1.
         11    1    4    4    0    0  0.11064687549E+01 -0.17550033856E+01  0.52397314964E+01  0.56355209523E+01  0.51100000000E-03 0. -1.
        -11    1    4    4    0    0  0.38132281695E-01  0.96159068850E+01  0.93948654983E+01  0.13443608789E+02  0.51100000000E-03 0.  1.
         12    1    4    4    0    0 -0.83698524185E+01 -0.15233875708E+00  0.27460505282E+02  0.28708134509E+02  0.00000000000E+00 0. -1.
</event>
<event>
 8    1  0.4042158E-011  0.9118800E+02  0.7816164E-02  0.1184000E+00
        -11   -1    0    0    0    0  0.00000000000E+00  0.00000000000E+00  0.45593999997E+02  0.45594000000E+02  0.51100000000E-03 0. -1.
         11   -1    0    0    0    0 -0.00000000000E+00 -0.00000000000E+00 -0.45593999997E+02  0.45594000000E+02  0.51100000000E-03 0.  1.
         23    2    1    2    0    0  0.00000000000E+00 -0.17763568394E-14  0.00000000000E+00  0.91188000000E+02  0.91188000000E+02 0.  0.
    9900012    2    3    3    0    0  0.18956668187E+02  0.10482905851E+02 -0.37608199367E+02  0.47787271394E+02  0.20000001596E+02 0.  0.
         12    1    3    3    0    0 -0.18956668187E+02 -0.10482905851E+02  0.37608199367E+02  0.43400728606E+02  0.00000000000E+00 0. -1.
         11    1    4    4    0    0  0.56058192479E+01 -0.50452546758E+00 -0.22216428621E+01  0.60510703728E+01  0.51100000000E-03 0. -1.
        -11    1    4    4    0    0  0.30629895636E+00  0.75345506389E+01 -0.69259177566E+01  0.10238730850E+02  0.51100000000E-03 0.  1.
        -12    1    4    4    0    0  0.13044549983E+02  0.34528806795E+01 -0.28460638749E+02  0.31497470172E+02  0.00000000000E+00 0.  1.
</event>
<event>
 8    1  0.4042158E-011  0.9118800E+02  0.7816164E-02  0.1184000E+00
        -11   -1    0    0    0    0  0.00000000000E+00  0.00000000000E+00  0.45593999997E+02  0.45594000000E+02  0.51100000000E-03 0. -1.
         11   -1    0    0    0    0 -0.00000000000E+00 -0.00000000000E+00 -0.45593999997E+02  0.45594000000E+02  0.51100000000E-03 0.  1.
         23    2    1    2    0    0 -0.35527136788E-14  0.17763568394E-14  0.00000000000E+00  0.91188000000E+02  0.91188000000E+02 0.  0.
    9900012    2    3    3    0    0 -0.29648360106E+02  0.12512120772E+02  0.29121210087E+02  0.47787270742E+02  0.19999998619E+02 0.  0.
        -12    1    3    3    0    0  0.29648360106E+02 -0.12512120772E+02 -0.29121210087E+02  0.43400729258E+02  0.00000000000E+00 0.  1.
         11    1    4    4    0    0 -0.86934375189E+01  0.48216936061E+01  0.27320056548E+01  0.10309628523E+02  0.51100000000E-03 0. -1.
        -11    1    4    4    0    0 -0.17042900639E+01  0.71483259229E+01  0.69734012453E+01  0.10130720276E+02  0.51100000000E-03 0.  1.
         12    1    4    4    0    0 -0.19250632524E+02  0.54210124309E+00  0.19415803187E+02  0.27346921942E+02  0.00000000000E+00 0. -1.
</event>
<event>
 8    1  0.4042158E-011  0.9118800E+02  0.7816164E-02  0.1184000E+00
        -11   -1    0    0    0    0  0.00000000000E+00  0.00000000000E+00  0.45593999997E+02  0.45594000000E+02  0.51100000000E-03 0. -1.
         11   -1    0    0    0    0 -0.00000000000E+00 -0.00000000000E+00 -0.45593999997E+02  0.45594000000E+02  0.51100000000E-03 0.  1.
         23    2    1    2    0    0  0.00000000000E+00  0.00000000000E+00 -0.71054273576E-14  0.91188000000E+02  0.91188000000E+02 0.  0.
    9900012    2    3    3    0    0 -0.15504381926E+02  0.34993490284E+02 -0.20461999061E+02  0.47787266980E+02  0.19999981468E+02 0.  0.
         12    1    3    3    0    0  0.15504381926E+02 -0.34993490284E+02  0.20461999061E+02  0.43400733020E+02  0.00000000000E+00 0. -1.
         11    1    4    4    0    0 -0.75296748522E+01  0.25907166279E+02 -0.11214440786E+02  0.29217134535E+02  0.51100000000E-03 0. -1.
        -11    1    4    4    0    0 -0.25231155944E+01  0.87933005812E+01 -0.93890056707E+01  0.13108839581E+02  0.51100000000E-03 0.  1.
         12    1    4    4    0    0 -0.54515914793E+01  0.29302342305E+00  0.14144739607E+00  0.54612928643E+01  0.00000000000E+00 0. -1.
</event>
<event>
 8    1  0.4042158E-011  0.9118800E+02  0.7816164E-02  0.1184000E+00
        -11   -1    0    0    0    0  0.00000000000E+00  0.00000000000E+00  0.45593999997E+02  0.45594000000E+02  0.51100000000E-03 0. -1.
         11   -1    0    0    0    0 -0.00000000000E+00 -0.00000000000E+00 -0.45593999997E+02  0.45594000000E+02  0.51100000000E-03 0.  1.
         23    2    1    2    0    0  0.00000000000E+00  0.71054273576E-14  0.00000000000E+00  0.91188000000E+02  0.91188000000E+02 0.  0.
    9900012    2    3    3    0    0  0.21121769154E+02  0.33288175941E+02  0.18149148610E+02  0.47787269764E+02  0.19999994164E+02 0.  0.
        -12    1    3    3    0    0 -0.21121769154E+02 -0.33288175941E+02 -0.18149148610E+02  0.43400730236E+02  0.00000000000E+00 0.  1.
         11    1    4    4    0    0  0.41573393665E+01  0.28675326568E+01  0.10434771604E+01  0.51570397508E+01  0.51100000000E-03 0. -1.
        -11    1    4    4    0    0  0.56052863981E+01  0.88171203278E+01 -0.31496229540E+01  0.10912422806E+02  0.51100000000E-03 0.  1.
         12    1    4    4    0    0  0.11359143390E+02  0.21603522956E+02  0.20255294404E+02  0.31717807208E+02  0.00000000000E+00 0. -1.
</event>
<event>
 8    1  0.4042158E-011  0.9118800E+02  0.7816164E-02  0.1184000E+00
        -11   -1    0    0    0    0  0.00000000000E+00  0.00000000000E+00  0.45593999997E+02  0.45594000000E+02  0.51100000000E-03 0.  1.
         11   -1    0    0    0    0 -0.00000000000E+00 -0.00000000000E+00 -0.45593999997E+02  0.45594000000E+02  0.51100000000E-03 0. -1.
         23    2    1    2    0    0 -0.88817841970E-15  0.00000000000E+00  0.71054273576E-14  0.91188000000E+02  0.91188000000E+02 0.  0.
    9900012    2    3    3    0    0 -0.52609852610E+01  0.18197749573E+02 -0.39048525415E+02  0.47787269677E+02  0.19999993766E+02 0.  0.
         12    1    3    3    0    0  0.52609852610E+01 -0.18197749573E+02  0.39048525415E+02  0.43400730323E+02  0.00000000000E+00 0. -1.
         11    1    4    4    0    0  0.24327348194E+01  0.82004914792E+01 -0.15851668110E+02  0.18012263637E+02  0.51100000000E-03 0. -1.
        -11    1    4    4    0    0  0.70651860040E+00  0.97824958312E+01 -0.15711422545E+02  0.18521479203E+02  0.51100000000E-03 0.  1.
        -12    1    4    4    0    0 -0.84002386808E+01  0.21476226260E+00 -0.74854347611E+01  0.11253526838E+02  0.00000000000E+00 0.  1.
</event>
<event>
 8    1  0.4042158E-011  0.9118800E+02  0.7816164E-02  0.1184000E+00
        -11   -1    0    0    0    0  0.00000000000E+00  0.00000000000E+00  0.45593999997E+02  0.45594000000E+02  0.51100000000E-03 0. -1.
         11   -1    0    0    0    0 -0.00000000000E+00 -0.00000000000E+00 -0.45593999997E+02  0.45594000000E+02  0.51100000000E-03 0.  1.
         23    2    1    2    0    0 -0.35527136788E-14  0.88817841970E-15 -0.71054273576E-14  0.91188000000E+02  0.91188000000E+02 0.  0.
    9900012    2    3    3    0    0 -0.19338801275E+02  0.51356818328E+01 -0.38513098335E+02  0.47787271826E+02  0.20000003563E+02 0.  0.
         12    1    3    3    0    0  0.19338801275E+02 -0.51356818328E+01  0.38513098335E+02  0.43400728174E+02  0.00000000000E+00 0. -1.
         11    1    4    4    0    0 -0.17943990114E+02 -0.27312623572E+01 -0.17691908047E+02  0.25346601072E+02  0.51100000000E-03 0. -1.
        -11    1    4    4    0    0 -0.15286127764E+01  0.22847156755E+01 -0.78991250964E+01  0.83637766762E+01  0.51100000000E-03 0.  1.
         12    1    4    4    0    0  0.13380161525E+00  0.55822285144E+01 -0.12922065192E+02  0.14076894078E+02  0.00000000000E+00 0. -1.
</event>
<event>
 8    1  0.4042158E-011  0.9118800E+02  0.7816164E-02  0.1184000E+00
        -11   -1    0    0    0    0  0.00000000000E+00  0.00000000000E+00  0.45593999997E+02  0.45594000000E+02  0.51100000000E-03 0. -1.
         11   -1    0    0    0    0 -0.00000000000E+00 -0.00000000000E+00 -0.45593999997E+02  0.45594000000E+02  0.51100000000E-03 0.  1.
         23    2    1    2    0    0  0.00000000000E+00  0.35527136788E-14  0.71054273576E-14  0.91188000000E+02  0.91188000000E+02 0.  0.
    9900012    2    3    3    0    0 -0.44285573768E+01 -0.16918292597E+02 -0.39721311324E+02  0.47787270534E+02  0.19999997674E+02 0.  0.
         12    1    3    3    0    0  0.44285573768E+01  0.16918292597E+02  0.39721311324E+02  0.43400729466E+02  0.00000000000E+00 0. -1.
         11    1    4    4    0    0 -0.34663956273E+01 -0.67695464935E+00 -0.45059638564E+01  0.57251966585E+01  0.51100000000E-03 0. -1.
        -11    1    4    4    0    0 -0.70021587895E+00 -0.14507914622E+02 -0.36884562002E+02  0.39641402641E+02  0.51100000000E-03 0.  1.
         12    1    4    4    0    0 -0.26194587054E+00 -0.17334233255E+01  0.16692145346E+01  0.24206712348E+01  0.00000000000E+00 0. -1.
</event>
<event>
 8    1  0.4042158E-011  0.9118800E+02  0.7816164E-02  0.1184000E+00
        -11   -1    0    0    0    0  0.00000000000E+00  0.00000000000E+00  0.45593999997E+02  0.45594000000E+02  0.51100000000E-03 0. -1.
         11   -1    0    0    0    0 -0.00000000000E+00 -0.00000000000E+00 -0.45593999997E+02  0.45594000000E+02  0.51100000000E-03 0.  1.
         23    2    1    2    0    0  0.00000000000E+00 -0.35527136788E-14  0.00000000000E+00  0.91188000000E+02  0.91188000000E+02 0.  0.
    9900012    2    3    3    0    0  0.29601396272E+02 -0.26730051300E+02 -0.17113887726E+02  0.47787268937E+02  0.19999990389E+02 0.  0.
         12    1    3    3    0    0 -0.29601396272E+02  0.26730051300E+02  0.17113887726E+02  0.43400731063E+02  0.00000000000E+00 0. -1.
         11    1    4    4    0    0  0.12784531959E+02 -0.14907395401E+02 -0.75957750566E+01  0.21056364691E+02  0.51100000000E-03 0. -1.
        -11    1    4    4    0    0  0.39371277523E+01 -0.10769923059E+02 -0.73692378607E+01  0.13630769771E+02  0.51100000000E-03 0.  1.
         12    1    4    4    0    0  0.12879736561E+02 -0.10527328399E+01 -0.21488748090E+01  0.13100134475E+02  0.00000000000E+00 0. -1.
</event>
<event>
 8    1  0.4042158E-011  0.9118800E+02  0.7816164E-02  0.1184000E+00
        -11   -1    0    0    0    0  0.00000000000E+00  0.00000000000E+00  0.45593999997E+02  0.45594000000E+02  0.51100000000E-03 0. -1.
         11   -1    0    0    0    0 -0.00000000000E+00 -0.00000000000E+00 -0.45593999997E+02  0.45594000000E+02  0.51100000000E-03 0.  1.
         23    2    1    2    0    0 -0.71054273576E-14 -0.22204460493E-15  0.00000000000E+00  0.91188000000E+02  0.91188000000E+02 0.  0.
    9900012    2    3    3    0    0  0.36598362348E+02  0.41395306216E+00 -0.23324060939E+02  0.47787270716E+02  0.19999998502E+02 0.  0.
         12    1    3    3    0    0 -0.36598362348E+02 -0.41395306216E+00  0.23324060939E+02  0.43400729284E+02  0.00000000000E+00 0. -1.
         11    1    4    4    0    0  0.77448993537E+01 -0.49135278423E+01 -0.19930433913E+01  0.93860771400E+01  0.51100000000E-03 0. -1.
        -11    1    4    4    0    0  0.72727645954E+01  0.19342950407E+01  0.46731587778E+00  0.75400919461E+01  0.51100000000E-03 0.  1.
        -12    1    4    4    0    0  0.21580698399E+02  0.33931858637E+01 -0.21798333425E+02  0.30861101630E+02  0.00000000000E+00 0.  1.
</event>
<event>
 8    1  0.4042158E-011  0.9118800E+02  0.7816164E-02  0.1184000E+00
        -11   -1    0    0    0    0  0.00000000000E+00  0.00000000000E+00  0.45593999997E+02  0.45594000000E+02  0.51100000000E-03 0. -1.
         11   -1    0    0    0    0 -0.00000000000E+00 -0.00000000000E+00 -0.45593999997E+02  0.45594000000E+02  0.51100000000E-03 0.  1.
         23    2    1    2    0    0 -0.88817841970E-15  0.88817841970E-15  0.00000000000E+00  0.91188000000E+02  0.91188000000E+02 0.  0.
    9900012    2    3    3    0    0 -0.78332852903E+01 -0.79953275841E+01  0.41932546951E+02  0.47787261349E+02  0.19999955795E+02 0.  0.
        -12    1    3    3    0    0  0.78332852903E+01  0.79953275841E+01 -0.41932546951E+02  0.43400738651E+02  0.00000000000E+00 0.  1.
         11    1    4    4    0    0 -0.27795035835E+01 -0.35491169643E+01  0.16828432688E+02  0.17421768520E+02  0.51100000000E-03 0. -1.
        -11    1    4    4    0    0 -0.73614138450E+01 -0.90948645846E+01  0.15178475962E+02  0.19164892601E+02  0.51100000000E-03 0.  1.
        -12    1    4    4    0    0  0.23076321382E+01  0.46486539648E+01  0.99256383014E+01  0.11200600228E+02  0.00000000000E+00 0.  1.
</event>
<event>
 8    1  0.4042158E-011  0.9118800E+02  0.7816164E-02  0.1184000E+00
        -11   -1    0    0    0    0  0.00000000000E+00  0.00000000000E+00  0.45593999997E+02  0.45594000000E+02  0.51100000000E-03 0. -1.
         11   -1    0    0    0    0 -0.00000000000E+00 -0.00000000000E+00 -0.45593999997E+02  0.45594000000E+02  0.51100000000E-03 0.  1.
         23    2    1    2    0    0  0.00000000000E+00  0.00000000000E+00  0.00000000000E+00  0.91188000000E+02  0.91188000000E+02 0.  0.
    9900012    2    3    3    0    0 -0.13182752993E+02 -0.95184285578E+01 -0.40239751623E+02  0.47787273401E+02  0.20000010742E+02 0.  0.
         12    1    3    3    0    0  0.13182752993E+02  0.95184285578E+01  0.40239751623E+02  0.43400726599E+02  0.00000000000E+00 0. -1.
         11    1    4    4    0    0 -0.51650475741E+01  0.12891196488E+01 -0.15067330443E+02  0.15980112417E+02  0.51100000000E-03 0. -1.
        -11    1    4    4    0    0 -0.57636883005E+00 -0.63669545372E+01 -0.21438408834E+02  0.22371313880E+02  0.51100000000E-03 0.  1.
         12    1    4    4    0    0 -0.74413365890E+01 -0.44405936694E+01 -0.37340123454E+01  0.94358471037E+01  0.00000000000E+00 0. -1.
</event>
<event>
 8    1  0.4042158E-011  0.9118800E+02  0.7816164E-02  0.1184000E+00
        -11   -1    0    0    0    0  0.00000000000E+00  0.00000000000E+00  0.45593999997E+02  0.45594000000E+02  0.51100000000E-03 0.  1.
         11   -1    0    0    0    0 -0.00000000000E+00 -0.00000000000E+00 -0.45593999997E+02  0.45594000000E+02  0.51100000000E-03 0. -1.
         23    2    1    2    0    0  0.00000000000E+00  0.00000000000E+00 -0.35527136788E-14  0.91188000000E+02  0.91188000000E+02 0.  0.
    9900012    2    3    3    0    0 -0.36709630231E+02 -0.95311347049E+00  0.23132626034E+02  0.47787265395E+02  0.19999974244E+02 0.  0.
        -12    1    3    3    0    0  0.36709630231E+02  0.95311347049E+00 -0.23132626034E+02  0.43400734605E+02  0.00000000000E+00 0.  1.
         11    1    4    4    0    0 -0.10706695695E+02 -0.62466558605E+01  0.57866436455E+01  0.13679886224E+02  0.51100000000E-03 0. -1.
        -11    1    4    4    0    0 -0.12109854892E+02 -0.13625735462E+01  0.13584649423E+02  0.18249599787E+02  0.51100000000E-03 0.  1.
         12    1    4    4    0    0 -0.13893079644E+02  0.66561159362E+01  0.37613329655E+01  0.15857779385E+02  0.00000000000E+00 0. -1.
</event>
<event>
 8    1 -0.4042158E-011  0.9118800E+02  0.7816164E-02  0.1184000E+00
        -11   -1    0    0    0    0  0.00000000000E+00  0.00000000000E+00  0.45593999997E+02  0.45594000000E+02  0.51100000000E-03 0. -1.
         11   -1    0    0    0    0 -0.00000000000E+00 -0.00000000000E+00 -0.45593999997E+02  0.45594000000E+02  0.51100000000E-03 0.  1.
         23    2    1    2    0    0  0.35527136788E-14  0.00000000000E+00  0.00000000000E+00  0.91188000000E+02  0.91188000000E+02 0.  0.
    9900012    2    3    3    0    0 -0.16361668666E+02 -0.11012297827E+02  0.38660688676E+02  0.47787265514E+02  0.19999974786E+02 0.  0.
        -12    1    3    3    0    0  0.16361668666E+02  0.11012297827E+02 -0.38660688676E+02  0.43400734486E+02  0.00000000000E+00 0.  1.
         11    1    4    4    0    0  0.15531756130E+01 -0.25454551300E+01  0.27330539396E+01  0.40449079596E+01  0.51100000000E-03 0.  1.
        -11    1    4    4    0    0 -0.12529823340E+02 -0.60146815700E+01  0.99341650251E+01  0.17083925261E+02  0.51100000000E-03 0. -1.
        -12    1    4    4    0    0 -0.53850209396E+01 -0.24521611267E+01  0.25993469712E+02  0.26658432294E+02  0.00000000000E+00 0.  1.
</event>
<event>
 8    1  0.4042158E-011  0.9118800E+02  0.7816164E-02  0.1184000E+00
        -11   -1    0    0    0    0  0.00000000000E+00  0.00000000000E+00  0.45593999997E+02  0.45594000000E+02  0.51100000000E-03 0. -1.
         11   -1    0    0    0    0 -0.00000000000E+00 -0.00000000000E+00 -0.45593999997E+02  0.45594000000E+02  0.51100000000E-03 0.  1.
         23    2    1    2    0    0  0.00000000000E+00  0.00000000000E+00  0.00000000000E+00  0.91188000000E+02  0.91188000000E+02 0.  0.
    9900012    2    3    3    0    0 -0.71514233601E+01  0.15592818784E+02  0.39866565915E+02  0.47787286508E+02  0.20000070506E+02 0.  0.
        -12    1    3    3    0    0  0.71514233601E+01 -0.15592818784E+02 -0.39866565915E+02  0.43400713492E+02  0.00000000000E+00 0.  1.
         11    1    4    4    0    0 -0.94469129412E+01  0.18258160235E+01  0.27072911957E+02  0.28731869594E+02  0.51100000000E-03 0.  1.
        -11    1    4    4    0    0 -0.10274659493E+00  0.35864326859E+01  0.41568736381E+01  0.54911433216E+01  0.51100000000E-03 0. -1.
        -12    1    4    4    0    0  0.23982361761E+01  0.10180570075E+02  0.86367803199E+01  0.13564273593E+02  0.00000000000E+00 0.  1.
</event>
<event>
 8    1  0.4042158E-011  0.9118800E+02  0.7816164E-02  0.1184000E+00
        -11   -1    0    0    0    0  0.00000000000E+00  0.00000000000E+00  0.45593999997E+02  0.45594000000E+02  0.51100000000E-03 0. -1.
         11   -1    0    0    0    0 -0.00000000000E+00 -0.00000000000E+00 -0.45593999997E+02  0.45594000000E+02  0.51100000000E-03 0.  1.
         23    2    1    2    0    0 -0.55511151231E-16  0.00000000000E+00  0.35527136788E-14  0.91188000000E+02  0.91188000000E+02 0.  0.
    9900012    2    3    3    0    0  0.66016817869E-01  0.36239996028E+02 -0.23880595577E+02  0.47787256741E+02  0.19999934783E+02 0.  0.
         12    1    3    3    0    0 -0.66016817869E-01 -0.36239996028E+02  0.23880595577E+02  0.43400743259E+02  0.00000000000E+00 0. -1.
         11    1    4    4    0    0 -0.57148157434E+00  0.11414057590E+02  0.72940827411E+00  0.11451608557E+02  0.51100000000E-03 0. -1.
        -11    1    4    4    0    0  0.57792995871E+00  0.22911389397E-01  0.69358700876E+00  0.90310086302E+00  0.51100000000E-03 0.  1.
        -12    1    4    4    0    0  0.59568433499E-01  0.24803027049E+02 -0.25303590860E+02  0.35432547320E+02  0.00000000000E+00 0.  1.
</event>
<event>
 8    1  0.4042158E-011  0.9118800E+02  0.7816164E-02  0.1184000E+00
        -11   -1    0    0    0    0  0.00000000000E+00  0.00000000000E+00  0.45593999997E+02  0.45594000000E+02  0.51100000000E-03 0. -1.
         11   -1    0    0    0    0 -0.00000000000E+00 -0.00000000000E+00 -0.45593999997E+02  0.45594000000E+02  0.51100000000E-03 0.  1.
         23    2    1    2    0    0  0.00000000000E+00  0.00000000000E+00  0.00000000000E+00  0.91188000000E+02  0.91188000000E+02 0.  0.
    9900012    2    3    3    0    0 -0.33410449150E+02  0.24394627624E+01 -0.27593738704E+02  0.47787268363E+02  0.19999987775E+02 0.  0.
         12    1    3    3    0    0  0.33410449150E+02 -0.24394627624E+01  0.27593738704E+02  0.43400731637E+02  0.00000000000E+00 0. -1.
         11    1    4    4    0    0 -0.33674694394E+01 -0.44369667646E+01 -0.78505458441E+01  0.96258815080E+01  0.51100000000E-03 0. -1.
        -11    1    4    4    0    0 -0.16734042853E+02  0.61755725224E-01 -0.15005463704E+02  0.22476564355E+02  0.51100000000E-03 0.  1.
         12    1    4    4    0    0 -0.13308936858E+02  0.68146738018E+01 -0.47377291557E+01  0.15684822500E+02  0.00000000000E+00 0. -1.
</event>
<event>
 8    1  0.4042158E-011  0.9118800E+02  0.7816164E-02  0.1184000E+00
        -11   -1    0    0    0    0  0.00000000000E+00  0.00000000000E+00  0.45593999997E+02  0.45594000000E+02  0.51100000000E-03 0.  1.
         11   -1    0    0    0    0 -0.00000000000E+00 -0.00000000000E+00 -0.45593999997E+02  0.45594000000E+02  0.51100000000E-03 0. -1.
         23    2    1    2    0    0  0.17763568394E-14  0.35527136788E-14  0.35527136788E-14  0.91188000000E+02  0.91188000000E+02 0.  0.
    9900012    2    3    3    0    0 -0.90762840453E+01 -0.31811423585E+02 -0.28094091940E+02  0.47787267236E+02  0.19999982635E+02 0.  0.
         12    1    3    3    0    0  0.90762840453E+01  0.31811423585E+02  0.28094091940E+02  0.43400732764E+02  0.00000000000E+00 0. -1.
         11    1    4    4    0    0 -0.16979375489E+00 -0.79882624746E+01 -0.31360011719E+01  0.85834533199E+01  0.51100000000E-03 0. -1.
        -11    1    4    4    0    0 -0.13379009114E+02 -0.20829956876E+02 -0.21641647224E+02  0.32882303495E+02  0.51100000000E-03 0.  1.
        -12    1    4    4    0    0  0.44725188241E+01 -0.29932042342E+01 -0.33164435438E+01  0.63215104206E+01  0.00000000000E+00 0.  1.
</event>
<event>
 8    1  0.4042158E-011  0.9118800E+02  0.7816164E-02  0.1184000E+00
        -11   -1    0    0    0    0  0.00000000000E+00  0.00000000000E+00  0.45593999997E+02  0.45594000000E+02  0.51100000000E-03 0. -1.
         11   -1    0    0    0    0 -0.00000000000E+00 -0.00000000000E+00 -0.45593999997E+02  0.45594000000E+02  0.51100000000E-03 0.  1.
         23    2    1    2    0    0 -0.35527136788E-14 -0.44408920985E-15  0.00000000000E+00  0.91188000000E+02  0.91188000000E+02 0.  0.
    9900012    2    3    3    0    0 -0.23662474685E+02 -0.20186787740E+01 -0.36326785260E+02  0.47787273053E+02  0.20000009157E+02 0.  0.
         12    1    3    3    0    0  0.23662474685E+02  0.20186787740E+01  0.36326785260E+02  0.43400726947E+02  0.00000000000E+00 0. -1.
         11    1    4    4    0    0 -0.30267375250E+00 -0.22208283158E+01  0.91077143903E+00  0.24193376540E+01  0.51100000000E-03 0. -1.
        -11    1    4    4    0    0 -0.10917320321E+02 -0.27618439190E+01 -0.91671342312E+01  0.14520744302E+02  0.51100000000E-03 0.  1.
         12    1    4    4    0    0 -0.12442480612E+02  0.29639934609E+01 -0.28070422468E+02  0.30847191096E+02  0.00000000000E+00 0. -1.
</event>
<event>
 8    1  0.4042158E-011  0.9118800E+02  0.7816164E-02  0.1184000E+00
        -11   -1    0    0    0    0  0.00000000000E+00  0.00000000000E+00  0.45593999997E+02  0.45594000000E+02  0.51100000000E-03 0. -1.
         11   -1    0    0    0    0 -0.00000000000E+00 -0.00000000000E+00 -0.45593999997E+02  0.45594000000E+02  0.51100000000E-03 0.  1.
         23    2    1    2    0    0  0.35527136788E-14  0.35527136788E-14  0.17763568394E-14  0.91188000000E+02  0.91188000000E+02 0.  0.
    9900012    2    3    3    0    0 -0.31980144321E+02 -0.25305517640E+02 -0.14850066254E+02  0.47787270495E+02  0.19999997493E+02 0.  0.
         12    1    3    3    0    0  0.31980144321E+02  0.25305517640E+02  0.14850066254E+02  0.43400729505E+02  0.00000000000E+00 0. -1.
         11    1    4    4    0    0  0.46603947516E+00 -0.11152742498E+01 -0.74611004462E+00  0.14204611591E+01  0.51100000000E-03 0. -1.
        -11    1    4    4    0    0 -0.32005444271E+02 -0.25139452582E+02 -0.16372910605E+02  0.43868128990E+02  0.51100000000E-03 0.  1.
        -12    1    4    4    0    0 -0.44073952578E+00  0.94920919208E+00  0.22689543957E+01  0.24986803456E+01  0.00000000000E+00 0.  1.
</event>
<event>
 8    1  0.4042158E-011  0.9118800E+02  0.7816164E-02  0.1184000E+00
        -11   -1    0    0    0    0  0.00000000000E+00  0.00000000000E+00  0.45593999997E+02  0.45594000000E+02  0.51100000000E-03 0. -1.
         11   -1    0    0    0    0 -0.00000000000E+00 -0.00000000000E+00 -0.45593999997E+02  0.45594000000E+02  0.51100000000E-03 0.  1.
         23    2    1    2    0    0  0.88817841970E-15  0.35527136788E-14  0.00000000000E+00  0.91188000000E+02  0.91188000000E+02 0.  0.
    9900012    2    3    3    0    0 -0.76187467919E+01 -0.23490094187E+02 -0.35690225571E+02  0.47787285387E+02  0.20000065393E+02 0.  0.
         12    1    3    3    0    0  0.76187467919E+01  0.23490094187E+02  0.35690225571E+02  0.43400714613E+02  0.00000000000E+00 0. -1.
         11    1    4    4    0    0  0.11791499657E+01 -0.97077459837E+00  0.94991761931E+00  0.17986499679E+01  0.51100000000E-03 0. -1.
        -11    1    4    4    0    0 -0.41894239561E+01 -0.92480235650E+01 -0.48894186527E+01  0.11268701255E+02  0.51100000000E-03 0.  1.
        -12    1    4    4    0    0 -0.46084728015E+01 -0.13271296023E+02 -0.31750724538E+02  0.34719934164E+02  0.00000000000E+00 0.  1.
</event>
<event>
 8    1  0.4042158E-011  0.9118800E+02  0.7816164E-02  0.1184000E+00
        -11   -1    0    0    0    0  0.00000000000E+00  0.00000000000E+00  0.45593999997E+02  0.45594000000E+02  0.51100000000E-03 0. -1.
         11   -1    0    0    0    0 -0.00000000000E+00 -0.00000000000E+00 -0.45593999997E+02  0.45594000000E+02  0.51100000000E-03 0.  1.
         23    2    1    2    0    0  0.00000000000E+00 -0.17763568394E-14  0.35527136788E-14  0.91188000000E+02  0.91188000000E+02 0.  0.
    9900012    2    3    3    0    0  0.31546115896E+02 -0.15172707414E+02  0.25656475193E+02  0.47787271922E+02  0.20000004002E+02 0.  0.
        -12    1    3    3    0    0 -0.31546115896E+02  0.15172707414E+02 -0.25656475193E+02  0.43400728078E+02  0.00000000000E+00 0.  1.
         11    1    4    4    0    0  0.82867203642E+01 -0.13153562303E+01  0.77862383324E+01  0.11446632869E+02  0.51100000000E-03 0. -1.
        -11    1    4    4    0    0  0.19488934560E+02 -0.28736376994E+01  0.13728058052E+02  0.24011162863E+02  0.51100000000E-03 0.  1.
        -12    1    4    4    0    0  0.37704609717E+01 -0.10983713484E+02  0.41421788082E+01  0.12329476190E+02  0.00000000000E+00 0.  1.
</event>
<event>
 8    1  0.4042158E-011  0.9118800E+02  0.7816164E-02  0.1184000E+00
        -11   -1    0    0    0    0  0.00000000000E+00  0.00000000000E+00  0.45593999997E+02  0.45594000000E+02  0.51100000000E-03 0. -1.
         11   -1    0    0    0    0 -0.00000000000E+00 -0.00000000000E+00 -0.45593999997E+02  0.45594000000E+02  0.51100000000E-03 0.  1.
         23    2    1    2    0    0 -0.35527136788E-14  0.00000000000E+00  0.71054273576E-14  0.91188000000E+02  0.91188000000E+02 0.  0.
    9900012    2    3    3    0    0  0.26479514105E+02 -0.11784677016E+02 -0.32304494696E+02  0.47787266628E+02  0.19999979864E+02 0.  0.
         12    1    3    3    0    0 -0.26479514105E+02  0.11784677016E+02  0.32304494696E+02  0.43400733372E+02  0.00000000000E+00 0. -1.
         11    1    4    4    0    0  0.84553403276E+01  0.40558302141E+00  0.32136474251E+00  0.84711600859E+01  0.51100000000E-03 0. -1.
        -11    1    4    4    0    0  0.33411835698E+01 -0.36503290176E+01 -0.70388991941E+01  0.86043309856E+01  0.51100000000E-03 0.  1.
         12    1    4    4    0    0  0.14682990208E+02 -0.85399310200E+01 -0.25586960245E+02  0.30711775557E+02  0.00000000000E+00 0. -1.
</event>
<event>
 8    1  0.4042158E-011  0.9118800E+02  0.7816164E-02  0.1184000E+00
        -11   -1    0    0    0    0  0.00000000000E+00  0.00000000000E+00  0.45593999997E+02  0.45594000000E+02  0.51100000000E-03 0. -1.
         11   -1    0    0    0    0 -0.00000000000E+00 -0.00000000000E+00 -0.45593999997E+02  0.45594000000E+02  0.51100000000E-03 0.  1.
         23    2    1    2    0    0  0.35527136788E-14  0.00000000000E+00  0.00000000000E+00  0.91188000000E+02  0.91188000000E+02 0.  0.
    9900012    2    3    3    0    0 -0.17808700934E+02  0.16277008046E+02  0.36076749701E+02  0.47787277784E+02  0.20000030730E+02 0.  0.
        -12    1    3    3    0    0  0.17808700934E+02 -0.16277008046E+02 -0.36076749701E+02  0.43400722216E+02  0.00000000000E+00 0.  1.
         11    1    4    4    0    0 -0.14365226104E+02  0.67302362471E+01  0.14290631647E+02  0.21351298651E+02  0.51100000000E-03 0. -1.
        -11    1    4    4    0    0 -0.71042147820E+01  0.35448525276E+01  0.11875726055E+02  0.14285262220E+02  0.51100000000E-03 0.  1.
        -12    1    4    4    0    0  0.36607399517E+01  0.60019192710E+01  0.99103919982E+01  0.12150716912E+02  0.00000000000E+00 0.  1.
</event>
<event>
 8    1  0.4042158E-011  0.9118800E+02  0.7816164E-02  0.1184000E+00
        -11   -1    0    0    0    0  0.00000000000E+00  0.00000000000E+00  0.45593999997E+02  0.45594000000E+02  0.51100000000E-03 0. -1.
         11   -1    0    0    0    0 -0.00000000000E+00 -0.00000000000E+00 -0.45593999997E+02  0.45594000000E+02  0.51100000000E-03 0.  1.
         23    2    1    2    0    0 -0.17763568394E-14  0.88817841970E-15  0.00000000000E+00  0.91188000000E+02  0.91188000000E+02 0.  0.
    9900012    2    3    3    0    0 -0.13142587838E+02  0.73131917121E+01 -0.40711332222E+02  0.47787274668E+02  0.20000016519E+02 0.  0.
         12    1    3    3    0    0  0.13142587838E+02 -0.73131917121E+01  0.40711332222E+02  0.43400725332E+02  0.00000000000E+00 0. -1.
         11    1    4    4    0    0 -0.44679100134E+01 -0.51771232265E+00 -0.45202878630E+01  0.63767741502E+01  0.51100000000E-03 0. -1.
        -11    1    4    4    0    0 -0.73100731293E+01 -0.28202498538E+01 -0.77966690362E+01  0.11053462205E+02  0.51100000000E-03 0.  1.
         12    1    4    4    0    0 -0.13646046951E+01  0.10651153889E+02 -0.28394375323E+02  0.30357038312E+02  0.00000000000E+00 0. -1.
</event>
<event>
 8    1  0.4042158E-011  0.9118800E+02  0.7816164E-02  0.1184000E+00
        -11   -1    0    0    0    0  0.00000000000E+00  0.00000000000E+00  0.45593999997E+02  0.45594000000E+02  0.51100000000E-03 0. -1.
         11   -1    0    0    0    0 -0.00000000000E+00 -0.00000000000E+00 -0.45593999997E+02  0.45594000000E+02  0.51100000000E-03 0.  1.
         23    2    1    2    0    0  0.35527136788E-14  0.35527136788E-14  0.00000000000E+00  0.91188000000E+02  0.91188000000E+02 0.  0.
    9900012    2    3    3    0    0  0.29521121464E+02 -0.22116807210E+02  0.22868614892E+02  0.47787270505E+02  0.19999997540E+02 0.  0.
        -12    1    3    3    0    0 -0.29521121464E+02  0.22116807210E+02 -0.22868614892E+02  0.43400729495E+02  0.00000000000E+00 0.  1.
         11    1    4    4    0    0  0.16544675568E+02 -0.13752189139E+02  0.12791343438E+02  0.25029332052E+02  0.51100000000E-03 0. -1.
        -11    1    4    4    0    0  0.48722819193E+01 -0.96734093823E+01  0.15849539140E+01  0.10946509003E+02  0.51100000000E-03 0.  1.
         12    1    4    4    0    0  0.81041639770E+01  0.13087913113E+01  0.84923175395E+01  0.11811429450E+02  0.00000000000E+00 0. -1.
</event>
<event>
 8    1  0.4042158E-011  0.9118800E+02  0.7816164E-02  0.1184000E+00
        -11   -1    0    0    0    0  0.00000000000E+00  0.00000000000E+00  0.45593999997E+02  0.45594000000E+02  0.51100000000E-03 0. -1.
         11   -1    0    0    0    0 -0.00000000000E+00 -0.00000000000E+00 -0.45593999997E+02  0.45594000000E+02  0.51100000000E-03 0.  1.
         23    2    1    2    0    0  0.00000000000E+00  0.44408920985E-15  0.00000000000E+00  0.91188000000E+02  0.91188000000E+02 0.  0.
    9900012    2    3    3    0    0  0.29998181945E+01 -0.37342305498E+01  0.43135597843E+02  0.47787272031E+02  0.20000004498E+02 0.  0.
        -12    1    3    3    0    0 -0.29998181945E+01  0.37342305498E+01 -0.43135597843E+02  0.43400727969E+02  0.00000000000E+00 0.  1.
         11    1    4    4    0    0  0.44453520206E+00 -0.48001728900E+01  0.31688723363E+01  0.57689707457E+01  0.51100000000E-03 0. -1.
        -11    1    4    4    0    0 -0.77115466444E+00 -0.23208164299E+00 -0.77662116004E+00  0.11187859906E+01  0.51100000000E-03 0.  1.
         12    1    4    4    0    0  0.33264376569E+01  0.12980239832E+01  0.40743346666E+02  0.40899515295E+02  0.00000000000E+00 0. -1.
</event>
<event>
 8    1  0.4042158E-011  0.9118800E+02  0.7816164E-02  0.1184000E+00
        -11   -1    0    0    0    0  0.00000000000E+00  0.00000000000E+00  0.45593999997E+02  0.45594000000E+02  0.51100000000E-03 0. -1.
         11   -1    0    0    0    0 -0.00000000000E+00 -0.00000000000E+00 -0.45593999997E+02  0.45594000000E+02  0.51100000000E-03 0.  1.
         23    2    1    2    0    0 -0.17763568394E-14 -0.35527136788E-14  0.00000000000E+00  0.91188000000E+02  0.91188000000E+02 0.  0.
    9900012    2    3    3    0    0  0.10450582965E+02  0.17564705034E+02 -0.38286932816E+02  0.47787276830E+02  0.20000026378E+02 0.  0.
         12    1    3    3    0    0 -0.10450582965E+02 -0.17564705034E+02  0.38286932816E+02  0.43400723170E+02  0.00000000000E+00 0. -1.
         11    1    4    4    0    0 -0.16371129797E+01 -0.12097092331E+01 -0.28020181847E+01  0.34633569706E+01  0.51100000000E-03 0. -1.
        -11    1    4    4    0    0 -0.43002980968E+00  0.12547469352E+02 -0.17733371308E+02  0.21727778786E+02  0.51100000000E-03 0.  1.
         12    1    4    4    0    0  0.12517725755E+02  0.62269449152E+01 -0.17751543323E+02  0.22596141073E+02  0.00000000000E+00 0. -1.
</event>
<event>
 8    1  0.4042158E-011  0.9118800E+02  0.7816164E-02  0.1184000E+00
        -11   -1    0    0    0    0  0.00000000000E+00  0.00000000000E+00  0.45593999997E+02  0.45594000000E+02  0.51100000000E-03 0.  1.
         11   -1    0    0    0    0 -0.00000000000E+00 -0.00000000000E+00 -0.45593999997E+02  0.45594000000E+02  0.51100000000E-03 0. -1.
         23    2    1    2    0    0  0.00000000000E+00 -0.35527136788E-14  0.11102230246E-15  0.91188000000E+02  0.91188000000E+02 0.  0.
    9900012    2    3    3    0    0 -0.38389615299E+02 -0.20233921908E+02 -0.67008378333E+00  0.47787272232E+02  0.20000005413E+02 0.  0.
         12    1    3    3    0    0  0.38389615299E+02  0.20233921908E+02  0.67008378333E+00  0.43400727768E+02  0.00000000000E+00 0. -1.
         11    1    4    4    0    0 -0.10306575959E+02 -0.93911162719E+01 -0.28988159268E+00  0.13946419054E+02  0.51100000000E-03 0. -1.
        -11    1    4    4    0    0 -0.27792781799E+02 -0.13493044107E+02 -0.15401499041E+01  0.30933364211E+02  0.51100000000E-03 0.  1.
         12    1    4    4    0    0 -0.29025754062E+00  0.26502384713E+01  0.11599477134E+01  0.29074889668E+01  0.00000000000E+00 0. -1.
</event>
<event>
 8    1  0.4042158E-011  0.9118800E+02  0.7816164E-02  0.1184000E+00
        -11   -1    0    0    0    0  0.00000000000E+00  0.00000000000E+00  0.45593999997E+02  0.45594000000E+02  0.51100000000E-03 0. -1.
         11   -1    0    0    0    0 -0.00000000000E+00 -0.00000000000E+00 -0.45593999997E+02  0.45594000000E+02  0.51100000000E-03 0.  1.
         23    2    1    2    0    0  0.00000000000E+00 -0.41633363423E-15  0.71054273576E-14  0.91188000000E+02  0.91188000000E+02 0.  0.
    9900012    2    3    3    0    0 -0.12388862316E+02 -0.17226844290E+00 -0.41594586229E+02  0.47787272017E+02  0.20000004434E+02 0.  0.
         12    1    3    3    0    0  0.12388862316E+02  0.17226844290E+00  0.41594586229E+02  0.43400727983E+02  0.00000000000E+00 0. -1.
         11    1    4    4    0    0 -0.85320168433E+00 -0.19407629108E+01 -0.23293435903E+01  0.31496596027E+01  0.51100000000E-03 0. -1.
        -11    1    4    4    0    0 -0.15781616172E+02 -0.10796423025E+01 -0.32620152197E+02  0.36253266971E+02  0.51100000000E-03 0.  1.
         12    1    4    4    0    0  0.42459555408E+01  0.28481367704E+01 -0.66450904422E+01  0.83843454427E+01  0.00000000000E+00 0. -1.
</event>
<event>
 8    1  0.4042158E-011  0.9118800E+02  0.7816164E-02  0.1184000E+00
        -11   -1    0    0    0    0  0.00000000000E+00  0.00000000000E+00  0.45593999997E+02  0.45594000000E+02  0.51100000000E-03 0. -1.
         11   -1    0    0    0    0 -0.00000000000E+00 -0.00000000000E+00 -0.45593999997E+02  0.45594000000E+02  0.51100000000E-03 0.  1.
         23    2    1    2    0    0  0.00000000000E+00  0.00000000000E+00  0.00000000000E+00  0.91188000000E+02  0.91188000000E+02 0.  0.
    9900012    2    3    3    0    0 -0.18369730462E+02  0.17776307832E+02 -0.35073898951E+02  0.47787279902E+02  0.20000040385E+02 0.  0.
         12    1    3    3    0    0  0.18369730462E+02 -0.17776307832E+02  0.35073898951E+02  0.43400720098E+02  0.00000000000E+00 0. -1.
         11    1    4    4    0    0 -0.94343076683E+01  0.22709934495E+01 -0.97068601704E+01  0.13725403712E+02  0.51100000000E-03 0. -1.
        -11    1    4    4    0    0 -0.76015111383E+00 -0.22425767803E+01 -0.64250998279E+01  0.68475461583E+01  0.51100000000E-03 0.  1.
        -12    1    4    4    0    0 -0.81752716802E+01  0.17747891163E+02 -0.18941938953E+02  0.27214330032E+02  0.00000000000E+00 0.  1.
</event>
<event>
 8    1  0.4042158E-011  0.9118800E+02  0.7816164E-02  0.1184000E+00
        -11   -1    0    0    0    0  0.00000000000E+00  0.00000000000E+00  0.45593999997E+02  0.45594000000E+02  0.51100000000E-03 0. -1.
         11   -1    0    0    0    0 -0.00000000000E+00 -0.00000000000E+00 -0.45593999997E+02  0.45594000000E+02  0.51100000000E-03 0.  1.
         23    2    1    2    0    0  0.00000000000E+00  0.35527136788E-14 -0.35527136788E-14  0.91188000000E+02  0.91188000000E+02 0.  0.
    9900012    2    3    3    0    0 -0.21153480758E+02  0.24858963229E+02 -0.28603944099E+02  0.47787269372E+02  0.19999992375E+02 0.  0.
         12    1    3    3    0    0  0.21153480758E+02 -0.24858963229E+02  0.28603944099E+02  0.43400730628E+02  0.00000000000E+00 0. -1.
         11    1    4    4    0    0  0.24797483537E+01  0.14096175663E+01 -0.32991566279E+01  0.43612622367E+01  0.51100000000E-03 0. -1.
        -11    1    4    4    0    0  0.73022614413E+00  0.70101647894E+00  0.63009595029E+00  0.11923403428E+01  0.51100000000E-03 0.  1.
        -12    1    4    4    0    0 -0.24363455256E+02  0.22748329184E+02 -0.25934883422E+02  0.42233666793E+02  0.00000000000E+00 0.  1.
</event>
<event>
 8    1  0.4042158E-011  0.9118800E+02  0.7816164E-02  0.1184000E+00
        -11   -1    0    0    0    0  0.00000000000E+00  0.00000000000E+00  0.45593999997E+02  0.45594000000E+02  0.51100000000E-03 0. -1.
         11   -1    0    0    0    0 -0.00000000000E+00 -0.00000000000E+00 -0.45593999997E+02  0.45594000000E+02  0.51100000000E-03 0.  1.
         23    2    1    2    0    0  0.35527136788E-14  0.00000000000E+00  0.00000000000E+00  0.91188000000E+02  0.91188000000E+02 0.  0.
    9900012    2    3    3    0    0 -0.27946996472E+02  0.11692191042E+02  0.31078634152E+02  0.47787269085E+02  0.19999991067E+02 0.  0.
        -12    1    3    3    0    0  0.27946996472E+02 -0.11692191042E+02 -0.31078634152E+02  0.43400730915E+02  0.00000000000E+00 0.  1.
         11    1    4    4    0    0 -0.16289921618E+02 -0.17272263413E+01  0.10916496348E+02  0.19685394330E+02  0.51100000000E-03 0. -1.
        -11    1    4    4    0    0 -0.95927358757E+01  0.51169808496E+01  0.12978705834E+02  0.16930767259E+02  0.51100000000E-03 0.  1.
         12    1    4    4    0    0 -0.20643389784E+01  0.83024365340E+01  0.71834319704E+01  0.11171107496E+02  0.00000000000E+00 0. -1.
</event>
<event>
 8    1  0.4042158E-011  0.9118800E+02  0.7816164E-02  0.1184000E+00
        -11   -1    0    0    0    0  0.00000000000E+00  0.00000000000E+00  0.45593999997E+02  0.45594000000E+02  0.51100000000E-03 0. -1.
         11   -1    0    0    0    0 -0.00000000000E+00 -0.00000000000E+00 -0.45593999997E+02  0.45594000000E+02  0.51100000000E-03 0.  1.
         23    2    1    2    0    0  0.00000000000E+00  0.00000000000E+00  0.00000000000E+00  0.91188000000E+02  0.91188000000E+02 0.  0.
    9900012    2    3    3    0    0  0.13494298016E+02  0.26412590069E+02  0.31684416079E+02  0.47787271718E+02  0.20000003071E+02 0.  0.
        -12    1    3    3    0    0 -0.13494298016E+02 -0.26412590069E+02 -0.31684416079E+02  0.43400728282E+02  0.00000000000E+00 0.  1.
         11    1    4    4    0    0  0.38424877194E+01  0.81769776677E+01  0.98079763719E+01  0.13335069420E+02  0.51100000000E-03 0. -1.
        -11    1    4    4    0    0 -0.30748980221E+01  0.24257838978E-01  0.71880906688E+01  0.78181988982E+01  0.51100000000E-03 0.  1.
        -12    1    4    4    0    0  0.12726708319E+02  0.18211354563E+02  0.14688349039E+02  0.26634003400E+02  0.00000000000E+00 0.  1.
</event>
<event>
 8    1  0.4042158E-011  0.9118800E+02  0.7816164E-02  0.1184000E+00
        -11   -1    0    0    0    0  0.00000000000E+00  0.00000000000E+00  0.45593999997E+02  0.45594000000E+02  0.51100000000E-03 0. -1.
         11   -1    0    0    0    0 -0.00000000000E+00 -0.00000000000E+00 -0.45593999997E+02  0.45594000000E+02  0.51100000000E-03 0.  1.
         23    2    1    2    0    0  0.17763568394E-14 -0.44408920985E-15 -0.71054273576E-14  0.91188000000E+02  0.91188000000E+02 0.  0.
    9900012    2    3    3    0    0 -0.13256983496E+02  0.21677098465E+01  0.41269561009E+02  0.47787271397E+02  0.20000001607E+02 0.  0.
        -12    1    3    3    0    0  0.13256983496E+02 -0.21677098465E+01 -0.41269561009E+02  0.43400728603E+02  0.00000000000E+00 0.  1.
         11    1    4    4    0    0 -0.62623552029E+01 -0.13678547373E+01  0.27079879602E+02  0.27828187127E+02  0.51100000000E-03 0. -1.
        -11    1    4    4    0    0 -0.20922408492E+01  0.56411967236E+01  0.13235633463E+02  0.14539001537E+02  0.51100000000E-03 0.  1.
         12    1    4    4    0    0 -0.49023874437E+01 -0.21056321397E+01  0.95404794397E+00  0.54200827332E+01  0.00000000000E+00 0. -1.
</event>
<event>
 8    1  0.4042158E-011  0.9118800E+02  0.7816164E-02  0.1184000E+00
        -11   -1    0    0    0    0  0.00000000000E+00  0.00000000000E+00  0.45593999997E+02  0.45594000000E+02  0.51100000000E-03 0. -1.
         11   -1    0    0    0    0 -0.00000000000E+00 -0.00000000000E+00 -0.45593999997E+02  0.45594000000E+02  0.51100000000E-03 0.  1.
         23    2    1    2    0    0  0.00000000000E+00  0.00000000000E+00 -0.35527136788E-14  0.91188000000E+02  0.91188000000E+02 0.  0.
    9900012    2    3    3    0    0  0.19846526273E+02  0.25473300365E+02 -0.28997401619E+02  0.47787274923E+02  0.20000017682E+02 0.  0.
         12    1    3    3    0    0 -0.19846526273E+02 -0.25473300365E+02  0.28997401619E+02  0.43400725077E+02  0.00000000000E+00 0. -1.
         11    1    4    4    0    0 -0.58835823141E+00 -0.14062262426E+00  0.57617714650E+00  0.83541636098E+00  0.51100000000E-03 0. -1.
        -11    1    4    4    0    0  0.56826583903E+01  0.90735687250E+01 -0.20252630246E+02  0.22908323551E+02  0.51100000000E-03 0.  1.
         12    1    4    4    0    0  0.14752226114E+02  0.16540354264E+02 -0.93209485200E+01  0.24043535011E+02  0.00000000000E+00 0. -1.
</event>
<event>
 8    1  0.4042158E-011  0.9118800E+02  0.7816164E-02  0.1184000E+00
        -11   -1    0    0    0    0  0.00000000000E+00  0.00000000000E+00  0.45593999997E+02  0.45594000000E+02  0.51100000000E-03 0. -1.
         11   -1    0    0    0    0 -0.00000000000E+00 -0.00000000000E+00 -0.45593999997E+02  0.45594000000E+02  0.51100000000E-03 0.  1.
         23    2    1    2    0    0 -0.71054273576E-14  0.00000000000E+00 -0.71054273576E-14  0.91188000000E+02  0.91188000000E+02 0.  0.
    9900012    2    3    3    0    0 -0.22475831341E+02 -0.75324496194E+01 -0.36355500384E+02  0.47787271897E+02  0.20000003885E+02 0.  0.
         12    1    3    3    0    0  0.22475831341E+02  0.75324496194E+01  0.36355500384E+02  0.43400728103E+02  0.00000000000E+00 0. -1.
         11    1    4    4    0    0 -0.12593542036E+02 -0.51100621826E+00 -0.78702988106E+01  0.14859341573E+02  0.51100000000E-03 0. -1.
        -11    1    4    4    0    0 -0.72135716746E+01 -0.67686030478E+01 -0.93684698765E+01  0.13624163520E+02  0.51100000000E-03 0.  1.
         12    1    4    4    0    0 -0.26687176308E+01 -0.25284035338E+00 -0.19116731697E+02  0.19303766803E+02  0.00000000000E+00 0. -1.
</event>
<event>
 8    1  0.4042158E-011  0.9118800E+02  0.7816164E-02  0.1184000E+00
        -11   -1    0    0    0    0  0.00000000000E+00  0.00000000000E+00  0.45593999997E+02  0.45594000000E+02  0.51100000000E-03 0. -1.
         11   -1    0    0    0    0 -0.00000000000E+00 -0.00000000000E+00 -0.45593999997E+02  0.45594000000E+02  0.51100000000E-03 0.  1.
         23    2    1    2    0    0  0.00000000000E+00 -0.88817841970E-15  0.00000000000E+00  0.91188000000E+02  0.91188000000E+02 0.  0.
    9900012    2    3    3    0    0 -0.26901576238E+02  0.34233314890E+01  0.33885235667E+02  0.47787271909E+02  0.20000003944E+02 0.  0.
        -12    1    3    3    0    0  0.26901576238E+02 -0.34233314890E+01 -0.33885235667E+02  0.43400728091E+02  0.00000000000E+00 0.  1.
         11    1    4    4    0    0 -0.10494002633E+02  0.64194141604E+01  0.20180840748E+02  0.23634705477E+02  0.51100000000E-03 0. -1.
        -11    1    4    4    0    0 -0.92117937390E+01  0.36647791850E+01  0.84586130911E+01  0.13032109808E+02  0.51100000000E-03 0.  1.
        -12    1    4    4    0    0 -0.71957798661E+01 -0.66608618563E+01  0.52457818279E+01  0.11120456624E+02  0.00000000000E+00 0.  1.
</event>
<event>
 8    1  0.4042158E-011  0.9118800E+02  0.7816164E-02  0.1184000E+00
        -11   -1    0    0    0    0  0.00000000000E+00  0.00000000000E+00  0.45593999997E+02  0.45594000000E+02  0.51100000000E-03 0. -1.
         11   -1    0    0    0    0 -0.00000000000E+00 -0.00000000000E+00 -0.45593999997E+02  0.45594000000E+02  0.51100000000E-03 0.  1.
         23    2    1    2    0    0 -0.17763568394E-14  0.00000000000E+00  0.71054273576E-14  0.91188000000E+02  0.91188000000E+02 0.  0.
    9900012    2    3    3    0    0  0.14511800820E+02  0.20107799404E+01 -0.40853248127E+02  0.47787268652E+02  0.19999989091E+02 0.  0.
         12    1    3    3    0    0 -0.14511800820E+02 -0.20107799404E+01  0.40853248127E+02  0.43400731348E+02  0.00000000000E+00 0. -1.
         11    1    4    4    0    0  0.16423022110E+02 -0.39600901102E+01 -0.33779954351E+02  0.37768813658E+02  0.51100000000E-03 0. -1.
        -11    1    4    4    0    0  0.64252472841E+00  0.18382323302E+01 -0.34368494295E+01  0.39501734631E+01  0.51100000000E-03 0.  1.
        -12    1    4    4    0    0 -0.25537460179E+01  0.41326377204E+01 -0.36364443463E+01  0.60682815307E+01  0.00000000000E+00 0.  1.
</event>
<event>
 8    1  0.4042158E-011  0.9118800E+02  0.7816164E-02  0.1184000E+00
        -11   -1    0    0    0    0  0.00000000000E+00  0.00000000000E+00  0.45593999997E+02  0.45594000000E+02  0.51100000000E-03 0. -1.
         11   -1    0    0    0    0 -0.00000000000E+00 -0.00000000000E+00 -0.45593999997E+02  0.45594000000E+02  0.51100000000E-03 0.  1.
         23    2    1    2    0    0  0.00000000000E+00  0.00000000000E+00  0.00000000000E+00  0.91188000000E+02  0.91188000000E+02 0.  0.
    9900012    2    3    3    0    0 -0.13532897335E+02  0.36004909591E+02 -0.20103005201E+02  0.47787266791E+02  0.19999980609E+02 0.  0.
         12    1    3    3    0    0  0.13532897335E+02 -0.36004909591E+02  0.20103005201E+02  0.43400733209E+02  0.00000000000E+00 0. -1.
         11    1    4    4    0    0  0.45770130385E+00  0.14815765883E+02 -0.98708112870E+01  0.17808686782E+02  0.51100000000E-03 0. -1.
        -11    1    4    4    0    0 -0.68207859825E+01  0.19353333937E+02 -0.92641872787E+01  0.22514435860E+02  0.51100000000E-03 0.  1.
        -12    1    4    4    0    0 -0.71698126562E+01  0.18358097712E+01 -0.96800663561E+00  0.74641441497E+01  0.00000000000E+00 0.  1.
</event>
<event>
 8    1  0.4042158E-011  0.9118800E+02  0.7816164E-02  0.1184000E+00
        -11   -1    0    0    0    0  0.00000000000E+00  0.00000000000E+00  0.45593999997E+02  0.45594000000E+02  0.51100000000E-03 0. -1.
         11   -1    0    0    0    0 -0.00000000000E+00 -0.00000000000E+00 -0.45593999997E+02  0.45594000000E+02  0.51100000000E-03 0.  1.
         23    2    1    2    0    0 -0.17763568394E-14 -0.88817841970E-15  0.00000000000E+00  0.91188000000E+02  0.91188000000E+02 0.  0.
    9900012    2    3    3    0    0  0.12288167027E+02  0.52204286138E+01 -0.41296137419E+02  0.47787275472E+02  0.20000020188E+02 0.  0.
         12    1    3    3    0    0 -0.12288167027E+02 -0.52204286138E+01  0.41296137419E+02  0.43400724528E+02  0.00000000000E+00 0. -1.
         11    1    4    4    0    0  0.78526965929E+01  0.13468568057E+00 -0.65041435275E+01  0.10197395123E+02  0.51100000000E-03 0. -1.
        -11    1    4    4    0    0  0.74336374849E+01  0.68841960604E+01 -0.20375264523E+02  0.22755274691E+02  0.51100000000E-03 0.  1.
        -12    1    4    4    0    0 -0.29981670510E+01 -0.17984531272E+01 -0.14416729369E+02  0.14834605658E+02  0.00000000000E+00 0.  1.
</event>
<event>
 8    1  0.4042158E-011  0.9118800E+02  0.7816164E-02  0.1184000E+00
        -11   -1    0    0    0    0  0.00000000000E+00  0.00000000000E+00  0.45593999997E+02  0.45594000000E+02  0.51100000000E-03 0. -1.
         11   -1    0    0    0    0 -0.00000000000E+00 -0.00000000000E+00 -0.45593999997E+02  0.45594000000E+02  0.51100000000E-03 0.  1.
         23    2    1    2    0    0  0.35527136788E-14  0.44408920985E-15  0.00000000000E+00  0.91188000000E+02  0.91188000000E+02 0.  0.
    9900012    2    3    3    0    0  0.28098197499E+02 -0.26391829332E+01 -0.32971942421E+02  0.47787274473E+02  0.20000015634E+02 0.  0.
         12    1    3    3    0    0 -0.28098197499E+02  0.26391829332E+01  0.32971942421E+02  0.43400725527E+02  0.00000000000E+00 0. -1.
         11    1    4    4    0    0  0.17441772344E+02 -0.18894778606E+01 -0.13617203172E+02  0.22208416683E+02  0.51100000000E-03 0.  1.
        -11    1    4    4    0    0  0.97224290400E+01 -0.38241990716E+01 -0.64456052674E+01  0.12275827976E+02  0.51100000000E-03 0. -1.
         12    1    4    4    0    0  0.93399611503E+00  0.30744939990E+01 -0.12909133981E+02  0.13303029814E+02  0.00000000000E+00 0. -1.
</event>
<event>
 8    1  0.4042158E-011  0.9118800E+02  0.7816164E-02  0.1184000E+00
        -11   -1    0    0    0    0  0.00000000000E+00  0.00000000000E+00  0.45593999997E+02  0.45594000000E+02  0.51100000000E-03 0. -1.
         11   -1    0    0    0    0 -0.00000000000E+00 -0.00000000000E+00 -0.45593999997E+02  0.45594000000E+02  0.51100000000E-03 0.  1.
         23    2    1    2    0    0 -0.88817841970E-15  0.00000000000E+00  0.00000000000E+00  0.91188000000E+02  0.91188000000E+02 0.  0.
    9900012    2    3    3    0    0  0.46067595570E+01  0.91291253927E+01  0.42178904458E+02  0.47787272526E+02  0.20000006753E+02 0.  0.
        -12    1    3    3    0    0 -0.46067595570E+01 -0.91291253927E+01 -0.42178904458E+02  0.43400727474E+02  0.00000000000E+00 0.  1.
         11    1    4    4    0    0  0.25180132060E+01 -0.16466601596E+01  0.12112018625E+02  0.12480099183E+02  0.51100000000E-03 0. -1.
        -11    1    4    4    0    0  0.56353343931E+01  0.22688650239E+00  0.38578101099E+01  0.68330937584E+01  0.51100000000E-03 0.  1.
        -12    1    4    4    0    0 -0.35465880420E+01  0.10548899050E+02  0.26209075723E+02  0.28474079584E+02  0.00000000000E+00 0.  1.
</event>
<event>
 8    1  0.4042158E-011  0.9118800E+02  0.7816164E-02  0.1184000E+00
        -11   -1    0    0    0    0  0.00000000000E+00  0.00000000000E+00  0.45593999997E+02  0.45594000000E+02  0.51100000000E-03 0. -1.
         11   -1    0    0    0    0 -0.00000000000E+00 -0.00000000000E+00 -0.45593999997E+02  0.45594000000E+02  0.51100000000E-03 0.  1.
         23    2    1    2    0    0  0.88817841970E-15  0.00000000000E+00  0.71054273576E-14  0.91188000000E+02  0.91188000000E+02 0.  0.
    9900012    2    3    3    0    0 -0.25641552403E+01  0.36510835528E+01 -0.43170802874E+02  0.47787268163E+02  0.19999986863E+02 0.  0.
         12    1    3    3    0    0  0.25641552403E+01 -0.36510835528E+01  0.43170802874E+02  0.43400731837E+02  0.00000000000E+00 0. -1.
         11    1    4    4    0    0 -0.19076214521E+01 -0.30463445290E+01 -0.16042703408E+02  0.16440424797E+02  0.51100000000E-03 0. -1.
        -11    1    4    4    0    0 -0.37797515536E+01  0.53837752926E+01 -0.27173424001E+02  0.27958299848E+02  0.51100000000E-03 0.  1.
         12    1    4    4    0    0  0.31232177655E+01  0.13136527892E+01  0.45324535332E-01  0.33885435182E+01  0.00000000000E+00 0. -1.
</event>
<event>
 8    1  0.4042158E-011  0.9118800E+02  0.7816164E-02  0.1184000E+00
        -11   -1    0    0    0    0  0.00000000000E+00  0.00000000000E+00  0.45593999997E+02  0.45594000000E+02  0.51100000000E-03 0. -1.
         11   -1    0    0    0    0 -0.00000000000E+00 -0.00000000000E+00 -0.45593999997E+02  0.45594000000E+02  0.51100000000E-03 0.  1.
         23    2    1    2    0    0  0.17763568394E-14  0.00000000000E+00  0.71054273576E-14  0.91188000000E+02  0.91188000000E+02 0.  0.
    9900012    2    3    3    0    0 -0.83053148625E+01 -0.21834273029E+02 -0.36577457100E+02  0.47787261509E+02  0.19999956523E+02 0.  0.
         12    1    3    3    0    0  0.83053148625E+01  0.21834273029E+02  0.36577457100E+02  0.43400738491E+02  0.00000000000E+00 0. -1.
         11    1    4    4    0    0  0.25017414009E+01 -0.65641510020E+01 -0.10130663291E+02  0.12327900364E+02  0.51100000000E-03 0. -1.
        -11    1    4    4    0    0 -0.17265211762E+01 -0.51035739977E+01 -0.19360310170E+02  0.20095993458E+02  0.51100000000E-03 0.  1.
         12    1    4    4    0    0 -0.90805350871E+01 -0.10166548029E+02 -0.70864836390E+01  0.15363367686E+02  0.00000000000E+00 0. -1.
</event>
<event>
 8    1  0.4042158E-011  0.9118800E+02  0.7816164E-02  0.1184000E+00
        -11   -1    0    0    0    0  0.00000000000E+00  0.00000000000E+00  0.45593999997E+02  0.45594000000E+02  0.51100000000E-03 0. -1.
         11   -1    0    0    0    0 -0.00000000000E+00 -0.00000000000E+00 -0.45593999997E+02  0.45594000000E+02  0.51100000000E-03 0.  1.
         23    2    1    2    0    0  0.00000000000E+00  0.00000000000E+00  0.00000000000E+00  0.91188000000E+02  0.91188000000E+02 0.  0.
    9900012    2    3    3    0    0 -0.49648892913E+01  0.17176116807E+02  0.39546854251E+02  0.47787276556E+02  0.20000025131E+02 0.  0.
        -12    1    3    3    0    0  0.49648892913E+01 -0.17176116807E+02 -0.39546854251E+02  0.43400723444E+02  0.00000000000E+00 0.  1.
         11    1    4    4    0    0 -0.15278843629E+01  0.70869077139E+01  0.18952265978E+02  0.20291551876E+02  0.51100000000E-03 0. -1.
        -11    1    4    4    0    0 -0.27068906913E+01  0.13702138551E+02  0.18732059946E+02  0.23365913809E+02  0.51100000000E-03 0.  1.
         12    1    4    4    0    0 -0.73011423721E+00 -0.36129294572E+01  0.18625283282E+01  0.41298108716E+01  0.00000000000E+00 0. -1.
</event>
<event>
 8    1  0.4042158E-011  0.9118800E+02  0.7816164E-02  0.1184000E+00
        -11   -1    0    0    0    0  0.00000000000E+00  0.00000000000E+00  0.45593999997E+02  0.45594000000E+02  0.51100000000E-03 0. -1.
         11   -1    0    0    0    0 -0.00000000000E+00 -0.00000000000E+00 -0.45593999997E+02  0.45594000000E+02  0.51100000000E-03 0.  1.
         23    2    1    2    0    0  0.55511151231E-15 -0.22204460493E-15  0.00000000000E+00  0.91188000000E+02  0.91188000000E+02 0.  0.
    9900012    2    3    3    0    0 -0.79777921705E+00 -0.18318210149E+01  0.43354713163E+02  0.47787272203E+02  0.20000005281E+02 0.  0.
        -12    1    3    3    0    0  0.79777921705E+00  0.18318210149E+01 -0.43354713163E+02  0.43400727797E+02  0.00000000000E+00 0.  1.
         11    1    4    4    0    0  0.53879496150E+00  0.17914856350E+01  0.43955464268E+01  0.47770858735E+01  0.51100000000E-03 0.  1.
        -11    1    4    4    0    0  0.65501139355E+01  0.94331553736E-01  0.29189927945E+02  0.29915962038E+02  0.51100000000E-03 0. -1.
         12    1    4    4    0    0 -0.78866881140E+01 -0.37176382037E+01  0.97692387912E+01  0.13094224291E+02  0.00000000000E+00 0. -1.
</event>
<event>
 8    1  0.4042158E-011  0.9118800E+02  0.7816164E-02  0.1184000E+00
        -11   -1    0    0    0    0  0.00000000000E+00  0.00000000000E+00  0.45593999997E+02  0.45594000000E+02  0.51100000000E-03 0. -1.
         11   -1    0    0    0    0 -0.00000000000E+00 -0.00000000000E+00 -0.45593999997E+02  0.45594000000E+02  0.51100000000E-03 0.  1.
         23    2    1    2    0    0 -0.17763568394E-14  0.00000000000E+00 -0.71054273576E-14  0.91188000000E+02  0.91188000000E+02 0.  0.
    9900012    2    3    3    0    0 -0.10405531998E+02  0.15499900526E+02 -0.39180369507E+02  0.47787269970E+02  0.19999995100E+02 0.  0.
         12    1    3    3    0    0  0.10405531998E+02 -0.15499900526E+02  0.39180369507E+02  0.43400730030E+02  0.00000000000E+00 0. -1.
         11    1    4    4    0    0  0.15226172682E+01 -0.25170105858E+00 -0.10441668007E+02  0.10555100559E+02  0.51100000000E-03 0. -1.
        -11    1    4    4    0    0 -0.67880130203E+01  0.59843699627E+00 -0.13565002522E+02  0.15180399906E+02  0.51100000000E-03 0.  1.
        -12    1    4    4    0    0 -0.51401362458E+01  0.15153164588E+02 -0.15173698977E+02  0.22051769505E+02  0.00000000000E+00 0.  1.
</event>
<event>
 8    1  0.4042158E-011  0.9118800E+02  0.7816164E-02  0.1184000E+00
        -11   -1    0    0    0    0  0.00000000000E+00  0.00000000000E+00  0.45593999997E+02  0.45594000000E+02  0.51100000000E-03 0. -1.
         11   -1    0    0    0    0 -0.00000000000E+00 -0.00000000000E+00 -0.45593999997E+02  0.45594000000E+02  0.51100000000E-03 0.  1.
         23    2    1    2    0    0  0.00000000000E+00  0.35527136788E-14  0.71054273576E-14  0.91188000000E+02  0.91188000000E+02 0.  0.
    9900012    2    3    3    0    0  0.18256810249E+01  0.26874616437E+02  0.34030071622E+02  0.47787263895E+02  0.19999967403E+02 0.  0.
        -12    1    3    3    0    0 -0.18256810249E+01 -0.26874616437E+02 -0.34030071622E+02  0.43400736105E+02  0.00000000000E+00 0.  1.
         11    1    4    4    0    0  0.23596915248E+01  0.27870490170E+01  0.93229621745E+01  0.10012662497E+02  0.51100000000E-03 0.  1.
        -11    1    4    4    0    0 -0.38430970610E+00  0.76564363226E+00  0.10354156552E+02  0.10389536192E+02  0.51100000000E-03 0. -1.
         12    1    4    4    0    0 -0.14970079372E+00  0.23321923788E+02  0.14352952895E+02  0.27385065206E+02  0.00000000000E+00 0. -1.
</event>
<event>
 8    1  0.4042158E-011  0.9118800E+02  0.7816164E-02  0.1184000E+00
        -11   -1    0    0    0    0  0.00000000000E+00  0.00000000000E+00  0.45593999997E+02  0.45594000000E+02  0.51100000000E-03 0. -1.
         11   -1    0    0    0    0 -0.00000000000E+00 -0.00000000000E+00 -0.45593999997E+02  0.45594000000E+02  0.51100000000E-03 0.  1.
         23    2    1    2    0    0 -0.33306690739E-15 -0.88817841970E-15  0.00000000000E+00  0.91188000000E+02  0.91188000000E+02 0.  0.
    9900012    2    3    3    0    0  0.88721637992E+00 -0.49004997146E+01  0.43114049452E+02  0.47787270622E+02  0.19999998075E+02 0.  0.
        -12    1    3    3    0    0 -0.88721637992E+00  0.49004997146E+01 -0.43114049452E+02  0.43400729378E+02  0.00000000000E+00 0.  1.
         11    1    4    4    0    0  0.12583917842E+01  0.61322489346E+00  0.11830844724E+02  0.11913374073E+02  0.51100000000E-03 0. -1.
        -11    1    4    4    0    0  0.35753422290E+01  0.40066297861E+01  0.39614217209E+01  0.66730065645E+01  0.51100000000E-03 0.  1.
         12    1    4    4    0    0 -0.39465176332E+01 -0.95203543942E+01  0.27321783007E+02  0.29200889985E+02  0.00000000000E+00 0. -1.
</event>
<event>
 8    1  0.4042158E-011  0.9118800E+02  0.7816164E-02  0.1184000E+00
        -11   -1    0    0    0    0  0.00000000000E+00  0.00000000000E+00  0.45593999997E+02  0.45594000000E+02  0.51100000000E-03 0. -1.
         11   -1    0    0    0    0 -0.00000000000E+00 -0.00000000000E+00 -0.45593999997E+02  0.45594000000E+02  0.51100000000E-03 0.  1.
         23    2    1    2    0    0  0.00000000000E+00  0.88817841970E-15  0.00000000000E+00  0.91188000000E+02  0.91188000000E+02 0.  0.
    9900012    2    3    3    0    0  0.89765886933E+01  0.31006443567E+01  0.42348909611E+02  0.47787270913E+02  0.19999999403E+02 0.  0.
        -12    1    3    3    0    0 -0.89765886933E+01 -0.31006443567E+01 -0.42348909611E+02  0.43400729087E+02  0.00000000000E+00 0.  1.
         11    1    4    4    0    0 -0.10075987953E+01  0.66879153178E+01  0.25748984103E+02  0.26622427561E+02  0.51100000000E-03 0. -1.
        -11    1    4    4    0    0  0.34677035980E+01  0.24502968012E+01  0.54347410676E+01  0.68967625296E+01  0.51100000000E-03 0.  1.
        -12    1    4    4    0    0  0.65164838906E+01 -0.60375677622E+01  0.11165184441E+02  0.14268080823E+02  0.00000000000E+00 0.  1.
</event>
<event>
 8    1  0.4042158E-011  0.9118800E+02  0.7816164E-02  0.1184000E+00
        -11   -1    0    0    0    0  0.00000000000E+00  0.00000000000E+00  0.45593999997E+02  0.45594000000E+02  0.51100000000E-03 0.  1.
         11   -1    0    0    0    0 -0.00000000000E+00 -0.00000000000E+00 -0.45593999997E+02  0.45594000000E+02  0.51100000000E-03 0. -1.
         23    2    1    2    0    0  0.00000000000E+00 -0.44408920985E-15  0.00000000000E+00  0.91188000000E+02  0.91188000000E+02 0.  0.
    9900012    2    3    3    0    0  0.43225259250E+02 -0.32347647847E+01 -0.21764005260E+01  0.47787268904E+02  0.19999990240E+02 0.  0.
         12    1    3    3    0    0 -0.43225259250E+02  0.32347647847E+01  0.21764005260E+01  0.43400731096E+02  0.00000000000E+00 0. -1.
         11    1    4    4    0    0  0.16724429825E+01  0.36704608435E+01  0.81437505462E+00  0.41149186291E+01  0.51100000000E-03 0.  1.
        -11    1    4    4    0    0  0.25449269223E+01 -0.35297903474E+01 -0.10178568521E+01  0.44690161969E+01  0.51100000000E-03 0. -1.
        -12    1    4    4    0    0  0.39007889345E+02 -0.33754352808E+01 -0.19729187285E+01  0.39203334078E+02  0.00000000000E+00 0.  1.
</event>
<event>
 8    1  0.4042158E-011  0.9118800E+02  0.7816164E-02  0.1184000E+00
        -11   -1    0    0    0    0  0.00000000000E+00  0.00000000000E+00  0.45593999997E+02  0.45594000000E+02  0.51100000000E-03 0. -1.
         11   -1    0    0    0    0 -0.00000000000E+00 -0.00000000000E+00 -0.45593999997E+02  0.45594000000E+02  0.51100000000E-03 0.  1.
         23    2    1    2    0    0  0.44408920985E-15  0.71054273576E-14  0.00000000000E+00  0.91188000000E+02  0.91188000000E+02 0.  0.
    9900012    2    3    3    0    0 -0.28054672952E+01  0.28894759300E+02  0.32262136880E+02  0.47787271460E+02  0.20000001895E+02 0.  0.
        -12    1    3    3    0    0  0.28054672952E+01 -0.28894759300E+02 -0.32262136880E+02  0.43400728540E+02  0.00000000000E+00 0.  1.
         11    1    4    4    0    0 -0.36869977711E+01  0.16107823181E+01  0.30983778404E+01  0.50782396303E+01  0.51100000000E-03 0. -1.
        -11    1    4    4    0    0 -0.51940822310E+01  0.13377026609E+02  0.21117428873E+02  0.25531727978E+02  0.51100000000E-03 0.  1.
         12    1    4    4    0    0  0.60756127069E+01  0.13906950373E+02  0.80463301671E+01  0.17177303851E+02  0.00000000000E+00 0. -1.
</event>
<event>
 8    1  0.4042158E-011  0.9118800E+02  0.7816164E-02  0.1184000E+00
        -11   -1    0    0    0    0  0.00000000000E+00  0.00000000000E+00  0.45593999997E+02  0.45594000000E+02  0.51100000000E-03 0. -1.
         11   -1    0    0    0    0 -0.00000000000E+00 -0.00000000000E+00 -0.45593999997E+02  0.45594000000E+02  0.51100000000E-03 0.  1.
         23    2    1    2    0    0  0.35527136788E-14 -0.88817841970E-15  0.71054273576E-14  0.91188000000E+02  0.91188000000E+02 0.  0.
    9900012    2    3    3    0    0 -0.20534454950E+02  0.51937644750E+01 -0.37881182845E+02  0.47787273701E+02  0.20000012112E+02 0.  0.
         12    1    3    3    0    0  0.20534454950E+02 -0.51937644750E+01  0.37881182845E+02  0.43400726299E+02  0.00000000000E+00 0. -1.
         11    1    4    4    0    0 -0.61587576867E+00  0.47939508678E+00 -0.68054616437E+01  0.68500679600E+01  0.51100000000E-03 0. -1.
        -11    1    4    4    0    0 -0.10108827922E+02 -0.60161843912E+01 -0.10669500333E+02  0.15881470782E+02  0.51100000000E-03 0.  1.
        -12    1    4    4    0    0 -0.98097512593E+01  0.10730553779E+02 -0.20406220869E+02  0.25055734959E+02  0.00000000000E+00 0.  1.
</event>
<event>
 8    1  0.4042158E-011  0.9118800E+02  0.7816164E-02  0.1184000E+00
        -11   -1    0    0    0    0  0.00000000000E+00  0.00000000000E+00  0.45593999997E+02  0.45594000000E+02  0.51100000000E-03 0. -1.
         11   -1    0    0    0    0 -0.00000000000E+00 -0.00000000000E+00 -0.45593999997E+02  0.45594000000E+02  0.51100000000E-03 0.  1.
         23    2    1    2    0    0 -0.17763568394E-14 -0.35527136788E-14 -0.35527136788E-14  0.91188000000E+02  0.91188000000E+02 0.  0.
    9900012    2    3    3    0    0 -0.12742948517E+02 -0.27882031599E+02  0.30721817705E+02  0.47787302931E+02  0.20000145382E+02 0.  0.
        -12    1    3    3    0    0  0.12742948517E+02  0.27882031599E+02 -0.30721817705E+02  0.43400697069E+02  0.00000000000E+00 0.  1.
         11    1    4    4    0    0 -0.33269296393E+01 -0.18167751673E+02  0.20940396387E+02  0.27921960225E+02  0.51100000000E-03 0. -1.
        -11    1    4    4    0    0  0.14909875104E+01 -0.13332315845E+01  0.48613224033E+01  0.52567105669E+01  0.51100000000E-03 0.  1.
        -12    1    4    4    0    0 -0.10907006388E+02 -0.83810483412E+01  0.49200989150E+01  0.14608632139E+02  0.00000000000E+00 0.  1.
</event>
<event>
 8    1  0.4042158E-011  0.9118800E+02  0.7816164E-02  0.1184000E+00
        -11   -1    0    0    0    0  0.00000000000E+00  0.00000000000E+00  0.45593999997E+02  0.45594000000E+02  0.51100000000E-03 0. -1.
         11   -1    0    0    0    0 -0.00000000000E+00 -0.00000000000E+00 -0.45593999997E+02  0.45594000000E+02  0.51100000000E-03 0.  1.
         23    2    1    2    0    0  0.00000000000E+00 -0.35527136788E-14  0.17763568394E-14  0.91188000000E+02  0.91188000000E+02 0.  0.
    9900012    2    3    3    0    0 -0.36139338400E+02  0.18598010212E+02 -0.15221223728E+02  0.47787269412E+02  0.19999992555E+02 0.  0.
         12    1    3    3    0    0  0.36139338400E+02 -0.18598010212E+02  0.15221223728E+02  0.43400730588E+02  0.00000000000E+00 0. -1.
         11    1    4    4    0    0 -0.16055352591E+01 -0.22986429434E+01  0.30200112136E+00  0.28200545718E+01  0.51100000000E-03 0. -1.
        -11    1    4    4    0    0 -0.20429693140E+02  0.95531595183E+01 -0.14554534451E+02  0.26841566495E+02  0.51100000000E-03 0.  1.
         12    1    4    4    0    0 -0.14104110001E+02  0.11343493637E+02 -0.96869039822E+00  0.18125648344E+02  0.00000000000E+00 0. -1.
</event>
<event>
 8    1  0.4042158E-011  0.9118800E+02  0.7816164E-02  0.1184000E+00
        -11   -1    0    0    0    0  0.00000000000E+00  0.00000000000E+00  0.45593999997E+02  0.45594000000E+02  0.51100000000E-03 0. -1.
         11   -1    0    0    0    0 -0.00000000000E+00 -0.00000000000E+00 -0.45593999997E+02  0.45594000000E+02  0.51100000000E-03 0.  1.
         23    2    1    2    0    0  0.00000000000E+00 -0.11102230246E-15  0.00000000000E+00  0.91188000000E+02  0.91188000000E+02 0.  0.
    9900012    2    3    3    0    0 -0.22083704721E+02  0.81645258682E+00 -0.37353268407E+02  0.47787271092E+02  0.20000000217E+02 0.  0.
         12    1    3    3    0    0  0.22083704721E+02 -0.81645258682E+00  0.37353268407E+02  0.43400728908E+02  0.00000000000E+00 0. -1.
         11    1    4    4    0    0 -0.11805040871E+02  0.38327921959E+01 -0.23223887791E+02  0.26332456216E+02  0.51100000000E-03 0.  1.
        -11    1    4    4    0    0 -0.15122727584E+01  0.13021629060E+01 -0.11020678338E+02  0.11199908412E+02  0.51100000000E-03 0. -1.
         12    1    4    4    0    0 -0.87663910913E+01 -0.43185025151E+01 -0.31087022782E+01  0.10254906464E+02  0.00000000000E+00 0. -1.
</event>
<event>
 8    1  0.4042158E-011  0.9118800E+02  0.7816164E-02  0.1184000E+00
        -11   -1    0    0    0    0  0.00000000000E+00  0.00000000000E+00  0.45593999997E+02  0.45594000000E+02  0.51100000000E-03 0. -1.
         11   -1    0    0    0    0 -0.00000000000E+00 -0.00000000000E+00 -0.45593999997E+02  0.45594000000E+02  0.51100000000E-03 0.  1.
         23    2    1    2    0    0  0.35527136788E-14 -0.66613381478E-15  0.00000000000E+00  0.91188000000E+02  0.91188000000E+02 0.  0.
    9900012    2    3    3    0    0  0.22847595048E+02  0.11108082085E+01  0.36883282996E+02  0.47787273521E+02  0.20000011290E+02 0.  0.
        -12    1    3    3    0    0 -0.22847595048E+02 -0.11108082085E+01 -0.36883282996E+02  0.43400726479E+02  0.00000000000E+00 0.  1.
         11    1    4    4    0    0  0.53855646368E+01 -0.25795056715E+01  0.11390291705E+02  0.12860672663E+02  0.51100000000E-03 0. -1.
        -11    1    4    4    0    0  0.58132047745E+01 -0.34582226138E+01  0.94423429323E+00  0.68296582681E+01  0.51100000000E-03 0.  1.
         12    1    4    4    0    0  0.11648825637E+02  0.71485364938E+01  0.24548756998E+02  0.28096942590E+02  0.00000000000E+00 0. -1.
</event>
<event>
 8    1  0.4042158E-011  0.9118800E+02  0.7816164E-02  0.1184000E+00
        -11   -1    0    0    0    0  0.00000000000E+00  0.00000000000E+00  0.45593999997E+02  0.45594000000E+02  0.51100000000E-03 0. -1.
         11   -1    0    0    0    0 -0.00000000000E+00 -0.00000000000E+00 -0.45593999997E+02  0.45594000000E+02  0.51100000000E-03 0.  1.
         23    2    1    2    0    0 -0.88817841970E-15  0.00000000000E+00  0.00000000000E+00  0.91188000000E+02  0.91188000000E+02 0.  0.
    9900012    2    3    3    0    0  0.76142602990E+01 -0.74597292864E+01  0.42071354862E+02  0.47787269352E+02  0.19999992282E+02 0.  0.
        -12    1    3    3    0    0 -0.76142602990E+01  0.74597292864E+01 -0.42071354862E+02  0.43400730648E+02  0.00000000000E+00 0.  1.
         11    1    4    4    0    0  0.96306019557E+01 -0.79946913837E+01  0.16488191162E+02  0.20700822022E+02  0.51100000000E-03 0.  1.
        -11    1    4    4    0    0  0.30068631879E+01 -0.15919393653E+01  0.11117251487E+02  0.11626210822E+02  0.51100000000E-03 0. -1.
        -12    1    4    4    0    0 -0.50232048445E+01  0.21269014626E+01  0.14465912212E+02  0.15460236508E+02  0.00000000000E+00 0.  1.
</event>
<event>
 8    1  0.4042158E-011  0.9118800E+02  0.7816164E-02  0.1184000E+00
        -11   -1    0    0    0    0  0.00000000000E+00  0.00000000000E+00  0.45593999997E+02  0.45594000000E+02  0.51100000000E-03 0. -1.
         11   -1    0    0    0    0 -0.00000000000E+00 -0.00000000000E+00 -0.45593999997E+02  0.45594000000E+02  0.51100000000E-03 0.  1.
         23    2    1    2    0    0  0.00000000000E+00  0.00000000000E+00  0.35527136788E-14  0.91188000000E+02  0.91188000000E+02 0.  0.
    9900012    2    3    3    0    0 -0.38310611829E+02 -0.86929104355E+01  0.18448675530E+02  0.47787270751E+02  0.19999998661E+02 0.  0.
        -12    1    3    3    0    0  0.38310611829E+02  0.86929104355E+01 -0.18448675530E+02  0.43400729249E+02  0.00000000000E+00 0.  1.
         11    1    4    4    0    0 -0.10027163808E+02 -0.12890519211E+01  0.71189157274E+01  0.12364652453E+02  0.51100000000E-03 0. -1.
        -11    1    4    4    0    0 -0.27168194478E+02 -0.48681544010E+01  0.43866673736E+01  0.27947317749E+02  0.51100000000E-03 0.  1.
        -12    1    4    4    0    0 -0.11152535434E+01 -0.25357041135E+01  0.69430924290E+01  0.74753005488E+01  0.00000000000E+00 0.  1.
</event>
<event>
 8    1  0.4042158E-011  0.9118800E+02  0.7816164E-02  0.1184000E+00
        -11   -1    0    0    0    0  0.00000000000E+00  0.00000000000E+00  0.45593999997E+02  0.45594000000E+02  0.51100000000E-03 0. -1.
         11   -1    0    0    0    0 -0.00000000000E+00 -0.00000000000E+00 -0.45593999997E+02  0.45594000000E+02  0.51100000000E-03 0.  1.
         23    2    1    2    0    0  0.71054273576E-14  0.00000000000E+00  0.00000000000E+00  0.91188000000E+02  0.91188000000E+02 0.  0.
    9900012    2    3    3    0    0  0.42354803424E+02 -0.90422696969E+01  0.28162170112E+01  0.47787273133E+02  0.20000009520E+02 0.  0.
        -12    1    3    3    0    0 -0.42354803424E+02  0.90422696969E+01 -0.28162170112E+01  0.43400726867E+02  0.00000000000E+00 0.  1.
         11    1    4    4    0    0  0.42960086971E+01 -0.17736691387E+01  0.29743072476E+01  0.55179794131E+01  0.51100000000E-03 0. -1.
        -11    1    4    4    0    0  0.24487787467E+02  0.34846369065E+01 -0.22112762623E+01  0.24833126512E+02  0.51100000000E-03 0.  1.
        -12    1    4    4    0    0  0.13571007260E+02 -0.10753237465E+02  0.20531860259E+01  0.17436167208E+02  0.00000000000E+00 0.  1.
</event>
<event>
 8    1  0.4042158E-011  0.9118800E+02  0.7816164E-02  0.1184000E+00
        -11   -1    0    0    0    0  0.00000000000E+00  0.00000000000E+00  0.45593999997E+02  0.45594000000E+02  0.51100000000E-03 0. -1.
         11   -1    0    0    0    0 -0.00000000000E+00 -0.00000000000E+00 -0.45593999997E+02  0.45594000000E+02  0.51100000000E-03 0.  1.
         23    2    1    2    0    0  0.00000000000E+00  0.00000000000E+00  0.00000000000E+00  0.91188000000E+02  0.91188000000E+02 0.  0.
    9900012    2    3    3    0    0  0.27269069408E+02 -0.21071787332E+02 -0.26381824899E+02  0.47787273592E+02  0.20000011615E+02 0.  0.
         12    1    3    3    0    0 -0.27269069408E+02  0.21071787332E+02  0.26381824899E+02  0.43400726408E+02  0.00000000000E+00 0. -1.
         11    1    4    4    0    0  0.46143680456E+01 -0.51258140850E+01 -0.11739322916E+02  0.13615361371E+02  0.51100000000E-03 0. -1.
        -11    1    4    4    0    0  0.45223275942E+01 -0.10876600626E+02 -0.34740646929E+01  0.12280920723E+02  0.51100000000E-03 0.  1.
         12    1    4    4    0    0  0.18132373769E+02 -0.50693726209E+01 -0.11168437290E+02  0.21890991498E+02  0.00000000000E+00 0. -1.
</event>
<event>
 8    1  0.4042158E-011  0.9118800E+02  0.7816164E-02  0.1184000E+00
        -11   -1    0    0    0    0  0.00000000000E+00  0.00000000000E+00  0.45593999997E+02  0.45594000000E+02  0.51100000000E-03 0. -1.
         11   -1    0    0    0    0 -0.00000000000E+00 -0.00000000000E+00 -0.45593999997E+02  0.45594000000E+02  0.51100000000E-03 0.  1.
         23    2    1    2    0    0  0.00000000000E+00  0.33306690739E-15  0.00000000000E+00  0.91188000000E+02  0.91188000000E+02 0.  0.
    9900012    2    3    3    0    0  0.18990668473E+02  0.85266533407E+00 -0.39016037437E+02  0.47787266084E+02  0.19999977382E+02 0.  0.
         12    1    3    3    0    0 -0.18990668473E+02 -0.85266533407E+00  0.39016037437E+02  0.43400733916E+02  0.00000000000E+00 0. -1.
         11    1    4    4    0    0  0.57447626008E+01  0.23793900269E+01 -0.68511334107E+01  0.92521253511E+01  0.51100000000E-03 0. -1.
        -11    1    4    4    0    0  0.46900006829E+01  0.68721356548E+01 -0.18926972990E+02  0.20674928336E+02  0.51100000000E-03 0.  1.
         12    1    4    4    0    0  0.85559051894E+01 -0.83988603476E+01 -0.13237931036E+02  0.17860212397E+02  0.00000000000E+00 0. -1.
</event>
<event>
 8    1  0.4042158E-011  0.9118800E+02  0.7816164E-02  0.1184000E+00
        -11   -1    0    0    0    0  0.00000000000E+00  0.00000000000E+00  0.45593999997E+02  0.45594000000E+02  0.51100000000E-03 0. -1.
         11   -1    0    0    0    0 -0.00000000000E+00 -0.00000000000E+00 -0.45593999997E+02  0.45594000000E+02  0.51100000000E-03 0.  1.
         23    2    1    2    0    0 -0.35527136788E-14  0.66613381478E-15  0.71054273576E-14  0.91188000000E+02  0.91188000000E+02 0.  0.
    9900012    2    3    3    0    0 -0.13980993065E+02  0.18818808945E+01  0.41044078786E+02  0.47787239106E+02  0.19999854380E+02 0.  0.
        -12    1    3    3    0    0  0.13980993065E+02 -0.18818808945E+01 -0.41044078786E+02  0.43400760894E+02  0.00000000000E+00 0.  1.
         11    1    4    4    0    0 -0.64654406597E+01  0.13296023434E+00  0.71184791580E+01  0.96172941689E+01  0.51100000000E-03 0. -1.
        -11    1    4    4    0    0 -0.49391065332E+01  0.86772614675E+01  0.21634328457E+02  0.23827165336E+02  0.51100000000E-03 0.  1.
        -12    1    4    4    0    0 -0.25764458718E+01 -0.69283408074E+01  0.12291271172E+02  0.14342779601E+02  0.00000000000E+00 0.  1.
</event>
<event>
 8    1  0.4042158E-011  0.9118800E+02  0.7816164E-02  0.1184000E+00
        -11   -1    0    0    0    0  0.00000000000E+00  0.00000000000E+00  0.45593999997E+02  0.45594000000E+02  0.51100000000E-03 0. -1.
         11   -1    0    0    0    0 -0.00000000000E+00 -0.00000000000E+00 -0.45593999997E+02  0.45594000000E+02  0.51100000000E-03 0.  1.
         23    2    1    2    0    0  0.00000000000E+00  0.17763568394E-14  0.00000000000E+00  0.91188000000E+02  0.91188000000E+02 0.  0.
    9900012    2    3    3    0    0 -0.30145898661E+02  0.81477394643E+01 -0.30140717252E+02  0.47787266125E+02  0.19999977570E+02 0.  0.
         12    1    3    3    0    0  0.30145898661E+02 -0.81477394643E+01  0.30140717252E+02  0.43400733875E+02  0.00000000000E+00 0. -1.
         11    1    4    4    0    0  0.17164383596E+01  0.26906216780E+01 -0.30123565300E+01  0.43886100056E+01  0.51100000000E-03 0. -1.
        -11    1    4    4    0    0 -0.34508188178E+01  0.37466251689E+01 -0.64421302922E+01  0.82125753349E+01  0.51100000000E-03 0.  1.
        -12    1    4    4    0    0 -0.28411518203E+02  0.17104926175E+01 -0.20686230430E+02  0.35186080784E+02  0.00000000000E+00 0.  1.
</event>
<event>
 8    1  0.4042158E-011  0.9118800E+02  0.7816164E-02  0.1184000E+00
        -11   -1    0    0    0    0  0.00000000000E+00  0.00000000000E+00  0.45593999997E+02  0.45594000000E+02  0.51100000000E-03 0. -1.
         11   -1    0    0    0    0 -0.00000000000E+00 -0.00000000000E+00 -0.45593999997E+02  0.45594000000E+02  0.51100000000E-03 0.  1.
         23    2    1    2    0    0  0.00000000000E+00  0.00000000000E+00  0.00000000000E+00  0.91188000000E+02  0.91188000000E+02 0.  0.
    9900012    2    3    3    0    0 -0.11424728175E+02  0.18639709450E+02 -0.37492138539E+02  0.47787266890E+02  0.19999981058E+02 0.  0.
         12    1    3    3    0    0  0.11424728175E+02 -0.18639709450E+02  0.37492138539E+02  0.43400733110E+02  0.00000000000E+00 0. -1.
         11    1    4    4    0    0  0.20705166496E+01 -0.20692081129E+01 -0.74705688416E+01  0.80235939883E+01  0.51100000000E-03 0. -1.
        -11    1    4    4    0    0 -0.34924720609E+01  0.14222891737E+01 -0.18870104839E+01  0.42167613659E+01  0.51100000000E-03 0.  1.
        -12    1    4    4    0    0 -0.10002772763E+02  0.19286628389E+02 -0.28134559214E+02  0.35546911536E+02  0.00000000000E+00 0.  1.
</event>
<event>
 8    1  0.4042158E-011  0.9118800E+02  0.7816164E-02  0.1184000E+00
        -11   -1    0    0    0    0  0.00000000000E+00  0.00000000000E+00  0.45593999997E+02  0.45594000000E+02  0.51100000000E-03 0. -1.
         11   -1    0    0    0    0 -0.00000000000E+00 -0.00000000000E+00 -0.45593999997E+02  0.45594000000E+02  0.51100000000E-03 0.  1.
         23    2    1    2    0    0  0.00000000000E+00  0.00000000000E+00  0.00000000000E+00  0.91188000000E+02  0.91188000000E+02 0.  0.
    9900012    2    3    3    0    0 -0.18114555038E+02 -0.45804784205E+01 -0.39172763459E+02  0.47787270930E+02  0.19999999480E+02 0.  0.
         12    1    3    3    0    0  0.18114555038E+02  0.45804784205E+01  0.39172763459E+02  0.43400729070E+02  0.00000000000E+00 0. -1.
         11    1    4    4    0    0  0.19616076241E+01 -0.22088859114E+00 -0.82418805853E+01  0.84749803589E+01  0.51100000000E-03 0.  1.
        -11    1    4    4    0    0  0.34371898829E+00 -0.28422586463E+01 -0.83637340983E+01  0.88401711117E+01  0.51100000000E-03 0. -1.
         12    1    4    4    0    0 -0.20419881650E+02 -0.15173311830E+01 -0.22567148775E+02  0.30472119460E+02  0.00000000000E+00 0. -1.
</event>
<event>
 8    1  0.4042158E-011  0.9118800E+02  0.7816164E-02  0.1184000E+00
        -11   -1    0    0    0    0  0.00000000000E+00  0.00000000000E+00  0.45593999997E+02  0.45594000000E+02  0.51100000000E-03 0. -1.
         11   -1    0    0    0    0 -0.00000000000E+00 -0.00000000000E+00 -0.45593999997E+02  0.45594000000E+02  0.51100000000E-03 0.  1.
         23    2    1    2    0    0  0.00000000000E+00  0.88817841970E-15  0.00000000000E+00  0.91188000000E+02  0.91188000000E+02 0.  0.
    9900012    2    3    3    0    0  0.93454845286E+01 -0.60756946212E+01  0.41944860342E+02  0.47787268954E+02  0.19999990470E+02 0.  0.
        -12    1    3    3    0    0 -0.93454845286E+01  0.60756946212E+01 -0.41944860342E+02  0.43400731046E+02  0.00000000000E+00 0.  1.
         11    1    4    4    0    0  0.63333284490E+01  0.28149408914E+01  0.50285433847E+01  0.85627793559E+01  0.51100000000E-03 0.  1.
        -11    1    4    4    0    0  0.20045624305E+01  0.94347523231E+00  0.15242447426E+02  0.15402617305E+02  0.51100000000E-03 0. -1.
        -12    1    4    4    0    0  0.10075936492E+01 -0.98341107449E+01  0.21673869531E+02  0.23821872293E+02  0.00000000000E+00 0.  1.
</event>
<event>
 8    1  0.4042158E-011  0.9118800E+02  0.7816164E-02  0.1184000E+00
        -11   -1    0    0    0    0  0.00000000000E+00  0.00000000000E+00  0.45593999997E+02  0.45594000000E+02  0.51100000000E-03 0. -1.
         11   -1    0    0    0    0 -0.00000000000E+00 -0.00000000000E+00 -0.45593999997E+02  0.45594000000E+02  0.51100000000E-03 0.  1.
         23    2    1    2    0    0  0.00000000000E+00 -0.17763568394E-14  0.00000000000E+00  0.91188000000E+02  0.91188000000E+02 0.  0.
    9900012    2    3    3    0    0  0.24923529691E+01  0.12390256121E+02 -0.41519787435E+02  0.47787273984E+02  0.20000013401E+02 0.  0.
         12    1    3    3    0    0 -0.24923529691E+01 -0.12390256121E+02  0.41519787435E+02  0.43400726016E+02  0.00000000000E+00 0. -1.
         11    1    4    4    0    0  0.47547597881E+01 -0.31454888186E+01 -0.13724022116E+02  0.14861043835E+02  0.51100000000E-03 0. -1.
        -11    1    4    4    0    0 -0.34851941241E+01  0.37047370522E+01 -0.12885706881E+02  0.13853270256E+02  0.51100000000E-03 0.  1.
         12    1    4    4    0    0  0.12227873050E+01  0.11831007888E+02 -0.14910058438E+02  0.19072959893E+02  0.00000000000E+00 0. -1.
</event>
<event>
 8    1  0.4042158E-011  0.9118800E+02  0.7816164E-02  0.1184000E+00
        -11   -1    0    0    0    0  0.00000000000E+00  0.00000000000E+00  0.45593999997E+02  0.45594000000E+02  0.51100000000E-03 0.  1.
         11   -1    0    0    0    0 -0.00000000000E+00 -0.00000000000E+00 -0.45593999997E+02  0.45594000000E+02  0.51100000000E-03 0. -1.
         23    2    1    2    0    0  0.00000000000E+00  0.35527136788E-14  0.35527136788E-14  0.91188000000E+02  0.91188000000E+02 0.  0.
    9900012    2    3    3    0    0 -0.29957671788E+02 -0.26758839115E+02  0.16435507327E+02  0.47787268775E+02  0.19999989651E+02 0.  0.
        -12    1    3    3    0    0  0.29957671788E+02  0.26758839115E+02 -0.16435507327E+02  0.43400731225E+02  0.00000000000E+00 0.  1.
         11    1    4    4    0    0 -0.49901685126E+01 -0.99026959932E+01  0.13493670593E+01  0.11170763691E+02  0.51100000000E-03 0. -1.
        -11    1    4    4    0    0 -0.23744099287E+02 -0.13606988168E+02  0.17413226227E+02  0.32436905306E+02  0.51100000000E-03 0.  1.
        -12    1    4    4    0    0 -0.12234039893E+01 -0.32491549544E+01 -0.23270859595E+01  0.41795997777E+01  0.00000000000E+00 0.  1.
</event>
<event>
 8    1  0.4042158E-011  0.9118800E+02  0.7816164E-02  0.1184000E+00
        -11   -1    0    0    0    0  0.00000000000E+00  0.00000000000E+00  0.45593999997E+02  0.45594000000E+02  0.51100000000E-03 0. -1.
         11   -1    0    0    0    0 -0.00000000000E+00 -0.00000000000E+00 -0.45593999997E+02  0.45594000000E+02  0.51100000000E-03 0.  1.
         23    2    1    2    0    0 -0.71054273576E-14 -0.17763568394E-14 -0.17763568394E-14  0.91188000000E+02  0.91188000000E+02 0.  0.
    9900012    2    3    3    0    0 -0.41762930554E+02 -0.93960778819E+01 -0.71550400717E+01  0.47787271361E+02  0.20000001443E+02 0.  0.
         12    1    3    3    0    0  0.41762930554E+02  0.93960778819E+01  0.71550400717E+01  0.43400728639E+02  0.00000000000E+00 0. -1.
         11    1    4    4    0    0 -0.20537920632E+02 -0.34634414592E+01 -0.10411063344E+01  0.20853908825E+02  0.51100000000E-03 0. -1.
        -11    1    4    4    0    0 -0.21654280071E+02 -0.15555983607E+01 -0.60403117375E+01  0.22534708735E+02  0.51100000000E-03 0.  1.
         12    1    4    4    0    0  0.42927014908E+00 -0.43770380620E+01 -0.73621999749E-01  0.43986538004E+01  0.00000000000E+00 0. -1.
</event>
<event>
 8    1  0.4042158E-011  0.9118800E+02  0.7816164E-02  0.1184000E+00
        -11   -1    0    0    0    0  0.00000000000E+00  0.00000000000E+00  0.45593999997E+02  0.45594000000E+02  0.51100000000E-03 0.  1.
         11   -1    0    0    0    0 -0.00000000000E+00 -0.00000000000E+00 -0.45593999997E+02  0.45594000000E+02  0.51100000000E-03 0. -1.
         23    2    1    2    0    0  0.17763568394E-14  0.71054273576E-14  0.00000000000E+00  0.91188000000E+02  0.91188000000E+02 0.  0.
    9900012    2    3    3    0    0  0.14499550115E+02  0.37888033677E+02 -0.15423462579E+02  0.47787271350E+02  0.20000001392E+02 0.  0.
        -12    1    3    3    0    0 -0.14499550115E+02 -0.37888033677E+02  0.15423462579E+02  0.43400728650E+02  0.00000000000E+00 0.  1.
         11    1    4    4    0    0  0.53901207329E+01  0.11980624931E+02  0.14734174548E+01  0.13219672254E+02  0.51100000000E-03 0. -1.
        -11    1    4    4    0    0 -0.20008774837E+01  0.51199063987E+01  0.11689679077E+00  0.54982376592E+01  0.51100000000E-03 0.  1.
         12    1    4    4    0    0  0.11110306866E+02  0.20787502347E+02 -0.17013776824E+02  0.29069361436E+02  0.00000000000E+00 0. -1.
</event>
<event>
 8    1  0.4042158E-011  0.9118800E+02  0.7816164E-02  0.1184000E+00
        -11   -1    0    0    0    0  0.00000000000E+00  0.00000000000E+00  0.45593999997E+02  0.45594000000E+02  0.51100000000E-03 0. -1.
         11   -1    0    0    0    0 -0.00000000000E+00 -0.00000000000E+00 -0.45593999997E+02  0.45594000000E+02  0.51100000000E-03 0.  1.
         23    2    1    2    0    0  0.00000000000E+00  0.00000000000E+00  0.35527136788E-14  0.91188000000E+02  0.91188000000E+02 0.  0.
    9900012    2    3    3    0    0 -0.39137405199E+02  0.85252187208E+01  0.16709472612E+02  0.47787282092E+02  0.20000050372E+02 0.  0.
        -12    1    3    3    0    0  0.39137405199E+02 -0.85252187208E+01 -0.16709472612E+02  0.43400717908E+02  0.00000000000E+00 0.  1.
         11    1    4    4    0    0 -0.25749598526E+01 -0.19635260556E+01  0.31869183742E+01  0.45433799971E+01  0.51100000000E-03 0. -1.
        -11    1    4    4    0    0  0.13261303378E+01  0.17403224740E+01  0.81135793594E+00  0.23335907841E+01  0.51100000000E-03 0.  1.
        -12    1    4    4    0    0 -0.37888575684E+02  0.87484223023E+01  0.12711196302E+02  0.40910311311E+02  0.00000000000E+00 0.  1.
</event>
<event>
 8    1  0.4042158E-011  0.9118800E+02  0.7816164E-02  0.1184000E+00
        -11   -1    0    0    0    0  0.00000000000E+00  0.00000000000E+00  0.45593999997E+02  0.45594000000E+02  0.51100000000E-03 0.  1.
         11   -1    0    0    0    0 -0.00000000000E+00 -0.00000000000E+00 -0.45593999997E+02  0.45594000000E+02  0.51100000000E-03 0. -1.
         23    2    1    2    0    0  0.00000000000E+00  0.00000000000E+00  0.00000000000E+00  0.91188000000E+02  0.91188000000E+02 0.  0.
    9900012    2    3    3    0    0 -0.31213037241E+02  0.11380946473E+02 -0.27925688264E+02  0.47787266119E+02  0.19999977541E+02 0.  0.
         12    1    3    3    0    0  0.31213037241E+02 -0.11380946473E+02  0.27925688264E+02  0.43400733881E+02  0.00000000000E+00 0. -1.
         11    1    4    4    0    0  0.99179499684E+00  0.51278969447E+00 -0.24765184073E+00  0.11436530426E+01  0.51100000000E-03 0. -1.
        -11    1    4    4    0    0 -0.22914985170E+02  0.49375809571E+01 -0.93087979416E+01  0.25221617125E+02  0.51100000000E-03 0.  1.
         12    1    4    4    0    0 -0.92898470680E+01  0.59305758211E+01 -0.18369238482E+02  0.21421995951E+02  0.00000000000E+00 0. -1.
</event>
<event>
 8    1  0.4042158E-011  0.9118800E+02  0.7816164E-02  0.1184000E+00
        -11   -1    0    0    0    0  0.00000000000E+00  0.00000000000E+00  0.45593999997E+02  0.45594000000E+02  0.51100000000E-03 0.  1.
         11   -1    0    0    0    0 -0.00000000000E+00 -0.00000000000E+00 -0.45593999997E+02  0.45594000000E+02  0.51100000000E-03 0. -1.
         23    2    1    2    0    0  0.00000000000E+00  0.71054273576E-14  0.00000000000E+00  0.91188000000E+02  0.91188000000E+02 0.  0.
    9900012    2    3    3    0    0 -0.22281600870E+02 -0.36755395658E+02  0.60161857151E+01  0.47787270307E+02  0.19999996639E+02 0.  0.
        -12    1    3    3    0    0  0.22281600870E+02  0.36755395658E+02 -0.60161857151E+01  0.43400729693E+02  0.00000000000E+00 0.  1.
         11    1    4    4    0    0 -0.36030058138E+01 -0.84081440973E+01  0.32847955998E+01  0.97194866351E+01  0.51100000000E-03 0. -1.
        -11    1    4    4    0    0 -0.10967801645E+02 -0.33767466127E+01 -0.15682787277E+01  0.11582512208E+02  0.51100000000E-03 0.  1.
         12    1    4    4    0    0 -0.77107934109E+01 -0.24970504948E+02  0.42996688429E+01  0.26485271464E+02  0.00000000000E+00 0. -1.
</event>
<event>
 8    1  0.4042158E-011  0.9118800E+02  0.7816164E-02  0.1184000E+00
        -11   -1    0    0    0    0  0.00000000000E+00  0.00000000000E+00  0.45593999997E+02  0.45594000000E+02  0.51100000000E-03 0. -1.
         11   -1    0    0    0    0 -0.00000000000E+00 -0.00000000000E+00 -0.45593999997E+02  0.45594000000E+02  0.51100000000E-03 0.  1.
         23    2    1    2    0    0  0.00000000000E+00  0.17763568394E-14  0.00000000000E+00  0.91188000000E+02  0.91188000000E+02 0.  0.
    9900012    2    3    3    0    0  0.21713987961E+02 -0.13408166678E+02  0.35104790060E+02  0.47787280052E+02  0.20000041070E+02 0.  0.
        -12    1    3    3    0    0 -0.21713987961E+02  0.13408166678E+02 -0.35104790060E+02  0.43400719948E+02  0.00000000000E+00 0.  1.
         11    1    4    4    0    0  0.12737411835E+02 -0.47198058683E+01  0.10434139456E+02  0.17128616235E+02  0.51100000000E-03 0. -1.
        -11    1    4    4    0    0  0.80780238685E+01  0.97991480842E+00  0.82895812804E+01  0.11616017421E+02  0.51100000000E-03 0.  1.
        -12    1    4    4    0    0  0.89855225706E+00 -0.96682756179E+01  0.16381069324E+02  0.19042646396E+02  0.00000000000E+00 0.  1.
</event>
<event>
 8    1  0.4042158E-011  0.9118800E+02  0.7816164E-02  0.1184000E+00
        -11   -1    0    0    0    0  0.00000000000E+00  0.00000000000E+00  0.45593999997E+02  0.45594000000E+02  0.51100000000E-03 0.  1.
         11   -1    0    0    0    0 -0.00000000000E+00 -0.00000000000E+00 -0.45593999997E+02  0.45594000000E+02  0.51100000000E-03 0. -1.
         23    2    1    2    0    0  0.00000000000E+00  0.00000000000E+00  0.77715611724E-15  0.91188000000E+02  0.91188000000E+02 0.  0.
    9900012    2    3    3    0    0 -0.40062623839E+02 -0.16664114926E+02  0.95756113788E+00  0.47787268687E+02  0.19999989252E+02 0.  0.
        -12    1    3    3    0    0  0.40062623839E+02  0.16664114926E+02 -0.95756113788E+00  0.43400731313E+02  0.00000000000E+00 0.  1.
         11    1    4    4    0    0 -0.19963070595E+02 -0.24522580296E+01 -0.32635271717E+01  0.20376171547E+02  0.51100000000E-03 0. -1.
        -11    1    4    4    0    0 -0.15479746939E+02 -0.11300541776E+02 -0.18389519677E+01  0.19253741307E+02  0.51100000000E-03 0.  1.
        -12    1    4    4    0    0 -0.46198063048E+01 -0.29113151209E+01  0.60600402772E+01  0.81573558331E+01  0.00000000000E+00 0.  1.
</event>
<event>
 8    1  0.4042158E-011  0.9118800E+02  0.7816164E-02  0.1184000E+00
        -11   -1    0    0    0    0  0.00000000000E+00  0.00000000000E+00  0.45593999997E+02  0.45594000000E+02  0.51100000000E-03 0. -1.
         11   -1    0    0    0    0 -0.00000000000E+00 -0.00000000000E+00 -0.45593999997E+02  0.45594000000E+02  0.51100000000E-03 0.  1.
         23    2    1    2    0    0  0.00000000000E+00  0.26645352591E-14  0.00000000000E+00  0.91188000000E+02  0.91188000000E+02 0.  0.
    9900012    2    3    3    0    0  0.33238654599E+02  0.53983641943E+01 -0.27380153765E+02  0.47787270562E+02  0.19999997802E+02 0.  0.
         12    1    3    3    0    0 -0.33238654599E+02 -0.53983641943E+01  0.27380153765E+02  0.43400729438E+02  0.00000000000E+00 0. -1.
         11    1    4    4    0    0  0.23175082450E+02  0.11008521236E+02 -0.16360992150E+02  0.30429493107E+02  0.51100000000E-03 0.  1.
        -11    1    4    4    0    0 -0.45648308973E+00  0.91893717484E+00 -0.73267227230E+00  0.12608057988E+01  0.51100000000E-03 0. -1.
        -12    1    4    4    0    0  0.10520055239E+02 -0.65290942163E+01 -0.10286489343E+02  0.16096971657E+02  0.00000000000E+00 0.  1.
</event>
<event>
 8    1  0.4042158E-011  0.9118800E+02  0.7816164E-02  0.1184000E+00
        -11   -1    0    0    0    0  0.00000000000E+00  0.00000000000E+00  0.45593999997E+02  0.45594000000E+02  0.51100000000E-03 0. -1.
         11   -1    0    0    0    0 -0.00000000000E+00 -0.00000000000E+00 -0.45593999997E+02  0.45594000000E+02  0.51100000000E-03 0.  1.
         23    2    1    2    0    0  0.17763568394E-14 -0.71054273576E-14  0.00000000000E+00  0.91188000000E+02  0.91188000000E+02 0.  0.
    9900012    2    3    3    0    0  0.11073381382E+02 -0.37610779890E+02 -0.18612710688E+02  0.47787267998E+02  0.19999986109E+02 0.  0.
         12    1    3    3    0    0 -0.11073381382E+02  0.37610779890E+02  0.18612710688E+02  0.43400732002E+02  0.00000000000E+00 0. -1.
         11    1    4    4    0    0  0.89341896170E+01 -0.15356547386E+02 -0.49946888136E+01  0.18455086246E+02  0.51100000000E-03 0. -1.
        -11    1    4    4    0    0  0.37832438588E+01 -0.63128464032E+01  0.12575829031E+01  0.74663564625E+01  0.51100000000E-03 0.  1.
        -12    1    4    4    0    0 -0.16440520937E+01 -0.15941386101E+02 -0.14875604777E+02  0.21865825289E+02  0.00000000000E+00 0.  1.
</event>
<event>
 8    1  0.4042158E-011  0.9118800E+02  0.7816164E-02  0.1184000E+00
        -11   -1    0    0    0    0  0.00000000000E+00  0.00000000000E+00  0.45593999997E+02  0.45594000000E+02  0.51100000000E-03 0. -1.
         11   -1    0    0    0    0 -0.00000000000E+00 -0.00000000000E+00 -0.45593999997E+02  0.45594000000E+02  0.51100000000E-03 0.  1.
         23    2    1    2    0    0 -0.88817841970E-15  0.00000000000E+00  0.00000000000E+00  0.91188000000E+02  0.91188000000E+02 0.  0.
    9900012    2    3    3    0    0  0.51320872990E+01  0.13979097029E+02  0.40766035315E+02  0.47787272943E+02  0.20000008657E+02 0.  0.
        -12    1    3    3    0    0 -0.51320872990E+01 -0.13979097029E+02 -0.40766035315E+02  0.43400727057E+02  0.00000000000E+00 0.  1.
         11    1    4    4    0    0  0.40118693276E+01  0.74446301712E+01  0.14177050998E+02  0.16507767540E+02  0.51100000000E-03 0. -1.
        -11    1    4    4    0    0  0.72863185038E+01  0.35274265751E+01  0.76567760553E+01  0.11142683492E+02  0.51100000000E-03 0.  1.
         12    1    4    4    0    0 -0.61661005324E+01  0.30070402832E+01  0.18932208261E+02  0.20136821911E+02  0.00000000000E+00 0. -1.
</event>
<event>
 8    1  0.4042158E-011  0.9118800E+02  0.7816164E-02  0.1184000E+00
        -11   -1    0    0    0    0  0.00000000000E+00  0.00000000000E+00  0.45593999997E+02  0.45594000000E+02  0.51100000000E-03 0. -1.
         11   -1    0    0    0    0 -0.00000000000E+00 -0.00000000000E+00 -0.45593999997E+02  0.45594000000E+02  0.51100000000E-03 0.  1.
         23    2    1    2    0    0 -0.26645352591E-14  0.00000000000E+00 -0.71054273576E-14  0.91188000000E+02  0.91188000000E+02 0.  0.
    9900012    2    3    3    0    0 -0.67758506865E+01 -0.20434944806E+02 -0.37684509133E+02  0.47787293205E+02  0.20000101038E+02 0.  0.
         12    1    3    3    0    0  0.67758506865E+01  0.20434944806E+02  0.37684509133E+02  0.43400706795E+02  0.00000000000E+00 0. -1.
         11    1    4    4    0    0 -0.51036623412E+01 -0.15612598216E+02 -0.28932276825E+02  0.33269764575E+02  0.51100000000E-03 0. -1.
        -11    1    4    4    0    0 -0.40313381302E+01 -0.61349196536E+01 -0.92117208415E+01  0.11778995178E+02  0.51100000000E-03 0.  1.
         12    1    4    4    0    0  0.23591497850E+01  0.13125730631E+01  0.45948853420E+00  0.27385334519E+01  0.00000000000E+00 0. -1.
</event>
<event>
 8    1  0.4042158E-011  0.9118800E+02  0.7816164E-02  0.1184000E+00
        -11   -1    0    0    0    0  0.00000000000E+00  0.00000000000E+00  0.45593999997E+02  0.45594000000E+02  0.51100000000E-03 0. -1.
         11   -1    0    0    0    0 -0.00000000000E+00 -0.00000000000E+00 -0.45593999997E+02  0.45594000000E+02  0.51100000000E-03 0.  1.
         23    2    1    2    0    0 -0.35527136788E-14  0.00000000000E+00  0.00000000000E+00  0.91188000000E+02  0.91188000000E+02 0.  0.
    9900012    2    3    3    0    0 -0.26210490567E+02  0.25603162086E+01  0.34497541642E+02  0.47787246387E+02  0.19999887575E+02 0.  0.
        -12    1    3    3    0    0  0.26210490567E+02 -0.25603162086E+01 -0.34497541642E+02  0.43400753613E+02  0.00000000000E+00 0.  1.
         11    1    4    4    0    0 -0.90658624622E+01 -0.48775254505E+01  0.55171824702E+01  0.11679872404E+02  0.51100000000E-03 0. -1.
        -11    1    4    4    0    0 -0.39108926832E+01  0.51415443457E+01  0.36081027522E+01  0.73992543928E+01  0.51100000000E-03 0.  1.
         12    1    4    4    0    0 -0.13233735421E+02  0.22962973133E+01  0.25372256420E+02  0.28708119590E+02  0.00000000000E+00 0. -1.
</event>
<event>
 8    1  0.4042158E-011  0.9118800E+02  0.7816164E-02  0.1184000E+00
        -11   -1    0    0    0    0  0.00000000000E+00  0.00000000000E+00  0.45593999997E+02  0.45594000000E+02  0.51100000000E-03 0. -1.
         11   -1    0    0    0    0 -0.00000000000E+00 -0.00000000000E+00 -0.45593999997E+02  0.45594000000E+02  0.51100000000E-03 0.  1.
         23    2    1    2    0    0  0.00000000000E+00  0.00000000000E+00  0.00000000000E+00  0.91188000000E+02  0.91188000000E+02 0.  0.
    9900012    2    3    3    0    0 -0.29509965503E+02 -0.19374634433E+02 -0.25246956350E+02  0.47787270417E+02  0.19999997141E+02 0.  0.
         12    1    3    3    0    0  0.29509965503E+02  0.19374634433E+02  0.25246956350E+02  0.43400729583E+02  0.00000000000E+00 0. -1.
         11    1    4    4    0    0 -0.14682246556E+02 -0.33500009631E+01 -0.82266568465E+01  0.17160091885E+02  0.51100000000E-03 0. -1.
        -11    1    4    4    0    0 -0.10984370261E+02 -0.23911883499E+01 -0.85431652084E+01  0.14119484544E+02  0.51100000000E-03 0.  1.
        -12    1    4    4    0    0 -0.38433486868E+01 -0.13633445120E+02 -0.84771342946E+01  0.16507693988E+02  0.00000000000E+00 0.  1.
</event>
<event>
 8    1  0.4042158E-011  0.9118800E+02  0.7816164E-02  0.1184000E+00
        -11   -1    0    0    0    0  0.00000000000E+00  0.00000000000E+00  0.45593999997E+02  0.45594000000E+02  0.51100000000E-03 0. -1.
         11   -1    0    0    0    0 -0.00000000000E+00 -0.00000000000E+00 -0.45593999997E+02  0.45594000000E+02  0.51100000000E-03 0.  1.
         23    2    1    2    0    0  0.22204460493E-15  0.00000000000E+00 -0.71054273576E-14  0.91188000000E+02  0.91188000000E+02 0.  0.
    9900012    2    3    3    0    0 -0.17862234436E+01 -0.22135148833E+01 -0.43307435499E+02  0.47787260239E+02  0.19999950732E+02 0.  0.
         12    1    3    3    0    0  0.17862234436E+01  0.22135148833E+01  0.43307435499E+02  0.43400739761E+02  0.00000000000E+00 0. -1.
         11    1    4    4    0    0 -0.53281822241E+01 -0.28306212161E+01 -0.17701115286E+02  0.18701107585E+02  0.51100000000E-03 0. -1.
        -11    1    4    4    0    0  0.84128728762E-01  0.62945315699E+00 -0.25620402622E+02  0.25628271883E+02  0.51100000000E-03 0.  1.
         12    1    4    4    0    0  0.34578300517E+01 -0.12346824232E-01  0.14082408870E-01  0.34578807708E+01  0.00000000000E+00 0. -1.
</event>
<event>
 8    1  0.4042158E-011  0.9118800E+02  0.7816164E-02  0.1184000E+00
        -11   -1    0    0    0    0  0.00000000000E+00  0.00000000000E+00  0.45593999997E+02  0.45594000000E+02  0.51100000000E-03 0. -1.
         11   -1    0    0    0    0 -0.00000000000E+00 -0.00000000000E+00 -0.45593999997E+02  0.45594000000E+02  0.51100000000E-03 0.  1.
         23    2    1    2    0    0  0.00000000000E+00  0.88817841970E-15  0.00000000000E+00  0.91188000000E+02  0.91188000000E+02 0.  0.
    9900012    2    3    3    0    0  0.16643423973E+02 -0.69043588588E+01  0.39483535058E+02  0.47787271049E+02  0.20000000021E+02 0.  0.
        -12    1    3    3    0    0 -0.16643423973E+02  0.69043588588E+01 -0.39483535058E+02  0.43400728951E+02  0.00000000000E+00 0.  1.
         11    1    4    4    0    0  0.77069706260E+01 -0.44221533968E+01  0.57094640149E+01  0.10561761998E+02  0.51100000000E-03 0. -1.
        -11    1    4    4    0    0  0.12265639203E+01 -0.50823986293E+01  0.46862400124E+01  0.70211167625E+01  0.51100000000E-03 0.  1.
         12    1    4    4    0    0  0.77098894271E+01  0.26001931672E+01  0.29087831030E+02  0.30204392289E+02  0.00000000000E+00 0. -1.
</event>
<event>
 8    1  0.4042158E-011  0.9118800E+02  0.7816164E-02  0.1184000E+00
        -11   -1    0    0    0    0  0.00000000000E+00  0.00000000000E+00  0.45593999997E+02  0.45594000000E+02  0.51100000000E-03 0. -1.
         11   -1    0    0    0    0 -0.00000000000E+00 -0.00000000000E+00 -0.45593999997E+02  0.45594000000E+02  0.51100000000E-03 0.  1.
         23    2    1    2    0    0  0.17763568394E-14  0.00000000000E+00  0.00000000000E+00  0.91188000000E+02  0.91188000000E+02 0.  0.
    9900012    2    3    3    0    0  0.90598912795E+01 -0.18548230290E+02  0.38177284746E+02  0.47787267892E+02  0.19999985628E+02 0.  0.
        -12    1    3    3    0    0 -0.90598912795E+01  0.18548230290E+02 -0.38177284746E+02  0.43400732108E+02  0.00000000000E+00 0.  1.
         11    1    4    4    0    0  0.26930949014E+01 -0.66349547953E+01  0.21232695148E+02  0.22407648890E+02  0.51100000000E-03 0. -1.
        -11    1    4    4    0    0 -0.18557710696E+01 -0.13787232628E+01 -0.13855164875E+01  0.26952588552E+01  0.51100000000E-03 0.  1.
         12    1    4    4    0    0  0.82225674476E+01 -0.10534552232E+02  0.18330106086E+02  0.22684360147E+02  0.00000000000E+00 0. -1.
</event>
<event>
 8    1  0.4042158E-011  0.9118800E+02  0.7816164E-02  0.1184000E+00
        -11   -1    0    0    0    0  0.00000000000E+00  0.00000000000E+00  0.45593999997E+02  0.45594000000E+02  0.51100000000E-03 0. -1.
         11   -1    0    0    0    0 -0.00000000000E+00 -0.00000000000E+00 -0.45593999997E+02  0.45594000000E+02  0.51100000000E-03 0.  1.
         23    2    1    2    0    0  0.00000000000E+00 -0.35527136788E-14  0.00000000000E+00  0.91188000000E+02  0.91188000000E+02 0.  0.
    9900012    2    3    3    0    0  0.26733115041E+02  0.25288384490E+02 -0.23010027895E+02  0.47787271739E+02  0.20000003165E+02 0.  0.
         12    1    3    3    0    0 -0.26733115041E+02 -0.25288384490E+02  0.23010027895E+02  0.43400728261E+02  0.00000000000E+00 0. -1.
         11    1    4    4    0    0  0.86254610600E+01  0.19730868444E+01 -0.25465039078E+00  0.88519205416E+01  0.51100000000E-03 0. -1.
        -11    1    4    4    0    0  0.63003299410E+01  0.14583060783E+01 -0.26998517027E+01  0.70078536986E+01  0.51100000000E-03 0.  1.
        -12    1    4    4    0    0  0.11807324041E+02  0.21856991567E+02 -0.20055525801E+02  0.31927497498E+02  0.00000000000E+00 0.  1.
</event>
<event>
 8    1  0.4042158E-011  0.9118800E+02  0.7816164E-02  0.1184000E+00
        -11   -1    0    0    0    0  0.00000000000E+00  0.00000000000E+00  0.45593999997E+02  0.45594000000E+02  0.51100000000E-03 0. -1.
         11   -1    0    0    0    0 -0.00000000000E+00 -0.00000000000E+00 -0.45593999997E+02  0.45594000000E+02  0.51100000000E-03 0.  1.
         23    2    1    2    0    0  0.00000000000E+00  0.00000000000E+00  0.00000000000E+00  0.91188000000E+02  0.91188000000E+02 0.  0.
    9900012    2    3    3    0    0 -0.20065089128E+02  0.87884531279E+01 -0.37467041899E+02  0.47787263385E+02  0.19999965076E+02 0.  0.
         12    1    3    3    0    0  0.20065089128E+02 -0.87884531279E+01  0.37467041899E+02  0.43400736615E+02  0.00000000000E+00 0. -1.
         11    1    4    4    0    0 -0.35384214911E+01  0.33495858569E+01 -0.97284725167E+01  0.10880410371E+02  0.51100000000E-03 0.  1.
        -11    1    4    4    0    0  0.69535896837E+00 -0.44177640096E+01 -0.44148148300E+01  0.62841668647E+01  0.51100000000E-03 0. -1.
         12    1    4    4    0    0 -0.17222026605E+02  0.98566312806E+01 -0.23323754552E+02  0.30622686149E+02  0.00000000000E+00 0. -1.
</event>
<event>
 8    1  0.4042158E-011  0.9118800E+02  0.7816164E-02  0.1184000E+00
        -11   -1    0    0    0    0  0.00000000000E+00  0.00000000000E+00  0.45593999997E+02  0.45594000000E+02  0.51100000000E-03 0. -1.
         11   -1    0    0    0    0 -0.00000000000E+00 -0.00000000000E+00 -0.45593999997E+02  0.45594000000E+02  0.51100000000E-03 0.  1.
         23    2    1    2    0    0  0.71054273576E-14  0.88817841970E-15  0.00000000000E+00  0.91188000000E+02  0.91188000000E+02 0.  0.
    9900012    2    3    3    0    0 -0.36412009238E+02 -0.77797340648E+01  0.22299429396E+02  0.47787271547E+02  0.20000002292E+02 0.  0.
        -12    1    3    3    0    0  0.36412009238E+02  0.77797340648E+01 -0.22299429396E+02  0.43400728453E+02  0.00000000000E+00 0.  1.
         11    1    4    4    0    0 -0.26263579172E+02 -0.29411018106E+01  0.13206663012E+02  0.29543893091E+02  0.51100000000E-03 0. -1.
        -11    1    4    4    0    0 -0.64665284681E+01  0.17617916566E+01  0.82639664314E+01  0.10640161733E+02  0.51100000000E-03 0.  1.
         12    1    4    4    0    0 -0.36819015972E+01 -0.66004239108E+01  0.82879995266E+00  0.76032167229E+01  0.00000000000E+00 0. -1.
</event>
<event>
 8    1  0.4042158E-011  0.9118800E+02  0.7816164E-02  0.1184000E+00
        -11   -1    0    0    0    0  0.00000000000E+00  0.00000000000E+00  0.45593999997E+02  0.45594000000E+02  0.51100000000E-03 0. -1.
         11   -1    0    0    0    0 -0.00000000000E+00 -0.00000000000E+00 -0.45593999997E+02  0.45594000000E+02  0.51100000000E-03 0.  1.
         23    2    1    2    0    0 -0.13322676296E-14  0.00000000000E+00  0.71054273576E-14  0.91188000000E+02  0.91188000000E+02 0.  0.
    9900012    2    3    3    0    0  0.11694595614E+01  0.39051683852E+02  0.18900311442E+02  0.47787269362E+02  0.19999992328E+02 0.  0.
        -12    1    3    3    0    0 -0.11694595614E+01 -0.39051683852E+02 -0.18900311442E+02  0.43400730638E+02  0.00000000000E+00 0.  1.
         11    1    4    4    0    0 -0.12753957166E+01  0.67688767506E+01  0.20313394120E+01  0.71812719463E+01  0.51100000000E-03 0. -1.
        -11    1    4    4    0    0  0.66589723795E+01  0.24779136434E+02  0.18772000297E+02  0.31792066793E+02  0.51100000000E-03 0.  1.
        -12    1    4    4    0    0 -0.42141171015E+01  0.75036706671E+01 -0.19030282674E+01  0.88139306221E+01  0.00000000000E+00 0.  1.
</event>
<event>
 8    1  0.4042158E-011  0.9118800E+02  0.7816164E-02  0.1184000E+00
        -11   -1    0    0    0    0  0.00000000000E+00  0.00000000000E+00  0.45593999997E+02  0.45594000000E+02  0.51100000000E-03 0. -1.
         11   -1    0    0    0    0 -0.00000000000E+00 -0.00000000000E+00 -0.45593999997E+02  0.45594000000E+02  0.51100000000E-03 0.  1.
         23    2    1    2    0    0  0.17763568394E-14  0.00000000000E+00  0.00000000000E+00  0.91188000000E+02  0.91188000000E+02 0.  0.
    9900012    2    3    3    0    0 -0.82034333949E+01 -0.21985378628E+02  0.36509853429E+02  0.47787278919E+02  0.20000035904E+02 0.  0.
        -12    1    3    3    0    0  0.82034333949E+01  0.21985378628E+02 -0.36509853429E+02  0.43400721081E+02  0.00000000000E+00 0.  1.
         11    1    4    4    0    0 -0.51026226040E+01 -0.22293190066E+02  0.19999555148E+02  0.30381002076E+02  0.51100000000E-03 0. -1.
        -11    1    4    4    0    0  0.31650107339E+00  0.11574448078E+01  0.12028783803E+01  0.16990491669E+01  0.51100000000E-03 0.  1.
         12    1    4    4    0    0 -0.34173118643E+01 -0.84963336975E+00  0.15307419901E+02  0.15707227676E+02  0.00000000000E+00 0. -1.
</event>
<event>
 8    1  0.4042158E-011  0.9118800E+02  0.7816164E-02  0.1184000E+00
        -11   -1    0    0    0    0  0.00000000000E+00  0.00000000000E+00  0.45593999997E+02  0.45594000000E+02  0.51100000000E-03 0. -1.
         11   -1    0    0    0    0 -0.00000000000E+00 -0.00000000000E+00 -0.45593999997E+02  0.45594000000E+02  0.51100000000E-03 0.  1.
         23    2    1    2    0    0  0.35527136788E-14  0.00000000000E+00 -0.35527136788E-14  0.91188000000E+02  0.91188000000E+02 0.  0.
    9900012    2    3    3    0    0  0.18173309432E+02  0.26639642544E+02  0.29046237245E+02  0.47787266957E+02  0.19999981366E+02 0.  0.
        -12    1    3    3    0    0 -0.18173309432E+02 -0.26639642544E+02 -0.29046237245E+02  0.43400733043E+02  0.00000000000E+00 0.  1.
         11    1    4    4    0    0  0.60407462236E+01  0.85838768492E+01  0.87319299045E+01  0.13653576704E+02  0.51100000000E-03 0. -1.
        -11    1    4    4    0    0 -0.15589592846E+00  0.14299564405E+02  0.82579221396E+01  0.16513483098E+02  0.51100000000E-03 0.  1.
         12    1    4    4    0    0  0.12288459136E+02  0.37562012894E+01  0.12056385201E+02  0.17620207155E+02  0.00000000000E+00 0. -1.
</event>
<event>
 8    1  0.4042158E-011  0.9118800E+02  0.7816164E-02  0.1184000E+00
        -11   -1    0    0    0    0  0.00000000000E+00  0.00000000000E+00  0.45593999997E+02  0.45594000000E+02  0.51100000000E-03 0. -1.
         11   -1    0    0    0    0 -0.00000000000E+00 -0.00000000000E+00 -0.45593999997E+02  0.45594000000E+02  0.51100000000E-03 0.  1.
         23    2    1    2    0    0  0.00000000000E+00  0.00000000000E+00  0.00000000000E+00  0.91188000000E+02  0.91188000000E+02 0.  0.
    9900012    2    3    3    0    0 -0.24360161257E+02  0.11321474810E+02 -0.34088560360E+02  0.47787271945E+02  0.20000004104E+02 0.  0.
         12    1    3    3    0    0  0.24360161257E+02 -0.11321474810E+02  0.34088560360E+02  0.43400728055E+02  0.00000000000E+00 0. -1.
         11    1    4    4    0    0 -0.25779248713E-03 -0.63046171370E+00  0.15364736415E+01  0.16607930488E+01  0.51100000000E-03 0. -1.
        -11    1    4    4    0    0 -0.11684364379E+02  0.80314990029E+01 -0.10261489609E+02  0.17502214615E+02  0.51100000000E-03 0.  1.
         12    1    4    4    0    0 -0.12675539086E+02  0.39204375211E+01 -0.25363544393E+02  0.28624264281E+02  0.00000000000E+00 0. -1.
</event>
<event>
 8    1  0.4042158E-011  0.9118800E+02  0.7816164E-02  0.1184000E+00
        -11   -1    0    0    0    0  0.00000000000E+00  0.00000000000E+00  0.45593999997E+02  0.45594000000E+02  0.51100000000E-03 0. -1.
         11   -1    0    0    0    0 -0.00000000000E+00 -0.00000000000E+00 -0.45593999997E+02  0.45594000000E+02  0.51100000000E-03 0.  1.
         23    2    1    2    0    0  0.35527136788E-14 -0.17763568394E-14  0.35527136788E-14  0.91188000000E+02  0.91188000000E+02 0.  0.
    9900012    2    3    3    0    0 -0.28200252443E+02 -0.85891597479E+01 -0.31852710197E+02  0.47787273625E+02  0.20000011764E+02 0.  0.
         12    1    3    3    0    0  0.28200252443E+02  0.85891597479E+01  0.31852710197E+02  0.43400726375E+02  0.00000000000E+00 0. -1.
         11    1    4    4    0    0 -0.11272659832E+02  0.43905808182E+01 -0.12576111610E+02  0.17450176019E+02  0.51100000000E-03 0.  1.
        -11    1    4    4    0    0 -0.43783154946E+01  0.11159282950E+01 -0.30893425815E+01  0.54734797320E+01  0.51100000000E-03 0. -1.
        -12    1    4    4    0    0 -0.12549277116E+02 -0.14095668861E+02 -0.16187256005E+02  0.24863617874E+02  0.00000000000E+00 0.  1.
</event>
<event>
 8    1  0.4042158E-011  0.9118800E+02  0.7816164E-02  0.1184000E+00
        -11   -1    0    0    0    0  0.00000000000E+00  0.00000000000E+00  0.45593999997E+02  0.45594000000E+02  0.51100000000E-03 0. -1.
         11   -1    0    0    0    0 -0.00000000000E+00 -0.00000000000E+00 -0.45593999997E+02  0.45594000000E+02  0.51100000000E-03 0.  1.
         23    2    1    2    0    0  0.00000000000E+00  0.17763568394E-14  0.00000000000E+00  0.91188000000E+02  0.91188000000E+02 0.  0.
    9900012    2    3    3    0    0 -0.31663158130E+02  0.13207712352E+02  0.26582416942E+02  0.47787261079E+02  0.19999954565E+02 0.  0.
        -12    1    3    3    0    0  0.31663158130E+02 -0.13207712352E+02 -0.26582416942E+02  0.43400738921E+02  0.00000000000E+00 0.  1.
         11    1    4    4    0    0 -0.13149953868E+02  0.75613502036E+01  0.64060449736E+01  0.16466108104E+02  0.51100000000E-03 0. -1.
        -11    1    4    4    0    0 -0.21073843441E+01  0.31116922265E+01 -0.14758603711E+01  0.40375563627E+01  0.51100000000E-03 0.  1.
         12    1    4    4    0    0 -0.16405819918E+02  0.25346699221E+01  0.21652232340E+02  0.27283596612E+02  0.00000000000E+00 0. -1.
</event>
<event>
 8    1  0.4042158E-011  0.9118800E+02  0.7816164E-02  0.1184000E+00
        -11   -1    0    0    0    0  0.00000000000E+00  0.00000000000E+00  0.45593999997E+02  0.45594000000E+02  0.51100000000E-03 0.  1.
         11   -1    0    0    0    0 -0.00000000000E+00 -0.00000000000E+00 -0.45593999997E+02  0.45594000000E+02  0.51100000000E-03 0. -1.
         23    2    1    2    0    0  0.00000000000E+00  0.00000000000E+00  0.00000000000E+00  0.91188000000E+02  0.91188000000E+02 0.  0.
    9900012    2    3    3    0    0 -0.42191874852E+02  0.10027761473E+02 -0.17067500946E+01  0.47787270749E+02  0.19999998651E+02 0.  0.
        -12    1    3    3    0    0  0.42191874852E+02 -0.10027761473E+02  0.17067500946E+01  0.43400729251E+02  0.00000000000E+00 0.  1.
         11    1    4    4    0    0 -0.56075609849E+01  0.14047882297E+01  0.47545501252E+01  0.74849126464E+01  0.51100000000E-03 0. -1.
        -11    1    4    4    0    0 -0.88483372535E+00  0.17687357732E+01 -0.32562771710E+01  0.38098160366E+01  0.51100000000E-03 0.  1.
        -12    1    4    4    0    0 -0.35699480141E+02  0.68542374700E+01 -0.32050230488E+01  0.36492542066E+02  0.00000000000E+00 0.  1.
</event>
<event>
 8    1  0.4596999E-011  0.9118800E+02  0.7816164E-02  0.1184000E+00
        -11   -1    0    0    0    0  0.00000000000E+00  0.00000000000E+00  0.45593999997E+02  0.45594000000E+02  0.51100000000E-03 0. -1.
         11   -1    0    0    0    0 -0.00000000000E+00 -0.00000000000E+00 -0.45593999997E+02  0.45594000000E+02  0.51100000000E-03 0.  1.
         23    2    1    2    0    0  0.00000000000E+00  0.00000000000E+00  0.00000000000E+00  0.91188000000E+02  0.91188000000E+02 0.  0.
    9900012    2    3    3    0    0  0.25815637103E+02 -0.84583759819E+01  0.33847186547E+02  0.47787270968E+02  0.19999999653E+02 0.  0.
        -12    1    3    3    0    0 -0.25815637103E+02  0.84583759819E+01 -0.33847186547E+02  0.43400729032E+02  0.00000000000E+00 0.  1.
         11    1    4    4    0    0  0.13106064934E+02 -0.48324979636E+01  0.11782307733E+02  0.18274155258E+02  0.51100000000E-03 0. -1.
        -11    1    4    4    0    0  0.12942531581E+02  0.23763727649E+01  0.17845716540E+02  0.22172637874E+02  0.51100000000E-03 0.  1.
        -12    1    4    4    0    0 -0.23295941197E+00 -0.60022507832E+01  0.42191622753E+01  0.73404778357E+01  0.00000000000E+00 0.  1.
</event>
<event>
 8    1  0.4042158E-011  0.9118800E+02  0.7816164E-02  0.1184000E+00
        -11   -1    0    0    0    0  0.00000000000E+00  0.00000000000E+00  0.45593999997E+02  0.45594000000E+02  0.51100000000E-03 0.  1.
         11   -1    0    0    0    0 -0.00000000000E+00 -0.00000000000E+00 -0.45593999997E+02  0.45594000000E+02  0.51100000000E-03 0. -1.
         23    2    1    2    0    0  0.00000000000E+00  0.00000000000E+00 -0.35527136788E-14  0.91188000000E+02  0.91188000000E+02 0.  0.
    9900012    2    3    3    0    0  0.33711568242E+02 -0.81109543745E+01 -0.26102991599E+02  0.47787267465E+02  0.19999983678E+02 0.  0.
         12    1    3    3    0    0 -0.33711568242E+02  0.81109543745E+01  0.26102991599E+02  0.43400732535E+02  0.00000000000E+00 0. -1.
         11    1    4    4    0    0  0.25444638201E+02 -0.10141226191E+02 -0.26133684662E+02  0.37858203286E+02  0.51100000000E-03 0. -1.
        -11    1    4    4    0    0  0.55872511687E+01 -0.89519323778E+00 -0.11819326449E+01  0.57806324562E+01  0.51100000000E-03 0.  1.
         12    1    4    4    0    0  0.26796788725E+01  0.29254650546E+01  0.12126257074E+01  0.41484317220E+01  0.00000000000E+00 0. -1.
</event>
<event>
 8    1  0.8427400E-011  0.9118800E+02  0.7816164E-02  0.1184000E+00
        -11   -1    0    0    0    0  0.00000000000E+00  0.00000000000E+00  0.45593999997E+02  0.45594000000E+02  0.51100000000E-03 0. -1.
         11   -1    0    0    0    0 -0.00000000000E+00 -0.00000000000E+00 -0.45593999997E+02  0.45594000000E+02  0.51100000000E-03 0.  1.
         23    2    1    2    0    0 -0.35527136788E-14 -0.66613381478E-15  0.71054273576E-14  0.91188000000E+02  0.91188000000E+02 0.  0.
    9900012    2    3    3    0    0 -0.24559558035E+02 -0.16723821601E+01  0.35744294774E+02  0.47787270031E+02  0.19999995380E+02 0.  0.
        -12    1    3    3    0    0  0.24559558035E+02  0.16723821601E+01 -0.35744294774E+02  0.43400729969E+02  0.00000000000E+00 0.  1.
         11    1    4    4    0    0  0.10983591711E+01 -0.41600299552E+01  0.31055004370E+01  0.53062581282E+01  0.51100000000E-03 0. -1.
        -11    1    4    4    0    0 -0.88111026940E+01 -0.39192235534E+00  0.54538995802E+01  0.10369867632E+02  0.51100000000E-03 0.  1.
         12    1    4    4    0    0 -0.16846814512E+02  0.28795701505E+01  0.27184894756E+02  0.32111144271E+02  0.00000000000E+00 0. -1.
</event>
<event>
 8    1  0.4042158E-011  0.9118800E+02  0.7816164E-02  0.1184000E+00
        -11   -1    0    0    0    0  0.00000000000E+00  0.00000000000E+00  0.45593999997E+02  0.45594000000E+02  0.51100000000E-03 0. -1.
         11   -1    0    0    0    0 -0.00000000000E+00 -0.00000000000E+00 -0.45593999997E+02  0.45594000000E+02  0.51100000000E-03 0.  1.
         23    2    1    2    0    0 -0.35527136788E-14  0.00000000000E+00  0.00000000000E+00  0.91188000000E+02  0.91188000000E+02 0.  0.
    9900012    2    3    3    0    0  0.23352983766E+02  0.95034692561E+01  0.35326269386E+02  0.47787273192E+02  0.20000009793E+02 0.  0.
        -12    1    3    3    0    0 -0.23352983766E+02 -0.95034692561E+01 -0.35326269386E+02  0.43400726808E+02  0.00000000000E+00 0.  1.
         11    1    4    4    0    0  0.23559661603E+02  0.46759318787E+01  0.32096640178E+02  0.40088855119E+02  0.51100000000E-03 0. -1.
        -11    1    4    4    0    0  0.92119862059E+00 -0.67854197222E+00  0.13554226823E+01  0.17737522418E+01  0.51100000000E-03 0.  1.
        -12    1    4    4    0    0 -0.11278764577E+01  0.55060793496E+01  0.18742065261E+01  0.59246658312E+01  0.00000000000E+00 0.  1.
</event>
<event>
 8    1  0.4042158E-011  0.9118800E+02  0.7816164E-02  0.1184000E+00
        -11   -1    0    0    0    0  0.00000000000E+00  0.00000000000E+00  0.45593999997E+02  0.45594000000E+02  0.51100000000E-03 0. -1.
         11   -1    0    0    0    0 -0.00000000000E+00 -0.00000000000E+00 -0.45593999997E+02  0.45594000000E+02  0.51100000000E-03 0.  1.
         23    2    1    2    0    0  0.00000000000E+00  0.88817841970E-15  0.00000000000E+00  0.91188000000E+02  0.91188000000E+02 0.  0.
    9900012    2    3    3    0    0  0.58049644102E+01 -0.76800787458E+01 -0.42319523211E+02  0.47787271134E+02  0.20000000408E+02 0.  0.
         12    1    3    3    0    0 -0.58049644102E+01  0.76800787458E+01  0.42319523211E+02  0.43400728866E+02  0.00000000000E+00 0. -1.
         11    1    4    4    0    0  0.20764218735E+01  0.46851934837E+01 -0.86837813463E+01  0.10083185236E+02  0.51100000000E-03 0.  1.
        -11    1    4    4    0    0  0.10206434684E+01 -0.16123109334E+01  0.36328007934E+00  0.19424809684E+01  0.51100000000E-03 0. -1.
        -12    1    4    4    0    0  0.27078990683E+01 -0.10752961296E+02 -0.33999021943E+02  0.35761604929E+02  0.00000000000E+00 0.  1.
</event>
<event>
 8    1  0.4042158E-011  0.9118800E+02  0.7816164E-02  0.1184000E+00
        -11   -1    0    0    0    0  0.00000000000E+00  0.00000000000E+00  0.45593999997E+02  0.45594000000E+02  0.51100000000E-03 0. -1.
         11   -1    0    0    0    0 -0.00000000000E+00 -0.00000000000E+00 -0.45593999997E+02  0.45594000000E+02  0.51100000000E-03 0.  1.
         23    2    1    2    0    0  0.00000000000E+00  0.00000000000E+00  0.00000000000E+00  0.91188000000E+02  0.91188000000E+02 0.  0.
    9900012    2    3    3    0    0  0.10776203282E+02 -0.81622862864E+01  0.41241650386E+02  0.47787271882E+02  0.20000003819E+02 0.  0.
        -12    1    3    3    0    0 -0.10776203282E+02  0.81622862864E+01 -0.41241650386E+02  0.43400728118E+02  0.00000000000E+00 0.  1.
         11    1    4    4    0    0 -0.39476560154E+01 -0.61515553224E+00  0.21203158240E+02  0.21576290783E+02  0.51100000000E-03 0. -1.
        -11    1    4    4    0    0  0.36787530613E+01 -0.87062587502E+00  0.29436229247E+01  0.47912555436E+01  0.51100000000E-03 0.  1.
         12    1    4    4    0    0  0.11045106236E+02 -0.66765048792E+01  0.17094869221E+02  0.21419725555E+02  0.00000000000E+00 0. -1.
</event>
<event>
 8    1  0.4042158E-011  0.9118800E+02  0.7816164E-02  0.1184000E+00
        -11   -1    0    0    0    0  0.00000000000E+00  0.00000000000E+00  0.45593999997E+02  0.45594000000E+02  0.51100000000E-03 0.  1.
         11   -1    0    0    0    0 -0.00000000000E+00 -0.00000000000E+00 -0.45593999997E+02  0.45594000000E+02  0.51100000000E-03 0. -1.
         23    2    1    2    0    0  0.00000000000E+00  0.00000000000E+00  0.00000000000E+00  0.91188000000E+02  0.91188000000E+02 0.  0.
    9900012    2    3    3    0    0 -0.37634441459E+02  0.19670165745E+02 -0.89642003693E+01  0.47787268524E+02  0.19999988509E+02 0.  0.
         12    1    3    3    0    0  0.37634441459E+02 -0.19670165745E+02  0.89642003693E+01  0.43400731476E+02  0.00000000000E+00 0. -1.
         11    1    4    4    0    0 -0.91000690091E+01  0.11914774150E+02  0.38887742567E+01  0.15488565605E+02  0.51100000000E-03 0. -1.
        -11    1    4    4    0    0 -0.48430755308E+01  0.73931030909E+00 -0.16539020762E+01  0.51708174082E+01  0.51100000000E-03 0.  1.
         12    1    4    4    0    0 -0.23691296919E+02  0.70160812861E+01 -0.11199072550E+02  0.27127885511E+02  0.00000000000E+00 0. -1.
</event>
<event>
 8    1  0.4042158E-011  0.9118800E+02  0.7816164E-02  0.1184000E+00
        -11   -1    0    0    0    0  0.00000000000E+00  0.00000000000E+00  0.45593999997E+02  0.45594000000E+02  0.51100000000E-03 0.  1.
         11   -1    0    0    0    0 -0.00000000000E+00 -0.00000000000E+00 -0.45593999997E+02  0.45594000000E+02  0.51100000000E-03 0. -1.
         23    2    1    2    0    0  0.00000000000E+00  0.00000000000E+00  0.00000000000E+00  0.91188000000E+02  0.91188000000E+02 0.  0.
    9900012    2    3    3    0    0 -0.20369588133E+02  0.35012709237E+02 -0.15582454453E+02  0.47787276324E+02  0.20000024071E+02 0.  0.
        -12    1    3    3    0    0  0.20369588133E+02 -0.35012709237E+02  0.15582454453E+02  0.43400723676E+02  0.00000000000E+00 0.  1.
         11    1    4    4    0    0 -0.21622826263E+00 -0.10023801981E+01  0.14019805408E+01  0.17369716235E+01  0.51100000000E-03 0. -1.
        -11    1    4    4    0    0 -0.47445828464E+01  0.21523603694E+01 -0.42628554163E+01  0.67316905832E+01  0.51100000000E-03 0.  1.
         12    1    4    4    0    0 -0.15408777024E+02  0.33862729066E+02 -0.12721579578E+02  0.39318614117E+02  0.00000000000E+00 0. -1.
</event>
<event>
 8    1  0.4042158E-011  0.9118800E+02  0.7816164E-02  0.1184000E+00
        -11   -1    0    0    0    0  0.00000000000E+00  0.00000000000E+00  0.45593999997E+02  0.45594000000E+02  0.51100000000E-03 0. -1.
         11   -1    0    0    0    0 -0.00000000000E+00 -0.00000000000E+00 -0.45593999997E+02  0.45594000000E+02  0.51100000000E-03 0.  1.
         23    2    1    2    0    0  0.35527136788E-14  0.00000000000E+00 -0.35527136788E-14  0.91188000000E+02  0.91188000000E+02 0.  0.
    9900012    2    3    3    0    0  0.31865807171E+02  0.96756380314E+01 -0.27831210312E+02  0.47787263769E+02  0.19999966829E+02 0.  0.
         12    1    3    3    0    0 -0.31865807171E+02 -0.96756380314E+01  0.27831210312E+02  0.43400736231E+02  0.00000000000E+00 0. -1.
         11    1    4    4    0    0  0.66183591803E+01 -0.10553761173E+01  0.39934905823E+00  0.67138645294E+01  0.51100000000E-03 0. -1.
        -11    1    4    4    0    0  0.85485474430E+01 -0.19172101607E+01 -0.10085091684E+02  0.13358983222E+02  0.51100000000E-03 0.  1.
        -12    1    4    4    0    0  0.16698900547E+02  0.12648224309E+02 -0.18145467686E+02  0.27714416018E+02  0.00000000000E+00 0.  1.
</event>
<event>
 8    1  0.4042158E-011  0.9118800E+02  0.7816164E-02  0.1184000E+00
        -11   -1    0    0    0    0  0.00000000000E+00  0.00000000000E+00  0.45593999997E+02  0.45594000000E+02  0.51100000000E-03 0. -1.
         11   -1    0    0    0    0 -0.00000000000E+00 -0.00000000000E+00 -0.45593999997E+02  0.45594000000E+02  0.51100000000E-03 0.  1.
         23    2    1    2    0    0  0.00000000000E+00  0.00000000000E+00 -0.71054273576E-14  0.91188000000E+02  0.91188000000E+02 0.  0.
    9900012    2    3    3    0    0 -0.12575764139E+02 -0.17573683032E+02  0.37638275191E+02  0.47787263390E+02  0.19999965100E+02 0.  0.
        -12    1    3    3    0    0  0.12575764139E+02  0.17573683032E+02 -0.37638275191E+02  0.43400736610E+02  0.00000000000E+00 0.  1.
         11    1    4    4    0    0 -0.15060433444E+01 -0.47435641813E+00  0.34618695041E+01  0.38049600906E+01  0.51100000000E-03 0. -1.
        -11    1    4    4    0    0 -0.21579971546E+01 -0.14056638355E+02  0.30893511786E+02  0.34009632522E+02  0.51100000000E-03 0.  1.
         12    1    4    4    0    0 -0.89117236399E+01 -0.30426882583E+01  0.32828939008E+01  0.99726707774E+01  0.00000000000E+00 0. -1.
</event>
<event>
 8    1  0.4042158E-011  0.9118800E+02  0.7816164E-02  0.1184000E+00
        -11   -1    0    0    0    0  0.00000000000E+00  0.00000000000E+00  0.45593999997E+02  0.45594000000E+02  0.51100000000E-03 0. -1.
         11   -1    0    0    0    0 -0.00000000000E+00 -0.00000000000E+00 -0.45593999997E+02  0.45594000000E+02  0.51100000000E-03 0.  1.
         23    2    1    2    0    0 -0.17763568394E-14  0.00000000000E+00  0.71054273576E-14  0.91188000000E+02  0.91188000000E+02 0.  0.
    9900012    2    3    3    0    0  0.76627115944E+01 -0.10304434577E+02  0.41457502283E+02  0.47787274010E+02  0.20000013522E+02 0.  0.
        -12    1    3    3    0    0 -0.76627115944E+01  0.10304434577E+02 -0.41457502283E+02  0.43400725990E+02  0.00000000000E+00 0.  1.
         11    1    4    4    0    0  0.20854701012E+01  0.19595855026E+01  0.36420557846E+01  0.46318172983E+01  0.51100000000E-03 0. -1.
        -11    1    4    4    0    0  0.89681392590E+01 -0.18460924093E+01  0.11865268073E+02  0.14987333508E+02  0.51100000000E-03 0.  1.
         12    1    4    4    0    0 -0.33908977658E+01 -0.10417927670E+02  0.25950178425E+02  0.28168123204E+02  0.00000000000E+00 0. -1.
</event>
<event>
 8    1  0.4042158E-011  0.9118800E+02  0.7816164E-02  0.1184000E+00
        -11   -1    0    0    0    0  0.00000000000E+00  0.00000000000E+00  0.45593999997E+02  0.45594000000E+02  0.51100000000E-03 0. -1.
         11   -1    0    0    0    0 -0.00000000000E+00 -0.00000000000E+00 -0.45593999997E+02  0.45594000000E+02  0.51100000000E-03 0.  1.
         23    2    1    2    0    0  0.00000000000E+00  0.00000000000E+00 -0.71054273576E-14  0.91188000000E+02  0.91188000000E+02 0.  0.
    9900012    2    3    3    0    0  0.29927902915E+01 -0.23323662878E+02 -0.36478402163E+02  0.47787264198E+02  0.19999968786E+02 0.  0.
         12    1    3    3    0    0 -0.29927902915E+01  0.23323662878E+02  0.36478402163E+02  0.43400735802E+02  0.00000000000E+00 0. -1.
         11    1    4    4    0    0 -0.39928169246E+01 -0.11503871535E+00 -0.11936651946E+02  0.12587274559E+02  0.51100000000E-03 0. -1.
        -11    1    4    4    0    0  0.43725863794E+00 -0.83853644836E+01 -0.12290229403E+02  0.14884732839E+02  0.51100000000E-03 0.  1.
         12    1    4    4    0    0  0.65483485781E+01 -0.14823259679E+02 -0.12251520814E+02  0.20315256800E+02  0.00000000000E+00 0. -1.
</event>
<event>
 8    1  0.4042158E-011  0.9118800E+02  0.7816164E-02  0.1184000E+00
        -11   -1    0    0    0    0  0.00000000000E+00  0.00000000000E+00  0.45593999997E+02  0.45594000000E+02  0.51100000000E-03 0. -1.
         11   -1    0    0    0    0 -0.00000000000E+00 -0.00000000000E+00 -0.45593999997E+02  0.45594000000E+02  0.51100000000E-03 0.  1.
         23    2    1    2    0    0  0.00000000000E+00  0.00000000000E+00  0.00000000000E+00  0.91188000000E+02  0.91188000000E+02 0.  0.
    9900012    2    3    3    0    0 -0.32115652520E+02 -0.24599319859E+02 -0.15718844604E+02  0.47787265560E+02  0.19999974992E+02 0.  0.
         12    1    3    3    0    0  0.32115652520E+02  0.24599319859E+02  0.15718844604E+02  0.43400734440E+02  0.00000000000E+00 0. -1.
         11    1    4    4    0    0  0.37731448778E+00  0.97137886778E+00  0.13290364007E+01  0.16888697827E+01  0.51100000000E-03 0. -1.
        -11    1    4    4    0    0 -0.94373856549E+01 -0.96055479554E+01 -0.37159351846E+00  0.13471038621E+02  0.51100000000E-03 0.  1.
        -12    1    4    4    0    0 -0.23055581353E+02 -0.15965150771E+02 -0.16676287486E+02  0.32627357156E+02  0.00000000000E+00 0.  1.
</event>
<event>
 8    1  0.4042158E-011  0.9118800E+02  0.7816164E-02  0.1184000E+00
        -11   -1    0    0    0    0  0.00000000000E+00  0.00000000000E+00  0.45593999997E+02  0.45594000000E+02  0.51100000000E-03 0. -1.
         11   -1    0    0    0    0 -0.00000000000E+00 -0.00000000000E+00 -0.45593999997E+02  0.45594000000E+02  0.51100000000E-03 0.  1.
         23    2    1    2    0    0  0.00000000000E+00  0.00000000000E+00  0.00000000000E+00  0.91188000000E+02  0.91188000000E+02 0.  0.
    9900012    2    3    3    0    0  0.12529767367E+02  0.29265393082E+02 -0.29498562160E+02  0.47787268762E+02  0.19999989593E+02 0.  0.
         12    1    3    3    0    0 -0.12529767367E+02 -0.29265393082E+02  0.29498562160E+02  0.43400731238E+02  0.00000000000E+00 0. -1.
         11    1    4    4    0    0 -0.10951796549E+01  0.99070002894E+01 -0.15014857682E+02  0.18022042744E+02  0.51100000000E-03 0. -1.
        -11    1    4    4    0    0  0.24934417737E+00 -0.13381308669E+01 -0.76333297824E+00  0.15605909882E+01  0.51100000000E-03 0.  1.
        -12    1    4    4    0    0  0.13375602845E+02  0.20696523659E+02 -0.13720371500E+02  0.28204635029E+02  0.00000000000E+00 0.  1.
</event>
<event>
 8    1  0.4042158E-011  0.9118800E+02  0.7816164E-02  0.1184000E+00
        -11   -1    0    0    0    0  0.00000000000E+00  0.00000000000E+00  0.45593999997E+02  0.45594000000E+02  0.51100000000E-03 0. -1.
         11   -1    0    0    0    0 -0.00000000000E+00 -0.00000000000E+00 -0.45593999997E+02  0.45594000000E+02  0.51100000000E-03 0.  1.
         23    2    1    2    0    0  0.44408920985E-15  0.00000000000E+00  0.00000000000E+00  0.91188000000E+02  0.91188000000E+02 0.  0.
    9900012    2    3    3    0    0  0.20148214367E+01  0.35658693752E+02 -0.24658085212E+02  0.47787272911E+02  0.20000008511E+02 0.  0.
         12    1    3    3    0    0 -0.20148214367E+01 -0.35658693752E+02  0.24658085212E+02  0.43400727089E+02  0.00000000000E+00 0. -1.
         11    1    4    4    0    0 -0.52140054763E+01  0.10004142399E+02 -0.11427328006E+01  0.11339072130E+02  0.51100000000E-03 0. -1.
        -11    1    4    4    0    0  0.22727988990E+00  0.26326531711E+01 -0.63857661324E+01  0.69108992342E+01  0.51100000000E-03 0.  1.
        -12    1    4    4    0    0  0.70015470230E+01  0.23021898182E+02 -0.17129586279E+02  0.29537301547E+02  0.00000000000E+00 0.  1.
</event>
<event>
 8    1  0.4304637E-011  0.9118800E+02  0.7816164E-02  0.1184000E+00
        -11   -1    0    0    0    0  0.00000000000E+00  0.00000000000E+00  0.45593999997E+02  0.45594000000E+02  0.51100000000E-03 0. -1.
         11   -1    0    0    0    0 -0.00000000000E+00 -0.00000000000E+00 -0.45593999997E+02  0.45594000000E+02  0.51100000000E-03 0.  1.
         23    2    1    2    0    0  0.00000000000E+00 -0.35527136788E-14  0.00000000000E+00  0.91188000000E+02  0.91188000000E+02 0.  0.
    9900012    2    3    3    0    0 -0.11868916601E+02  0.28382488204E+02  0.30613521861E+02  0.47787256474E+02  0.19999933565E+02 0.  0.
        -12    1    3    3    0    0  0.11868916601E+02 -0.28382488204E+02 -0.30613521861E+02  0.43400743526E+02  0.00000000000E+00 0.  1.
         11    1    4    4    0    0 -0.45544623829E+01  0.14856602310E+02  0.67146423344E+01  0.16927734099E+02  0.51100000000E-03 0. -1.
        -11    1    4    4    0    0  0.30571963405E+01  0.59115027764E+01  0.83159635588E+01  0.10651176682E+02  0.51100000000E-03 0.  1.
        -12    1    4    4    0    0 -0.10371650559E+02  0.76143831180E+01  0.15582915968E+02  0.20208345693E+02  0.00000000000E+00 0.  1.
</event>
<event>
 8    1  0.4042158E-011  0.9118800E+02  0.7816164E-02  0.1184000E+00
        -11   -1    0    0    0    0  0.00000000000E+00  0.00000000000E+00  0.45593999997E+02  0.45594000000E+02  0.51100000000E-03 0. -1.
         11   -1    0    0    0    0 -0.00000000000E+00 -0.00000000000E+00 -0.45593999997E+02  0.45594000000E+02  0.51100000000E-03 0.  1.
         23    2    1    2    0    0  0.35527136788E-14  0.00000000000E+00  0.00000000000E+00  0.91188000000E+02  0.91188000000E+02 0.  0.
    9900012    2    3    3    0    0  0.21606637558E+02 -0.14711696574E+02 -0.34645957305E+02  0.47787272354E+02  0.20000005971E+02 0.  0.
         12    1    3    3    0    0 -0.21606637558E+02  0.14711696574E+02  0.34645957305E+02  0.43400727646E+02  0.00000000000E+00 0. -1.
         11    1    4    4    0    0  0.92993767158E+01  0.79830646529E+00 -0.35569115547E+01  0.99883592538E+01  0.51100000000E-03 0. -1.
        -11    1    4    4    0    0  0.48115860554E+01 -0.61242690574E+01 -0.55109670092E+01  0.95409008743E+01  0.51100000000E-03 0.  1.
        -12    1    4    4    0    0  0.74956747868E+01 -0.93857339819E+01 -0.25578078741E+02  0.28258012226E+02  0.00000000000E+00 0.  1.
</event>
<event>
 8    1  0.4042158E-011  0.9118800E+02  0.7816164E-02  0.1184000E+00
        -11   -1    0    0    0    0  0.00000000000E+00  0.00000000000E+00  0.45593999997E+02  0.45594000000E+02  0.51100000000E-03 0. -1.
         11   -1    0    0    0    0 -0.00000000000E+00 -0.00000000000E+00 -0.45593999997E+02  0.45594000000E+02  0.51100000000E-03 0.  1.
         23    2    1    2    0    0 -0.27755575616E-15  0.00000000000E+00  0.00000000000E+00  0.91188000000E+02  0.91188000000E+02 0.  0.
    9900012    2    3    3    0    0 -0.33590529611E+00  0.25881781925E+02  0.34837373847E+02  0.47787284746E+02  0.20000062472E+02 0.  0.
        -12    1    3    3    0    0  0.33590529611E+00 -0.25881781925E+02 -0.34837373847E+02  0.43400715254E+02  0.00000000000E+00 0.  1.
         11    1    4    4    0    0  0.13789717356E+01  0.14891015113E+02  0.25645279670E+02  0.29687106018E+02  0.51100000000E-03 0. -1.
        -11    1    4    4    0    0  0.15390207469E+01  0.11747531647E+02  0.87534097589E+01  0.14730759224E+02  0.51100000000E-03 0.  1.
        -12    1    4    4    0    0 -0.32538977786E+01 -0.75676483565E+00  0.43868441858E+00  0.33694195033E+01  0.00000000000E+00 0.  1.
</event>
<event>
 8    1  0.4042158E-011  0.9118800E+02  0.7816164E-02  0.1184000E+00
        -11   -1    0    0    0    0  0.00000000000E+00  0.00000000000E+00  0.45593999997E+02  0.45594000000E+02  0.51100000000E-03 0. -1.
         11   -1    0    0    0    0 -0.00000000000E+00 -0.00000000000E+00 -0.45593999997E+02  0.45594000000E+02  0.51100000000E-03 0.  1.
         23    2    1    2    0    0  0.17763568394E-14 -0.17763568394E-14  0.00000000000E+00  0.91188000000E+02  0.91188000000E+02 0.  0.
    9900012    2    3    3    0    0  0.15948147145E+02 -0.15517205291E+02  0.37262530067E+02  0.47787271844E+02  0.20000003648E+02 0.  0.
        -12    1    3    3    0    0 -0.15948147145E+02  0.15517205291E+02 -0.37262530067E+02  0.43400728156E+02  0.00000000000E+00 0.  1.
         11    1    4    4    0    0  0.79292102328E+01 -0.28239866911E+01  0.18055399319E+02  0.19920961839E+02  0.51100000000E-03 0. -1.
        -11    1    4    4    0    0  0.98385304267E+01 -0.13161234242E+02  0.19949938600E+02  0.25845982631E+02  0.51100000000E-03 0.  1.
        -12    1    4    4    0    0 -0.18195935141E+01  0.46801564288E+00 -0.74280785156E+00  0.20203273752E+01  0.00000000000E+00 0.  1.
</event>
<event>
 8    1  0.4042158E-011  0.9118800E+02  0.7816164E-02  0.1184000E+00
        -11   -1    0    0    0    0  0.00000000000E+00  0.00000000000E+00  0.45593999997E+02  0.45594000000E+02  0.51100000000E-03 0. -1.
         11   -1    0    0    0    0 -0.00000000000E+00 -0.00000000000E+00 -0.45593999997E+02  0.45594000000E+02  0.51100000000E-03 0.  1.
         23    2    1    2    0    0  0.00000000000E+00  0.00000000000E+00  0.00000000000E+00  0.91188000000E+02  0.91188000000E+02 0.  0.
    9900012    2    3    3    0    0 -0.95455549857E+01  0.31830398109E+02 -0.27916507932E+02  0.47787270987E+02  0.19999999737E+02 0.  0.
         12    1    3    3    0    0  0.95455549857E+01 -0.31830398109E+02  0.27916507932E+02  0.43400729013E+02  0.00000000000E+00 0. -1.
         11    1    4    4    0    0  0.14273512176E+01  0.30819823610E+00 -0.14116301852E+01  0.20310139567E+01  0.51100000000E-03 0. -1.
        -11    1    4    4    0    0 -0.54896154352E+01  0.18981256735E+02 -0.25176915642E+02  0.32004703817E+02  0.51100000000E-03 0.  1.
         12    1    4    4    0    0 -0.54832907682E+01  0.12540943138E+02 -0.13279621045E+01  0.13751553213E+02  0.00000000000E+00 0. -1.
</event>
<event>
 8    1  0.4042158E-011  0.9118800E+02  0.7816164E-02  0.1184000E+00
        -11   -1    0    0    0    0  0.00000000000E+00  0.00000000000E+00  0.45593999997E+02  0.45594000000E+02  0.51100000000E-03 0. -1.
         11   -1    0    0    0    0 -0.00000000000E+00 -0.00000000000E+00 -0.45593999997E+02  0.45594000000E+02  0.51100000000E-03 0.  1.
         23    2    1    2    0    0  0.00000000000E+00  0.35527136788E-14  0.00000000000E+00  0.91188000000E+02  0.91188000000E+02 0.  0.
    9900012    2    3    3    0    0 -0.72584489451E+01 -0.16669158353E+02 -0.39409100317E+02  0.47787272943E+02  0.20000008658E+02 0.  0.
         12    1    3    3    0    0  0.72584489451E+01  0.16669158353E+02  0.39409100317E+02  0.43400727057E+02  0.00000000000E+00 0. -1.
         11    1    4    4    0    0 -0.11842252502E+01 -0.24181026541E+00  0.97675784702E+00  0.15540005793E+01  0.51100000000E-03 0. -1.
        -11    1    4    4    0    0 -0.26984935010E+01 -0.12363954714E+02 -0.12274561092E+02  0.17629920409E+02  0.51100000000E-03 0.  1.
        -12    1    4    4    0    0 -0.33757301939E+01 -0.40633933732E+01 -0.28111297071E+02  0.28603351955E+02  0.00000000000E+00 0.  1.
</event>
<event>
 8    1  0.4042158E-011  0.9118800E+02  0.7816164E-02  0.1184000E+00
        -11   -1    0    0    0    0  0.00000000000E+00  0.00000000000E+00  0.45593999997E+02  0.45594000000E+02  0.51100000000E-03 0. -1.
         11   -1    0    0    0    0 -0.00000000000E+00 -0.00000000000E+00 -0.45593999997E+02  0.45594000000E+02  0.51100000000E-03 0.  1.
         23    2    1    2    0    0  0.35527136788E-14  0.88817841970E-15  0.71054273576E-14  0.91188000000E+02  0.91188000000E+02 0.  0.
    9900012    2    3    3    0    0 -0.23702538738E+02 -0.66887034280E+01 -0.35736173929E+02  0.47787271628E+02  0.20000002661E+02 0.  0.
         12    1    3    3    0    0  0.23702538738E+02  0.66887034280E+01  0.35736173929E+02  0.43400728372E+02  0.00000000000E+00 0. -1.
         11    1    4    4    0    0 -0.67282857641E+01  0.43631533044E+01 -0.14976253169E+02  0.16988086865E+02  0.51100000000E-03 0. -1.
        -11    1    4    4    0    0 -0.76305321507E+01 -0.91131233444E+00 -0.12652359248E+02  0.14803300506E+02  0.51100000000E-03 0.  1.
         12    1    4    4    0    0 -0.93437208232E+01 -0.10140544398E+02 -0.81075615119E+01  0.15995884257E+02  0.00000000000E+00 0. -1.
</event>
<event>
 8    1  0.4042158E-011  0.9118800E+02  0.7816164E-02  0.1184000E+00
        -11   -1    0    0    0    0  0.00000000000E+00  0.00000000000E+00  0.45593999997E+02  0.45594000000E+02  0.51100000000E-03 0. -1.
         11   -1    0    0    0    0 -0.00000000000E+00 -0.00000000000E+00 -0.45593999997E+02  0.45594000000E+02  0.51100000000E-03 0.  1.
         23    2    1    2    0    0 -0.35527136788E-14  0.00000000000E+00  0.71054273576E-14  0.91188000000E+02  0.91188000000E+02 0.  0.
    9900012    2    3    3    0    0 -0.15178818582E+02 -0.32043985811E+01  0.40533424722E+02  0.47787271624E+02  0.20000002644E+02 0.  0.
        -12    1    3    3    0    0  0.15178818582E+02  0.32043985811E+01 -0.40533424722E+02  0.43400728376E+02  0.00000000000E+00 0.  1.
         11    1    4    4    0    0  0.25809579225E+01  0.76791777089E+00  0.12044201900E+02  0.12341549383E+02  0.51100000000E-03 0. -1.
        -11    1    4    4    0    0 -0.70937534758E+00 -0.25034102115E+01  0.51575063419E+00  0.26525977925E+01  0.51100000000E-03 0.  1.
        -12    1    4    4    0    0 -0.17050401157E+02 -0.14689061405E+01  0.27973472188E+02  0.32793124449E+02  0.00000000000E+00 0.  1.
</event>
<event>
 8    1  0.5260860E-011  0.9118800E+02  0.7816164E-02  0.1184000E+00
        -11   -1    0    0    0    0  0.00000000000E+00  0.00000000000E+00  0.45593999997E+02  0.45594000000E+02  0.51100000000E-03 0. -1.
         11   -1    0    0    0    0 -0.00000000000E+00 -0.00000000000E+00 -0.45593999997E+02  0.45594000000E+02  0.51100000000E-03 0.  1.
         23    2    1    2    0    0 -0.26645352591E-14  0.00000000000E+00 -0.71054273576E-14  0.91188000000E+02  0.91188000000E+02 0.  0.
    9900012    2    3    3    0    0  0.65897270663E+01  0.55477351616E+01  0.42537294085E+02  0.47787271247E+02  0.20000000924E+02 0.  0.
        -12    1    3    3    0    0 -0.65897270663E+01 -0.55477351616E+01 -0.42537294085E+02  0.43400728753E+02  0.00000000000E+00 0.  1.
         11    1    4    4    0    0  0.39097239851E+01  0.34817569994E+01  0.22422239035E+02  0.23025320347E+02  0.51100000000E-03 0. -1.
        -11    1    4    4    0    0  0.48368736001E+01  0.72925997657E+01  0.11357307578E+02  0.14337565806E+02  0.51100000000E-03 0.  1.
        -12    1    4    4    0    0 -0.21568705188E+01 -0.52266216035E+01  0.87577474712E+01  0.10424385094E+02  0.00000000000E+00 0.  1.
</event>
<event>
 8    1  0.4042158E-011  0.9118800E+02  0.7816164E-02  0.1184000E+00
        -11   -1    0    0    0    0  0.00000000000E+00  0.00000000000E+00  0.45593999997E+02  0.45594000000E+02  0.51100000000E-03 0. -1.
         11   -1    0    0    0    0 -0.00000000000E+00 -0.00000000000E+00 -0.45593999997E+02  0.45594000000E+02  0.51100000000E-03 0.  1.
         23    2    1    2    0    0  0.00000000000E+00  0.00000000000E+00  0.00000000000E+00  0.91188000000E+02  0.91188000000E+02 0.  0.
    9900012    2    3    3    0    0 -0.83421126087E+01  0.23317130958E+02 -0.35641882531E+02  0.47787271559E+02  0.20000002345E+02 0.  0.
         12    1    3    3    0    0  0.83421126087E+01 -0.23317130958E+02  0.35641882531E+02  0.43400728441E+02  0.00000000000E+00 0. -1.
         11    1    4    4    0    0 -0.50825958112E+01  0.24648249824E+01 -0.13240471217E+02  0.14395076265E+02  0.51100000000E-03 0.  1.
        -11    1    4    4    0    0 -0.67681361334E+01  0.97493695067E+01 -0.16535818725E+02  0.20354143894E+02  0.51100000000E-03 0. -1.
        -12    1    4    4    0    0  0.35086193359E+01  0.11102936469E+02 -0.58655925890E+01  0.13038051399E+02  0.00000000000E+00 0.  1.
</event>
<event>
 8    1  0.4042158E-011  0.9118800E+02  0.7816164E-02  0.1184000E+00
        -11   -1    0    0    0    0  0.00000000000E+00  0.00000000000E+00  0.45593999997E+02  0.45594000000E+02  0.51100000000E-03 0. -1.
         11   -1    0    0    0    0 -0.00000000000E+00 -0.00000000000E+00 -0.45593999997E+02  0.45594000000E+02  0.51100000000E-03 0.  1.
         23    2    1    2    0    0  0.00000000000E+00  0.00000000000E+00  0.00000000000E+00  0.91188000000E+02  0.91188000000E+02 0.  0.
    9900012    2    3    3    0    0  0.19645850568E+02 -0.29801955844E+02 -0.24688186903E+02  0.47787278932E+02  0.20000035961E+02 0.  0.
         12    1    3    3    0    0 -0.19645850568E+02  0.29801955844E+02  0.24688186903E+02  0.43400721068E+02  0.00000000000E+00 0. -1.
         11    1    4    4    0    0 -0.16705500011E+01 -0.75574000995E+01 -0.16787892589E+01  0.79198085334E+01  0.51100000000E-03 0. -1.
        -11    1    4    4    0    0  0.10825780623E+02 -0.48726339243E+01 -0.55862407234E+01  0.13120448664E+02  0.51100000000E-03 0.  1.
        -12    1    4    4    0    0  0.10490619947E+02 -0.17371921820E+02 -0.17423156921E+02  0.26747021735E+02  0.00000000000E+00 0.  1.
</event>
<event>
 8    1  0.4042158E-011  0.9118800E+02  0.7816164E-02  0.1184000E+00
        -11   -1    0    0    0    0  0.00000000000E+00  0.00000000000E+00  0.45593999997E+02  0.45594000000E+02  0.51100000000E-03 0. -1.
         11   -1    0    0    0    0 -0.00000000000E+00 -0.00000000000E+00 -0.45593999997E+02  0.45594000000E+02  0.51100000000E-03 0.  1.
         23    2    1    2    0    0  0.00000000000E+00 -0.71054273576E-14  0.17763568394E-14  0.91188000000E+02  0.91188000000E+02 0.  0.
    9900012    2    3    3    0    0 -0.12113252686E+02 -0.39248819582E+02  0.14015019696E+02  0.47787291408E+02  0.20000092845E+02 0.  0.
         12    1    3    3    0    0  0.12113252686E+02  0.39248819582E+02 -0.14015019696E+02  0.43400708592E+02  0.00000000000E+00 0. -1.
         11    1    4    4    0    0 -0.62859834968E+00 -0.25156183224E+01 -0.35897447293E+00  0.26176963847E+01  0.51100000000E-03 0.  1.
        -11    1    4    4    0    0  0.24234538373E+01 -0.21528531440E+02  0.10971779867E+02  0.24284372509E+02  0.51100000000E-03 0. -1.
         12    1    4    4    0    0 -0.13908108173E+02 -0.15204669820E+02  0.34022143022E+01  0.20885222514E+02  0.00000000000E+00 0. -1.
</event>
<event>
 8    1  0.4042158E-011  0.9118800E+02  0.7816164E-02  0.1184000E+00
        -11   -1    0    0    0    0  0.00000000000E+00  0.00000000000E+00  0.45593999997E+02  0.45594000000E+02  0.51100000000E-03 0. -1.
         11   -1    0    0    0    0 -0.00000000000E+00 -0.00000000000E+00 -0.45593999997E+02  0.45594000000E+02  0.51100000000E-03 0.  1.
         23    2    1    2    0    0  0.35527136788E-14 -0.71054273576E-14  0.17763568394E-14  0.91188000000E+02  0.91188000000E+02 0.  0.
    9900012    2    3    3    0    0  0.22064176600E+02 -0.36411715862E+02  0.84251309808E+01  0.47787265293E+02  0.19999973776E+02 0.  0.
        -12    1    3    3    0    0 -0.22064176600E+02  0.36411715862E+02 -0.84251309808E+01  0.43400734707E+02  0.00000000000E+00 0.  1.
         11    1    4    4    0    0  0.11181003385E+02 -0.15246963482E+02  0.88210449443E+01  0.20863738071E+02  0.51100000000E-03 0. -1.
        -11    1    4    4    0    0  0.12704213942E+02 -0.11912239393E+02 -0.12163302385E+01  0.17457891017E+02  0.51100000000E-03 0.  1.
        -12    1    4    4    0    0 -0.18210407269E+01 -0.92525129866E+01  0.82041627504E+00  0.94656362047E+01  0.00000000000E+00 0.  1.
</event>
<event>
 8    1  0.4042158E-011  0.9118800E+02  0.7816164E-02  0.1184000E+00
        -11   -1    0    0    0    0  0.00000000000E+00  0.00000000000E+00  0.45593999997E+02  0.45594000000E+02  0.51100000000E-03 0. -1.
         11   -1    0    0    0    0 -0.00000000000E+00 -0.00000000000E+00 -0.45593999997E+02  0.45594000000E+02  0.51100000000E-03 0.  1.
         23    2    1    2    0    0  0.00000000000E+00  0.00000000000E+00  0.00000000000E+00  0.91188000000E+02  0.91188000000E+02 0.  0.
    9900012    2    3    3    0    0 -0.38317343905E+02 -0.17166761373E+02 -0.10986769525E+02  0.47787243733E+02  0.19999875476E+02 0.  0.
         12    1    3    3    0    0  0.38317343905E+02  0.17166761373E+02  0.10986769525E+02  0.43400756267E+02  0.00000000000E+00 0. -1.
         11    1    4    4    0    0 -0.26802895339E+01 -0.23400811863E+01 -0.39628275770E+01  0.53257801879E+01  0.51100000000E-03 0.  1.
        -11    1    4    4    0    0 -0.84167416707E+00 -0.58240812288E+01 -0.17220294674E+01  0.61313720578E+01  0.51100000000E-03 0. -1.
         12    1    4    4    0    0 -0.34795380204E+02 -0.90025989583E+01 -0.53019124808E+01  0.36330091487E+02  0.00000000000E+00 0. -1.
</event>
<event>
 8    1  0.4042158E-011  0.9118800E+02  0.7816164E-02  0.1184000E+00
        -11   -1    0    0    0    0  0.00000000000E+00  0.00000000000E+00  0.45593999997E+02  0.45594000000E+02  0.51100000000E-03 0. -1.
         11   -1    0    0    0    0 -0.00000000000E+00 -0.00000000000E+00 -0.45593999997E+02  0.45594000000E+02  0.51100000000E-03 0.  1.
         23    2    1    2    0    0  0.00000000000E+00 -0.22204460493E-15  0.00000000000E+00  0.91188000000E+02  0.91188000000E+02 0.  0.
    9900012    2    3    3    0    0 -0.31208368364E+02  0.15253558652E+01 -0.30121989353E+02  0.47787271791E+02  0.20000003405E+02 0.  0.
         12    1    3    3    0    0  0.31208368364E+02 -0.15253558652E+01  0.30121989353E+02  0.43400728209E+02  0.00000000000E+00 0. -1.
         11    1    4    4    0    0 -0.45971787994E+01  0.16705408292E+01 -0.86305630966E+01  0.99202509646E+01  0.51100000000E-03 0.  1.
        -11    1    4    4    0    0 -0.27079137495E+02 -0.28537341370E+01 -0.22079588819E+02  0.35056122556E+02  0.51100000000E-03 0. -1.
         12    1    4    4    0    0  0.46794793079E+00  0.27085491730E+01  0.58816256189E+00  0.28108982706E+01  0.00000000000E+00 0. -1.
</event>
<event>
 8    1  0.4042158E-011  0.9118800E+02  0.7816164E-02  0.1184000E+00
        -11   -1    0    0    0    0  0.00000000000E+00  0.00000000000E+00  0.45593999997E+02  0.45594000000E+02  0.51100000000E-03 0. -1.
         11   -1    0    0    0    0 -0.00000000000E+00 -0.00000000000E+00 -0.45593999997E+02  0.45594000000E+02  0.51100000000E-03 0.  1.
         23    2    1    2    0    0  0.00000000000E+00  0.00000000000E+00  0.71054273576E-14  0.91188000000E+02  0.91188000000E+02 0.  0.
    9900012    2    3    3    0    0 -0.13119251538E+02  0.12827654991E+02 -0.39331408226E+02  0.47787272281E+02  0.20000005638E+02 0.  0.
         12    1    3    3    0    0  0.13119251538E+02 -0.12827654991E+02  0.39331408226E+02  0.43400727719E+02  0.00000000000E+00 0. -1.
         11    1    4    4    0    0 -0.32898309486E+00  0.12943869296E+01 -0.62662260955E+01  0.64069694194E+01  0.51100000000E-03 0. -1.
        -11    1    4    4    0    0 -0.11818760104E+02  0.36901164287E+01 -0.71736907874E+01  0.14309503465E+02  0.51100000000E-03 0.  1.
        -12    1    4    4    0    0 -0.97150833912E+00  0.78431516331E+01 -0.25891491343E+02  0.27070799397E+02  0.00000000000E+00 0.  1.
</event>
<event>
 8    1  0.4042158E-011  0.9118800E+02  0.7816164E-02  0.1184000E+00
        -11   -1    0    0    0    0  0.00000000000E+00  0.00000000000E+00  0.45593999997E+02  0.45594000000E+02  0.51100000000E-03 0. -1.
         11   -1    0    0    0    0 -0.00000000000E+00 -0.00000000000E+00 -0.45593999997E+02  0.45594000000E+02  0.51100000000E-03 0.  1.
         23    2    1    2    0    0  0.00000000000E+00 -0.88817841970E-15  0.71054273576E-14  0.91188000000E+02  0.91188000000E+02 0.  0.
    9900012    2    3    3    0    0  0.24494605695E+02 -0.53786148706E+01  0.35421860224E+02  0.47787269732E+02  0.19999994015E+02 0.  0.
        -12    1    3    3    0    0 -0.24494605695E+02  0.53786148706E+01 -0.35421860224E+02  0.43400730268E+02  0.00000000000E+00 0.  1.
         11    1    4    4    0    0  0.20029872442E+01 -0.55128008617E+01  0.98667432745E+01  0.11478482232E+02  0.51100000000E-03 0. -1.
        -11    1    4    4    0    0  0.86861520210E+00 -0.14157655118E+01  0.86773197120E+01  0.88348606101E+01  0.51100000000E-03 0.  1.
         12    1    4    4    0    0  0.21623003249E+02  0.15499515029E+01  0.16877797237E+02  0.27473926890E+02  0.00000000000E+00 0. -1.
</event>
<event>
 8    1  0.4042158E-011  0.9118800E+02  0.7816164E-02  0.1184000E+00
        -11   -1    0    0    0    0  0.00000000000E+00  0.00000000000E+00  0.45593999997E+02  0.45594000000E+02  0.51100000000E-03 0. -1.
         11   -1    0    0    0    0 -0.00000000000E+00 -0.00000000000E+00 -0.45593999997E+02  0.45594000000E+02  0.51100000000E-03 0.  1.
         23    2    1    2    0    0  0.00000000000E+00 -0.35527136788E-14  0.00000000000E+00  0.91188000000E+02  0.91188000000E+02 0.  0.
    9900012    2    3    3    0    0 -0.30674721603E+02 -0.29359781583E+02  0.89826555282E+01  0.47787269357E+02  0.19999992305E+02 0.  0.
        -12    1    3    3    0    0  0.30674721603E+02  0.29359781583E+02 -0.89826555282E+01  0.43400730643E+02  0.00000000000E+00 0.  1.
         11    1    4    4    0    0 -0.44816241810E+01 -0.11630527579E+02  0.40312562126E+01  0.13099815036E+02  0.51100000000E-03 0. -1.
        -11    1    4    4    0    0 -0.18363921158E+02 -0.18668092122E+02  0.19811140125E+01  0.26261303791E+02  0.51100000000E-03 0.  1.
        -12    1    4    4    0    0 -0.78291762636E+01  0.93883811771E+00  0.29702853031E+01  0.84261505304E+01  0.00000000000E+00 0.  1.
</event>
<event>
 8    1  0.4042158E-011  0.9118800E+02  0.7816164E-02  0.1184000E+00
        -11   -1    0    0    0    0  0.00000000000E+00  0.00000000000E+00  0.45593999997E+02  0.45594000000E+02  0.51100000000E-03 0. -1.
         11   -1    0    0    0    0 -0.00000000000E+00 -0.00000000000E+00 -0.45593999997E+02  0.45594000000E+02  0.51100000000E-03 0.  1.
         23    2    1    2    0    0  0.88817841970E-15 -0.35527136788E-14  0.00000000000E+00  0.91188000000E+02  0.91188000000E+02 0.  0.
    9900012    2    3    3    0    0 -0.75454611272E+01  0.17832712899E+02  0.38841777914E+02  0.47787270231E+02  0.19999996293E+02 0.  0.
        -12    1    3    3    0    0  0.75454611272E+01 -0.17832712899E+02 -0.38841777914E+02  0.43400729769E+02  0.00000000000E+00 0.  1.
         11    1    4    4    0    0 -0.12778422478E+01  0.64658539634E+01  0.20771798071E+02  0.21792378109E+02  0.51100000000E-03 0. -1.
        -11    1    4    4    0    0 -0.48693256454E+01  0.35556784809E+01  0.16938104361E+02  0.17979225826E+02  0.51100000000E-03 0.  1.
        -12    1    4    4    0    0 -0.13982932340E+01  0.78111804544E+01  0.11318754813E+01  0.80156662957E+01  0.00000000000E+00 0.  1.
</event>
<event>
 8    1  0.5489173E-011  0.9118800E+02  0.7816164E-02  0.1184000E+00
        -11   -1    0    0    0    0  0.00000000000E+00  0.00000000000E+00  0.45593999997E+02  0.45594000000E+02  0.51100000000E-03 0. -1.
         11   -1    0    0    0    0 -0.00000000000E+00 -0.00000000000E+00 -0.45593999997E+02  0.45594000000E+02  0.51100000000E-03 0.  1.
         23    2    1    2    0    0 -0.17763568394E-14 -0.17763568394E-14 -0.71054273576E-14  0.91188000000E+02  0.91188000000E+02 0.  0.
    9900012    2    3    3    0    0  0.15659204906E+02  0.87282693726E+01  0.39525051847E+02  0.47787272955E+02  0.20000008711E+02 0.  0.
        -12    1    3    3    0    0 -0.15659204906E+02 -0.87282693726E+01 -0.39525051847E+02  0.43400727045E+02  0.00000000000E+00 0.  1.
         11    1    4    4    0    0  0.11648067414E+02  0.72601050173E+01  0.24745469660E+02  0.28297082328E+02  0.51100000000E-03 0. -1.
        -11    1    4    4    0    0  0.61178209008E+01 -0.20822570926E+01  0.13813231200E+02  0.15250209297E+02  0.51100000000E-03 0.  1.
        -12    1    4    4    0    0 -0.21066834086E+01  0.35504214479E+01  0.96635098725E+00  0.42399813292E+01  0.00000000000E+00 0.  1.
</event>
<event>
 8    1  0.4042158E-011  0.9118800E+02  0.7816164E-02  0.1184000E+00
        -11   -1    0    0    0    0  0.00000000000E+00  0.00000000000E+00  0.45593999997E+02  0.45594000000E+02  0.51100000000E-03 0. -1.
         11   -1    0    0    0    0 -0.00000000000E+00 -0.00000000000E+00 -0.45593999997E+02  0.45594000000E+02  0.51100000000E-03 0.  1.
         23    2    1    2    0    0  0.00000000000E+00 -0.88817841970E-15  0.00000000000E+00  0.91188000000E+02  0.91188000000E+02 0.  0.
    9900012    2    3    3    0    0  0.40750356476E+02  0.42767085791E+01  0.14308815729E+02  0.47787262717E+02  0.19999962031E+02 0.  0.
        -12    1    3    3    0    0 -0.40750356476E+02 -0.42767085791E+01 -0.14308815729E+02  0.43400737283E+02  0.00000000000E+00 0.  1.
         11    1    4    4    0    0  0.23323372249E+02  0.55192103221E+01  0.12586959591E+02  0.27071625878E+02  0.51100000000E-03 0. -1.
        -11    1    4    4    0    0  0.10610710037E+02  0.46393819604E+01  0.17516526959E+01  0.11712357572E+02  0.51100000000E-03 0.  1.
        -12    1    4    4    0    0  0.68162741898E+01 -0.58818837034E+01 -0.29796558231E-01  0.90032792674E+01  0.00000000000E+00 0.  1.
</event>
<event>
 8    1  0.4752304E-011  0.9118800E+02  0.7816164E-02  0.1184000E+00
        -11   -1    0    0    0    0  0.00000000000E+00  0.00000000000E+00  0.45593999997E+02  0.45594000000E+02  0.51100000000E-03 0. -1.
         11   -1    0    0    0    0 -0.00000000000E+00 -0.00000000000E+00 -0.45593999997E+02  0.45594000000E+02  0.51100000000E-03 0.  1.
         23    2    1    2    0    0 -0.17763568394E-14 -0.88817841970E-15  0.00000000000E+00  0.91188000000E+02  0.91188000000E+02 0.  0.
    9900012    2    3    3    0    0 -0.13920151861E+02 -0.41685417923E+01  0.40895913727E+02  0.47787272724E+02  0.20000007660E+02 0.  0.
        -12    1    3    3    0    0  0.13920151861E+02  0.41685417923E+01 -0.40895913727E+02  0.43400727276E+02  0.00000000000E+00 0.  1.
         11    1    4    4    0    0 -0.57842437830E+01  0.35026736431E+01  0.17117240381E+02  0.18404513504E+02  0.51100000000E-03 0. -1.
        -11    1    4    4    0    0 -0.11777255437E+02 -0.60444109860E+01  0.19030663342E+02  0.23181992953E+02  0.51100000000E-03 0.  1.
        -12    1    4    4    0    0  0.36413473590E+01 -0.16268044494E+01  0.47480100040E+01  0.62007662674E+01  0.00000000000E+00 0.  1.
</event>
<event>
 8    1  0.4042158E-011  0.9118800E+02  0.7816164E-02  0.1184000E+00
        -11   -1    0    0    0    0  0.00000000000E+00  0.00000000000E+00  0.45593999997E+02  0.45594000000E+02  0.51100000000E-03 0. -1.
         11   -1    0    0    0    0 -0.00000000000E+00 -0.00000000000E+00 -0.45593999997E+02  0.45594000000E+02  0.51100000000E-03 0.  1.
         23    2    1    2    0    0  0.35527136788E-14  0.44408920985E-15  0.00000000000E+00  0.91188000000E+02  0.91188000000E+02 0.  0.
    9900012    2    3    3    0    0  0.30585985806E+02  0.17160638381E+01 -0.30743712696E+02  0.47787271052E+02  0.20000000036E+02 0.  0.
         12    1    3    3    0    0 -0.30585985806E+02 -0.17160638381E+01  0.30743712696E+02  0.43400728948E+02  0.00000000000E+00 0. -1.
         11    1    4    4    0    0  0.54684275296E+01 -0.54698723784E+01 -0.32682929172E+01  0.83967221186E+01  0.51100000000E-03 0. -1.
        -11    1    4    4    0    0  0.15524151804E+01  0.13932242186E+01 -0.80226677758E+01  0.82894068013E+01  0.51100000000E-03 0.  1.
         12    1    4    4    0    0  0.23565143096E+02  0.57927119980E+01 -0.19452752003E+02  0.31101142132E+02  0.00000000000E+00 0. -1.
</event>
<event>
 8    1  0.4042158E-011  0.9118800E+02  0.7816164E-02  0.1184000E+00
        -11   -1    0    0    0    0  0.00000000000E+00  0.00000000000E+00  0.45593999997E+02  0.45594000000E+02  0.51100000000E-03 0. -1.
         11   -1    0    0    0    0 -0.00000000000E+00 -0.00000000000E+00 -0.45593999997E+02  0.45594000000E+02  0.51100000000E-03 0.  1.
         23    2    1    2    0    0  0.35527136788E-14 -0.17763568394E-14  0.00000000000E+00  0.91188000000E+02  0.91188000000E+02 0.  0.
    9900012    2    3    3    0    0  0.23415800902E+02 -0.15892655399E+02  0.32905120702E+02  0.47787271942E+02  0.20000004092E+02 0.  0.
        -12    1    3    3    0    0 -0.23415800902E+02  0.15892655399E+02 -0.32905120702E+02  0.43400728058E+02  0.00000000000E+00 0.  1.
         11    1    4    4    0    0 -0.15547328876E+01  0.61040212055E+00  0.17811395610E+01  0.24417705661E+01  0.51100000000E-03 0. -1.
        -11    1    4    4    0    0  0.67595942962E+01 -0.11105496368E+02  0.74164373923E+01  0.14967555194E+02  0.51100000000E-03 0.  1.
         12    1    4    4    0    0  0.18210939494E+02 -0.53975611521E+01  0.23707543749E+02  0.30377946182E+02  0.00000000000E+00 0. -1.
</event>
<event>
 8    1  0.4042158E-011  0.9118800E+02  0.7816164E-02  0.1184000E+00
        -11   -1    0    0    0    0  0.00000000000E+00  0.00000000000E+00  0.45593999997E+02  0.45594000000E+02  0.51100000000E-03 0. -1.
         11   -1    0    0    0    0 -0.00000000000E+00 -0.00000000000E+00 -0.45593999997E+02  0.45594000000E+02  0.51100000000E-03 0.  1.
         23    2    1    2    0    0  0.88817841970E-15  0.00000000000E+00 -0.71054273576E-14  0.91188000000E+02  0.91188000000E+02 0.  0.
    9900012    2    3    3    0    0  0.42940301260E+01  0.91214458085E+01 -0.42213564053E+02  0.47787257397E+02  0.19999937778E+02 0.  0.
         12    1    3    3    0    0 -0.42940301260E+01 -0.91214458085E+01  0.42213564053E+02  0.43400742603E+02  0.00000000000E+00 0. -1.
         11    1    4    4    0    0 -0.25667921947E+01 -0.23683842934E+01 -0.17081071274E+02  0.17434467656E+02  0.51100000000E-03 0. -1.
        -11    1    4    4    0    0  0.31060210951E+01  0.39183305685E+01 -0.19656343971E+02  0.20282320874E+02  0.51100000000E-03 0.  1.
         12    1    4    4    0    0  0.37548012255E+01  0.75714995334E+01 -0.54761488089E+01  0.10070468867E+02  0.00000000000E+00 0. -1.
</event>
<event>
 8    1  0.4042158E-011  0.9118800E+02  0.7816164E-02  0.1184000E+00
        -11   -1    0    0    0    0  0.00000000000E+00  0.00000000000E+00  0.45593999997E+02  0.45594000000E+02  0.51100000000E-03 0. -1.
         11   -1    0    0    0    0 -0.00000000000E+00 -0.00000000000E+00 -0.45593999997E+02  0.45594000000E+02  0.51100000000E-03 0.  1.
         23    2    1    2    0    0  0.00000000000E+00 -0.35527136788E-14  0.00000000000E+00  0.91188000000E+02  0.91188000000E+02 0.  0.
    9900012    2    3    3    0    0  0.14765901720E+02 -0.22994737129E+02  0.33716900294E+02  0.47787318500E+02  0.20000216368E+02 0.  0.
        -12    1    3    3    0    0 -0.14765901720E+02  0.22994737129E+02 -0.33716900294E+02  0.43400681500E+02  0.00000000000E+00 0.  1.
         11    1    4    4    0    0  0.45415964446E+01 -0.37427366601E+01  0.73698938776E+01  0.94313048939E+01  0.51100000000E-03 0. -1.
        -11    1    4    4    0    0  0.25109810777E+00 -0.78918732142E+01  0.20809111228E+02  0.22256770283E+02  0.51100000000E-03 0.  1.
        -12    1    4    4    0    0  0.99732071674E+01 -0.11360127255E+02  0.55378951880E+01  0.16099243323E+02  0.00000000000E+00 0.  1.
</event>
<event>
 8    1  0.4042158E-011  0.9118800E+02  0.7816164E-02  0.1184000E+00
        -11   -1    0    0    0    0  0.00000000000E+00  0.00000000000E+00  0.45593999997E+02  0.45594000000E+02  0.51100000000E-03 0. -1.
         11   -1    0    0    0    0 -0.00000000000E+00 -0.00000000000E+00 -0.45593999997E+02  0.45594000000E+02  0.51100000000E-03 0.  1.
         23    2    1    2    0    0  0.00000000000E+00  0.00000000000E+00  0.00000000000E+00  0.91188000000E+02  0.91188000000E+02 0.  0.
    9900012    2    3    3    0    0  0.10939000159E+02 -0.17339707842E+02  0.38253052882E+02  0.47787271350E+02  0.20000001395E+02 0.  0.
        -12    1    3    3    0    0 -0.10939000159E+02  0.17339707842E+02 -0.38253052882E+02  0.43400728650E+02  0.00000000000E+00 0.  1.
         11    1    4    4    0    0  0.66862749064E+01 -0.69241977883E+01  0.56660544243E+01  0.11169375996E+02  0.51100000000E-03 0. -1.
        -11    1    4    4    0    0 -0.28828536130E+01  0.66027576747E+00  0.29165407514E+01  0.41536753916E+01  0.51100000000E-03 0.  1.
        -12    1    4    4    0    0  0.71355788655E+01 -0.11075785821E+02  0.29670457706E+02  0.32464219963E+02  0.00000000000E+00 0.  1.
</event>
<event>
 8    1  0.4042158E-011  0.9118800E+02  0.7816164E-02  0.1184000E+00
        -11   -1    0    0    0    0  0.00000000000E+00  0.00000000000E+00  0.45593999997E+02  0.45594000000E+02  0.51100000000E-03 0. -1.
         11   -1    0    0    0    0 -0.00000000000E+00 -0.00000000000E+00 -0.45593999997E+02  0.45594000000E+02  0.51100000000E-03 0.  1.
         23    2    1    2    0    0  0.71054273576E-14  0.17763568394E-14 -0.35527136788E-14  0.91188000000E+02  0.91188000000E+02 0.  0.
    9900012    2    3    3    0    0 -0.33671208875E+02 -0.10583645322E+02  0.25255878475E+02  0.47787271285E+02  0.20000001098E+02 0.  0.
        -12    1    3    3    0    0  0.33671208875E+02  0.10583645322E+02 -0.25255878475E+02  0.43400728715E+02  0.00000000000E+00 0.  1.
         11    1    4    4    0    0 -0.87252763057E+01 -0.16043100547E+01  0.10586219014E+02  0.13812034269E+02  0.51100000000E-03 0. -1.
        -11    1    4    4    0    0 -0.10950837552E+02  0.33941111124E+01  0.86051142613E+01  0.14334881410E+02  0.51100000000E-03 0.  1.
        -12    1    4    4    0    0 -0.13995095017E+02 -0.12373446380E+02  0.60645451994E+01  0.19640355606E+02  0.00000000000E+00 0.  1.
</event>
<event>
 8    1  0.4042158E-011  0.9118800E+02  0.7816164E-02  0.1184000E+00
        -11   -1    0    0    0    0  0.00000000000E+00  0.00000000000E+00  0.45593999997E+02  0.45594000000E+02  0.51100000000E-03 0. -1.
         11   -1    0    0    0    0 -0.00000000000E+00 -0.00000000000E+00 -0.45593999997E+02  0.45594000000E+02  0.51100000000E-03 0.  1.
         23    2    1    2    0    0  0.00000000000E+00  0.00000000000E+00 -0.17763568394E-14  0.91188000000E+02  0.91188000000E+02 0.  0.
    9900012    2    3    3    0    0 -0.38968218084E+02 -0.17329968071E+02  0.80481706641E+01  0.47787275754E+02  0.20000021474E+02 0.  0.
        -12    1    3    3    0    0  0.38968218084E+02  0.17329968071E+02 -0.80481706641E+01  0.43400724246E+02  0.00000000000E+00 0.  1.
         11    1    4    4    0    0 -0.16388488287E+02 -0.11960899801E+02  0.31574877016E+01  0.20533275463E+02  0.51100000000E-03 0. -1.
        -11    1    4    4    0    0 -0.13891137465E+02 -0.24289606183E+01 -0.38139866919E+01  0.14608560659E+02  0.51100000000E-03 0.  1.
         12    1    4    4    0    0 -0.86885923321E+01 -0.29401076515E+01  0.87046696543E+01  0.12645439633E+02  0.00000000000E+00 0. -1.
</event>
<event>
 8    1  0.4042158E-011  0.9118800E+02  0.7816164E-02  0.1184000E+00
        -11   -1    0    0    0    0  0.00000000000E+00  0.00000000000E+00  0.45593999997E+02  0.45594000000E+02  0.51100000000E-03 0.  1.
         11   -1    0    0    0    0 -0.00000000000E+00 -0.00000000000E+00 -0.45593999997E+02  0.45594000000E+02  0.51100000000E-03 0. -1.
         23    2    1    2    0    0  0.00000000000E+00  0.00000000000E+00  0.35527136788E-14  0.91188000000E+02  0.91188000000E+02 0.  0.
    9900012    2    3    3    0    0  0.32562684107E+02 -0.22270613192E+02  0.18091837745E+02  0.47787271882E+02  0.20000003819E+02 0.  0.
        -12    1    3    3    0    0 -0.32562684107E+02  0.22270613192E+02 -0.18091837745E+02  0.43400728118E+02  0.00000000000E+00 0.  1.
         11    1    4    4    0    0  0.14611707120E+02 -0.58893737377E+01  0.42563552107E+01  0.16318801057E+02  0.51100000000E-03 0. -1.
        -11    1    4    4    0    0  0.22490192959E+01  0.64882511928E+00 -0.22660673022E+01  0.32579323363E+01  0.51100000000E-03 0.  1.
         12    1    4    4    0    0  0.15701957691E+02 -0.17030064574E+02  0.16101549837E+02  0.28210538489E+02  0.00000000000E+00 0. -1.
</event>
<event>
 8    1  0.4042158E-011  0.9118800E+02  0.7816164E-02  0.1184000E+00
        -11   -1    0    0    0    0  0.00000000000E+00  0.00000000000E+00  0.45593999997E+02  0.45594000000E+02  0.51100000000E-03 0. -1.
         11   -1    0    0    0    0 -0.00000000000E+00 -0.00000000000E+00 -0.45593999997E+02  0.45594000000E+02  0.51100000000E-03 0.  1.
         23    2    1    2    0    0 -0.44408920985E-15  0.00000000000E+00  0.00000000000E+00  0.91188000000E+02  0.91188000000E+02 0.  0.
    9900012    2    3    3    0    0  0.16747267505E+01  0.22125982315E+02 -0.37299592400E+02  0.47787269634E+02  0.19999993569E+02 0.  0.
         12    1    3    3    0    0 -0.16747267505E+01 -0.22125982315E+02  0.37299592400E+02  0.43400730366E+02  0.00000000000E+00 0. -1.
         11    1    4    4    0    0 -0.69647808646E+01  0.16002098022E+02 -0.28269702094E+02  0.33222753804E+02  0.51100000000E-03 0. -1.
        -11    1    4    4    0    0  0.24506599985E+01  0.20341076591E+01 -0.54857814006E+01  0.63432740942E+01  0.51100000000E-03 0.  1.
         12    1    4    4    0    0  0.61888476166E+01  0.40897766340E+01 -0.35441089052E+01  0.82212417353E+01  0.00000000000E+00 0. -1.
</event>
<event>
 8    1  0.4042158E-011  0.9118800E+02  0.7816164E-02  0.1184000E+00
        -11   -1    0    0    0    0  0.00000000000E+00  0.00000000000E+00  0.45593999997E+02  0.45594000000E+02  0.51100000000E-03 0.  1.
         11   -1    0    0    0    0 -0.00000000000E+00 -0.00000000000E+00 -0.45593999997E+02  0.45594000000E+02  0.51100000000E-03 0. -1.
         23    2    1    2    0    0  0.00000000000E+00  0.00000000000E+00  0.00000000000E+00  0.91188000000E+02  0.91188000000E+02 0.  0.
    9900012    2    3    3    0    0  0.42033815740E+02 -0.57429250898E+01  0.91542533922E+01  0.47787271787E+02  0.20000003386E+02 0.  0.
         12    1    3    3    0    0 -0.42033815740E+02  0.57429250898E+01 -0.91542533922E+01  0.43400728213E+02  0.00000000000E+00 0. -1.
         11    1    4    4    0    0  0.44914306833E+00  0.13359448728E+01 -0.21628485777E+01  0.25815484559E+01  0.51100000000E-03 0. -1.
        -11    1    4    4    0    0  0.37905757010E+01 -0.10152522649E+01 -0.23352711026E+01  0.45664748647E+01  0.51100000000E-03 0.  1.
        -12    1    4    4    0    0  0.37794096971E+02 -0.60636176977E+01  0.13652373072E+02  0.40639248466E+02  0.00000000000E+00 0.  1.
</event>
<event>
 8    1  0.4042158E-011  0.9118800E+02  0.7816164E-02  0.1184000E+00
        -11   -1    0    0    0    0  0.00000000000E+00  0.00000000000E+00  0.45593999997E+02  0.45594000000E+02  0.51100000000E-03 0. -1.
         11   -1    0    0    0    0 -0.00000000000E+00 -0.00000000000E+00 -0.45593999997E+02  0.45594000000E+02  0.51100000000E-03 0.  1.
         23    2    1    2    0    0  0.00000000000E+00  0.35527136788E-14  0.00000000000E+00  0.91188000000E+02  0.91188000000E+02 0.  0.
    9900012    2    3    3    0    0  0.17987987347E+02 -0.28907114923E+02 -0.26915316063E+02  0.47787271657E+02  0.20000002793E+02 0.  0.
         12    1    3    3    0    0 -0.17987987347E+02  0.28907114923E+02  0.26915316063E+02  0.43400728343E+02  0.00000000000E+00 0. -1.
         11    1    4    4    0    0  0.18787465702E+01 -0.17106394747E+02 -0.48597757673E+01  0.17882277558E+02  0.51100000000E-03 0. -1.
        -11    1    4    4    0    0  0.60886253189E+01 -0.27451546675E+01 -0.68463052162E+01  0.95644721651E+01  0.51100000000E-03 0.  1.
         12    1    4    4    0    0  0.10020615458E+02 -0.90555655090E+01 -0.15209235079E+02  0.20340521934E+02  0.00000000000E+00 0. -1.
</event>
<event>
 8    1  0.4042158E-011  0.9118800E+02  0.7816164E-02  0.1184000E+00
        -11   -1    0    0    0    0  0.00000000000E+00  0.00000000000E+00  0.45593999997E+02  0.45594000000E+02  0.51100000000E-03 0. -1.
         11   -1    0    0    0    0 -0.00000000000E+00 -0.00000000000E+00 -0.45593999997E+02  0.45594000000E+02  0.51100000000E-03 0.  1.
         23    2    1    2    0    0  0.17763568394E-14 -0.71054273576E-14 -0.17763568394E-14  0.91188000000E+02  0.91188000000E+02 0.  0.
    9900012    2    3    3    0    0  0.70958706299E+01 -0.40590117792E+02 -0.13627746996E+02  0.47787256567E+02  0.19999933991E+02 0.  0.
         12    1    3    3    0    0 -0.70958706299E+01  0.40590117792E+02  0.13627746996E+02  0.43400743433E+02  0.00000000000E+00 0. -1.
         11    1    4    4    0    0  0.28455063714E+01 -0.88986891944E+00  0.14256039720E+01  0.33047118103E+01  0.51100000000E-03 0. -1.
        -11    1    4    4    0    0  0.79732663396E+01 -0.16106070598E+02 -0.65497624185E+01  0.19127934395E+02  0.51100000000E-03 0.  1.
        -12    1    4    4    0    0 -0.37229020810E+01 -0.23594178274E+02 -0.85035885493E+01  0.25354610361E+02  0.00000000000E+00 0.  1.
</event>
<event>
 8    1  0.4042158E-011  0.9118800E+02  0.7816164E-02  0.1184000E+00
        -11   -1    0    0    0    0  0.00000000000E+00  0.00000000000E+00  0.45593999997E+02  0.45594000000E+02  0.51100000000E-03 0. -1.
         11   -1    0    0    0    0 -0.00000000000E+00 -0.00000000000E+00 -0.45593999997E+02  0.45594000000E+02  0.51100000000E-03 0.  1.
         23    2    1    2    0    0  0.00000000000E+00  0.35527136788E-14  0.00000000000E+00  0.91188000000E+02  0.91188000000E+02 0.  0.
    9900012    2    3    3    0    0 -0.19882885044E+02 -0.20767562036E+02 -0.32511577300E+02  0.47787269486E+02  0.19999992896E+02 0.  0.
         12    1    3    3    0    0  0.19882885044E+02  0.20767562036E+02  0.32511577300E+02  0.43400730514E+02  0.00000000000E+00 0. -1.
         11    1    4    4    0    0 -0.73775580555E+01 -0.48582514621E+01 -0.13099237477E+02  0.15799398497E+02  0.51100000000E-03 0. -1.
        -11    1    4    4    0    0 -0.11882231695E+02 -0.29489069935E+01 -0.73974920490E+01  0.14304068351E+02  0.51100000000E-03 0.  1.
         12    1    4    4    0    0 -0.62309529279E+00 -0.12960403580E+02 -0.12014847774E+02  0.17683802638E+02  0.00000000000E+00 0. -1.
</event>
<event>
 8    1  0.4042158E-011  0.9118800E+02  0.7816164E-02  0.1184000E+00
        -11   -1    0    0    0    0  0.00000000000E+00  0.00000000000E+00  0.45593999997E+02  0.45594000000E+02  0.51100000000E-03 0. -1.
         11   -1    0    0    0    0 -0.00000000000E+00 -0.00000000000E+00 -0.45593999997E+02  0.45594000000E+02  0.51100000000E-03 0.  1.
         23    2    1    2    0    0  0.00000000000E+00  0.00000000000E+00  0.35527136788E-14  0.91188000000E+02  0.91188000000E+02 0.  0.
    9900012    2    3    3    0    0  0.16412388329E+02  0.31210063601E+02  0.25301956500E+02  0.47787267709E+02  0.19999984795E+02 0.  0.
        -12    1    3    3    0    0 -0.16412388329E+02 -0.31210063601E+02 -0.25301956500E+02  0.43400732291E+02  0.00000000000E+00 0.  1.
         11    1    4    4    0    0  0.83238015317E+01  0.15885857599E+01  0.98647866789E+01  0.13004741179E+02  0.51100000000E-03 0.  1.
        -11    1    4    4    0    0  0.46922849133E+01  0.80575309614E+01  0.41261292553E+01  0.10196385918E+02  0.51100000000E-03 0. -1.
        -12    1    4    4    0    0  0.33963018837E+01  0.21563946880E+02  0.11311040565E+02  0.24586140612E+02  0.00000000000E+00 0.  1.
</event>
<event>
 8    1  0.4042158E-011  0.9118800E+02  0.7816164E-02  0.1184000E+00
        -11   -1    0    0    0    0  0.00000000000E+00  0.00000000000E+00  0.45593999997E+02  0.45594000000E+02  0.51100000000E-03 0.  1.
         11   -1    0    0    0    0 -0.00000000000E+00 -0.00000000000E+00 -0.45593999997E+02  0.45594000000E+02  0.51100000000E-03 0. -1.
         23    2    1    2    0    0 -0.71054273576E-14 -0.17763568394E-14  0.00000000000E+00  0.91188000000E+02  0.91188000000E+02 0.  0.
    9900012    2    3    3    0    0  0.41520558163E+02  0.72176371878E+01 -0.10371698022E+02  0.47787272395E+02  0.20000006160E+02 0.  0.
         12    1    3    3    0    0 -0.41520558163E+02 -0.72176371878E+01  0.10371698022E+02  0.43400727605E+02  0.00000000000E+00 0. -1.
         11    1    4    4    0    0  0.37358399742E+02  0.10400200136E+02 -0.68299155878E+01  0.39375905594E+02  0.51100000000E-03 0. -1.
        -11    1    4    4    0    0  0.80816704130E+00  0.15738354438E+01 -0.47056669075E+00  0.18307171388E+01  0.51100000000E-03 0.  1.
         12    1    4    4    0    0  0.33539913798E+01 -0.47563983921E+01 -0.30712157431E+01  0.65806496625E+01  0.00000000000E+00 0. -1.
</event>
<event>
 8    1  0.4042158E-011  0.9118800E+02  0.7816164E-02  0.1184000E+00
        -11   -1    0    0    0    0  0.00000000000E+00  0.00000000000E+00  0.45593999997E+02  0.45594000000E+02  0.51100000000E-03 0. -1.
         11   -1    0    0    0    0 -0.00000000000E+00 -0.00000000000E+00 -0.45593999997E+02  0.45594000000E+02  0.51100000000E-03 0.  1.
         23    2    1    2    0    0  0.00000000000E+00  0.00000000000E+00  0.17763568394E-14  0.91188000000E+02  0.91188000000E+02 0.  0.
    9900012    2    3    3    0    0 -0.32431296674E+02  0.26705145683E+02  0.10893545936E+02  0.47787272438E+02  0.20000006353E+02 0.  0.
        -12    1    3    3    0    0  0.32431296674E+02 -0.26705145683E+02 -0.10893545936E+02  0.43400727562E+02  0.00000000000E+00 0.  1.
         11    1    4    4    0    0 -0.91500967760E+01  0.29138979764E+01  0.63839390020E+01  0.11531251011E+02  0.51100000000E-03 0. -1.
        -11    1    4    4    0    0 -0.44955428308E+01 -0.97896485443E+00  0.21503743290E+01  0.50786206342E+01  0.51100000000E-03 0.  1.
        -12    1    4    4    0    0 -0.18785657067E+02  0.24770212561E+02  0.23592326050E+01  0.31177400793E+02  0.00000000000E+00 0.  1.
</event>
<event>
 8    1  0.4042158E-011  0.9118800E+02  0.7816164E-02  0.1184000E+00
        -11   -1    0    0    0    0  0.00000000000E+00  0.00000000000E+00  0.45593999997E+02  0.45594000000E+02  0.51100000000E-03 0. -1.
         11   -1    0    0    0    0 -0.00000000000E+00 -0.00000000000E+00 -0.45593999997E+02  0.45594000000E+02  0.51100000000E-03 0.  1.
         23    2    1    2    0    0  0.00000000000E+00 -0.35527136788E-14 -0.35527136788E-14  0.91188000000E+02  0.91188000000E+02 0.  0.
    9900012    2    3    3    0    0  0.41793711846E+01 -0.31125347847E+02  0.29956121072E+02  0.47787267152E+02  0.19999982252E+02 0.  0.
        -12    1    3    3    0    0 -0.41793711846E+01  0.31125347847E+02 -0.29956121072E+02  0.43400732848E+02  0.00000000000E+00 0.  1.
         11    1    4    4    0    0  0.62908728822E+01 -0.62599725054E+01  0.86695590968E+01  0.12406594721E+02  0.51100000000E-03 0. -1.
        -11    1    4    4    0    0 -0.11909212344E+01 -0.22075033581E+02  0.11019253195E+02  0.24701201230E+02  0.51100000000E-03 0.  1.
         12    1    4    4    0    0 -0.92058046323E+00 -0.27903417607E+01  0.10267308780E+02  0.10679471200E+02  0.00000000000E+00 0. -1.
</event>
<event>
 8    1  0.4042158E-011  0.9118800E+02  0.7816164E-02  0.1184000E+00
        -11   -1    0    0    0    0  0.00000000000E+00  0.00000000000E+00  0.45593999997E+02  0.45594000000E+02  0.51100000000E-03 0. -1.
         11   -1    0    0    0    0 -0.00000000000E+00 -0.00000000000E+00 -0.45593999997E+02  0.45594000000E+02  0.51100000000E-03 0.  1.
         23    2    1    2    0    0  0.17763568394E-14  0.88817841970E-15  0.71054273576E-14  0.91188000000E+02  0.91188000000E+02 0.  0.
    9900012    2    3    3    0    0  0.10985428126E+02  0.71301475482E+01  0.41377597213E+02  0.47787260533E+02  0.19999952072E+02 0.  0.
        -12    1    3    3    0    0 -0.10985428126E+02 -0.71301475482E+01 -0.41377597213E+02  0.43400739467E+02  0.00000000000E+00 0.  1.
         11    1    4    4    0    0  0.25347753353E+01  0.35709932183E+01  0.19000282368E+02  0.19498405291E+02  0.51100000000E-03 0. -1.
        -11    1    4    4    0    0 -0.40829504935E+01  0.13210172876E+00  0.35442694428E+01  0.54083067353E+01  0.51100000000E-03 0.  1.
        -12    1    4    4    0    0  0.12533603285E+02  0.34270526011E+01  0.18833045403E+02  0.22880548507E+02  0.00000000000E+00 0.  1.
</event>
<event>
 8    1  0.4042158E-011  0.9118800E+02  0.7816164E-02  0.1184000E+00
        -11   -1    0    0    0    0  0.00000000000E+00  0.00000000000E+00  0.45593999997E+02  0.45594000000E+02  0.51100000000E-03 0. -1.
         11   -1    0    0    0    0 -0.00000000000E+00 -0.00000000000E+00 -0.45593999997E+02  0.45594000000E+02  0.51100000000E-03 0.  1.
         23    2    1    2    0    0  0.88817841970E-15  0.00000000000E+00  0.00000000000E+00  0.91188000000E+02  0.91188000000E+02 0.  0.
    9900012    2    3    3    0    0 -0.73818340381E+01 -0.36337957890E+01  0.42613699366E+02  0.47787270522E+02  0.19999997618E+02 0.  0.
        -12    1    3    3    0    0  0.73818340381E+01  0.36337957890E+01 -0.42613699366E+02  0.43400729478E+02  0.00000000000E+00 0.  1.
         11    1    4    4    0    0 -0.58409465532E+01  0.13045916876E+01  0.20145606997E+02  0.21015805900E+02  0.51100000000E-03 0. -1.
        -11    1    4    4    0    0 -0.69504566644E+01 -0.37452372085E+01  0.78270407995E+01  0.11117473523E+02  0.51100000000E-03 0.  1.
         12    1    4    4    0    0  0.54095691795E+01 -0.11931502681E+01  0.14641051569E+02  0.15653991099E+02  0.00000000000E+00 0. -1.
</event>
<event>
 8    1  0.4042158E-011  0.9118800E+02  0.7816164E-02  0.1184000E+00
        -11   -1    0    0    0    0  0.00000000000E+00  0.00000000000E+00  0.45593999997E+02  0.45594000000E+02  0.51100000000E-03 0. -1.
         11   -1    0    0    0    0 -0.00000000000E+00 -0.00000000000E+00 -0.45593999997E+02  0.45594000000E+02  0.51100000000E-03 0.  1.
         23    2    1    2    0    0  0.00000000000E+00  0.88817841970E-15 -0.71054273576E-14  0.91188000000E+02  0.91188000000E+02 0.  0.
    9900012    2    3    3    0    0 -0.81064383717E+01  0.46473223252E+01 -0.42382898432E+02  0.47787285405E+02  0.20000065477E+02 0.  0.
         12    1    3    3    0    0  0.81064383717E+01 -0.46473223252E+01  0.42382898432E+02  0.43400714595E+02  0.00000000000E+00 0. -1.
         11    1    4    4    0    0  0.61628631493E+01  0.30621932484E+01 -0.89740314977E+01  0.11308896996E+02  0.51100000000E-03 0. -1.
        -11    1    4    4    0    0 -0.96067669216E+00  0.66068615169E+00 -0.43496864268E+01  0.45032408519E+01  0.51100000000E-03 0.  1.
         12    1    4    4    0    0 -0.13308624829E+02  0.92444292510E+00 -0.29059180507E+02  0.31975147557E+02  0.00000000000E+00 0. -1.
</event>
<event>
 8    1  0.4042158E-011  0.9118800E+02  0.7816164E-02  0.1184000E+00
        -11   -1    0    0    0    0  0.00000000000E+00  0.00000000000E+00  0.45593999997E+02  0.45594000000E+02  0.51100000000E-03 0. -1.
         11   -1    0    0    0    0 -0.00000000000E+00 -0.00000000000E+00 -0.45593999997E+02  0.45594000000E+02  0.51100000000E-03 0.  1.
         23    2    1    2    0    0  0.00000000000E+00  0.00000000000E+00  0.00000000000E+00  0.91188000000E+02  0.91188000000E+02 0.  0.
    9900012    2    3    3    0    0  0.23013177126E+02 -0.96485151696E+01 -0.35509479609E+02  0.47787270645E+02  0.19999998180E+02 0.  0.
         12    1    3    3    0    0 -0.23013177126E+02  0.96485151696E+01  0.35509479609E+02  0.43400729355E+02  0.00000000000E+00 0. -1.
         11    1    4    4    0    0 -0.92538888671E-01 -0.28940505318E+00  0.16218282067E+01  0.16500441582E+01  0.51100000000E-03 0. -1.
        -11    1    4    4    0    0  0.48194913566E+01 -0.73689542625E+01 -0.14617461858E+02  0.17064559042E+02  0.51100000000E-03 0.  1.
         12    1    4    4    0    0  0.18286224659E+02 -0.19901558539E+01 -0.22513845958E+02  0.29072667445E+02  0.00000000000E+00 0. -1.
</event>
<event>
 8    1  0.4042158E-011  0.9118800E+02  0.7816164E-02  0.1184000E+00
        -11   -1    0    0    0    0  0.00000000000E+00  0.00000000000E+00  0.45593999997E+02  0.45594000000E+02  0.51100000000E-03 0.  1.
         11   -1    0    0    0    0 -0.00000000000E+00 -0.00000000000E+00 -0.45593999997E+02  0.45594000000E+02  0.51100000000E-03 0. -1.
         23    2    1    2    0    0 -0.17763568394E-14  0.00000000000E+00  0.00000000000E+00  0.91188000000E+02  0.91188000000E+02 0.  0.
    9900012    2    3    3    0    0  0.15551363791E+02 -0.39729633388E+02  0.79583164158E+01  0.47787268611E+02  0.19999988905E+02 0.  0.
        -12    1    3    3    0    0 -0.15551363791E+02  0.39729633388E+02 -0.79583164158E+01  0.43400731389E+02  0.00000000000E+00 0.  1.
         11    1    4    4    0    0  0.75649084158E+01 -0.48286843169E+01 -0.18345318714E+00  0.89765075004E+01  0.51100000000E-03 0. -1.
        -11    1    4    4    0    0  0.72879287372E+01 -0.83607737051E+01  0.46739489480E+01  0.12035873099E+02  0.51100000000E-03 0.  1.
        -12    1    4    4    0    0  0.69852663783E+00 -0.26540175366E+02  0.34678206549E+01  0.26774888012E+02  0.00000000000E+00 0.  1.
</event>
<event>
 8    1  0.4042158E-011  0.9118800E+02  0.7816164E-02  0.1184000E+00
        -11   -1    0    0    0    0  0.00000000000E+00  0.00000000000E+00  0.45593999997E+02  0.45594000000E+02  0.51100000000E-03 0. -1.
         11   -1    0    0    0    0 -0.00000000000E+00 -0.00000000000E+00 -0.45593999997E+02  0.45594000000E+02  0.51100000000E-03 0.  1.
         23    2    1    2    0    0  0.00000000000E+00  0.00000000000E+00  0.35527136788E-14  0.91188000000E+02  0.91188000000E+02 0.  0.
    9900012    2    3    3    0    0 -0.36242900239E+02 -0.37343795102E+01 -0.23582403438E+02  0.47787272357E+02  0.20000005984E+02 0.  0.
         12    1    3    3    0    0  0.36242900239E+02  0.37343795102E+01  0.23582403438E+02  0.43400727643E+02  0.00000000000E+00 0. -1.
         11    1    4    4    0    0 -0.12321124955E+02 -0.82614646660E+01 -0.11598054584E+02  0.18830209478E+02  0.51100000000E-03 0. -1.
        -11    1    4    4    0    0  0.67645993346E-01  0.59431605908E+00 -0.29704276320E+01  0.30300541475E+01  0.51100000000E-03 0.  1.
        -12    1    4    4    0    0 -0.23989421277E+02  0.39327690967E+01 -0.90139212213E+01  0.25927008731E+02  0.00000000000E+00 0.  1.
</event>
<event>
 8    1  0.4042158E-011  0.9118800E+02  0.7816164E-02  0.1184000E+00
        -11   -1    0    0    0    0  0.00000000000E+00  0.00000000000E+00  0.45593999997E+02  0.45594000000E+02  0.51100000000E-03 0. -1.
         11   -1    0    0    0    0 -0.00000000000E+00 -0.00000000000E+00 -0.45593999997E+02  0.45594000000E+02  0.51100000000E-03 0.  1.
         23    2    1    2    0    0 -0.35527136788E-14  0.71054273576E-14  0.00000000000E+00  0.91188000000E+02  0.91188000000E+02 0.  0.
    9900012    2    3    3    0    0 -0.26629511501E+02  0.29641648376E+02 -0.17200727325E+02  0.47787271645E+02  0.20000002740E+02 0.  0.
         12    1    3    3    0    0  0.26629511501E+02 -0.29641648376E+02  0.17200727325E+02  0.43400728355E+02  0.00000000000E+00 0. -1.
         11    1    4    4    0    0  0.93311080752E-01  0.79642903279E+01 -0.20991622183E+01  0.82368142910E+01  0.51100000000E-03 0. -1.
        -11    1    4    4    0    0 -0.31919699012E+01  0.46725560840E+01  0.18232132506E+01  0.59452131187E+01  0.51100000000E-03 0.  1.
        -12    1    4    4    0    0 -0.23530852681E+02  0.17004801964E+02 -0.16924778357E+02  0.33605244236E+02  0.00000000000E+00 0.  1.
</event>
<event>
 8    1  0.4042158E-011  0.9118800E+02  0.7816164E-02  0.1184000E+00
        -11   -1    0    0    0    0  0.00000000000E+00  0.00000000000E+00  0.45593999997E+02  0.45594000000E+02  0.51100000000E-03 0. -1.
         11   -1    0    0    0    0 -0.00000000000E+00 -0.00000000000E+00 -0.45593999997E+02  0.45594000000E+02  0.51100000000E-03 0.  1.
         23    2    1    2    0    0  0.00000000000E+00 -0.35527136788E-14 -0.88817841970E-15  0.91188000000E+02  0.91188000000E+02 0.  0.
    9900012    2    3    3    0    0  0.37973695220E+02 -0.20633167110E+02 -0.39869149119E+01  0.47787255719E+02  0.19999930123E+02 0.  0.
         12    1    3    3    0    0 -0.37973695220E+02  0.20633167110E+02  0.39869149119E+01  0.43400744281E+02  0.00000000000E+00 0. -1.
         11    1    4    4    0    0  0.29632818305E+02 -0.64735086582E+01  0.82577491070E+00  0.30342909213E+02  0.51100000000E-03 0. -1.
        -11    1    4    4    0    0  0.27174253433E+01 -0.27252572068E+01 -0.73765563460E-01  0.38492686265E+01  0.51100000000E-03 0.  1.
        -12    1    4    4    0    0  0.56234515724E+01 -0.11434401245E+02 -0.47389242591E+01  0.13595077879E+02  0.00000000000E+00 0.  1.
</event>
<event>
 8    1  0.4042158E-011  0.9118800E+02  0.7816164E-02  0.1184000E+00
        -11   -1    0    0    0    0  0.00000000000E+00  0.00000000000E+00  0.45593999997E+02  0.45594000000E+02  0.51100000000E-03 0. -1.
         11   -1    0    0    0    0 -0.00000000000E+00 -0.00000000000E+00 -0.45593999997E+02  0.45594000000E+02  0.51100000000E-03 0.  1.
         23    2    1    2    0    0  0.00000000000E+00  0.00000000000E+00  0.00000000000E+00  0.91188000000E+02  0.91188000000E+02 0.  0.
    9900012    2    3    3    0    0 -0.26199177429E+02 -0.90422483081E+01 -0.33398563698E+02  0.47787271786E+02  0.20000003381E+02 0.  0.
         12    1    3    3    0    0  0.26199177429E+02  0.90422483081E+01  0.33398563698E+02  0.43400728214E+02  0.00000000000E+00 0. -1.
         11    1    4    4    0    0 -0.94175247812E+01 -0.56921198924E+01 -0.38344067945E+01  0.11653011525E+02  0.51100000000E-03 0. -1.
        -11    1    4    4    0    0 -0.26590324613E+01 -0.38331743578E+01 -0.18368247559E+01  0.50137415902E+01  0.51100000000E-03 0.  1.
        -12    1    4    4    0    0 -0.14122620186E+02  0.48304594214E+00 -0.27727332148E+02  0.31120518671E+02  0.00000000000E+00 0.  1.
</event>
<event>
 8    1  0.4042158E-011  0.9118800E+02  0.7816164E-02  0.1184000E+00
        -11   -1    0    0    0    0  0.00000000000E+00  0.00000000000E+00  0.45593999997E+02  0.45594000000E+02  0.51100000000E-03 0. -1.
         11   -1    0    0    0    0 -0.00000000000E+00 -0.00000000000E+00 -0.45593999997E+02  0.45594000000E+02  0.51100000000E-03 0.  1.
         23    2    1    2    0    0 -0.35527136788E-14  0.00000000000E+00  0.00000000000E+00  0.91188000000E+02  0.91188000000E+02 0.  0.
    9900012    2    3    3    0    0 -0.26520683108E+02  0.33081453860E+02 -0.92679121977E+01  0.47787269379E+02  0.19999992404E+02 0.  0.
         12    1    3    3    0    0  0.26520683108E+02 -0.33081453860E+02  0.92679121977E+01  0.43400730621E+02  0.00000000000E+00 0. -1.
         11    1    4    4    0    0  0.64188627398E-02  0.22655948037E+00  0.17498126741E+01  0.17644305188E+01  0.51100000000E-03 0. -1.
        -11    1    4    4    0    0 -0.11350085566E+02  0.58829506242E+01  0.99880456453E+00  0.12823071442E+02  0.51100000000E-03 0.  1.
         12    1    4    4    0    0 -0.15177016405E+02  0.26971943755E+02 -0.12016529436E+02  0.33199767417E+02  0.00000000000E+00 0. -1.
</event>
<event>
 8    1  0.4042158E-011  0.9118800E+02  0.7816164E-02  0.1184000E+00
        -11   -1    0    0    0    0  0.00000000000E+00  0.00000000000E+00  0.45593999997E+02  0.45594000000E+02  0.51100000000E-03 0. -1.
         11   -1    0    0    0    0 -0.00000000000E+00 -0.00000000000E+00 -0.45593999997E+02  0.45594000000E+02  0.51100000000E-03 0.  1.
         23    2    1    2    0    0  0.00000000000E+00  0.71054273576E-14  0.00000000000E+00  0.91188000000E+02  0.91188000000E+02 0.  0.
    9900012    2    3    3    0    0 -0.15813145329E+02 -0.33396437395E+02  0.22765007748E+02  0.47787272199E+02  0.20000005263E+02 0.  0.
        -12    1    3    3    0    0  0.15813145329E+02  0.33396437395E+02 -0.22765007748E+02  0.43400727801E+02  0.00000000000E+00 0.  1.
         11    1    4    4    0    0 -0.48553319665E+01 -0.17891806780E+02  0.58887562249E+01  0.19451695260E+02  0.51100000000E-03 0. -1.
        -11    1    4    4    0    0 -0.20245733208E+01  0.47821562407E+00 -0.13664321317E+01  0.24889203173E+01  0.51100000000E-03 0.  1.
         12    1    4    4    0    0 -0.89332400421E+01 -0.15982846239E+02  0.18242683655E+02  0.25846656621E+02  0.00000000000E+00 0. -1.
</event>
<event>
 8    1  0.4042158E-011  0.9118800E+02  0.7816164E-02  0.1184000E+00
        -11   -1    0    0    0    0  0.00000000000E+00  0.00000000000E+00  0.45593999997E+02  0.45594000000E+02  0.51100000000E-03 0. -1.
         11   -1    0    0    0    0 -0.00000000000E+00 -0.00000000000E+00 -0.45593999997E+02  0.45594000000E+02  0.51100000000E-03 0.  1.
         23    2    1    2    0    0  0.00000000000E+00  0.00000000000E+00  0.00000000000E+00  0.91188000000E+02  0.91188000000E+02 0.  0.
    9900012    2    3    3    0    0  0.59883998486E+01  0.37832123968E+02  0.20408155467E+02  0.47787270211E+02  0.19999996198E+02 0.  0.
        -12    1    3    3    0    0 -0.59883998486E+01 -0.37832123968E+02 -0.20408155467E+02  0.43400729789E+02  0.00000000000E+00 0.  1.
         11    1    4    4    0    0  0.23663471683E+01  0.62654030413E+01  0.78657286627E+01  0.10330758048E+02  0.51100000000E-03 0. -1.
        -11    1    4    4    0    0 -0.42155639966E+01  0.23897832481E+02  0.96579760051E+01  0.26118075692E+02  0.51100000000E-03 0.  1.
        -12    1    4    4    0    0  0.78376166770E+01  0.76688884463E+01  0.28844507988E+01  0.11338436470E+02  0.00000000000E+00 0.  1.
</event>
<event>
 8    1  0.4042158E-011  0.9118800E+02  0.7816164E-02  0.1184000E+00
        -11   -1    0    0    0    0  0.00000000000E+00  0.00000000000E+00  0.45593999997E+02  0.45594000000E+02  0.51100000000E-03 0. -1.
         11   -1    0    0    0    0 -0.00000000000E+00 -0.00000000000E+00 -0.45593999997E+02  0.45594000000E+02  0.51100000000E-03 0.  1.
         23    2    1    2    0    0 -0.71054273576E-14  0.00000000000E+00  0.35527136788E-14  0.91188000000E+02  0.91188000000E+02 0.  0.
    9900012    2    3    3    0    0 -0.38820507525E+02 -0.90900865894E+01  0.17145317992E+02  0.47787269502E+02  0.19999992969E+02 0.  0.
        -12    1    3    3    0    0  0.38820507525E+02  0.90900865894E+01 -0.17145317992E+02  0.43400730498E+02  0.00000000000E+00 0.  1.
         11    1    4    4    0    0 -0.70284557180E+01  0.10565489857E+01  0.63199624798E+01  0.95109101324E+01  0.51100000000E-03 0. -1.
        -11    1    4    4    0    0 -0.14612389123E+01  0.25530152285E+01  0.35292613310E+01  0.45944305109E+01  0.51100000000E-03 0.  1.
        -12    1    4    4    0    0 -0.30330812894E+02 -0.12699650804E+02  0.72960941816E+01  0.33681928859E+02  0.00000000000E+00 0.  1.
</event>
<event>
 8    1  0.4042158E-011  0.9118800E+02  0.7816164E-02  0.1184000E+00
        -11   -1    0    0    0    0  0.00000000000E+00  0.00000000000E+00  0.45593999997E+02  0.45594000000E+02  0.51100000000E-03 0. -1.
         11   -1    0    0    0    0 -0.00000000000E+00 -0.00000000000E+00 -0.45593999997E+02  0.45594000000E+02  0.51100000000E-03 0.  1.
         23    2    1    2    0    0  0.35527136788E-14  0.00000000000E+00  0.00000000000E+00  0.91188000000E+02  0.91188000000E+02 0.  0.
    9900012    2    3    3    0    0  0.27628566290E+02 -0.88186274974E+01 -0.32288037279E+02  0.47787271694E+02  0.20000002963E+02 0.  0.
         12    1    3    3    0    0 -0.27628566290E+02  0.88186274974E+01  0.32288037279E+02  0.43400728306E+02  0.00000000000E+00 0. -1.
         11    1    4    4    0    0  0.79451353789E+01 -0.18979514865E+01 -0.16162631386E+01  0.83270464649E+01  0.51100000000E-03 0. -1.
        -11    1    4    4    0    0  0.13463079515E+02 -0.24945880224E+01 -0.28345599238E+02  0.31479365875E+02  0.51100000000E-03 0.  1.
         12    1    4    4    0    0  0.62203513954E+01 -0.44260879884E+01 -0.23261749018E+01  0.79808593546E+01  0.00000000000E+00 0. -1.
</event>
<event>
 8    1  0.4042158E-011  0.9118800E+02  0.7816164E-02  0.1184000E+00
        -11   -1    0    0    0    0  0.00000000000E+00  0.00000000000E+00  0.45593999997E+02  0.45594000000E+02  0.51100000000E-03 0. -1.
         11   -1    0    0    0    0 -0.00000000000E+00 -0.00000000000E+00 -0.45593999997E+02  0.45594000000E+02  0.51100000000E-03 0.  1.
         23    2    1    2    0    0  0.00000000000E+00  0.35527136788E-14 -0.35527136788E-14  0.91188000000E+02  0.91188000000E+02 0.  0.
    9900012    2    3    3    0    0 -0.26077887746E+02 -0.17820067571E+02  0.29765959131E+02  0.47787270046E+02  0.19999995450E+02 0.  0.
        -12    1    3    3    0    0  0.26077887746E+02  0.17820067571E+02 -0.29765959131E+02  0.43400729954E+02  0.00000000000E+00 0.  1.
         11    1    4    4    0    0 -0.13263478323E+00  0.31589907589E+01  0.39907335557E+01  0.50914407758E+01  0.51100000000E-03 0. -1.
        -11    1    4    4    0    0 -0.11275172198E+02 -0.90210082441E+01  0.70392752998E+01  0.16064230291E+02  0.51100000000E-03 0.  1.
        -12    1    4    4    0    0 -0.14670080765E+02 -0.11958050085E+02  0.18735950276E+02  0.26631598980E+02  0.00000000000E+00 0.  1.
</event>
<event>
 8    1  0.4042158E-011  0.9118800E+02  0.7816164E-02  0.1184000E+00
        -11   -1    0    0    0    0  0.00000000000E+00  0.00000000000E+00  0.45593999997E+02  0.45594000000E+02  0.51100000000E-03 0.  1.
         11   -1    0    0    0    0 -0.00000000000E+00 -0.00000000000E+00 -0.45593999997E+02  0.45594000000E+02  0.51100000000E-03 0. -1.
         23    2    1    2    0    0 -0.71054273576E-14  0.00000000000E+00  0.00000000000E+00  0.91188000000E+02  0.91188000000E+02 0.  0.
    9900012    2    3    3    0    0 -0.34667839551E+02  0.56988763338E+01  0.25481011981E+02  0.47787328782E+02  0.20000263246E+02 0.  0.
        -12    1    3    3    0    0  0.34667839551E+02 -0.56988763338E+01 -0.25481011981E+02  0.43400671218E+02  0.00000000000E+00 0.  1.
         11    1    4    4    0    0 -0.11032015747E+02  0.23794965515E+01  0.26833538388E+01  0.11600334623E+02  0.51100000000E-03 0. -1.
        -11    1    4    4    0    0  0.18626552873E+01 -0.88506813859E+00  0.67929959258E+00  0.21712389382E+01  0.51100000000E-03 0.  1.
         12    1    4    4    0    0 -0.25498479091E+02  0.42044479209E+01  0.22118358550E+02  0.34015755220E+02  0.00000000000E+00 0. -1.
</event>
<event>
 8    1  0.4042158E-011  0.9118800E+02  0.7816164E-02  0.1184000E+00
        -11   -1    0    0    0    0  0.00000000000E+00  0.00000000000E+00  0.45593999997E+02  0.45594000000E+02  0.51100000000E-03 0. -1.
         11   -1    0    0    0    0 -0.00000000000E+00 -0.00000000000E+00 -0.45593999997E+02  0.45594000000E+02  0.51100000000E-03 0.  1.
         23    2    1    2    0    0 -0.71054273576E-14  0.00000000000E+00  0.00000000000E+00  0.91188000000E+02  0.91188000000E+02 0.  0.
    9900012    2    3    3    0    0 -0.32564726621E+02  0.60827472826E+01  0.28038589135E+02  0.47787265961E+02  0.19999976824E+02 0.  0.
        -12    1    3    3    0    0  0.32564726621E+02 -0.60827472826E+01 -0.28038589135E+02  0.43400734039E+02  0.00000000000E+00 0.  1.
         11    1    4    4    0    0 -0.14168549179E+02 -0.42645751592E+00  0.75799822204E+01  0.16074382805E+02  0.51100000000E-03 0. -1.
        -11    1    4    4    0    0 -0.16485215230E+02  0.78262929259E+01  0.96209238239E+01  0.20629477881E+02  0.51100000000E-03 0.  1.
        -12    1    4    4    0    0 -0.19109622115E+01 -0.13170881273E+01  0.10837683091E+02  0.11083405275E+02  0.00000000000E+00 0.  1.
</event>
<event>
 8    1  0.4042158E-011  0.9118800E+02  0.7816164E-02  0.1184000E+00
        -11   -1    0    0    0    0  0.00000000000E+00  0.00000000000E+00  0.45593999997E+02  0.45594000000E+02  0.51100000000E-03 0.  1.
         11   -1    0    0    0    0 -0.00000000000E+00 -0.00000000000E+00 -0.45593999997E+02  0.45594000000E+02  0.51100000000E-03 0. -1.
         23    2    1    2    0    0  0.00000000000E+00  0.88817841970E-15  0.35527136788E-14  0.91188000000E+02  0.91188000000E+02 0.  0.
    9900012    2    3    3    0    0 -0.36174113391E+02 -0.50750670815E+01  0.23437157848E+02  0.47787272431E+02  0.20000006323E+02 0.  0.
         12    1    3    3    0    0  0.36174113391E+02  0.50750670815E+01 -0.23437157848E+02  0.43400727569E+02  0.00000000000E+00 0. -1.
         11    1    4    4    0    0 -0.17995470251E+02 -0.91442171847E+01  0.10041878468E+02  0.22545353865E+02  0.51100000000E-03 0.  1.
        -11    1    4    4    0    0 -0.12330819637E+02  0.20539436939E-01  0.13288937102E+02  0.18128579215E+02  0.51100000000E-03 0. -1.
        -12    1    4    4    0    0 -0.58478235028E+01  0.40486106662E+01  0.10634227817E+00  0.71133393513E+01  0.00000000000E+00 0.  1.
</event>
<event>
 8    1  0.4042158E-011  0.9118800E+02  0.7816164E-02  0.1184000E+00
        -11   -1    0    0    0    0  0.00000000000E+00  0.00000000000E+00  0.45593999997E+02  0.45594000000E+02  0.51100000000E-03 0. -1.
         11   -1    0    0    0    0 -0.00000000000E+00 -0.00000000000E+00 -0.45593999997E+02  0.45594000000E+02  0.51100000000E-03 0.  1.
         23    2    1    2    0    0  0.00000000000E+00  0.00000000000E+00 -0.35527136788E-14  0.91188000000E+02  0.91188000000E+02 0.  0.
    9900012    2    3    3    0    0  0.63067353322E+01  0.31079843776E+02  0.29629234384E+02  0.47787272703E+02  0.20000007564E+02 0.  0.
        -12    1    3    3    0    0 -0.63067353322E+01 -0.31079843776E+02 -0.29629234384E+02  0.43400727297E+02  0.00000000000E+00 0.  1.
         11    1    4    4    0    0 -0.64553469077E+00  0.23996265582E+01  0.11068881818E+02  0.11344384850E+02  0.51100000000E-03 0. -1.
        -11    1    4    4    0    0  0.58705701082E+01  0.54947669556E+01  0.61465812795E+01  0.10121092776E+02  0.51100000000E-03 0.  1.
        -12    1    4    4    0    0  0.10816999148E+01  0.23185450262E+02  0.12413771287E+02  0.26321795078E+02  0.00000000000E+00 0.  1.
</event>
<event>
 8    1  0.4042158E-011  0.9118800E+02  0.7816164E-02  0.1184000E+00
        -11   -1    0    0    0    0  0.00000000000E+00  0.00000000000E+00  0.45593999997E+02  0.45594000000E+02  0.51100000000E-03 0. -1.
         11   -1    0    0    0    0 -0.00000000000E+00 -0.00000000000E+00 -0.45593999997E+02  0.45594000000E+02  0.51100000000E-03 0.  1.
         23    2    1    2    0    0  0.00000000000E+00 -0.17763568394E-14 -0.35527136788E-14  0.91188000000E+02  0.91188000000E+02 0.  0.
    9900012    2    3    3    0    0  0.40842199033E+02  0.95401275475E+01  0.11159029849E+02  0.47787271865E+02  0.20000003741E+02 0.  0.
        -12    1    3    3    0    0 -0.40842199033E+02 -0.95401275475E+01 -0.11159029849E+02  0.43400728135E+02  0.00000000000E+00 0.  1.
         11    1    4    4    0    0  0.79171197686E+01  0.62477649755E+01  0.44743028848E+01  0.11033346690E+02  0.51100000000E-03 0. -1.
        -11    1    4    4    0    0  0.53499640338E+00 -0.13640806674E+01 -0.23832607866E+01  0.27976542776E+01  0.51100000000E-03 0.  1.
        -12    1    4    4    0    0  0.32390082861E+02  0.46564432393E+01  0.90679877513E+01  0.33956270897E+02  0.00000000000E+00 0.  1.
</event>
<event>
 8    1  0.4309639E-011  0.9118800E+02  0.7816164E-02  0.1184000E+00
        -11   -1    0    0    0    0  0.00000000000E+00  0.00000000000E+00  0.45593999997E+02  0.45594000000E+02  0.51100000000E-03 0. -1.
         11   -1    0    0    0    0 -0.00000000000E+00 -0.00000000000E+00 -0.45593999997E+02  0.45594000000E+02  0.51100000000E-03 0.  1.
         23    2    1    2    0    0  0.17763568394E-14  0.00000000000E+00  0.00000000000E+00  0.91188000000E+02  0.91188000000E+02 0.  0.
    9900012    2    3    3    0    0  0.15440551787E+02 -0.34281850221E+02  0.21678730732E+02  0.47787271202E+02  0.20000000720E+02 0.  0.
        -12    1    3    3    0    0 -0.15440551787E+02  0.34281850221E+02 -0.21678730732E+02  0.43400728798E+02  0.00000000000E+00 0.  1.
         11    1    4    4    0    0  0.11151310834E+02 -0.23409464212E+02  0.17134182584E+02  0.31079494222E+02  0.51100000000E-03 0. -1.
        -11    1    4    4    0    0  0.16353560993E+01 -0.55470457037E+01  0.79662724449E+01  0.98440643303E+01  0.51100000000E-03 0.  1.
        -12    1    4    4    0    0  0.26538848532E+01 -0.53253403051E+01 -0.34217242971E+01  0.68637126502E+01  0.00000000000E+00 0.  1.
</event>
<event>
 8    1  0.4042158E-011  0.9118800E+02  0.7816164E-02  0.1184000E+00
        -11   -1    0    0    0    0  0.00000000000E+00  0.00000000000E+00  0.45593999997E+02  0.45594000000E+02  0.51100000000E-03 0. -1.
         11   -1    0    0    0    0 -0.00000000000E+00 -0.00000000000E+00 -0.45593999997E+02  0.45594000000E+02  0.51100000000E-03 0.  1.
         23    2    1    2    0    0  0.35527136788E-14 -0.71054273576E-14  0.88817841970E-15  0.91188000000E+02  0.91188000000E+02 0.  0.
    9900012    2    3    3    0    0  0.19888837626E+02 -0.37771778596E+02  0.78326490329E+01  0.47787268309E+02  0.19999987530E+02 0.  0.
        -12    1    3    3    0    0 -0.19888837626E+02  0.37771778596E+02 -0.78326490329E+01  0.43400731691E+02  0.00000000000E+00 0.  1.
         11    1    4    4    0    0  0.86418267488E+01 -0.14504335486E+02  0.27916699933E+01  0.17112870567E+02  0.51100000000E-03 0. -1.
        -11    1    4    4    0    0  0.78053508729E+01 -0.24902785937E+02  0.27833346200E+01  0.26245365334E+02  0.51100000000E-03 0.  1.
        -12    1    4    4    0    0  0.34416600048E+01  0.16353428265E+01  0.22576444195E+01  0.44290324083E+01  0.00000000000E+00 0.  1.
</event>
<event>
 8    1  0.4042158E-011  0.9118800E+02  0.7816164E-02  0.1184000E+00
        -11   -1    0    0    0    0  0.00000000000E+00  0.00000000000E+00  0.45593999997E+02  0.45594000000E+02  0.51100000000E-03 0. -1.
         11   -1    0    0    0    0 -0.00000000000E+00 -0.00000000000E+00 -0.45593999997E+02  0.45594000000E+02  0.51100000000E-03 0.  1.
         23    2    1    2    0    0  0.35527136788E-14  0.00000000000E+00  0.00000000000E+00  0.91188000000E+02  0.91188000000E+02 0.  0.
    9900012    2    3    3    0    0 -0.17107173225E+02  0.20485885220E+02 -0.34224203222E+02  0.47787274716E+02  0.20000016739E+02 0.  0.
         12    1    3    3    0    0  0.17107173225E+02 -0.20485885220E+02  0.34224203222E+02  0.43400725284E+02  0.00000000000E+00 0. -1.
         11    1    4    4    0    0 -0.98137907923E+01  0.26025298514E+01 -0.39146899576E+01  0.10881564642E+02  0.51100000000E-03 0. -1.
        -11    1    4    4    0    0 -0.69398438647E+01  0.60199816331E+01 -0.13091890356E+02  0.15993723928E+02  0.51100000000E-03 0.  1.
        -12    1    4    4    0    0 -0.35353856778E+00  0.11863373736E+02 -0.17217622909E+02  0.20911986145E+02  0.00000000000E+00 0.  1.
</event>
<event>
 8    1  0.4042158E-011  0.9118800E+02  0.7816164E-02  0.1184000E+00
        -11   -1    0    0    0    0  0.00000000000E+00  0.00000000000E+00  0.45593999997E+02  0.45594000000E+02  0.51100000000E-03 0. -1.
         11   -1    0    0    0    0 -0.00000000000E+00 -0.00000000000E+00 -0.45593999997E+02  0.45594000000E+02  0.51100000000E-03 0.  1.
         23    2    1    2    0    0  0.00000000000E+00  0.00000000000E+00  0.35527136788E-14  0.91188000000E+02  0.91188000000E+02 0.  0.
    9900012    2    3    3    0    0 -0.14757036486E+02  0.36620841215E+02 -0.18021306722E+02  0.47787266906E+02  0.19999981130E+02 0.  0.
         12    1    3    3    0    0  0.14757036486E+02 -0.36620841215E+02  0.18021306722E+02  0.43400733094E+02  0.00000000000E+00 0. -1.
         11    1    4    4    0    0 -0.61317670230E+01  0.11069285809E+02  0.58179281239E+00  0.12667522974E+02  0.51100000000E-03 0. -1.
        -11    1    4    4    0    0 -0.69133794184E+01  0.69712893844E+01 -0.17425176923E+01  0.99714622214E+01  0.51100000000E-03 0.  1.
        -12    1    4    4    0    0 -0.17118900446E+01  0.18580266021E+02 -0.16860581842E+02  0.25148281711E+02  0.00000000000E+00 0.  1.
</event>
<event>
 8    1  0.4042158E-011  0.9118800E+02  0.7816164E-02  0.1184000E+00
        -11   -1    0    0    0    0  0.00000000000E+00  0.00000000000E+00  0.45593999997E+02  0.45594000000E+02  0.51100000000E-03 0. -1.
         11   -1    0    0    0    0 -0.00000000000E+00 -0.00000000000E+00 -0.45593999997E+02  0.45594000000E+02  0.51100000000E-03 0.  1.
         23    2    1    2    0    0  0.00000000000E+00  0.35527136788E-14 -0.35527136788E-14  0.91188000000E+02  0.91188000000E+02 0.  0.
    9900012    2    3    3    0    0 -0.71400817638E+01  0.30579178067E+02  0.29959243453E+02  0.47787272275E+02  0.20000005609E+02 0.  0.
        -12    1    3    3    0    0  0.71400817638E+01 -0.30579178067E+02 -0.29959243453E+02  0.43400727725E+02  0.00000000000E+00 0.  1.
         11    1    4    4    0    0 -0.31467436768E+01  0.46437740901E+01  0.20485601357E+00  0.56132521603E+01  0.51100000000E-03 0. -1.
        -11    1    4    4    0    0 -0.42186609677E+01  0.41295755586E+01  0.84716754660E+00  0.59639070891E+01  0.51100000000E-03 0.  1.
         12    1    4    4    0    0  0.22532288070E+00  0.21805828418E+02  0.28907219893E+02  0.36210113025E+02  0.00000000000E+00 0. -1.
</event>
<event>
 8    1  0.4042158E-011  0.9118800E+02  0.7816164E-02  0.1184000E+00
        -11   -1    0    0    0    0  0.00000000000E+00  0.00000000000E+00  0.45593999997E+02  0.45594000000E+02  0.51100000000E-03 0. -1.
         11   -1    0    0    0    0 -0.00000000000E+00 -0.00000000000E+00 -0.45593999997E+02  0.45594000000E+02  0.51100000000E-03 0.  1.
         23    2    1    2    0    0  0.00000000000E+00 -0.88817841970E-15  0.00000000000E+00  0.91188000000E+02  0.91188000000E+02 0.  0.
    9900012    2    3    3    0    0 -0.34481533703E+02 -0.29759668987E+01  0.26187551094E+02  0.47787304409E+02  0.20000152121E+02 0.  0.
        -12    1    3    3    0    0  0.34481533703E+02  0.29759668987E+01 -0.26187551094E+02  0.43400695591E+02  0.00000000000E+00 0.  1.
         11    1    4    4    0    0 -0.11146487165E+02  0.62322890573E+01  0.21830600978E+01  0.12955746009E+02  0.51100000000E-03 0.  1.
        -11    1    4    4    0    0 -0.45791505572E+00 -0.12150782382E+00  0.11426700544E+01  0.12369904865E+01  0.51100000000E-03 0. -1.
        -12    1    4    4    0    0 -0.22877131483E+02 -0.90867481323E+01  0.22861820942E+02  0.33594567913E+02  0.00000000000E+00 0.  1.
</event>
<event>
 8    1  0.4042158E-011  0.9118800E+02  0.7816164E-02  0.1184000E+00
        -11   -1    0    0    0    0  0.00000000000E+00  0.00000000000E+00  0.45593999997E+02  0.45594000000E+02  0.51100000000E-03 0. -1.
         11   -1    0    0    0    0 -0.00000000000E+00 -0.00000000000E+00 -0.45593999997E+02  0.45594000000E+02  0.51100000000E-03 0.  1.
         23    2    1    2    0    0 -0.88817841970E-15  0.00000000000E+00  0.00000000000E+00  0.91188000000E+02  0.91188000000E+02 0.  0.
    9900012    2    3    3    0    0 -0.79851658069E+01 -0.29763816499E+02 -0.30561014027E+02  0.47787271620E+02  0.20000002626E+02 0.  0.
         12    1    3    3    0    0  0.79851658069E+01  0.29763816499E+02  0.30561014027E+02  0.43400728380E+02  0.00000000000E+00 0. -1.
         11    1    4    4    0    0  0.57011242391E+01 -0.35124049458E+01 -0.74168035681E+01  0.99924362155E+01  0.51100000000E-03 0. -1.
        -11    1    4    4    0    0 -0.18547794459E+01 -0.45958127747E+01 -0.58183772340E+01  0.76429847410E+01  0.51100000000E-03 0.  1.
         12    1    4    4    0    0 -0.11831510600E+02 -0.21655598778E+02 -0.17325833225E+02  0.30151850664E+02  0.00000000000E+00 0. -1.
</event>
<event>
 8    1  0.4042158E-011  0.9118800E+02  0.7816164E-02  0.1184000E+00
        -11   -1    0    0    0    0  0.00000000000E+00  0.00000000000E+00  0.45593999997E+02  0.45594000000E+02  0.51100000000E-03 0. -1.
         11   -1    0    0    0    0 -0.00000000000E+00 -0.00000000000E+00 -0.45593999997E+02  0.45594000000E+02  0.51100000000E-03 0.  1.
         23    2    1    2    0    0  0.00000000000E+00  0.00000000000E+00  0.00000000000E+00  0.91188000000E+02  0.91188000000E+02 0.  0.
    9900012    2    3    3    0    0 -0.37775205121E+02 -0.96819813798E+01 -0.19050356269E+02  0.47787274668E+02  0.20000016520E+02 0.  0.
         12    1    3    3    0    0  0.37775205121E+02  0.96819813798E+01  0.19050356269E+02  0.43400725332E+02  0.00000000000E+00 0. -1.
         11    1    4    4    0    0  0.28739662683E+00  0.90213805280E+00  0.83203935418E+00  0.12604521552E+01  0.51100000000E-03 0. -1.
        -11    1    4    4    0    0 -0.81823009050E+01  0.29673415730E+01 -0.12425786609E+01  0.87919944325E+01  0.51100000000E-03 0.  1.
        -12    1    4    4    0    0 -0.29880300843E+02 -0.13551461006E+02 -0.18639816962E+02  0.37734828080E+02  0.00000000000E+00 0.  1.
</event>
<event>
 8    1  0.4042158E-011  0.9118800E+02  0.7816164E-02  0.1184000E+00
        -11   -1    0    0    0    0  0.00000000000E+00  0.00000000000E+00  0.45593999997E+02  0.45594000000E+02  0.51100000000E-03 0. -1.
         11   -1    0    0    0    0 -0.00000000000E+00 -0.00000000000E+00 -0.45593999997E+02  0.45594000000E+02  0.51100000000E-03 0.  1.
         23    2    1    2    0    0  0.00000000000E+00  0.00000000000E+00 -0.35527136788E-14  0.91188000000E+02  0.91188000000E+02 0.  0.
    9900012    2    3    3    0    0 -0.22546280914E+02 -0.21761950419E+02 -0.30028419700E+02  0.47787271218E+02  0.20000000791E+02 0.  0.
         12    1    3    3    0    0  0.22546280914E+02  0.21761950419E+02  0.30028419700E+02  0.43400728782E+02  0.00000000000E+00 0. -1.
         11    1    4    4    0    0 -0.42803578343E+01 -0.12676356932E+02 -0.12567353616E+02  0.18356194198E+02  0.51100000000E-03 0.  1.
        -11    1    4    4    0    0 -0.27303660553E+01 -0.71372077862E+01 -0.33143654236E+01  0.83294448916E+01  0.51100000000E-03 0. -1.
        -12    1    4    4    0    0 -0.15535557025E+02 -0.19483857012E+01 -0.14146700660E+02  0.21101632128E+02  0.00000000000E+00 0.  1.
</event>
<event>
 8    1  0.4042158E-011  0.9118800E+02  0.7816164E-02  0.1184000E+00
        -11   -1    0    0    0    0  0.00000000000E+00  0.00000000000E+00  0.45593999997E+02  0.45594000000E+02  0.51100000000E-03 0. -1.
         11   -1    0    0    0    0 -0.00000000000E+00 -0.00000000000E+00 -0.45593999997E+02  0.45594000000E+02  0.51100000000E-03 0.  1.
         23    2    1    2    0    0  0.00000000000E+00  0.00000000000E+00 -0.35527136788E-14  0.91188000000E+02  0.91188000000E+02 0.  0.
    9900012    2    3    3    0    0 -0.16343541076E+02  0.25317697000E+02 -0.31233374877E+02  0.47787299285E+02  0.20000128762E+02 0.  0.
         12    1    3    3    0    0  0.16343541076E+02 -0.25317697000E+02  0.31233374877E+02  0.43400700715E+02  0.00000000000E+00 0. -1.
         11    1    4    4    0    0  0.20211163809E+01 -0.49916829421E+00 -0.43400838654E+01  0.48135650646E+01  0.51100000000E-03 0. -1.
        -11    1    4    4    0    0 -0.24853336243E+01  0.43403370384E+01 -0.10511444753E+02  0.11640699287E+02  0.51100000000E-03 0.  1.
         12    1    4    4    0    0 -0.15879323833E+02  0.21476528256E+02 -0.16381846258E+02  0.31333034934E+02  0.00000000000E+00 0. -1.
</event>
<event>
 8    1  0.4042158E-011  0.9118800E+02  0.7816164E-02  0.1184000E+00
        -11   -1    0    0    0    0  0.00000000000E+00  0.00000000000E+00  0.45593999997E+02  0.45594000000E+02  0.51100000000E-03 0. -1.
         11   -1    0    0    0    0 -0.00000000000E+00 -0.00000000000E+00 -0.45593999997E+02  0.45594000000E+02  0.51100000000E-03 0.  1.
         23    2    1    2    0    0  0.00000000000E+00  0.88817841970E-15  0.00000000000E+00  0.91188000000E+02  0.91188000000E+02 0.  0.
    9900012    2    3    3    0    0  0.99188547694E+01  0.25788640079E+01 -0.42173320091E+02  0.47787272506E+02  0.20000006665E+02 0.  0.
         12    1    3    3    0    0 -0.99188547694E+01 -0.25788640079E+01  0.42173320091E+02  0.43400727494E+02  0.00000000000E+00 0. -1.
         11    1    4    4    0    0 -0.58430860094E+00  0.61785499844E+01 -0.14083837608E+02  0.15390593832E+02  0.51100000000E-03 0. -1.
        -11    1    4    4    0    0  0.11277046949E+01  0.23697327862E+01 -0.14987050508E+02  0.15215092328E+02  0.51100000000E-03 0.  1.
        -12    1    4    4    0    0  0.93754586755E+01 -0.59694187627E+01 -0.13102431975E+02  0.17181586347E+02  0.00000000000E+00 0.  1.
</event>
<event>
 8    1  0.4042158E-011  0.9118800E+02  0.7816164E-02  0.1184000E+00
        -11   -1    0    0    0    0  0.00000000000E+00  0.00000000000E+00  0.45593999997E+02  0.45594000000E+02  0.51100000000E-03 0. -1.
         11   -1    0    0    0    0 -0.00000000000E+00 -0.00000000000E+00 -0.45593999997E+02  0.45594000000E+02  0.51100000000E-03 0.  1.
         23    2    1    2    0    0 -0.17763568394E-14  0.00000000000E+00 -0.71054273576E-14  0.91188000000E+02  0.91188000000E+02 0.  0.
    9900012    2    3    3    0    0  0.12899175341E+02  0.84268773505E+01 -0.40573665980E+02  0.47787270082E+02  0.19999995610E+02 0.  0.
         12    1    3    3    0    0 -0.12899175341E+02 -0.84268773505E+01  0.40573665980E+02  0.43400729918E+02  0.00000000000E+00 0. -1.
         11    1    4    4    0    0  0.16491733379E+01 -0.12825009266E+01 -0.40739652008E+00  0.21285096924E+01  0.51100000000E-03 0. -1.
        -11    1    4    4    0    0  0.14300328368E+02  0.34218854978E+01 -0.28111101912E+02  0.31724481757E+02  0.51100000000E-03 0.  1.
         12    1    4    4    0    0 -0.30503263649E+01  0.62874927794E+01 -0.12055167549E+02  0.13934278632E+02  0.00000000000E+00 0. -1.
</event>
<event>
 8    1  0.4042158E-011  0.9118800E+02  0.7816164E-02  0.1184000E+00
        -11   -1    0    0    0    0  0.00000000000E+00  0.00000000000E+00  0.45593999997E+02  0.45594000000E+02  0.51100000000E-03 0. -1.
         11   -1    0    0    0    0 -0.00000000000E+00 -0.00000000000E+00 -0.45593999997E+02  0.45594000000E+02  0.51100000000E-03 0.  1.
         23    2    1    2    0    0  0.00000000000E+00  0.00000000000E+00 -0.35527136788E-14  0.91188000000E+02  0.91188000000E+02 0.  0.
    9900012    2    3    3    0    0 -0.93926563704E+01  0.30302903554E+02  0.29616472228E+02  0.47787269767E+02  0.19999994175E+02 0.  0.
        -12    1    3    3    0    0  0.93926563704E+01 -0.30302903554E+02 -0.29616472228E+02  0.43400730233E+02  0.00000000000E+00 0.  1.
         11    1    4    4    0    0 -0.31143047810E+01  0.14050161811E+01  0.56515128474E+01  0.66039808043E+01  0.51100000000E-03 0. -1.
        -11    1    4    4    0    0  0.33597714040E+01  0.49722296253E+01  0.10481328865E+02  0.12077639933E+02  0.51100000000E-03 0.  1.
         12    1    4    4    0    0 -0.96381229934E+01  0.23925657748E+02  0.13483630516E+02  0.29105649029E+02  0.00000000000E+00 0. -1.
</event>
<event>
 8    1  0.4042158E-011  0.9118800E+02  0.7816164E-02  0.1184000E+00
        -11   -1    0    0    0    0  0.00000000000E+00  0.00000000000E+00  0.45593999997E+02  0.45594000000E+02  0.51100000000E-03 0. -1.
         11   -1    0    0    0    0 -0.00000000000E+00 -0.00000000000E+00 -0.45593999997E+02  0.45594000000E+02  0.51100000000E-03 0.  1.
         23    2    1    2    0    0  0.17763568394E-14 -0.44408920985E-15  0.00000000000E+00  0.91188000000E+02  0.91188000000E+02 0.  0.
    9900012    2    3    3    0    0 -0.11340799999E+02  0.16355523708E+01 -0.41860889628E+02  0.47787275851E+02  0.20000021915E+02 0.  0.
         12    1    3    3    0    0  0.11340799999E+02 -0.16355523708E+01  0.41860889628E+02  0.43400724149E+02  0.00000000000E+00 0. -1.
         11    1    4    4    0    0 -0.91967682180E+01 -0.68477996904E+01 -0.19655105521E+02  0.22755133038E+02  0.51100000000E-03 0. -1.
        -11    1    4    4    0    0 -0.20647067762E+01  0.23262580157E+01 -0.15964227651E+02  0.16264410692E+02  0.51100000000E-03 0.  1.
        -12    1    4    4    0    0 -0.79325004662E-01  0.61570940456E+01 -0.62415564566E+01  0.87677321209E+01  0.00000000000E+00 0.  1.
</event>
<event>
 8    1  0.4042158E-011  0.9118800E+02  0.7816164E-02  0.1184000E+00
        -11   -1    0    0    0    0  0.00000000000E+00  0.00000000000E+00  0.45593999997E+02  0.45594000000E+02  0.51100000000E-03 0. -1.
         11   -1    0    0    0    0 -0.00000000000E+00 -0.00000000000E+00 -0.45593999997E+02  0.45594000000E+02  0.51100000000E-03 0.  1.
         23    2    1    2    0    0  0.00000000000E+00 -0.88817841970E-15  0.00000000000E+00  0.91188000000E+02  0.91188000000E+02 0.  0.
    9900012    2    3    3    0    0  0.22692871439E+02 -0.56006738844E+01 -0.36568966629E+02  0.47787270946E+02  0.19999999552E+02 0.  0.
         12    1    3    3    0    0 -0.22692871439E+02  0.56006738844E+01  0.36568966629E+02  0.43400729054E+02  0.00000000000E+00 0. -1.
         11    1    4    4    0    0  0.20246602786E+01  0.15866435259E+01 -0.12616875986E+02  0.12876422128E+02  0.51100000000E-03 0.  1.
        -11    1    4    4    0    0  0.12030821652E+01  0.29297705782E+01 -0.50104949251E+01  0.59275645921E+01  0.51100000000E-03 0. -1.
        -12    1    4    4    0    0  0.19465128995E+02 -0.10117087989E+02 -0.18941595718E+02  0.28983284226E+02  0.00000000000E+00 0.  1.
</event>
<event>
 8    1  0.4042158E-011  0.9118800E+02  0.7816164E-02  0.1184000E+00
        -11   -1    0    0    0    0  0.00000000000E+00  0.00000000000E+00  0.45593999997E+02  0.45594000000E+02  0.51100000000E-03 0.  1.
         11   -1    0    0    0    0 -0.00000000000E+00 -0.00000000000E+00 -0.45593999997E+02  0.45594000000E+02  0.51100000000E-03 0. -1.
         23    2    1    2    0    0 -0.17763568394E-14  0.00000000000E+00 -0.44408920985E-15  0.91188000000E+02  0.91188000000E+02 0.  0.
    9900012    2    3    3    0    0  0.13343574240E+02  0.41204996987E+02 -0.27785639674E+01  0.47787272265E+02  0.20000005564E+02 0.  0.
        -12    1    3    3    0    0 -0.13343574240E+02 -0.41204996987E+02  0.27785639674E+01  0.43400727735E+02  0.00000000000E+00 0.  1.
         11    1    4    4    0    0  0.59724585197E+01  0.22090353841E+02 -0.65641026796E+01  0.23806331885E+02  0.51100000000E-03 0. -1.
        -11    1    4    4    0    0  0.99694505775E+01  0.12161735291E+02  0.17463066376E+00  0.15726673082E+02  0.51100000000E-03 0.  1.
        -12    1    4    4    0    0 -0.25983348575E+01  0.69529078554E+01  0.36109080485E+01  0.82542672971E+01  0.00000000000E+00 0.  1.
</event>
<event>
 8    1  0.4042158E-011  0.9118800E+02  0.7816164E-02  0.1184000E+00
        -11   -1    0    0    0    0  0.00000000000E+00  0.00000000000E+00  0.45593999997E+02  0.45594000000E+02  0.51100000000E-03 0. -1.
         11   -1    0    0    0    0 -0.00000000000E+00 -0.00000000000E+00 -0.45593999997E+02  0.45594000000E+02  0.51100000000E-03 0.  1.
         23    2    1    2    0    0  0.00000000000E+00  0.11102230246E-15 -0.71054273576E-14  0.91188000000E+02  0.91188000000E+02 0.  0.
    9900012    2    3    3    0    0 -0.11804913956E+02 -0.81177480020E+00 -0.41756538147E+02  0.47787269017E+02  0.19999990758E+02 0.  0.
         12    1    3    3    0    0  0.11804913956E+02  0.81177480020E+00  0.41756538147E+02  0.43400730983E+02  0.00000000000E+00 0. -1.
         11    1    4    4    0    0  0.26265713596E+01  0.67497513825E+00 -0.21155684013E+01  0.34394910185E+01  0.51100000000E-03 0. -1.
        -11    1    4    4    0    0 -0.98020236817E-01  0.20470809294E+00 -0.19859122245E+02  0.19860419179E+02  0.51100000000E-03 0.  1.
         12    1    4    4    0    0 -0.14333465079E+02 -0.16914580314E+01 -0.19781847500E+02  0.24487358820E+02  0.00000000000E+00 0. -1.
</event>
<event>
 8    1  0.4042158E-011  0.9118800E+02  0.7816164E-02  0.1184000E+00
        -11   -1    0    0    0    0  0.00000000000E+00  0.00000000000E+00  0.45593999997E+02  0.45594000000E+02  0.51100000000E-03 0.  1.
         11   -1    0    0    0    0 -0.00000000000E+00 -0.00000000000E+00 -0.45593999997E+02  0.45594000000E+02  0.51100000000E-03 0. -1.
         23    2    1    2    0    0  0.00000000000E+00  0.99920072216E-15  0.00000000000E+00  0.91188000000E+02  0.91188000000E+02 0.  0.
    9900012    2    3    3    0    0  0.43031294646E+02 -0.88305625764E+00 -0.55813295417E+01  0.47787270205E+02  0.19999996172E+02 0.  0.
         12    1    3    3    0    0 -0.43031294646E+02  0.88305625764E+00  0.55813295417E+01  0.43400729795E+02  0.00000000000E+00 0. -1.
         11    1    4    4    0    0  0.11687291365E+02  0.66414781909E+01 -0.28131412013E+01  0.13733745872E+02  0.51100000000E-03 0. -1.
        -11    1    4    4    0    0  0.12627938175E+02  0.14623295806E+01  0.16730816497E+01  0.12821951209E+02  0.51100000000E-03 0.  1.
        -12    1    4    4    0    0  0.18716065107E+02 -0.89868640291E+01 -0.44412699901E+01  0.21231573123E+02  0.00000000000E+00 0.  1.
</event>
<event>
 8    1  0.4042158E-011  0.9118800E+02  0.7816164E-02  0.1184000E+00
        -11   -1    0    0    0    0  0.00000000000E+00  0.00000000000E+00  0.45593999997E+02  0.45594000000E+02  0.51100000000E-03 0. -1.
         11   -1    0    0    0    0 -0.00000000000E+00 -0.00000000000E+00 -0.45593999997E+02  0.45594000000E+02  0.51100000000E-03 0.  1.
         23    2    1    2    0    0  0.00000000000E+00  0.00000000000E+00  0.00000000000E+00  0.91188000000E+02  0.91188000000E+02 0.  0.
    9900012    2    3    3    0    0  0.13424244814E+02  0.22294810825E+02 -0.34732607288E+02  0.47787274804E+02  0.20000017140E+02 0.  0.
         12    1    3    3    0    0 -0.13424244814E+02 -0.22294810825E+02  0.34732607288E+02  0.43400725196E+02  0.00000000000E+00 0. -1.
         11    1    4    4    0    0 -0.26142472003E+01 -0.95969254866E-01 -0.13071570040E+01  0.29244073273E+01  0.51100000000E-03 0. -1.
        -11    1    4    4    0    0  0.25743184911E+01  0.79505628046E+01 -0.17870643333E+02  0.19728113391E+02  0.51100000000E-03 0.  1.
         12    1    4    4    0    0  0.13464173523E+02  0.14440217275E+02 -0.15554806952E+02  0.25134754085E+02  0.00000000000E+00 0. -1.
</event>
<event>
 8    1  0.4042158E-011  0.9118800E+02  0.7816164E-02  0.1184000E+00
        -11   -1    0    0    0    0  0.00000000000E+00  0.00000000000E+00  0.45593999997E+02  0.45594000000E+02  0.51100000000E-03 0. -1.
         11   -1    0    0    0    0 -0.00000000000E+00 -0.00000000000E+00 -0.45593999997E+02  0.45594000000E+02  0.51100000000E-03 0.  1.
         23    2    1    2    0    0  0.00000000000E+00 -0.44408920985E-15  0.17763568394E-14  0.91188000000E+02  0.91188000000E+02 0.  0.
    9900012    2    3    3    0    0  0.40294565956E+02  0.31668987375E+01  0.15809559197E+02  0.47787268955E+02  0.19999990476E+02 0.  0.
        -12    1    3    3    0    0 -0.40294565956E+02 -0.31668987375E+01 -0.15809559197E+02  0.43400731045E+02  0.00000000000E+00 0.  1.
         11    1    4    4    0    0  0.39405255171E+02 -0.40551274119E+00  0.15159774493E+02  0.42222711171E+02  0.51100000000E-03 0. -1.
        -11    1    4    4    0    0  0.18228882070E+01  0.13622944996E+01  0.18022537638E+01  0.29029100243E+01  0.51100000000E-03 0.  1.
         12    1    4    4    0    0 -0.93357742206E+00  0.22101169791E+01 -0.11524690602E+01  0.26616477602E+01  0.00000000000E+00 0. -1.
</event>
<event>
 8    1  0.4042158E-011  0.9118800E+02  0.7816164E-02  0.1184000E+00
        -11   -1    0    0    0    0  0.00000000000E+00  0.00000000000E+00  0.45593999997E+02  0.45594000000E+02  0.51100000000E-03 0. -1.
         11   -1    0    0    0    0 -0.00000000000E+00 -0.00000000000E+00 -0.45593999997E+02  0.45594000000E+02  0.51100000000E-03 0.  1.
         23    2    1    2    0    0  0.17763568394E-14  0.55511151231E-15  0.00000000000E+00  0.91188000000E+02  0.91188000000E+02 0.  0.
    9900012    2    3    3    0    0 -0.15250800288E+02  0.61825899836E+00  0.40628240045E+02  0.47787273707E+02  0.20000012140E+02 0.  0.
        -12    1    3    3    0    0  0.15250800288E+02 -0.61825899836E+00 -0.40628240045E+02  0.43400726293E+02  0.00000000000E+00 0.  1.
         11    1    4    4    0    0 -0.19649810891E+00  0.13875579487E+01  0.16244273546E+01  0.21453887898E+01  0.51100000000E-03 0.  1.
        -11    1    4    4    0    0 -0.20868343170E+01 -0.82780279962E+01  0.16958423430E+02  0.18986014602E+02  0.51100000000E-03 0. -1.
         12    1    4    4    0    0 -0.12967467862E+02  0.75087290459E+01  0.22045389260E+02  0.26655870315E+02  0.00000000000E+00 0. -1.
</event>
<event>
 8    1  0.4042158E-011  0.9118800E+02  0.7816164E-02  0.1184000E+00
        -11   -1    0    0    0    0  0.00000000000E+00  0.00000000000E+00  0.45593999997E+02  0.45594000000E+02  0.51100000000E-03 0. -1.
         11   -1    0    0    0    0 -0.00000000000E+00 -0.00000000000E+00 -0.45593999997E+02  0.45594000000E+02  0.51100000000E-03 0.  1.
         23    2    1    2    0    0  0.17763568394E-14  0.26645352591E-14  0.71054273576E-14  0.91188000000E+02  0.91188000000E+02 0.  0.
    9900012    2    3    3    0    0 -0.78059411769E+01 -0.49148781226E+01 -0.42409127139E+02  0.47787276396E+02  0.20000024402E+02 0.  0.
         12    1    3    3    0    0  0.78059411769E+01  0.49148781226E+01  0.42409127139E+02  0.43400723604E+02  0.00000000000E+00 0. -1.
         11    1    4    4    0    0 -0.32396337059E+01 -0.75940781033E+01 -0.17175585517E+02  0.19056914412E+02  0.51100000000E-03 0. -1.
        -11    1    4    4    0    0 -0.82660447712E+01 -0.10985743558E+01 -0.17169254984E+02  0.19087107657E+02  0.51100000000E-03 0.  1.
         12    1    4    4    0    0  0.36997373002E+01  0.37777743365E+01 -0.80642866385E+01  0.96432543271E+01  0.00000000000E+00 0. -1.
</event>
<event>
 8    1  0.4042158E-011  0.9118800E+02  0.7816164E-02  0.1184000E+00
        -11   -1    0    0    0    0  0.00000000000E+00  0.00000000000E+00  0.45593999997E+02  0.45594000000E+02  0.51100000000E-03 0. -1.
         11   -1    0    0    0    0 -0.00000000000E+00 -0.00000000000E+00 -0.45593999997E+02  0.45594000000E+02  0.51100000000E-03 0.  1.
         23    2    1    2    0    0  0.00000000000E+00  0.00000000000E+00  0.00000000000E+00  0.91188000000E+02  0.91188000000E+02 0.  0.
    9900012    2    3    3    0    0  0.13690951248E+02  0.37413145537E+02  0.17217358844E+02  0.47787273616E+02  0.20000011726E+02 0.  0.
        -12    1    3    3    0    0 -0.13690951248E+02 -0.37413145537E+02 -0.17217358844E+02  0.43400726384E+02  0.00000000000E+00 0.  1.
         11    1    4    4    0    0  0.30022565593E+01  0.15917302597E+02  0.72179393819E+01  0.17733378573E+02  0.51100000000E-03 0. -1.
        -11    1    4    4    0    0  0.50321186005E+00 -0.39103626147E+00 -0.27016241362E+01  0.27757710224E+01  0.51100000000E-03 0.  1.
        -12    1    4    4    0    0  0.10185482829E+02  0.21886879201E+02  0.12701043599E+02  0.27278124021E+02  0.00000000000E+00 0.  1.
</event>
<event>
 8    1  0.4042158E-011  0.9118800E+02  0.7816164E-02  0.1184000E+00
        -11   -1    0    0    0    0  0.00000000000E+00  0.00000000000E+00  0.45593999997E+02  0.45594000000E+02  0.51100000000E-03 0. -1.
         11   -1    0    0    0    0 -0.00000000000E+00 -0.00000000000E+00 -0.45593999997E+02  0.45594000000E+02  0.51100000000E-03 0.  1.
         23    2    1    2    0    0  0.35527136788E-14  0.00000000000E+00  0.00000000000E+00  0.91188000000E+02  0.91188000000E+02 0.  0.
    9900012    2    3    3    0    0  0.18547847018E+02 -0.35878750265E+02 -0.15884456493E+02  0.47787270655E+02  0.19999998226E+02 0.  0.
         12    1    3    3    0    0 -0.18547847018E+02  0.35878750265E+02  0.15884456493E+02  0.43400729345E+02  0.00000000000E+00 0. -1.
         11    1    4    4    0    0 -0.15731536982E+01 -0.31092653013E+01  0.73781948688E+00  0.35618423784E+01  0.51100000000E-03 0. -1.
        -11    1    4    4    0    0  0.54488089990E+01 -0.79302917255E+01 -0.11382799180E+02  0.14904602101E+02  0.51100000000E-03 0.  1.
        -12    1    4    4    0    0  0.14672191717E+02 -0.24839193238E+02 -0.52394768003E+01  0.29320826176E+02  0.00000000000E+00 0.  1.
</event>
<event>
 8    1  0.4042158E-011  0.9118800E+02  0.7816164E-02  0.1184000E+00
        -11   -1    0    0    0    0  0.00000000000E+00  0.00000000000E+00  0.45593999997E+02  0.45594000000E+02  0.51100000000E-03 0. -1.
         11   -1    0    0    0    0 -0.00000000000E+00 -0.00000000000E+00 -0.45593999997E+02  0.45594000000E+02  0.51100000000E-03 0.  1.
         23    2    1    2    0    0 -0.35527136788E-14  0.00000000000E+00  0.35527136788E-14  0.91188000000E+02  0.91188000000E+02 0.  0.
    9900012    2    3    3    0    0  0.31081533348E+02  0.31606446425E+01  0.30125932147E+02  0.47787272154E+02  0.20000005059E+02 0.  0.
        -12    1    3    3    0    0 -0.31081533348E+02 -0.31606446425E+01 -0.30125932147E+02  0.43400727846E+02  0.00000000000E+00 0.  1.
         11    1    4    4    0    0  0.13147760188E+01  0.21501852186E+01  0.10485532111E+01  0.27297246292E+01  0.51100000000E-03 0. -1.
        -11    1    4    4    0    0  0.14259668503E+02 -0.49408867370E+01  0.51818295125E+01  0.15956248460E+02  0.51100000000E-03 0.  1.
         12    1    4    4    0    0  0.15507088827E+02  0.59513461609E+01  0.23895549423E+02  0.29101299065E+02  0.00000000000E+00 0. -1.
</event>
<event>
 8    1  0.4042158E-011  0.9118800E+02  0.7816164E-02  0.1184000E+00
        -11   -1    0    0    0    0  0.00000000000E+00  0.00000000000E+00  0.45593999997E+02  0.45594000000E+02  0.51100000000E-03 0. -1.
         11   -1    0    0    0    0 -0.00000000000E+00 -0.00000000000E+00 -0.45593999997E+02  0.45594000000E+02  0.51100000000E-03 0.  1.
         23    2    1    2    0    0  0.00000000000E+00 -0.88817841970E-15  0.00000000000E+00  0.91188000000E+02  0.91188000000E+02 0.  0.
    9900012    2    3    3    0    0  0.18963220624E+02  0.57345985095E+01 -0.38615202753E+02  0.47787271433E+02  0.20000001770E+02 0.  0.
         12    1    3    3    0    0 -0.18963220624E+02 -0.57345985095E+01  0.38615202753E+02  0.43400728567E+02  0.00000000000E+00 0. -1.
         11    1    4    4    0    0 -0.61031689503E+00  0.13415985197E+01 -0.77400401289E+01  0.78791239842E+01  0.51100000000E-03 0. -1.
        -11    1    4    4    0    0  0.37534813187E+01  0.15407105280E+01 -0.20218314541E+02  0.20621412514E+02  0.51100000000E-03 0.  1.
         12    1    4    4    0    0  0.15820056200E+02  0.28522894618E+01 -0.10656848084E+02  0.19286734935E+02  0.00000000000E+00 0. -1.
</event>
<event>
 8    1  0.4042158E-011  0.9118800E+02  0.7816164E-02  0.1184000E+00
        -11   -1    0    0    0    0  0.00000000000E+00  0.00000000000E+00  0.45593999997E+02  0.45594000000E+02  0.51100000000E-03 0. -1.
         11   -1    0    0    0    0 -0.00000000000E+00 -0.00000000000E+00 -0.45593999997E+02  0.45594000000E+02  0.51100000000E-03 0.  1.
         23    2    1    2    0    0 -0.35527136788E-14  0.14210854715E-13  0.00000000000E+00  0.91188000000E+02  0.91188000000E+02 0.  0.
    9900012    2    3    3    0    0  0.19913292291E+02 -0.38498707076E+02  0.22211095100E+01  0.47787274386E+02  0.20000015234E+02 0.  0.
         12    1    3    3    0    0 -0.19913292291E+02  0.38498707076E+02 -0.22211095100E+01  0.43400725614E+02  0.00000000000E+00 0. -1.
         11    1    4    4    0    0  0.16236730420E+02 -0.15961639051E+02  0.11031859003E+01  0.22795226591E+02  0.51100000000E-03 0. -1.
        -11    1    4    4    0    0  0.61793948365E+01 -0.19829503405E+02  0.27658758527E+01  0.20953381477E+02  0.51100000000E-03 0.  1.
         12    1    4    4    0    0 -0.25028329661E+01 -0.27075646200E+01 -0.16479522430E+01  0.40386663174E+01  0.00000000000E+00 0. -1.
</event>
<event>
 8    1  0.4042158E-011  0.9118800E+02  0.7816164E-02  0.1184000E+00
        -11   -1    0    0    0    0  0.00000000000E+00  0.00000000000E+00  0.45593999997E+02  0.45594000000E+02  0.51100000000E-03 0. -1.
         11   -1    0    0    0    0 -0.00000000000E+00 -0.00000000000E+00 -0.45593999997E+02  0.45594000000E+02  0.51100000000E-03 0.  1.
         23    2    1    2    0    0  0.00000000000E+00  0.00000000000E+00  0.00000000000E+00  0.91188000000E+02  0.91188000000E+02 0.  0.
    9900012    2    3    3    0    0 -0.86188499031E+01  0.26234971883E+02 -0.33482303497E+02  0.47787274536E+02  0.20000015921E+02 0.  0.
         12    1    3    3    0    0  0.86188499031E+01 -0.26234971883E+02  0.33482303497E+02  0.43400725464E+02  0.00000000000E+00 0. -1.
         11    1    4    4    0    0 -0.95786235708E+00  0.58211642318E+00 -0.41935485902E+01  0.43407614384E+01  0.51100000000E-03 0. -1.
        -11    1    4    4    0    0 -0.47154237274E+01  0.12684483067E+02 -0.28179316856E+01  0.13822882147E+02  0.51100000000E-03 0.  1.
        -12    1    4    4    0    0 -0.29455638186E+01  0.12968372392E+02 -0.26470823221E+02  0.29623630951E+02  0.00000000000E+00 0.  1.
</event>
<event>
 8    1  0.4042158E-011  0.9118800E+02  0.7816164E-02  0.1184000E+00
        -11   -1    0    0    0    0  0.00000000000E+00  0.00000000000E+00  0.45593999997E+02  0.45594000000E+02  0.51100000000E-03 0. -1.
         11   -1    0    0    0    0 -0.00000000000E+00 -0.00000000000E+00 -0.45593999997E+02  0.45594000000E+02  0.51100000000E-03 0.  1.
         23    2    1    2    0    0  0.13322676296E-14  0.00000000000E+00  0.00000000000E+00  0.91188000000E+02  0.91188000000E+02 0.  0.
    9900012    2    3    3    0    0  0.28503260564E+01  0.25519162744E+02 -0.34989587885E+02  0.47787270903E+02  0.19999999355E+02 0.  0.
         12    1    3    3    0    0 -0.28503260564E+01 -0.25519162744E+02  0.34989587885E+02  0.43400729097E+02  0.00000000000E+00 0. -1.
         11    1    4    4    0    0 -0.27208826609E+01  0.36124857458E+01 -0.73912542200E+01  0.86650963598E+01  0.51100000000E-03 0. -1.
        -11    1    4    4    0    0 -0.55035194442E+01  0.75702392124E+01 -0.69775797878E+01  0.11674068184E+02  0.51100000000E-03 0.  1.
        -12    1    4    4    0    0  0.11074728161E+02  0.14336437786E+02 -0.20620753878E+02  0.27448106359E+02  0.00000000000E+00 0.  1.
</event>
<event>
 8    1  0.4042158E-011  0.9118800E+02  0.7816164E-02  0.1184000E+00
        -11   -1    0    0    0    0  0.00000000000E+00  0.00000000000E+00  0.45593999997E+02  0.45594000000E+02  0.51100000000E-03 0. -1.
         11   -1    0    0    0    0 -0.00000000000E+00 -0.00000000000E+00 -0.45593999997E+02  0.45594000000E+02  0.51100000000E-03 0.  1.
         23    2    1    2    0    0  0.00000000000E+00  0.00000000000E+00  0.71054273576E-14  0.91188000000E+02  0.91188000000E+02 0.  0.
    9900012    2    3    3    0    0 -0.53323563677E+01 -0.11469365864E+02  0.41516774419E+02  0.47787274938E+02  0.20000017752E+02 0.  0.
        -12    1    3    3    0    0  0.53323563677E+01  0.11469365864E+02 -0.41516774419E+02  0.43400725062E+02  0.00000000000E+00 0.  1.
         11    1    4    4    0    0  0.26438194555E+01  0.15013254232E+01  0.31544490102E+01  0.43811309223E+01  0.51100000000E-03 0.  1.
        -11    1    4    4    0    0 -0.25695666784E+00 -0.51667633739E+00 -0.11379316662E+01  0.12758800511E+01  0.51100000000E-03 0. -1.
         12    1    4    4    0    0 -0.77192191553E+01 -0.12454014950E+02  0.39500257075E+02  0.42130263965E+02  0.00000000000E+00 0. -1.
</event>
<event>
 8    1  0.4042158E-011  0.9118800E+02  0.7816164E-02  0.1184000E+00
        -11   -1    0    0    0    0  0.00000000000E+00  0.00000000000E+00  0.45593999997E+02  0.45594000000E+02  0.51100000000E-03 0. -1.
         11   -1    0    0    0    0 -0.00000000000E+00 -0.00000000000E+00 -0.45593999997E+02  0.45594000000E+02  0.51100000000E-03 0.  1.
         23    2    1    2    0    0  0.00000000000E+00  0.44408920985E-15  0.00000000000E+00  0.91188000000E+02  0.91188000000E+02 0.  0.
    9900012    2    3    3    0    0 -0.29637105708E+02 -0.30169702978E+01 -0.31562054933E+02  0.47787268945E+02  0.19999990427E+02 0.  0.
         12    1    3    3    0    0  0.29637105708E+02  0.30169702978E+01  0.31562054933E+02  0.43400731055E+02  0.00000000000E+00 0. -1.
         11    1    4    4    0    0 -0.17454056256E+02 -0.28296703000E+01 -0.65402652762E+01  0.18852750037E+02  0.51100000000E-03 0. -1.
        -11    1    4    4    0    0 -0.72165193766E+01  0.93886540329E+00 -0.66091355060E+01  0.98305794619E+01  0.51100000000E-03 0.  1.
        -12    1    4    4    0    0 -0.49665300755E+01 -0.11261654011E+01 -0.18412654151E+02  0.19103939446E+02  0.00000000000E+00 0.  1.
</event>
<event>
 8    1  0.4042158E-011  0.9118800E+02  0.7816164E-02  0.1184000E+00
        -11   -1    0    0    0    0  0.00000000000E+00  0.00000000000E+00  0.45593999997E+02  0.45594000000E+02  0.51100000000E-03 0. -1.
         11   -1    0    0    0    0 -0.00000000000E+00 -0.00000000000E+00 -0.45593999997E+02  0.45594000000E+02  0.51100000000E-03 0.  1.
         23    2    1    2    0    0  0.35527136788E-14 -0.11102230246E-15  0.00000000000E+00  0.91188000000E+02  0.91188000000E+02 0.  0.
    9900012    2    3    3    0    0 -0.29798029973E+02  0.65827483168E+00  0.31547867966E+02  0.47787263955E+02  0.19999967677E+02 0.  0.
        -12    1    3    3    0    0  0.29798029973E+02 -0.65827483168E+00 -0.31547867966E+02  0.43400736045E+02  0.00000000000E+00 0.  1.
         11    1    4    4    0    0 -0.41110769108E+01 -0.11078246581E+01  0.17266183424E+01  0.45945010612E+01  0.51100000000E-03 0.  1.
        -11    1    4    4    0    0 -0.19289901464E+02  0.19103325289E+01  0.89276798313E+01  0.21341348043E+02  0.51100000000E-03 0. -1.
         12    1    4    4    0    0 -0.63970515980E+01 -0.14423303910E+00  0.20893569792E+02  0.21851414851E+02  0.00000000000E+00 0. -1.
</event>
<event>
 8    1  0.4042158E-011  0.9118800E+02  0.7816164E-02  0.1184000E+00
        -11   -1    0    0    0    0  0.00000000000E+00  0.00000000000E+00  0.45593999997E+02  0.45594000000E+02  0.51100000000E-03 0.  1.
         11   -1    0    0    0    0 -0.00000000000E+00 -0.00000000000E+00 -0.45593999997E+02  0.45594000000E+02  0.51100000000E-03 0. -1.
         23    2    1    2    0    0  0.71054273576E-14 -0.17763568394E-14 -0.35527136788E-14  0.91188000000E+02  0.91188000000E+02 0.  0.
    9900012    2    3    3    0    0  0.34143713596E+02 -0.15893911690E+02 -0.21568871817E+02  0.47787241500E+02  0.19999865296E+02 0.  0.
         12    1    3    3    0    0 -0.34143713596E+02  0.15893911690E+02  0.21568871817E+02  0.43400758500E+02  0.00000000000E+00 0. -1.
         11    1    4    4    0    0  0.21489283472E+02 -0.71918692404E+01 -0.12579623791E+02  0.25918318277E+02  0.51100000000E-03 0. -1.
        -11    1    4    4    0    0  0.65151210146E+01  0.14497964225E+01  0.47667859158E+00  0.66914822157E+01  0.51100000000E-03 0.  1.
         12    1    4    4    0    0  0.61393091089E+01 -0.10151838872E+02 -0.94659266175E+01  0.15177441008E+02  0.00000000000E+00 0. -1.
</event>
<event>
 8    1  0.4042158E-011  0.9118800E+02  0.7816164E-02  0.1184000E+00
        -11   -1    0    0    0    0  0.00000000000E+00  0.00000000000E+00  0.45593999997E+02  0.45594000000E+02  0.51100000000E-03 0.  1.
         11   -1    0    0    0    0 -0.00000000000E+00 -0.00000000000E+00 -0.45593999997E+02  0.45594000000E+02  0.51100000000E-03 0. -1.
         23    2    1    2    0    0  0.00000000000E+00  0.00000000000E+00  0.00000000000E+00  0.91188000000E+02  0.91188000000E+02 0.  0.
    9900012    2    3    3    0    0 -0.35668065618E+02  0.21542497675E+02  0.12138089006E+02  0.47787270563E+02  0.19999997803E+02 0.  0.
         12    1    3    3    0    0  0.35668065618E+02 -0.21542497675E+02 -0.12138089006E+02  0.43400729437E+02  0.00000000000E+00 0. -1.
         11    1    4    4    0    0 -0.81119468213E+01  0.53272311229E+01  0.49677750032E+01  0.10902378704E+02  0.51100000000E-03 0. -1.
        -11    1    4    4    0    0 -0.23758546817E+02  0.13524296746E+02  0.12283164164E+02  0.29970840353E+02  0.51100000000E-03 0.  1.
         12    1    4    4    0    0 -0.37975719802E+01  0.26909698059E+01 -0.51128501619E+01  0.69140515054E+01  0.00000000000E+00 0. -1.
</event>
<event>
 8    1  0.4042158E-011  0.9118800E+02  0.7816164E-02  0.1184000E+00
        -11   -1    0    0    0    0  0.00000000000E+00  0.00000000000E+00  0.45593999997E+02  0.45594000000E+02  0.51100000000E-03 0. -1.
         11   -1    0    0    0    0 -0.00000000000E+00 -0.00000000000E+00 -0.45593999997E+02  0.45594000000E+02  0.51100000000E-03 0.  1.
         23    2    1    2    0    0  0.00000000000E+00 -0.35527136788E-14 -0.35527136788E-14  0.91188000000E+02  0.91188000000E+02 0.  0.
    9900012    2    3    3    0    0 -0.14797465896E+02  0.29311603172E+02  0.28381122145E+02  0.47787272222E+02  0.20000005370E+02 0.  0.
        -12    1    3    3    0    0  0.14797465896E+02 -0.29311603172E+02 -0.28381122145E+02  0.43400727778E+02  0.00000000000E+00 0.  1.
         11    1    4    4    0    0 -0.40634094450E+01  0.31372234783E+01  0.40657291368E+01  0.65485587075E+01  0.51100000000E-03 0. -1.
        -11    1    4    4    0    0 -0.92034285420E+01  0.80370508474E+01  0.18423489130E+02  0.22107063017E+02  0.51100000000E-03 0.  1.
         12    1    4    4    0    0 -0.15306279093E+01  0.18137328846E+02  0.58919038775E+01  0.19131650497E+02  0.00000000000E+00 0. -1.
</event>
<event>
 8    1  0.4042158E-011  0.9118800E+02  0.7816164E-02  0.1184000E+00
        -11   -1    0    0    0    0  0.00000000000E+00  0.00000000000E+00  0.45593999997E+02  0.45594000000E+02  0.51100000000E-03 0. -1.
         11   -1    0    0    0    0 -0.00000000000E+00 -0.00000000000E+00 -0.45593999997E+02  0.45594000000E+02  0.51100000000E-03 0.  1.
         23    2    1    2    0    0  0.88817841970E-15  0.00000000000E+00  0.00000000000E+00  0.91188000000E+02  0.91188000000E+02 0.  0.
    9900012    2    3    3    0    0  0.72441564248E+01  0.15153011985E+02  0.40019121365E+02  0.47787289760E+02  0.20000085331E+02 0.  0.
        -12    1    3    3    0    0 -0.72441564248E+01 -0.15153011985E+02 -0.40019121365E+02  0.43400710240E+02  0.00000000000E+00 0.  1.
         11    1    4    4    0    0 -0.75292758291E+00 -0.20168890397E+01  0.46156101443E+00  0.22017675115E+01  0.51100000000E-03 0. -1.
        -11    1    4    4    0    0  0.92517578905E+01  0.71408741790E+01  0.14898513886E+02  0.18935491131E+02  0.51100000000E-03 0.  1.
         12    1    4    4    0    0 -0.12546738827E+01  0.10029026846E+02  0.24659046464E+02  0.26650031117E+02  0.00000000000E+00 0. -1.
</event>
<event>
 8    1  0.4042158E-011  0.9118800E+02  0.7816164E-02  0.1184000E+00
        -11   -1    0    0    0    0  0.00000000000E+00  0.00000000000E+00  0.45593999997E+02  0.45594000000E+02  0.51100000000E-03 0. -1.
         11   -1    0    0    0    0 -0.00000000000E+00 -0.00000000000E+00 -0.45593999997E+02  0.45594000000E+02  0.51100000000E-03 0.  1.
         23    2    1    2    0    0  0.00000000000E+00  0.00000000000E+00  0.17763568394E-14  0.91188000000E+02  0.91188000000E+02 0.  0.
    9900012    2    3    3    0    0  0.35124440336E+02 -0.21779990865E+02  0.13248742037E+02  0.47787268710E+02  0.19999989356E+02 0.  0.
        -12    1    3    3    0    0 -0.35124440336E+02  0.21779990865E+02 -0.13248742037E+02  0.43400731290E+02  0.00000000000E+00 0.  1.
         11    1    4    4    0    0  0.22420616001E+02 -0.73198436679E+01  0.13895652236E+02  0.27374317973E+02  0.51100000000E-03 0. -1.
        -11    1    4    4    0    0  0.69613968778E+00 -0.88478142578E-01 -0.15102192590E+01  0.16652931628E+01  0.51100000000E-03 0.  1.
         12    1    4    4    0    0  0.12007684647E+02 -0.14371669054E+02  0.86330906024E+00  0.18747657574E+02  0.00000000000E+00 0. -1.
</event>
<event>
 8    1  0.4042158E-011  0.9118800E+02  0.7816164E-02  0.1184000E+00
        -11   -1    0    0    0    0  0.00000000000E+00  0.00000000000E+00  0.45593999997E+02  0.45594000000E+02  0.51100000000E-03 0. -1.
         11   -1    0    0    0    0 -0.00000000000E+00 -0.00000000000E+00 -0.45593999997E+02  0.45594000000E+02  0.51100000000E-03 0.  1.
         23    2    1    2    0    0 -0.35527136788E-14  0.00000000000E+00  0.00000000000E+00  0.91188000000E+02  0.91188000000E+02 0.  0.
    9900012    2    3    3    0    0  0.22698611218E+02 -0.29718245682E+02  0.22027743371E+02  0.47787279319E+02  0.20000037725E+02 0.  0.
        -12    1    3    3    0    0 -0.22698611218E+02  0.29718245682E+02 -0.22027743371E+02  0.43400720681E+02  0.00000000000E+00 0.  1.
         11    1    4    4    0    0  0.16947720758E+02 -0.22660878589E+02  0.17856691588E+02  0.33460455646E+02  0.51100000000E-03 0. -1.
        -11    1    4    4    0    0  0.87840151716E+00 -0.31980198507E+01  0.68095614729E+01  0.75742357968E+01  0.51100000000E-03 0.  1.
         12    1    4    4    0    0  0.48724889423E+01 -0.38593472426E+01 -0.26385096899E+01  0.67525878754E+01  0.00000000000E+00 0. -1.
</event>
<event>
 8    1  0.4042158E-011  0.9118800E+02  0.7816164E-02  0.1184000E+00
        -11   -1    0    0    0    0  0.00000000000E+00  0.00000000000E+00  0.45593999997E+02  0.45594000000E+02  0.51100000000E-03 0. -1.
         11   -1    0    0    0    0 -0.00000000000E+00 -0.00000000000E+00 -0.45593999997E+02  0.45594000000E+02  0.51100000000E-03 0.  1.
         23    2    1    2    0    0  0.88817841970E-15  0.00000000000E+00  0.00000000000E+00  0.91188000000E+02  0.91188000000E+02 0.  0.
    9900012    2    3    3    0    0  0.41105221592E+01 -0.41357032348E+02  0.12502909696E+02  0.47787271113E+02  0.20000000315E+02 0.  0.
        -12    1    3    3    0    0 -0.41105221592E+01  0.41357032348E+02 -0.12502909696E+02  0.43400728887E+02  0.00000000000E+00 0.  1.
         11    1    4    4    0    0  0.19989197801E+00 -0.11372833669E+02 -0.36870760679E+00  0.11380564486E+02  0.51100000000E-03 0. -1.
        -11    1    4    4    0    0 -0.15372881994E+01  0.77376997880E+00  0.33245244431E+01  0.37435862515E+01  0.51100000000E-03 0.  1.
        -12    1    4    4    0    0  0.54479183806E+01 -0.30757968658E+02  0.95470928596E+01  0.32663120376E+02  0.00000000000E+00 0.  1.
</event>
<event>
 8    1  0.4042158E-011  0.9118800E+02  0.7816164E-02  0.1184000E+00
        -11   -1    0    0    0    0  0.00000000000E+00  0.00000000000E+00  0.45593999997E+02  0.45594000000E+02  0.51100000000E-03 0. -1.
         11   -1    0    0    0    0 -0.00000000000E+00 -0.00000000000E+00 -0.45593999997E+02  0.45594000000E+02  0.51100000000E-03 0.  1.
         23    2    1    2    0    0  0.88817841970E-15  0.00000000000E+00  0.00000000000E+00  0.91188000000E+02  0.91188000000E+02 0.  0.
    9900012    2    3    3    0    0  0.78497349242E+01  0.37296268871E+02  0.20760377938E+02  0.47787270718E+02  0.19999998513E+02 0.  0.
        -12    1    3    3    0    0 -0.78497349242E+01 -0.37296268871E+02 -0.20760377938E+02  0.43400729282E+02  0.00000000000E+00 0.  1.
         11    1    4    4    0    0 -0.33876137152E+01  0.25834751472E+01  0.34333725603E+01  0.54715918999E+01  0.51100000000E-03 0.  1.
        -11    1    4    4    0    0 -0.21649776674E+01  0.73942605143E+01  0.62923813021E+01  0.99476770940E+01  0.51100000000E-03 0. -1.
         12    1    4    4    0    0  0.13402326307E+02  0.27318533209E+02  0.11034624076E+02  0.32368001724E+02  0.00000000000E+00 0. -1.
</event>
<event>
 8    1  0.4042158E-011  0.9118800E+02  0.7816164E-02  0.1184000E+00
        -11   -1    0    0    0    0  0.00000000000E+00  0.00000000000E+00  0.45593999997E+02  0.45594000000E+02  0.51100000000E-03 0. -1.
         11   -1    0    0    0    0 -0.00000000000E+00 -0.00000000000E+00 -0.45593999997E+02  0.45594000000E+02  0.51100000000E-03 0.  1.
         23    2    1    2    0    0 -0.17763568394E-14  0.00000000000E+00  0.88817841970E-15  0.91188000000E+02  0.91188000000E+02 0.  0.
    9900012    2    3    3    0    0  0.13761309303E+02  0.40604650213E+02 -0.67462015444E+01  0.47787280099E+02  0.20000041282E+02 0.  0.
         12    1    3    3    0    0 -0.13761309303E+02 -0.40604650213E+02  0.67462015444E+01  0.43400719901E+02  0.00000000000E+00 0. -1.
         11    1    4    4    0    0  0.14544893272E+01  0.29539751228E+01  0.41249716290E+01  0.52779635685E+01  0.51100000000E-03 0. -1.
        -11    1    4    4    0    0  0.19648816053E+01  0.22665371132E+02 -0.43059529362E+01  0.23154287707E+02  0.51100000000E-03 0.  1.
         12    1    4    4    0    0  0.10341938370E+02  0.14985303958E+02 -0.65652202372E+01  0.19355028823E+02  0.00000000000E+00 0. -1.
</event>
<event>
 8    1  0.4042158E-011  0.9118800E+02  0.7816164E-02  0.1184000E+00
        -11   -1    0    0    0    0  0.00000000000E+00  0.00000000000E+00  0.45593999997E+02  0.45594000000E+02  0.51100000000E-03 0. -1.
         11   -1    0    0    0    0 -0.00000000000E+00 -0.00000000000E+00 -0.45593999997E+02  0.45594000000E+02  0.51100000000E-03 0.  1.
         23    2    1    2    0    0 -0.35527136788E-14  0.88817841970E-15  0.00000000000E+00  0.91188000000E+02  0.91188000000E+02 0.  0.
    9900012    2    3    3    0    0  0.25602920821E+02 -0.40452365319E+01  0.34810197004E+02  0.47787270644E+02  0.19999998175E+02 0.  0.
        -12    1    3    3    0    0 -0.25602920821E+02  0.40452365319E+01 -0.34810197004E+02  0.43400729356E+02  0.00000000000E+00 0.  1.
         11    1    4    4    0    0  0.69116284268E+01 -0.69537529320E+01  0.10159221629E+02  0.14118607287E+02  0.51100000000E-03 0. -1.
        -11    1    4    4    0    0 -0.13006533033E+01  0.20154770317E+01  0.78725607854E+00  0.25246027559E+01  0.51100000000E-03 0.  1.
        -12    1    4    4    0    0  0.19991945697E+02  0.89303936838E+00  0.23863719297E+02  0.31144060601E+02  0.00000000000E+00 0.  1.
</event>
<event>
 8    1  0.4042158E-011  0.9118800E+02  0.7816164E-02  0.1184000E+00
        -11   -1    0    0    0    0  0.00000000000E+00  0.00000000000E+00  0.45593999997E+02  0.45594000000E+02  0.51100000000E-03 0. -1.
         11   -1    0    0    0    0 -0.00000000000E+00 -0.00000000000E+00 -0.45593999997E+02  0.45594000000E+02  0.51100000000E-03 0.  1.
         23    2    1    2    0    0  0.00000000000E+00 -0.88817841970E-15  0.00000000000E+00  0.91188000000E+02  0.91188000000E+02 0.  0.
    9900012    2    3    3    0    0 -0.19810665892E+02 -0.60260021488E+01 -0.38142473950E+02  0.47787268393E+02  0.19999987913E+02 0.  0.
         12    1    3    3    0    0  0.19810665892E+02  0.60260021488E+01  0.38142473950E+02  0.43400731607E+02  0.00000000000E+00 0. -1.
         11    1    4    4    0    0 -0.66870693321E+01  0.24454425726E+00 -0.22820628500E+01  0.70699723662E+01  0.51100000000E-03 0. -1.
        -11    1    4    4    0    0 -0.58599091763E+01 -0.77062900338E+01 -0.10428665513E+02  0.14229634791E+02  0.51100000000E-03 0.  1.
         12    1    4    4    0    0 -0.72636873838E+01  0.14357436277E+01 -0.25431745587E+02  0.26487661236E+02  0.00000000000E+00 0. -1.
</event>
<event>
 8    1  0.4042158E-011  0.9118800E+02  0.7816164E-02  0.1184000E+00
        -11   -1    0    0    0    0  0.00000000000E+00  0.00000000000E+00  0.45593999997E+02  0.45594000000E+02  0.51100000000E-03 0. -1.
         11   -1    0    0    0    0 -0.00000000000E+00 -0.00000000000E+00 -0.45593999997E+02  0.45594000000E+02  0.51100000000E-03 0.  1.
         23    2    1    2    0    0  0.00000000000E+00  0.00000000000E+00  0.00000000000E+00  0.91188000000E+02  0.91188000000E+02 0.  0.
    9900012    2    3    3    0    0  0.17084091004E+02  0.14133627391E+02  0.37309434367E+02  0.47787314735E+02  0.20000199202E+02 0.  0.
        -12    1    3    3    0    0 -0.17084091004E+02 -0.14133627391E+02 -0.37309434367E+02  0.43400685265E+02  0.00000000000E+00 0.  1.
         11    1    4    4    0    0 -0.18733334775E+01  0.26555361935E+01  0.10688858705E+01  0.34210770319E+01  0.51100000000E-03 0. -1.
        -11    1    4    4    0    0  0.82735132300E+01  0.16911250161E+01  0.47177813160E+01  0.96730753018E+01  0.51100000000E-03 0.  1.
         12    1    4    4    0    0  0.10683911252E+02  0.97869661811E+01  0.31522767181E+02  0.34693162401E+02  0.00000000000E+00 0. -1.
</event>
<event>
 8    1  0.4042158E-011  0.9118800E+02  0.7816164E-02  0.1184000E+00
        -11   -1    0    0    0    0  0.00000000000E+00  0.00000000000E+00  0.45593999997E+02  0.45594000000E+02  0.51100000000E-03 0. -1.
         11   -1    0    0    0    0 -0.00000000000E+00 -0.00000000000E+00 -0.45593999997E+02  0.45594000000E+02  0.51100000000E-03 0.  1.
         23    2    1    2    0    0  0.88817841970E-15  0.00000000000E+00 -0.71054273576E-14  0.91188000000E+02  0.91188000000E+02 0.  0.
    9900012    2    3    3    0    0  0.59987375717E+01  0.24960789446E+02 -0.34994247474E+02  0.47787271683E+02  0.20000002911E+02 0.  0.
         12    1    3    3    0    0 -0.59987375717E+01 -0.24960789446E+02  0.34994247474E+02  0.43400728317E+02  0.00000000000E+00 0. -1.
         11    1    4    4    0    0 -0.31991459155E+00  0.30764864909E+01 -0.86526812799E+01  0.91889067939E+01  0.51100000000E-03 0. -1.
        -11    1    4    4    0    0  0.12044228499E+02  0.14259699834E+02 -0.17966486132E+02  0.25907471966E+02  0.51100000000E-03 0.  1.
         12    1    4    4    0    0 -0.57255763360E+01  0.76246031211E+01 -0.83750800623E+01  0.12690892923E+02  0.00000000000E+00 0. -1.
</event>
<event>
 8    1  0.4042158E-011  0.9118800E+02  0.7816164E-02  0.1184000E+00
        -11   -1    0    0    0    0  0.00000000000E+00  0.00000000000E+00  0.45593999997E+02  0.45594000000E+02  0.51100000000E-03 0. -1.
         11   -1    0    0    0    0 -0.00000000000E+00 -0.00000000000E+00 -0.45593999997E+02  0.45594000000E+02  0.51100000000E-03 0.  1.
         23    2    1    2    0    0  0.17763568394E-14 -0.17000290065E-15  0.00000000000E+00  0.91188000000E+02  0.91188000000E+02 0.  0.
    9900012    2    3    3    0    0 -0.14464141486E+02 -0.71441159158E-02  0.40919557240E+02  0.47787290275E+02  0.20000087679E+02 0.  0.
        -12    1    3    3    0    0  0.14464141486E+02  0.71441159158E-02 -0.40919557240E+02  0.43400709725E+02  0.00000000000E+00 0.  1.
         11    1    4    4    0    0 -0.17600270768E+01  0.41749654438E+01  0.10329585742E+01  0.46470458837E+01  0.51100000000E-03 0. -1.
        -11    1    4    4    0    0 -0.70099065255E+01  0.19440482594E+01  0.12062300364E+02  0.14086064158E+02  0.51100000000E-03 0.  1.
         12    1    4    4    0    0 -0.56942078833E+01 -0.61261578192E+01  0.27824298301E+02  0.29054180233E+02  0.00000000000E+00 0. -1.
</event>
<event>
 8    1  0.4042158E-011  0.9118800E+02  0.7816164E-02  0.1184000E+00
        -11   -1    0    0    0    0  0.00000000000E+00  0.00000000000E+00  0.45593999997E+02  0.45594000000E+02  0.51100000000E-03 0. -1.
         11   -1    0    0    0    0 -0.00000000000E+00 -0.00000000000E+00 -0.45593999997E+02  0.45594000000E+02  0.51100000000E-03 0.  1.
         23    2    1    2    0    0  0.00000000000E+00  0.00000000000E+00  0.00000000000E+00  0.91188000000E+02  0.91188000000E+02 0.  0.
    9900012    2    3    3    0    0  0.62560363823E+01  0.20612433949E+02 -0.37677751226E+02  0.47787270029E+02  0.19999995371E+02 0.  0.
         12    1    3    3    0    0 -0.62560363823E+01 -0.20612433949E+02  0.37677751226E+02  0.43400729971E+02  0.00000000000E+00 0. -1.
         11    1    4    4    0    0 -0.30245041814E+01  0.28503115550E+00 -0.70308677041E+01  0.76591102118E+01  0.51100000000E-03 0. -1.
        -11    1    4    4    0    0  0.61386841318E+01  0.10650677952E+01 -0.56175048377E+01  0.83889315851E+01  0.51100000000E-03 0.  1.
         12    1    4    4    0    0  0.31418564319E+01  0.19262334999E+02 -0.25029378685E+02  0.31739228232E+02  0.00000000000E+00 0. -1.
</event>
<event>
 8    1  0.4042158E-011  0.9118800E+02  0.7816164E-02  0.1184000E+00
        -11   -1    0    0    0    0  0.00000000000E+00  0.00000000000E+00  0.45593999997E+02  0.45594000000E+02  0.51100000000E-03 0. -1.
         11   -1    0    0    0    0 -0.00000000000E+00 -0.00000000000E+00 -0.45593999997E+02  0.45594000000E+02  0.51100000000E-03 0.  1.
         23    2    1    2    0    0  0.00000000000E+00 -0.44408920985E-15  0.00000000000E+00  0.91188000000E+02  0.91188000000E+02 0.  0.
    9900012    2    3    3    0    0  0.38515063242E+02  0.34372496206E+01 -0.19707814051E+02  0.47787277469E+02  0.20000029294E+02 0.  0.
         12    1    3    3    0    0 -0.38515063242E+02 -0.34372496206E+01  0.19707814051E+02  0.43400722531E+02  0.00000000000E+00 0. -1.
         11    1    4    4    0    0  0.12304468999E+02  0.47637030332E+01 -0.91251264343E+01  0.16042467287E+02  0.51100000000E-03 0. -1.
        -11    1    4    4    0    0  0.12115886143E+02 -0.37060008115E+01 -0.11910203990E+02  0.17389137368E+02  0.51100000000E-03 0.  1.
         12    1    4    4    0    0  0.14094708100E+02  0.23795473989E+01  0.13275163735E+01  0.14355672815E+02  0.00000000000E+00 0. -1.
</event>
<event>
 8    1  0.4042158E-011  0.9118800E+02  0.7816164E-02  0.1184000E+00
        -11   -1    0    0    0    0  0.00000000000E+00  0.00000000000E+00  0.45593999997E+02  0.45594000000E+02  0.51100000000E-03 0. -1.
         11   -1    0    0    0    0 -0.00000000000E+00 -0.00000000000E+00 -0.45593999997E+02  0.45594000000E+02  0.51100000000E-03 0.  1.
         23    2    1    2    0    0 -0.22204460493E-15  0.22204460493E-15 -0.71054273576E-14  0.91188000000E+02  0.91188000000E+02 0.  0.
    9900012    2    3    3    0    0  0.15278567197E+01 -0.12097228686E+01 -0.43356956197E+02  0.47787269289E+02  0.19999991998E+02 0.  0.
         12    1    3    3    0    0 -0.15278567197E+01  0.12097228686E+01  0.43356956197E+02  0.43400730711E+02  0.00000000000E+00 0. -1.
         11    1    4    4    0    0  0.36476899786E+01  0.49916392756E+00 -0.58074021736E+01  0.68760982449E+01  0.51100000000E-03 0. -1.
        -11    1    4    4    0    0 -0.15488358207E+01 -0.26392381223E+01 -0.38986614469E+02  0.39106528589E+02  0.51100000000E-03 0.  1.
        -12    1    4    4    0    0 -0.57099743822E+00  0.93035132614E+00  0.14370604464E+01  0.18046424552E+01  0.00000000000E+00 0.  1.
</event>
<event>
 8    1  0.4042158E-011  0.9118800E+02  0.7816164E-02  0.1184000E+00
        -11   -1    0    0    0    0  0.00000000000E+00  0.00000000000E+00  0.45593999997E+02  0.45594000000E+02  0.51100000000E-03 0. -1.
         11   -1    0    0    0    0 -0.00000000000E+00 -0.00000000000E+00 -0.45593999997E+02  0.45594000000E+02  0.51100000000E-03 0.  1.
         23    2    1    2    0    0  0.00000000000E+00  0.00000000000E+00  0.00000000000E+00  0.91188000000E+02  0.91188000000E+02 0.  0.
    9900012    2    3    3    0    0 -0.85171128178E+01 -0.37389561256E+02  0.20324923476E+02  0.47787274016E+02  0.20000013547E+02 0.  0.
        -12    1    3    3    0    0  0.85171128178E+01  0.37389561256E+02 -0.20324923476E+02  0.43400725984E+02  0.00000000000E+00 0.  1.
         11    1    4    4    0    0 -0.22066526269E+01 -0.34536655984E+02  0.13709062796E+02  0.37223491579E+02  0.51100000000E-03 0. -1.
        -11    1    4    4    0    0 -0.15642047970E+01 -0.78413914171E+00 -0.44749099323E+00  0.18060618181E+01  0.51100000000E-03 0.  1.
         12    1    4    4    0    0 -0.47462553939E+01 -0.20687661305E+01  0.70633516736E+01  0.87577206185E+01  0.00000000000E+00 0. -1.
</event>
<event>
 8    1  0.4042158E-011  0.9118800E+02  0.7816164E-02  0.1184000E+00
        -11   -1    0    0    0    0  0.00000000000E+00  0.00000000000E+00  0.45593999997E+02  0.45594000000E+02  0.51100000000E-03 0. -1.
         11   -1    0    0    0    0 -0.00000000000E+00 -0.00000000000E+00 -0.45593999997E+02  0.45594000000E+02  0.51100000000E-03 0.  1.
         23    2    1    2    0    0  0.00000000000E+00  0.35527136788E-14 -0.35527136788E-14  0.91188000000E+02  0.91188000000E+02 0.  0.
    9900012    2    3    3    0    0 -0.18311125472E+02 -0.23542878458E+02 -0.31528701733E+02  0.47787268727E+02  0.19999989432E+02 0.  0.
         12    1    3    3    0    0  0.18311125472E+02  0.23542878458E+02  0.31528701733E+02  0.43400731273E+02  0.00000000000E+00 0. -1.
         11    1    4    4    0    0  0.14521458013E+01  0.19428785840E+00 -0.96909135558E+00  0.17565914484E+01  0.51100000000E-03 0. -1.
        -11    1    4    4    0    0  0.23957246780E+01 -0.23103378962E+01 -0.49029705225E+01  0.59258989304E+01  0.51100000000E-03 0.  1.
         12    1    4    4    0    0 -0.22158995951E+02 -0.21426828420E+02 -0.25656639855E+02  0.40104778348E+02  0.00000000000E+00 0. -1.
</event>
<event>
 8    1  0.4042158E-011  0.9118800E+02  0.7816164E-02  0.1184000E+00
        -11   -1    0    0    0    0  0.00000000000E+00  0.00000000000E+00  0.45593999997E+02  0.45594000000E+02  0.51100000000E-03 0. -1.
         11   -1    0    0    0    0 -0.00000000000E+00 -0.00000000000E+00 -0.45593999997E+02  0.45594000000E+02  0.51100000000E-03 0.  1.
         23    2    1    2    0    0  0.00000000000E+00  0.17763568394E-14  0.00000000000E+00  0.91188000000E+02  0.91188000000E+02 0.  0.
    9900012    2    3    3    0    0  0.19169213378E+02  0.88696810068E+01  0.37914290372E+02  0.47787269625E+02  0.19999993529E+02 0.  0.
        -12    1    3    3    0    0 -0.19169213378E+02 -0.88696810068E+01 -0.37914290372E+02  0.43400730375E+02  0.00000000000E+00 0.  1.
         11    1    4    4    0    0  0.44696808236E+01  0.61080656827E+01  0.76303408727E+01  0.10747493435E+02  0.51100000000E-03 0. -1.
        -11    1    4    4    0    0  0.95397179347E+01  0.87544477069E+01  0.14881078678E+02  0.19725442347E+02  0.51100000000E-03 0.  1.
        -12    1    4    4    0    0  0.51598146193E+01 -0.59928323828E+01  0.15402870821E+02  0.17314333842E+02  0.00000000000E+00 0.  1.
</event>
<event>
 8    1  0.4042158E-011  0.9118800E+02  0.7816164E-02  0.1184000E+00
        -11   -1    0    0    0    0  0.00000000000E+00  0.00000000000E+00  0.45593999997E+02  0.45594000000E+02  0.51100000000E-03 0. -1.
         11   -1    0    0    0    0 -0.00000000000E+00 -0.00000000000E+00 -0.45593999997E+02  0.45594000000E+02  0.51100000000E-03 0.  1.
         23    2    1    2    0    0  0.00000000000E+00 -0.22204460493E-15  0.00000000000E+00  0.91188000000E+02  0.91188000000E+02 0.  0.
    9900012    2    3    3    0    0 -0.13907124962E+02 -0.13394760534E+01  0.41090399680E+02  0.47787271127E+02  0.20000000379E+02 0.  0.
        -12    1    3    3    0    0  0.13907124962E+02  0.13394760534E+01 -0.41090399680E+02  0.43400728873E+02  0.00000000000E+00 0.  1.
         11    1    4    4    0    0  0.13755525757E+00  0.44567003615E+01  0.61981263831E+01  0.76353042168E+01  0.51100000000E-03 0. -1.
        -11    1    4    4    0    0 -0.13993749393E+01  0.52778349568E+00 -0.84624785625E+00  0.17184124459E+01  0.51100000000E-03 0.  1.
        -12    1    4    4    0    0 -0.12645305280E+02 -0.63239599106E+01  0.35738521153E+02  0.38433554465E+02  0.00000000000E+00 0.  1.
</event>
<event>
 8    1  0.4042158E-011  0.9118800E+02  0.7816164E-02  0.1184000E+00
        -11   -1    0    0    0    0  0.00000000000E+00  0.00000000000E+00  0.45593999997E+02  0.45594000000E+02  0.51100000000E-03 0. -1.
         11   -1    0    0    0    0 -0.00000000000E+00 -0.00000000000E+00 -0.45593999997E+02  0.45594000000E+02  0.51100000000E-03 0.  1.
         23    2    1    2    0    0  0.22204460493E-14 -0.35527136788E-14  0.00000000000E+00  0.91188000000E+02  0.91188000000E+02 0.  0.
    9900012    2    3    3    0    0  0.35725554978E+01  0.28315963918E+02  0.32696573459E+02  0.47787275566E+02  0.20000020617E+02 0.  0.
        -12    1    3    3    0    0 -0.35725554978E+01 -0.28315963918E+02 -0.32696573459E+02  0.43400724434E+02  0.00000000000E+00 0.  1.
         11    1    4    4    0    0  0.79076106871E+01  0.16912804381E+02  0.14417812297E+02  0.23589119748E+02  0.51100000000E-03 0. -1.
        -11    1    4    4    0    0  0.26910997779E+01  0.53138709062E+00  0.19729608085E+01  0.33788999494E+01  0.51100000000E-03 0.  1.
        -12    1    4    4    0    0 -0.70261549673E+01  0.10871772447E+02  0.16305800353E+02  0.20819255869E+02  0.00000000000E+00 0.  1.
</event>
<event>
 8    1  0.4042158E-011  0.9118800E+02  0.7816164E-02  0.1184000E+00
        -11   -1    0    0    0    0  0.00000000000E+00  0.00000000000E+00  0.45593999997E+02  0.45594000000E+02  0.51100000000E-03 0. -1.
         11   -1    0    0    0    0 -0.00000000000E+00 -0.00000000000E+00 -0.45593999997E+02  0.45594000000E+02  0.51100000000E-03 0.  1.
         23    2    1    2    0    0 -0.44408920985E-15  0.00000000000E+00  0.71054273576E-14  0.91188000000E+02  0.91188000000E+02 0.  0.
    9900012    2    3    3    0    0  0.32376994332E+01  0.24539989379E+02 -0.35650097067E+02  0.47787271928E+02  0.20000004026E+02 0.  0.
         12    1    3    3    0    0 -0.32376994332E+01 -0.24539989379E+02  0.35650097067E+02  0.43400728072E+02  0.00000000000E+00 0. -1.
         11    1    4    4    0    0  0.11372776793E+01  0.11476767058E+02 -0.10498562636E+02  0.15595813551E+02  0.51100000000E-03 0.  1.
        -11    1    4    4    0    0  0.46940332141E+01  0.15557203641E+02 -0.18455916781E+02  0.24590270381E+02  0.51100000000E-03 0. -1.
        -12    1    4    4    0    0 -0.25936114603E+01 -0.24939813200E+01 -0.66956176498E+01  0.76011879956E+01  0.00000000000E+00 0.  1.
</event>
<event>
 8    1  0.4042158E-011  0.9118800E+02  0.7816164E-02  0.1184000E+00
        -11   -1    0    0    0    0  0.00000000000E+00  0.00000000000E+00  0.45593999997E+02  0.45594000000E+02  0.51100000000E-03 0. -1.
         11   -1    0    0    0    0 -0.00000000000E+00 -0.00000000000E+00 -0.45593999997E+02  0.45594000000E+02  0.51100000000E-03 0.  1.
         23    2    1    2    0    0 -0.71054273576E-14  0.00000000000E+00  0.00000000000E+00  0.91188000000E+02  0.91188000000E+02 0.  0.
    9900012    2    3    3    0    0 -0.39808091565E+02 -0.16466296523E+02 -0.52725736722E+01  0.47787272951E+02  0.20000008695E+02 0.  0.
         12    1    3    3    0    0  0.39808091565E+02  0.16466296523E+02  0.52725736722E+01  0.43400727049E+02  0.00000000000E+00 0. -1.
         11    1    4    4    0    0 -0.91404504501E+01  0.13090979403E+01 -0.67082357175E+01  0.11413237864E+02  0.51100000000E-03 0. -1.
        -11    1    4    4    0    0 -0.57390621449E+01 -0.44092928151E+01 -0.28250288421E+01  0.77691367379E+01  0.51100000000E-03 0.  1.
        -12    1    4    4    0    0 -0.24928578970E+02 -0.13366101648E+02  0.42606908874E+01  0.28604898349E+02  0.00000000000E+00 0.  1.
</event>
<event>
 8    1  0.4042158E-011  0.9118800E+02  0.7816164E-02  0.1184000E+00
        -11   -1    0    0    0    0  0.00000000000E+00  0.00000000000E+00  0.45593999997E+02  0.45594000000E+02  0.51100000000E-03 0. -1.
         11   -1    0    0    0    0 -0.00000000000E+00 -0.00000000000E+00 -0.45593999997E+02  0.45594000000E+02  0.51100000000E-03 0.  1.
         23    2    1    2    0    0  0.17763568394E-14  0.00000000000E+00  0.00000000000E+00  0.91188000000E+02  0.91188000000E+02 0.  0.
    9900012    2    3    3    0    0 -0.14520875127E+02 -0.32322446121E+02  0.25060472339E+02  0.47787267154E+02  0.19999982264E+02 0.  0.
        -12    1    3    3    0    0  0.14520875127E+02  0.32322446121E+02 -0.25060472339E+02  0.43400732846E+02  0.00000000000E+00 0.  1.
         11    1    4    4    0    0 -0.10802902093E+02 -0.15902571724E+02  0.39314152628E+01  0.19622703873E+02  0.51100000000E-03 0. -1.
        -11    1    4    4    0    0 -0.26957818521E+01 -0.38446974783E+01  0.16908387661E+01  0.49907789460E+01  0.51100000000E-03 0.  1.
        -12    1    4    4    0    0 -0.10221911817E+01 -0.12575176919E+02  0.19438218310E+02  0.23173784335E+02  0.00000000000E+00 0.  1.
</event>
<event>
 8    1  0.4042158E-011  0.9118800E+02  0.7816164E-02  0.1184000E+00
        -11   -1    0    0    0    0  0.00000000000E+00  0.00000000000E+00  0.45593999997E+02  0.45594000000E+02  0.51100000000E-03 0. -1.
         11   -1    0    0    0    0 -0.00000000000E+00 -0.00000000000E+00 -0.45593999997E+02  0.45594000000E+02  0.51100000000E-03 0.  1.
         23    2    1    2    0    0  0.44408920985E-15  0.00000000000E+00  0.00000000000E+00  0.91188000000E+02  0.91188000000E+02 0.  0.
    9900012    2    3    3    0    0 -0.27186928891E+01 -0.25157666713E+02  0.35260799794E+02  0.47787268583E+02  0.19999988776E+02 0.  0.
        -12    1    3    3    0    0  0.27186928891E+01  0.25157666713E+02 -0.35260799794E+02  0.43400731417E+02  0.00000000000E+00 0.  1.
         11    1    4    4    0    0 -0.17365823978E+01 -0.14187204958E+02  0.13434400875E+02  0.19615698562E+02  0.51100000000E-03 0. -1.
        -11    1    4    4    0    0 -0.65575362812E+01 -0.84052474838E+01  0.89968577416E+01  0.13949656513E+02  0.51100000000E-03 0.  1.
        -12    1    4    4    0    0  0.55754257899E+01 -0.25652142706E+01  0.12829541177E+02  0.14221913507E+02  0.00000000000E+00 0.  1.
</event>
<event>
 8    1  0.4042158E-011  0.9118800E+02  0.7816164E-02  0.1184000E+00
        -11   -1    0    0    0    0  0.00000000000E+00  0.00000000000E+00  0.45593999997E+02  0.45594000000E+02  0.51100000000E-03 0. -1.
         11   -1    0    0    0    0 -0.00000000000E+00 -0.00000000000E+00 -0.45593999997E+02  0.45594000000E+02  0.51100000000E-03 0.  1.
         23    2    1    2    0    0 -0.71054273576E-14 -0.15543122345E-14  0.00000000000E+00  0.91188000000E+02  0.91188000000E+02 0.  0.
    9900012    2    3    3    0    0  0.24447698370E+02 -0.13690958128E+01  0.35833770376E+02  0.47787268690E+02  0.19999989265E+02 0.  0.
        -12    1    3    3    0    0 -0.24447698370E+02  0.13690958128E+01 -0.35833770376E+02  0.43400731310E+02  0.00000000000E+00 0.  1.
         11    1    4    4    0    0  0.59744742531E+01  0.73459577904E+01  0.93375578585E+01  0.13298399358E+02  0.51100000000E-03 0. -1.
        -11    1    4    4    0    0  0.10830068700E+02 -0.47936009804E+00  0.12820160168E+02  0.16789183457E+02  0.51100000000E-03 0.  1.
        -12    1    4    4    0    0  0.76431554167E+01 -0.82356935051E+01  0.13676052349E+02  0.17699685876E+02  0.00000000000E+00 0.  1.
</event>
<event>
 8    1  0.4042158E-011  0.9118800E+02  0.7816164E-02  0.1184000E+00
        -11   -1    0    0    0    0  0.00000000000E+00  0.00000000000E+00  0.45593999997E+02  0.45594000000E+02  0.51100000000E-03 0. -1.
         11   -1    0    0    0    0 -0.00000000000E+00 -0.00000000000E+00 -0.45593999997E+02  0.45594000000E+02  0.51100000000E-03 0.  1.
         23    2    1    2    0    0  0.00000000000E+00  0.22204460493E-15  0.00000000000E+00  0.91188000000E+02  0.91188000000E+02 0.  0.
    9900012    2    3    3    0    0 -0.35898653263E+02  0.15689068532E+01 -0.24340262122E+02  0.47787272645E+02  0.20000007297E+02 0.  0.
         12    1    3    3    0    0  0.35898653263E+02 -0.15689068532E+01  0.24340262122E+02  0.43400727355E+02  0.00000000000E+00 0. -1.
         11    1    4    4    0    0 -0.11803160095E+02  0.95066399886E+01 -0.12718422921E+02  0.19785071998E+02  0.51100000000E-03 0. -1.
        -11    1    4    4    0    0 -0.12370683344E+01 -0.11765920494E+00 -0.10678534110E+01  0.16384422238E+01  0.51100000000E-03 0.  1.
        -12    1    4    4    0    0 -0.22858424834E+02 -0.78200739305E+01 -0.10553985790E+02  0.26363758423E+02  0.00000000000E+00 0.  1.
</event>
<event>
 8    1  0.4042158E-011  0.9118800E+02  0.7816164E-02  0.1184000E+00
        -11   -1    0    0    0    0  0.00000000000E+00  0.00000000000E+00  0.45593999997E+02  0.45594000000E+02  0.51100000000E-03 0. -1.
         11   -1    0    0    0    0 -0.00000000000E+00 -0.00000000000E+00 -0.45593999997E+02  0.45594000000E+02  0.51100000000E-03 0.  1.
         23    2    1    2    0    0  0.22204460493E-15  0.00000000000E+00  0.71054273576E-14  0.91188000000E+02  0.91188000000E+02 0.  0.
    9900012    2    3    3    0    0  0.18007664152E+01  0.28425760232E+02 -0.32746868364E+02  0.47787262770E+02  0.19999962274E+02 0.  0.
         12    1    3    3    0    0 -0.18007664152E+01 -0.28425760232E+02  0.32746868364E+02  0.43400737230E+02  0.00000000000E+00 0. -1.
         11    1    4    4    0    0  0.14777113353E+00  0.24870678390E+01 -0.57150624974E+01  0.62345234263E+01  0.51100000000E-03 0. -1.
        -11    1    4    4    0    0  0.79104072770E+00  0.34330939875E+01 -0.16168011441E+02  0.16547400822E+02  0.51100000000E-03 0.  1.
         12    1    4    4    0    0  0.86195455394E+00  0.22505598406E+02 -0.10863794426E+02  0.25005338522E+02  0.00000000000E+00 0. -1.
</event>
<event>
 8    1  0.4042158E-011  0.9118800E+02  0.7816164E-02  0.1184000E+00
        -11   -1    0    0    0    0  0.00000000000E+00  0.00000000000E+00  0.45593999997E+02  0.45594000000E+02  0.51100000000E-03 0.  1.
         11   -1    0    0    0    0 -0.00000000000E+00 -0.00000000000E+00 -0.45593999997E+02  0.45594000000E+02  0.51100000000E-03 0. -1.
         23    2    1    2    0    0  0.00000000000E+00  0.00000000000E+00  0.00000000000E+00  0.91188000000E+02  0.91188000000E+02 0.  0.
    9900012    2    3    3    0    0 -0.74308402578E+01 -0.41506939502E+02 -0.10275254523E+02  0.47787259577E+02  0.19999947716E+02 0.  0.
        -12    1    3    3    0    0  0.74308402578E+01  0.41506939502E+02  0.10275254523E+02  0.43400740423E+02  0.00000000000E+00 0.  1.
         11    1    4    4    0    0 -0.62134319621E+00 -0.89936144946E+00 -0.57802092385E+00  0.12365382460E+01  0.51100000000E-03 0. -1.
        -11    1    4    4    0    0 -0.47194005470E+01 -0.26491175483E+02  0.34733452897E+01  0.27131517609E+02  0.51100000000E-03 0.  1.
        -12    1    4    4    0    0 -0.20900965145E+01 -0.14116402569E+02 -0.13170578889E+02  0.19419203722E+02  0.00000000000E+00 0.  1.
</event>
<event>
 8    1  0.4042158E-011  0.9118800E+02  0.7816164E-02  0.1184000E+00
        -11   -1    0    0    0    0  0.00000000000E+00  0.00000000000E+00  0.45593999997E+02  0.45594000000E+02  0.51100000000E-03 0. -1.
         11   -1    0    0    0    0 -0.00000000000E+00 -0.00000000000E+00 -0.45593999997E+02  0.45594000000E+02  0.51100000000E-03 0.  1.
         23    2    1    2    0    0  0.00000000000E+00  0.35527136788E-14  0.00000000000E+00  0.91188000000E+02  0.91188000000E+02 0.  0.
    9900012    2    3    3    0    0  0.36126886847E+02 -0.20682471000E+02 -0.12276249913E+02  0.47787275676E+02  0.20000021116E+02 0.  0.
         12    1    3    3    0    0 -0.36126886847E+02  0.20682471000E+02  0.12276249913E+02  0.43400724324E+02  0.00000000000E+00 0. -1.
         11    1    4    4    0    0  0.90471231924E+01 -0.11268522738E+02 -0.73353171165E+01  0.16206076645E+02  0.51100000000E-03 0. -1.
        -11    1    4    4    0    0  0.23547249367E+02 -0.11608176382E+02 -0.66547657649E+01  0.27083364254E+02  0.51100000000E-03 0.  1.
         12    1    4    4    0    0  0.35325142875E+01  0.21942281203E+01  0.17138329683E+01  0.44978347767E+01  0.00000000000E+00 0. -1.
</event>
<event>
 8    1  0.4042158E-011  0.9118800E+02  0.7816164E-02  0.1184000E+00
        -11   -1    0    0    0    0  0.00000000000E+00  0.00000000000E+00  0.45593999997E+02  0.45594000000E+02  0.51100000000E-03 0. -1.
         11   -1    0    0    0    0 -0.00000000000E+00 -0.00000000000E+00 -0.45593999997E+02  0.45594000000E+02  0.51100000000E-03 0.  1.
         23    2    1    2    0    0 -0.17763568394E-14 -0.35527136788E-14  0.71054273576E-14  0.91188000000E+02  0.91188000000E+02 0.  0.
    9900012    2    3    3    0    0  0.10261856228E+02  0.17463586597E+02 -0.38384119987E+02  0.47787271697E+02  0.20000002973E+02 0.  0.
         12    1    3    3    0    0 -0.10261856228E+02 -0.17463586597E+02  0.38384119987E+02  0.43400728303E+02  0.00000000000E+00 0. -1.
         11    1    4    4    0    0  0.19447909923E+00  0.11163870901E+02 -0.23646293036E+02  0.26149895033E+02  0.51100000000E-03 0. -1.
        -11    1    4    4    0    0  0.15681189423E+01  0.63769886117E+01 -0.31954064077E+01  0.73031228349E+01  0.51100000000E-03 0.  1.
         12    1    4    4    0    0  0.84992581869E+01 -0.77272915735E-01 -0.11542420543E+02  0.14334253829E+02  0.00000000000E+00 0. -1.
</event>
<event>
 8    1  0.5191260E-011  0.9118800E+02  0.7816164E-02  0.1184000E+00
        -11   -1    0    0    0    0  0.00000000000E+00  0.00000000000E+00  0.45593999997E+02  0.45594000000E+02  0.51100000000E-03 0. -1.
         11   -1    0    0    0    0 -0.00000000000E+00 -0.00000000000E+00 -0.45593999997E+02  0.45594000000E+02  0.51100000000E-03 0.  1.
         23    2    1    2    0    0  0.35527136788E-14 -0.35527136788E-14  0.00000000000E+00  0.91188000000E+02  0.91188000000E+02 0.  0.
    9900012    2    3    3    0    0 -0.24697609760E+02  0.16779869074E+02  0.31497419576E+02  0.47787269892E+02  0.19999994745E+02 0.  0.
        -12    1    3    3    0    0  0.24697609760E+02 -0.16779869074E+02 -0.31497419576E+02  0.43400730108E+02  0.00000000000E+00 0.  1.
         11    1    4    4    0    0 -0.17653665727E+02  0.11115701493E+02  0.15130795889E+02  0.25771141181E+02  0.51100000000E-03 0. -1.
        -11    1    4    4    0    0 -0.74207674398E+01  0.63270566257E+01  0.17854579490E+02  0.20344174693E+02  0.51100000000E-03 0.  1.
        -12    1    4    4    0    0  0.37682340702E+00 -0.66288904508E+00 -0.14879558025E+01  0.16719540174E+01  0.00000000000E+00 0.  1.
</event>
<event>
 8    1  0.4042158E-011  0.9118800E+02  0.7816164E-02  0.1184000E+00
        -11   -1    0    0    0    0  0.00000000000E+00  0.00000000000E+00  0.45593999997E+02  0.45594000000E+02  0.51100000000E-03 0. -1.
         11   -1    0    0    0    0 -0.00000000000E+00 -0.00000000000E+00 -0.45593999997E+02  0.45594000000E+02  0.51100000000E-03 0.  1.
         23    2    1    2    0    0  0.00000000000E+00  0.00000000000E+00  0.00000000000E+00  0.91188000000E+02  0.91188000000E+02 0.  0.
    9900012    2    3    3    0    0  0.81112630789E+01 -0.23227555695E+02  0.35753475252E+02  0.47787275065E+02  0.20000018332E+02 0.  0.
        -12    1    3    3    0    0 -0.81112630789E+01  0.23227555695E+02 -0.35753475252E+02  0.43400724935E+02  0.00000000000E+00 0.  1.
         11    1    4    4    0    0  0.11819293822E+01 -0.68043015548E+01  0.51956946757E+01  0.86423793100E+01  0.51100000000E-03 0. -1.
        -11    1    4    4    0    0 -0.14346871766E+01 -0.10371914253E+02  0.50452139734E+01  0.11622784385E+02  0.51100000000E-03 0.  1.
         12    1    4    4    0    0  0.83640208733E+01 -0.60513398870E+01  0.25512566602E+02  0.27522111370E+02  0.00000000000E+00 0. -1.
</event>
<event>
 8    1  0.4042158E-011  0.9118800E+02  0.7816164E-02  0.1184000E+00
        -11   -1    0    0    0    0  0.00000000000E+00  0.00000000000E+00  0.45593999997E+02  0.45594000000E+02  0.51100000000E-03 0. -1.
         11   -1    0    0    0    0 -0.00000000000E+00 -0.00000000000E+00 -0.45593999997E+02  0.45594000000E+02  0.51100000000E-03 0.  1.
         23    2    1    2    0    0  0.00000000000E+00  0.00000000000E+00  0.00000000000E+00  0.91188000000E+02  0.91188000000E+02 0.  0.
    9900012    2    3    3    0    0 -0.32437893209E+02  0.69086492486E+01 -0.27994230363E+02  0.47787270929E+02  0.19999999474E+02 0.  0.
         12    1    3    3    0    0  0.32437893209E+02 -0.69086492486E+01  0.27994230363E+02  0.43400729071E+02  0.00000000000E+00 0. -1.
         11    1    4    4    0    0 -0.11101776321E+01  0.33558271090E+01 -0.24652138345E+01  0.43094488593E+01  0.51100000000E-03 0. -1.
        -11    1    4    4    0    0 -0.20539548946E+02  0.97669261849E+01 -0.16575721691E+02  0.28142858204E+02  0.51100000000E-03 0.  1.
         12    1    4    4    0    0 -0.10788166631E+02 -0.62141040453E+01 -0.89532948368E+01  0.15334963866E+02  0.00000000000E+00 0. -1.
</event>
<event>
 8    1  0.4042158E-011  0.9118800E+02  0.7816164E-02  0.1184000E+00
        -11   -1    0    0    0    0  0.00000000000E+00  0.00000000000E+00  0.45593999997E+02  0.45594000000E+02  0.51100000000E-03 0. -1.
         11   -1    0    0    0    0 -0.00000000000E+00 -0.00000000000E+00 -0.45593999997E+02  0.45594000000E+02  0.51100000000E-03 0.  1.
         23    2    1    2    0    0  0.00000000000E+00  0.00000000000E+00  0.00000000000E+00  0.91188000000E+02  0.91188000000E+02 0.  0.
    9900012    2    3    3    0    0 -0.15598519220E+02 -0.14167296825E+02  0.37942023870E+02  0.47787271014E+02  0.19999999859E+02 0.  0.
        -12    1    3    3    0    0  0.15598519220E+02  0.14167296825E+02 -0.37942023870E+02  0.43400728986E+02  0.00000000000E+00 0.  1.
         11    1    4    4    0    0 -0.43411839845E+01  0.17886420162E+01  0.46416500052E+01  0.66022748868E+01  0.51100000000E-03 0. -1.
        -11    1    4    4    0    0  0.30464499893E+01 -0.27249621800E+01  0.26690076294E+01  0.48815856447E+01  0.51100000000E-03 0.  1.
        -12    1    4    4    0    0 -0.14303785225E+02 -0.13230976661E+02  0.30631366236E+02  0.36303410482E+02  0.00000000000E+00 0.  1.
</event>
<event>
 8    1  0.4042158E-011  0.9118800E+02  0.7816164E-02  0.1184000E+00
        -11   -1    0    0    0    0  0.00000000000E+00  0.00000000000E+00  0.45593999997E+02  0.45594000000E+02  0.51100000000E-03 0. -1.
         11   -1    0    0    0    0 -0.00000000000E+00 -0.00000000000E+00 -0.45593999997E+02  0.45594000000E+02  0.51100000000E-03 0.  1.
         23    2    1    2    0    0  0.00000000000E+00  0.00000000000E+00  0.00000000000E+00  0.91188000000E+02  0.91188000000E+02 0.  0.
    9900012    2    3    3    0    0 -0.12440128784E+02 -0.38048128020E+02  0.16769188679E+02  0.47787279512E+02  0.20000038605E+02 0.  0.
        -12    1    3    3    0    0  0.12440128784E+02  0.38048128020E+02 -0.16769188679E+02  0.43400720488E+02  0.00000000000E+00 0.  1.
         11    1    4    4    0    0  0.39306642518E+01 -0.36337926047E+01  0.25344038445E+01  0.59226491760E+01  0.51100000000E-03 0. -1.
        -11    1    4    4    0    0 -0.26322113185E+01 -0.10541457888E+02  0.11344496111E-01  0.10865127693E+02  0.51100000000E-03 0.  1.
         12    1    4    4    0    0 -0.13738581717E+02 -0.23872877527E+02  0.14223440338E+02  0.30999502642E+02  0.00000000000E+00 0. -1.
</event>
<event>
 8    1  0.4042158E-011  0.9118800E+02  0.7816164E-02  0.1184000E+00
        -11   -1    0    0    0    0  0.00000000000E+00  0.00000000000E+00  0.45593999997E+02  0.45594000000E+02  0.51100000000E-03 0. -1.
         11   -1    0    0    0    0 -0.00000000000E+00 -0.00000000000E+00 -0.45593999997E+02  0.45594000000E+02  0.51100000000E-03 0.  1.
         23    2    1    2    0    0 -0.88817841970E-15  0.00000000000E+00 -0.71054273576E-14  0.91188000000E+02  0.91188000000E+02 0.  0.
    9900012    2    3    3    0    0  0.50469871983E+01 -0.21549392990E+02  0.37333273956E+02  0.47787288459E+02  0.20000079399E+02 0.  0.
        -12    1    3    3    0    0 -0.50469871983E+01  0.21549392990E+02 -0.37333273956E+02  0.43400711541E+02  0.00000000000E+00 0.  1.
         11    1    4    4    0    0 -0.90996211330E-01 -0.14294202407E+02  0.27622374735E+02  0.31101898479E+02  0.51100000000E-03 0. -1.
        -11    1    4    4    0    0 -0.16512682304E+01 -0.40475637443E+01  0.77932192646E+01  0.89355316462E+01  0.51100000000E-03 0.  1.
        -12    1    4    4    0    0  0.67892516401E+01 -0.32076268391E+01  0.19176799562E+01  0.77498583333E+01  0.00000000000E+00 0.  1.
</event>
<event>
 8    1  0.4042158E-011  0.9118800E+02  0.7816164E-02  0.1184000E+00
        -11   -1    0    0    0    0  0.00000000000E+00  0.00000000000E+00  0.45593999997E+02  0.45594000000E+02  0.51100000000E-03 0. -1.
         11   -1    0    0    0    0 -0.00000000000E+00 -0.00000000000E+00 -0.45593999997E+02  0.45594000000E+02  0.51100000000E-03 0.  1.
         23    2    1    2    0    0 -0.44408920985E-15  0.35527136788E-14  0.00000000000E+00  0.91188000000E+02  0.91188000000E+02 0.  0.
    9900012    2    3    3    0    0 -0.26181254290E+01  0.21132997237E+02 -0.37817522844E+02  0.47787272045E+02  0.20000004561E+02 0.  0.
         12    1    3    3    0    0  0.26181254290E+01 -0.21132997237E+02  0.37817522844E+02  0.43400727955E+02  0.00000000000E+00 0. -1.
         11    1    4    4    0    0 -0.98970410765E+01  0.12741080461E+02 -0.24576420752E+02  0.29398758658E+02  0.51100000000E-03 0. -1.
        -11    1    4    4    0    0  0.98418011619E+00  0.83233480198E+00 -0.60946361331E+01  0.62294447248E+01  0.51100000000E-03 0.  1.
         12    1    4    4    0    0  0.62947355313E+01  0.75595819736E+01 -0.71464659594E+01  0.12159068662E+02  0.00000000000E+00 0. -1.
</event>
<event>
 8    1  0.4042158E-011  0.9118800E+02  0.7816164E-02  0.1184000E+00
        -11   -1    0    0    0    0  0.00000000000E+00  0.00000000000E+00  0.45593999997E+02  0.45594000000E+02  0.51100000000E-03 0. -1.
         11   -1    0    0    0    0 -0.00000000000E+00 -0.00000000000E+00 -0.45593999997E+02  0.45594000000E+02  0.51100000000E-03 0.  1.
         23    2    1    2    0    0  0.17763568394E-14  0.71054273576E-14  0.35527136788E-14  0.91188000000E+02  0.91188000000E+02 0.  0.
    9900012    2    3    3    0    0  0.13097744733E+02  0.36276566031E+02  0.19901827183E+02  0.47787275521E+02  0.20000020410E+02 0.  0.
        -12    1    3    3    0    0 -0.13097744733E+02 -0.36276566031E+02 -0.19901827183E+02  0.43400724479E+02  0.00000000000E+00 0.  1.
         11    1    4    4    0    0  0.26542704967E+01  0.89897271507E+01  0.18908314028E+01  0.95621958654E+01  0.51100000000E-03 0.  1.
        -11    1    4    4    0    0  0.14725425852E+01  0.67213146941E+01 -0.29814041215E+01  0.74988814952E+01  0.51100000000E-03 0. -1.
         12    1    4    4    0    0  0.89709316513E+01  0.20565524186E+02  0.20992399902E+02  0.30726198160E+02  0.00000000000E+00 0. -1.
</event>
<event>
 8    1  0.4042158E-011  0.9118800E+02  0.7816164E-02  0.1184000E+00
        -11   -1    0    0    0    0  0.00000000000E+00  0.00000000000E+00  0.45593999997E+02  0.45594000000E+02  0.51100000000E-03 0. -1.
         11   -1    0    0    0    0 -0.00000000000E+00 -0.00000000000E+00 -0.45593999997E+02  0.45594000000E+02  0.51100000000E-03 0.  1.
         23    2    1    2    0    0  0.00000000000E+00  0.76327832943E-16  0.00000000000E+00  0.91188000000E+02  0.91188000000E+02 0.  0.
    9900012    2    3    3    0    0  0.22204788996E+02 -0.31369946193E-01  0.37290342514E+02  0.47787270937E+02  0.19999999508E+02 0.  0.
        -12    1    3    3    0    0 -0.22204788996E+02  0.31369946193E-01 -0.37290342514E+02  0.43400729063E+02  0.00000000000E+00 0.  1.
         11    1    4    4    0    0  0.91152015039E+01 -0.47949995458E+01  0.10894260880E+02  0.14992125916E+02  0.51100000000E-03 0. -1.
        -11    1    4    4    0    0  0.12470020565E+02  0.37269477792E+01  0.10151923609E+02  0.16506153576E+02  0.51100000000E-03 0.  1.
        -12    1    4    4    0    0  0.61956692794E+00  0.10366818204E+01  0.16244158024E+02  0.16288991445E+02  0.00000000000E+00 0.  1.
</event>
<event>
 8    1  0.4042158E-011  0.9118800E+02  0.7816164E-02  0.1184000E+00
        -11   -1    0    0    0    0  0.00000000000E+00  0.00000000000E+00  0.45593999997E+02  0.45594000000E+02  0.51100000000E-03 0. -1.
         11   -1    0    0    0    0 -0.00000000000E+00 -0.00000000000E+00 -0.45593999997E+02  0.45594000000E+02  0.51100000000E-03 0.  1.
         23    2    1    2    0    0 -0.35527136788E-14  0.44408920985E-15  0.00000000000E+00  0.91188000000E+02  0.91188000000E+02 0.  0.
    9900012    2    3    3    0    0 -0.20797087667E+02 -0.27951709031E+01 -0.37990680315E+02  0.47787266981E+02  0.19999981471E+02 0.  0.
         12    1    3    3    0    0  0.20797087667E+02  0.27951709031E+01  0.37990680315E+02  0.43400733019E+02  0.00000000000E+00 0. -1.
         11    1    4    4    0    0 -0.17537930963E+02  0.52503613122E+01 -0.21001410847E+02  0.27860448205E+02  0.51100000000E-03 0. -1.
        -11    1    4    4    0    0 -0.16142680110E+00  0.76787773843E+00 -0.30303101729E+01  0.31302515616E+01  0.51100000000E-03 0.  1.
        -12    1    4    4    0    0 -0.30977299033E+01 -0.88134099537E+01 -0.13958959295E+02  0.16796567214E+02  0.00000000000E+00 0.  1.
</event>
<event>
 8    1  0.4042158E-011  0.9118800E+02  0.7816164E-02  0.1184000E+00
        -11   -1    0    0    0    0  0.00000000000E+00  0.00000000000E+00  0.45593999997E+02  0.45594000000E+02  0.51100000000E-03 0. -1.
         11   -1    0    0    0    0 -0.00000000000E+00 -0.00000000000E+00 -0.45593999997E+02  0.45594000000E+02  0.51100000000E-03 0.  1.
         23    2    1    2    0    0 -0.35527136788E-14  0.88817841970E-15  0.00000000000E+00  0.91188000000E+02  0.91188000000E+02 0.  0.
    9900012    2    3    3    0    0  0.20690078943E+02 -0.50921792724E+01  0.37810220867E+02  0.47787280439E+02  0.20000042833E+02 0.  0.
        -12    1    3    3    0    0 -0.20690078943E+02  0.50921792724E+01 -0.37810220867E+02  0.43400719561E+02  0.00000000000E+00 0.  1.
         11    1    4    4    0    0  0.21637030940E+02 -0.96405214668E+00  0.29621621425E+02  0.36695108128E+02  0.51100000000E-03 0. -1.
        -11    1    4    4    0    0 -0.60885391867E+00  0.11743667053E+01  0.43247664217E+01  0.45225485201E+01  0.51100000000E-03 0.  1.
         12    1    4    4    0    0 -0.33809807816E+00 -0.53024938311E+01  0.38638330202E+01  0.65696237904E+01  0.00000000000E+00 0. -1.
</event>
<event>
 8    1  0.4042158E-011  0.9118800E+02  0.7816164E-02  0.1184000E+00
        -11   -1    0    0    0    0  0.00000000000E+00  0.00000000000E+00  0.45593999997E+02  0.45594000000E+02  0.51100000000E-03 0. -1.
         11   -1    0    0    0    0 -0.00000000000E+00 -0.00000000000E+00 -0.45593999997E+02  0.45594000000E+02  0.51100000000E-03 0.  1.
         23    2    1    2    0    0  0.00000000000E+00  0.00000000000E+00  0.00000000000E+00  0.91188000000E+02  0.91188000000E+02 0.  0.
    9900012    2    3    3    0    0  0.96331033721E+01 -0.45374982021E+01 -0.42074190386E+02  0.47787273426E+02  0.20000010858E+02 0.  0.
         12    1    3    3    0    0 -0.96331033721E+01  0.45374982021E+01  0.42074190386E+02  0.43400726574E+02  0.00000000000E+00 0. -1.
         11    1    4    4    0    0 -0.17551598362E+01 -0.24397451898E+01 -0.83751259113E+01  0.88980715289E+01  0.51100000000E-03 0. -1.
        -11    1    4    4    0    0  0.64346615200E+01 -0.25208060297E+01 -0.33178268427E+02  0.33890364826E+02  0.51100000000E-03 0.  1.
        -12    1    4    4    0    0  0.49536016884E+01  0.42305301738E+00 -0.52079604747E+00  0.49988370713E+01  0.00000000000E+00 0.  1.
</event>
<event>
 8    1  0.4042158E-011  0.9118800E+02  0.7816164E-02  0.1184000E+00
        -11   -1    0    0    0    0  0.00000000000E+00  0.00000000000E+00  0.45593999997E+02  0.45594000000E+02  0.51100000000E-03 0. -1.
         11   -1    0    0    0    0 -0.00000000000E+00 -0.00000000000E+00 -0.45593999997E+02  0.45594000000E+02  0.51100000000E-03 0.  1.
         23    2    1    2    0    0  0.35527136788E-14 -0.17763568394E-14  0.35527136788E-14  0.91188000000E+02  0.91188000000E+02 0.  0.
    9900012    2    3    3    0    0  0.29929314333E+02 -0.11214308834E+02  0.29361519382E+02  0.47787269597E+02  0.19999993399E+02 0.  0.
        -12    1    3    3    0    0 -0.29929314333E+02  0.11214308834E+02 -0.29361519382E+02  0.43400730403E+02  0.00000000000E+00 0.  1.
         11    1    4    4    0    0  0.81423292385E+01  0.32430972411E+01  0.73872869120E+01  0.11462426154E+02  0.51100000000E-03 0. -1.
        -11    1    4    4    0    0 -0.43675059768E+00 -0.69578654877E+00 -0.11578568212E+01  0.14196840090E+01  0.51100000000E-03 0.  1.
        -12    1    4    4    0    0  0.22223735693E+02 -0.13761619527E+02  0.23132089291E+02  0.34905159434E+02  0.00000000000E+00 0.  1.
</event>
<event>
 8    1  0.4042158E-011  0.9118800E+02  0.7816164E-02  0.1184000E+00
        -11   -1    0    0    0    0  0.00000000000E+00  0.00000000000E+00  0.45593999997E+02  0.45594000000E+02  0.51100000000E-03 0. -1.
         11   -1    0    0    0    0 -0.00000000000E+00 -0.00000000000E+00 -0.45593999997E+02  0.45594000000E+02  0.51100000000E-03 0.  1.
         23    2    1    2    0    0 -0.33306690739E-15  0.17763568394E-14  0.00000000000E+00  0.91188000000E+02  0.91188000000E+02 0.  0.
    9900012    2    3    3    0    0 -0.44305152527E+00 -0.96312921182E+01  0.42316263160E+02  0.47787260256E+02  0.19999950812E+02 0.  0.
        -12    1    3    3    0    0  0.44305152527E+00  0.96312921182E+01 -0.42316263160E+02  0.43400739744E+02  0.00000000000E+00 0.  1.
         11    1    4    4    0    0  0.79537283216E+00 -0.79456485147E+01  0.13221279492E+02  0.15445652460E+02  0.51100000000E-03 0. -1.
        -11    1    4    4    0    0  0.30809292655E+01 -0.67136196226E+01  0.17313499262E+02  0.18823444704E+02  0.51100000000E-03 0.  1.
        -12    1    4    4    0    0 -0.43193536229E+01  0.50279760191E+01  0.11781484406E+02  0.13518163092E+02  0.00000000000E+00 0.  1.
</event>
<event>
 8    1  0.4042158E-011  0.9118800E+02  0.7816164E-02  0.1184000E+00
        -11   -1    0    0    0    0  0.00000000000E+00  0.00000000000E+00  0.45593999997E+02  0.45594000000E+02  0.51100000000E-03 0. -1.
         11   -1    0    0    0    0 -0.00000000000E+00 -0.00000000000E+00 -0.45593999997E+02  0.45594000000E+02  0.51100000000E-03 0.  1.
         23    2    1    2    0    0  0.35527136788E-14  0.00000000000E+00  0.35527136788E-14  0.91188000000E+02  0.91188000000E+02 0.  0.
    9900012    2    3    3    0    0 -0.25823785722E+02 -0.30603241518E+02 -0.16739061185E+02  0.47787280309E+02  0.20000042239E+02 0.  0.
         12    1    3    3    0    0  0.25823785722E+02  0.30603241518E+02  0.16739061185E+02  0.43400719691E+02  0.00000000000E+00 0. -1.
         11    1    4    4    0    0 -0.15174440919E+00 -0.26689523429E+01  0.81968681686E+00  0.27961079581E+01  0.51100000000E-03 0. -1.
        -11    1    4    4    0    0  0.19011073498E+01 -0.15455443966E+01  0.88148785367E+00  0.26038313568E+01  0.51100000000E-03 0.  1.
        -12    1    4    4    0    0 -0.27573148662E+02 -0.26388744778E+02 -0.18440235855E+02  0.42387340994E+02  0.00000000000E+00 0.  1.
</event>
<event>
 8    1  0.4042158E-011  0.9118800E+02  0.7816164E-02  0.1184000E+00
        -11   -1    0    0    0    0  0.00000000000E+00  0.00000000000E+00  0.45593999997E+02  0.45594000000E+02  0.51100000000E-03 0. -1.
         11   -1    0    0    0    0 -0.00000000000E+00 -0.00000000000E+00 -0.45593999997E+02  0.45594000000E+02  0.51100000000E-03 0.  1.
         23    2    1    2    0    0 -0.35527136788E-14  0.44408920985E-15 -0.71054273576E-14  0.91188000000E+02  0.91188000000E+02 0.  0.
    9900012    2    3    3    0    0  0.23477906024E+02 -0.32713782935E+01  0.36355257798E+02  0.47787323084E+02  0.20000237267E+02 0.  0.
        -12    1    3    3    0    0 -0.23477906024E+02  0.32713782935E+01 -0.36355257798E+02  0.43400676916E+02  0.00000000000E+00 0.  1.
         11    1    4    4    0    0 -0.24280518994E+01  0.85645288662E+00  0.94725570647E+01  0.98162256075E+01  0.51100000000E-03 0. -1.
        -11    1    4    4    0    0  0.14428973679E+02 -0.37712567668E+01  0.11813533638E+02  0.19025699365E+02  0.51100000000E-03 0.  1.
         12    1    4    4    0    0  0.11476984244E+02 -0.35657441333E+00  0.15069167096E+02  0.18945398112E+02  0.00000000000E+00 0. -1.
</event>
<event>
 8    1  0.4042158E-011  0.9118800E+02  0.7816164E-02  0.1184000E+00
        -11   -1    0    0    0    0  0.00000000000E+00  0.00000000000E+00  0.45593999997E+02  0.45594000000E+02  0.51100000000E-03 0.  1.
         11   -1    0    0    0    0 -0.00000000000E+00 -0.00000000000E+00 -0.45593999997E+02  0.45594000000E+02  0.51100000000E-03 0. -1.
         23    2    1    2    0    0  0.00000000000E+00  0.71054273576E-14  0.00000000000E+00  0.91188000000E+02  0.91188000000E+02 0.  0.
    9900012    2    3    3    0    0  0.21776180585E+02  0.36191504476E+02  0.99797894981E+01  0.47787271486E+02  0.20000002012E+02 0.  0.
        -12    1    3    3    0    0 -0.21776180585E+02 -0.36191504476E+02 -0.99797894981E+01  0.43400728514E+02  0.00000000000E+00 0.  1.
         11    1    4    4    0    0  0.15351075170E+01  0.12102355686E+01  0.34077757212E+01  0.39286334580E+01  0.51100000000E-03 0. -1.
        -11    1    4    4    0    0  0.52880186084E+01  0.27007208022E+00 -0.78937962623E+00  0.53534288253E+01  0.51100000000E-03 0.  1.
         12    1    4    4    0    0  0.14953054460E+02  0.34711196828E+02  0.73613934031E+01  0.38505209202E+02  0.00000000000E+00 0. -1.
</event>
<event>
 8    1  0.4042158E-011  0.9118800E+02  0.7816164E-02  0.1184000E+00
        -11   -1    0    0    0    0  0.00000000000E+00  0.00000000000E+00  0.45593999997E+02  0.45594000000E+02  0.51100000000E-03 0. -1.
         11   -1    0    0    0    0 -0.00000000000E+00 -0.00000000000E+00 -0.45593999997E+02  0.45594000000E+02  0.51100000000E-03 0.  1.
         23    2    1    2    0    0  0.00000000000E+00  0.00000000000E+00  0.71054273576E-14  0.91188000000E+02  0.91188000000E+02 0.  0.
    9900012    2    3    3    0    0 -0.11252475609E+02  0.21210741766E+02 -0.36153969512E+02  0.47787270915E+02  0.19999999409E+02 0.  0.
         12    1    3    3    0    0  0.11252475609E+02 -0.21210741766E+02  0.36153969512E+02  0.43400729085E+02  0.00000000000E+00 0. -1.
         11    1    4    4    0    0  0.60151174705E+00 -0.35182731081E+00 -0.60634310576E+01  0.61033429602E+01  0.51100000000E-03 0. -1.
        -11    1    4    4    0    0  0.21976927444E+01  0.10368168429E+02 -0.84289823216E+01  0.13541658436E+02  0.51100000000E-03 0.  1.
        -12    1    4    4    0    0 -0.14051680101E+02  0.11194400648E+02 -0.21661556133E+02  0.28142269518E+02  0.00000000000E+00 0.  1.
</event>
<event>
 8    1  0.4042158E-011  0.9118800E+02  0.7816164E-02  0.1184000E+00
        -11   -1    0    0    0    0  0.00000000000E+00  0.00000000000E+00  0.45593999997E+02  0.45594000000E+02  0.51100000000E-03 0. -1.
         11   -1    0    0    0    0 -0.00000000000E+00 -0.00000000000E+00 -0.45593999997E+02  0.45594000000E+02  0.51100000000E-03 0.  1.
         23    2    1    2    0    0  0.00000000000E+00  0.00000000000E+00 -0.71054273576E-14  0.91188000000E+02  0.91188000000E+02 0.  0.
    9900012    2    3    3    0    0 -0.82244066994E+01  0.27353323146E+02  0.32676874446E+02  0.47787271017E+02  0.19999999877E+02 0.  0.
        -12    1    3    3    0    0  0.82244066994E+01 -0.27353323146E+02 -0.32676874446E+02  0.43400728983E+02  0.00000000000E+00 0.  1.
         11    1    4    4    0    0 -0.45572652225E+01 -0.15783511124E+01  0.17190905027E+01  0.51200713823E+01  0.51100000000E-03 0.  1.
        -11    1    4    4    0    0  0.23998888498E+00  0.66287184161E+01  0.56961849365E+01  0.87432274131E+01  0.51100000000E-03 0. -1.
        -12    1    4    4    0    0 -0.39071303619E+01  0.22302955842E+02  0.25261599006E+02  0.33923972222E+02  0.00000000000E+00 0.  1.
</event>
<event>
 8    1  0.4042158E-011  0.9118800E+02  0.7816164E-02  0.1184000E+00
        -11   -1    0    0    0    0  0.00000000000E+00  0.00000000000E+00  0.45593999997E+02  0.45594000000E+02  0.51100000000E-03 0. -1.
         11   -1    0    0    0    0 -0.00000000000E+00 -0.00000000000E+00 -0.45593999997E+02  0.45594000000E+02  0.51100000000E-03 0.  1.
         23    2    1    2    0    0  0.00000000000E+00 -0.35527136788E-14  0.17763568394E-14  0.91188000000E+02  0.91188000000E+02 0.  0.
    9900012    2    3    3    0    0 -0.26793221068E+02 -0.31233705917E+02  0.13791380739E+02  0.47787271168E+02  0.20000000561E+02 0.  0.
        -12    1    3    3    0    0  0.26793221068E+02  0.31233705917E+02 -0.13791380739E+02  0.43400728832E+02  0.00000000000E+00 0.  1.
         11    1    4    4    0    0 -0.24127434587E+02 -0.26199351189E+02  0.11646093360E+02  0.37472264320E+02  0.51100000000E-03 0. -1.
        -11    1    4    4    0    0 -0.53575257578E+01 -0.15182412390E+01  0.49929678658E+00  0.55908350224E+01  0.51100000000E-03 0.  1.
        -12    1    4    4    0    0  0.26917392769E+01 -0.35161134885E+01  0.16459905928E+01  0.47241718248E+01  0.00000000000E+00 0.  1.
</event>
<event>
 8    1  0.4042158E-011  0.9118800E+02  0.7816164E-02  0.1184000E+00
        -11   -1    0    0    0    0  0.00000000000E+00  0.00000000000E+00  0.45593999997E+02  0.45594000000E+02  0.51100000000E-03 0.  1.
         11   -1    0    0    0    0 -0.00000000000E+00 -0.00000000000E+00 -0.45593999997E+02  0.45594000000E+02  0.51100000000E-03 0. -1.
         23    2    1    2    0    0  0.00000000000E+00  0.00000000000E+00  0.00000000000E+00  0.91188000000E+02  0.91188000000E+02 0.  0.
    9900012    2    3    3    0    0 -0.28058329397E+02 -0.18030550989E+02 -0.27771435684E+02  0.47787271233E+02  0.20000000861E+02 0.  0.
         12    1    3    3    0    0  0.28058329397E+02  0.18030550989E+02  0.27771435684E+02  0.43400728767E+02  0.00000000000E+00 0. -1.
         11    1    4    4    0    0 -0.79705514736E+01 -0.73316016900E+01 -0.11982194833E+02  0.16151008248E+02  0.51100000000E-03 0. -1.
        -11    1    4    4    0    0 -0.55132881706E+00 -0.43750486534E+01 -0.89765417716E+01  0.10001165763E+02  0.51100000000E-03 0.  1.
        -12    1    4    4    0    0 -0.19536449107E+02 -0.63239006456E+01 -0.68126990790E+01  0.21635097222E+02  0.00000000000E+00 0.  1.
</event>
<event>
 8    1  0.1159218E-010  0.9118800E+02  0.7816164E-02  0.1184000E+00
        -11   -1    0    0    0    0  0.00000000000E+00  0.00000000000E+00  0.45593999997E+02  0.45594000000E+02  0.51100000000E-03 0.  1.
         11   -1    0    0    0    0 -0.00000000000E+00 -0.00000000000E+00 -0.45593999997E+02  0.45594000000E+02  0.51100000000E-03 0. -1.
         23    2    1    2    0    0  0.00000000000E+00 -0.35527136788E-14  0.35527136788E-14  0.91188000000E+02  0.91188000000E+02 0.  0.
    9900012    2    3    3    0    0 -0.18024287175E+02  0.26315626315E+02 -0.29431898628E+02  0.47787265290E+02  0.19999973764E+02 0.  0.
         12    1    3    3    0    0  0.18024287175E+02 -0.26315626315E+02  0.29431898628E+02  0.43400734710E+02  0.00000000000E+00 0. -1.
         11    1    4    4    0    0  0.28413748186E+01  0.18935264064E+00 -0.12335515394E+01  0.31033715446E+01  0.51100000000E-03 0. -1.
        -11    1    4    4    0    0 -0.77278954414E+01  0.38399179617E+01 -0.52424350930E+01  0.10096953197E+02  0.51100000000E-03 0.  1.
         12    1    4    4    0    0 -0.13137766552E+02  0.22286355713E+02 -0.22955911996E+02  0.34586940548E+02  0.00000000000E+00 0. -1.
</event>
<event>
 8    1  0.4042158E-011  0.9118800E+02  0.7816164E-02  0.1184000E+00
        -11   -1    0    0    0    0  0.00000000000E+00  0.00000000000E+00  0.45593999997E+02  0.45594000000E+02  0.51100000000E-03 0. -1.
         11   -1    0    0    0    0 -0.00000000000E+00 -0.00000000000E+00 -0.45593999997E+02  0.45594000000E+02  0.51100000000E-03 0.  1.
         23    2    1    2    0    0  0.00000000000E+00  0.00000000000E+00  0.35527136788E-14  0.91188000000E+02  0.91188000000E+02 0.  0.
    9900012    2    3    3    0    0 -0.69636064525E+01  0.28561141803E+02 -0.31927927420E+02  0.47787272065E+02  0.20000004653E+02 0.  0.
         12    1    3    3    0    0  0.69636064525E+01 -0.28561141803E+02  0.31927927420E+02  0.43400727935E+02  0.00000000000E+00 0. -1.
         11    1    4    4    0    0 -0.28906055055E+01  0.41544141138E+00 -0.61105923317E+01  0.67725571729E+01  0.51100000000E-03 0. -1.
        -11    1    4    4    0    0  0.30053044741E+01  0.25314309695E+01  0.49744006823E-01  0.39296911409E+01  0.51100000000E-03 0.  1.
        -12    1    4    4    0    0 -0.70783054211E+01  0.25614269422E+02 -0.25867079096E+02  0.37085023751E+02  0.00000000000E+00 0.  1.
</event>
<event>
 8    1  0.4042158E-011  0.9118800E+02  0.7816164E-02  0.1184000E+00
        -11   -1    0    0    0    0  0.00000000000E+00  0.00000000000E+00  0.45593999997E+02  0.45594000000E+02  0.51100000000E-03 0.  1.
         11   -1    0    0    0    0 -0.00000000000E+00 -0.00000000000E+00 -0.45593999997E+02  0.45594000000E+02  0.51100000000E-03 0. -1.
         23    2    1    2    0    0 -0.71054273576E-14  0.88817841970E-15  0.00000000000E+00  0.91188000000E+02  0.91188000000E+02 0.  0.
    9900012    2    3    3    0    0 -0.39815750420E+02  0.76037124127E+01 -0.15508474912E+02  0.47787271688E+02  0.20000002933E+02 0.  0.
         12    1    3    3    0    0  0.39815750420E+02 -0.76037124127E+01  0.15508474912E+02  0.43400728312E+02  0.00000000000E+00 0. -1.
         11    1    4    4    0    0 -0.10938261793E+02  0.10975749165E+01 -0.52679363090E+01  0.12190217183E+02  0.51100000000E-03 0. -1.
        -11    1    4    4    0    0 -0.27941768499E+02  0.63826063819E+00 -0.69313834104E+01  0.28795726762E+02  0.51100000000E-03 0.  1.
         12    1    4    4    0    0 -0.93572012741E+00  0.58678768580E+01 -0.33091551922E+01  0.68013277427E+01  0.00000000000E+00 0. -1.
</event>
<event>
 8    1  0.4042158E-011  0.9118800E+02  0.7816164E-02  0.1184000E+00
        -11   -1    0    0    0    0  0.00000000000E+00  0.00000000000E+00  0.45593999997E+02  0.45594000000E+02  0.51100000000E-03 0. -1.
         11   -1    0    0    0    0 -0.00000000000E+00 -0.00000000000E+00 -0.45593999997E+02  0.45594000000E+02  0.51100000000E-03 0.  1.
         23    2    1    2    0    0  0.00000000000E+00  0.17763568394E-14 -0.35527136788E-14  0.91188000000E+02  0.91188000000E+02 0.  0.
    9900012    2    3    3    0    0  0.28159440980E+02  0.12974208235E+02 -0.30370037165E+02  0.47787270133E+02  0.19999995843E+02 0.  0.
         12    1    3    3    0    0 -0.28159440980E+02 -0.12974208235E+02  0.30370037165E+02  0.43400729867E+02  0.00000000000E+00 0. -1.
         11    1    4    4    0    0  0.11745661500E+02  0.54303075557E+01 -0.58587410500E+01  0.14204705248E+02  0.51100000000E-03 0. -1.
        -11    1    4    4    0    0  0.15502935218E+02  0.10383093603E+02 -0.16052629981E+02  0.24613747433E+02  0.51100000000E-03 0.  1.
         12    1    4    4    0    0  0.91084426201E+00 -0.28391929232E+01 -0.84586661336E+01  0.89688174518E+01  0.00000000000E+00 0. -1.
</event>
<event>
 8    1  0.4042158E-011  0.9118800E+02  0.7816164E-02  0.1184000E+00
        -11   -1    0    0    0    0  0.00000000000E+00  0.00000000000E+00  0.45593999997E+02  0.45594000000E+02  0.51100000000E-03 0. -1.
         11   -1    0    0    0    0 -0.00000000000E+00 -0.00000000000E+00 -0.45593999997E+02  0.45594000000E+02  0.51100000000E-03 0.  1.
         23    2    1    2    0    0  0.00000000000E+00  0.00000000000E+00  0.00000000000E+00  0.91188000000E+02  0.91188000000E+02 0.  0.
    9900012    2    3    3    0    0  0.13838014951E+02  0.22789734824E+02 -0.34245591738E+02  0.47787271612E+02  0.20000002587E+02 0.  0.
         12    1    3    3    0    0 -0.13838014951E+02 -0.22789734824E+02  0.34245591738E+02  0.43400728388E+02  0.00000000000E+00 0. -1.
         11    1    4    4    0    0  0.82826450332E+01  0.32122337335E+01 -0.14363893743E+02  0.16889111819E+02  0.51100000000E-03 0. -1.
        -11    1    4    4    0    0  0.26149515543E+00 -0.13475245396E+00  0.13883263610E+01  0.14191505508E+01  0.51100000000E-03 0.  1.
        -12    1    4    4    0    0  0.52938747626E+01  0.19712253545E+02 -0.21270024355E+02  0.29479009242E+02  0.00000000000E+00 0.  1.
</event>
<event>
 8    1  0.4042158E-011  0.9118800E+02  0.7816164E-02  0.1184000E+00
        -11   -1    0    0    0    0  0.00000000000E+00  0.00000000000E+00  0.45593999997E+02  0.45594000000E+02  0.51100000000E-03 0. -1.
         11   -1    0    0    0    0 -0.00000000000E+00 -0.00000000000E+00 -0.45593999997E+02  0.45594000000E+02  0.51100000000E-03 0.  1.
         23    2    1    2    0    0 -0.35527136788E-14 -0.17763568394E-14  0.00000000000E+00  0.91188000000E+02  0.91188000000E+02 0.  0.
    9900012    2    3    3    0    0  0.24690532677E+02  0.10261733719E+02 -0.34186207667E+02  0.47787281372E+02  0.20000047088E+02 0.  0.
         12    1    3    3    0    0 -0.24690532677E+02 -0.10261733719E+02  0.34186207667E+02  0.43400718628E+02  0.00000000000E+00 0. -1.
         11    1    4    4    0    0  0.79123936633E+01  0.57027806549E+01 -0.14360993918E+02  0.17359891338E+02  0.51100000000E-03 0.  1.
        -11    1    4    4    0    0  0.15689421235E+02  0.28909847775E+01 -0.22193700434E+02  0.27332692346E+02  0.51100000000E-03 0. -1.
        -12    1    4    4    0    0  0.10887177786E+01  0.16679682862E+01  0.23684866851E+01  0.30946976884E+01  0.00000000000E+00 0.  1.
</event>
<event>
 8    1  0.4042158E-011  0.9118800E+02  0.7816164E-02  0.1184000E+00
        -11   -1    0    0    0    0  0.00000000000E+00  0.00000000000E+00  0.45593999997E+02  0.45594000000E+02  0.51100000000E-03 0. -1.
         11   -1    0    0    0    0 -0.00000000000E+00 -0.00000000000E+00 -0.45593999997E+02  0.45594000000E+02  0.51100000000E-03 0.  1.
         23    2    1    2    0    0  0.00000000000E+00  0.00000000000E+00  0.00000000000E+00  0.91188000000E+02  0.91188000000E+02 0.  0.
    9900012    2    3    3    0    0  0.15234789164E+02  0.14404881341E+02  0.38000317513E+02  0.47787267997E+02  0.19999986106E+02 0.  0.
        -12    1    3    3    0    0 -0.15234789164E+02 -0.14404881341E+02 -0.38000317513E+02  0.43400732003E+02  0.00000000000E+00 0.  1.
         11    1    4    4    0    0 -0.36496859912E+01  0.31400215013E+01  0.56254519261E+01  0.74044346507E+01  0.51100000000E-03 0.  1.
        -11    1    4    4    0    0  0.62551310525E+01  0.68317181325E+01  0.67113311202E+01  0.11438575208E+02  0.51100000000E-03 0. -1.
         12    1    4    4    0    0  0.12629344102E+02  0.44331417075E+01  0.25663534466E+02  0.28944258138E+02  0.00000000000E+00 0. -1.
</event>
<event>
 8    1  0.4042158E-011  0.9118800E+02  0.7816164E-02  0.1184000E+00
        -11   -1    0    0    0    0  0.00000000000E+00  0.00000000000E+00  0.45593999997E+02  0.45594000000E+02  0.51100000000E-03 0.  1.
         11   -1    0    0    0    0 -0.00000000000E+00 -0.00000000000E+00 -0.45593999997E+02  0.45594000000E+02  0.51100000000E-03 0. -1.
         23    2    1    2    0    0  0.00000000000E+00  0.00000000000E+00 -0.35527136788E-14  0.91188000000E+02  0.91188000000E+02 0.  0.
    9900012    2    3    3    0    0 -0.12229856785E+02  0.34483500156E+02 -0.23343994532E+02  0.47787271196E+02  0.20000000690E+02 0.  0.
         12    1    3    3    0    0  0.12229856785E+02 -0.34483500156E+02  0.23343994532E+02  0.43400728804E+02  0.00000000000E+00 0. -1.
         11    1    4    4    0    0  0.35514603721E+01  0.15568800617E+02 -0.10627229515E+02  0.19181721269E+02  0.51100000000E-03 0. -1.
        -11    1    4    4    0    0 -0.57278588232E+01  0.10189221808E+02 -0.90932765755E+01  0.14809331075E+02  0.51100000000E-03 0.  1.
        -12    1    4    4    0    0 -0.10053458334E+02  0.87254777310E+01 -0.36234884419E+01  0.13796218851E+02  0.00000000000E+00 0.  1.
</event>
<event>
 8    1  0.4042158E-011  0.9118800E+02  0.7816164E-02  0.1184000E+00
        -11   -1    0    0    0    0  0.00000000000E+00  0.00000000000E+00  0.45593999997E+02  0.45594000000E+02  0.51100000000E-03 0. -1.
         11   -1    0    0    0    0 -0.00000000000E+00 -0.00000000000E+00 -0.45593999997E+02  0.45594000000E+02  0.51100000000E-03 0.  1.
         23    2    1    2    0    0  0.00000000000E+00 -0.88817841970E-15  0.00000000000E+00  0.91188000000E+02  0.91188000000E+02 0.  0.
    9900012    2    3    3    0    0 -0.17567335815E+02 -0.77358043882E+01 -0.38925177519E+02  0.47787269568E+02  0.19999993267E+02 0.  0.
         12    1    3    3    0    0  0.17567335815E+02  0.77358043882E+01  0.38925177519E+02  0.43400730432E+02  0.00000000000E+00 0. -1.
         11    1    4    4    0    0 -0.95123451436E+00 -0.66556754905E+01 -0.14520962030E+02  0.16001912444E+02  0.51100000000E-03 0. -1.
        -11    1    4    4    0    0  0.11167312268E+01 -0.21531902567E+01 -0.17246216351E+01  0.29761782473E+01  0.51100000000E-03 0.  1.
        -12    1    4    4    0    0 -0.17732832528E+02  0.10730613590E+01 -0.22679593854E+02  0.28809178876E+02  0.00000000000E+00 0.  1.
</event>
<event>
 8    1  0.4042158E-011  0.9118800E+02  0.7816164E-02  0.1184000E+00
        -11   -1    0    0    0    0  0.00000000000E+00  0.00000000000E+00  0.45593999997E+02  0.45594000000E+02  0.51100000000E-03 0. -1.
         11   -1    0    0    0    0 -0.00000000000E+00 -0.00000000000E+00 -0.45593999997E+02  0.45594000000E+02  0.51100000000E-03 0.  1.
         23    2    1    2    0    0  0.00000000000E+00  0.00000000000E+00  0.00000000000E+00  0.91188000000E+02  0.91188000000E+02 0.  0.
    9900012    2    3    3    0    0  0.20569536086E+01 -0.89112266556E+01 -0.42426221341E+02  0.47787247980E+02  0.19999894838E+02 0.  0.
         12    1    3    3    0    0 -0.20569536086E+01  0.89112266556E+01  0.42426221341E+02  0.43400752020E+02  0.00000000000E+00 0. -1.
         11    1    4    4    0    0  0.80945912806E+01 -0.63375563221E+01 -0.10760849131E+02  0.14882301651E+02  0.51100000000E-03 0. -1.
        -11    1    4    4    0    0 -0.83199689769E-01 -0.24649727728E+01 -0.15132071917E+02  0.15331751815E+02  0.51100000000E-03 0.  1.
         12    1    4    4    0    0 -0.59544379822E+01 -0.10869756080E+00 -0.16533300293E+02  0.17573194514E+02  0.00000000000E+00 0. -1.
</event>
<event>
 8    1  0.4042158E-011  0.9118800E+02  0.7816164E-02  0.1184000E+00
        -11   -1    0    0    0    0  0.00000000000E+00  0.00000000000E+00  0.45593999997E+02  0.45594000000E+02  0.51100000000E-03 0.  1.
         11   -1    0    0    0    0 -0.00000000000E+00 -0.00000000000E+00 -0.45593999997E+02  0.45594000000E+02  0.51100000000E-03 0. -1.
         23    2    1    2    0    0  0.00000000000E+00  0.00000000000E+00 -0.44408920985E-15  0.91188000000E+02  0.91188000000E+02 0.  0.
    9900012    2    3    3    0    0 -0.41495138143E+02 -0.12479128301E+02  0.24593089986E+01  0.47787270359E+02  0.19999996874E+02 0.  0.
        -12    1    3    3    0    0  0.41495138143E+02  0.12479128301E+02 -0.24593089986E+01  0.43400729641E+02  0.00000000000E+00 0.  1.
         11    1    4    4    0    0 -0.20543843108E+02 -0.23936338091E+01 -0.74307531421E+01  0.21977148700E+02  0.51100000000E-03 0.  1.
        -11    1    4    4    0    0 -0.55722792796E+01 -0.12003377312E+01  0.50657158953E+00  0.57225625445E+01  0.51100000000E-03 0. -1.
        -12    1    4    4    0    0 -0.15379015755E+02 -0.88851567603E+01  0.93834905511E+01  0.20087559114E+02  0.00000000000E+00 0.  1.
</event>
<event>
 8    1  0.4042158E-011  0.9118800E+02  0.7816164E-02  0.1184000E+00
        -11   -1    0    0    0    0  0.00000000000E+00  0.00000000000E+00  0.45593999997E+02  0.45594000000E+02  0.51100000000E-03 0. -1.
         11   -1    0    0    0    0 -0.00000000000E+00 -0.00000000000E+00 -0.45593999997E+02  0.45594000000E+02  0.51100000000E-03 0.  1.
         23    2    1    2    0    0  0.35527136788E-14  0.35527136788E-14  0.00000000000E+00  0.91188000000E+02  0.91188000000E+02 0.  0.
    9900012    2    3    3    0    0 -0.26638913808E+02 -0.31076206135E+02  0.14431243324E+02  0.47787273042E+02  0.20000009108E+02 0.  0.
        -12    1    3    3    0    0  0.26638913808E+02  0.31076206135E+02 -0.14431243324E+02  0.43400726958E+02  0.00000000000E+00 0.  1.
         11    1    4    4    0    0 -0.19953813814E+02 -0.17220338806E+02  0.19164642552E+01  0.26426645452E+02  0.51100000000E-03 0. -1.
        -11    1    4    4    0    0  0.16337879239E+00  0.39921523433E+00 -0.65226585278E+00  0.78199516427E+00  0.51100000000E-03 0.  1.
        -12    1    4    4    0    0 -0.68484787859E+01 -0.14255082563E+02  0.13167044922E+02  0.20578632426E+02  0.00000000000E+00 0.  1.
</event>
<event>
 8    1  0.4042158E-011  0.9118800E+02  0.7816164E-02  0.1184000E+00
        -11   -1    0    0    0    0  0.00000000000E+00  0.00000000000E+00  0.45593999997E+02  0.45594000000E+02  0.51100000000E-03 0.  1.
         11   -1    0    0    0    0 -0.00000000000E+00 -0.00000000000E+00 -0.45593999997E+02  0.45594000000E+02  0.51100000000E-03 0. -1.
         23    2    1    2    0    0  0.00000000000E+00 -0.44408920985E-15 -0.17763568394E-14  0.91188000000E+02  0.91188000000E+02 0.  0.
    9900012    2    3    3    0    0 -0.40951992501E+02 -0.46971332472E+00 -0.14364438086E+02  0.47787269569E+02  0.19999993272E+02 0.  0.
        -12    1    3    3    0    0  0.40951992501E+02  0.46971332472E+00  0.14364438086E+02  0.43400730431E+02  0.00000000000E+00 0.  1.
         11    1    4    4    0    0 -0.64969496910E+01 -0.55636985298E+01  0.12475534188E+01  0.86441590922E+01  0.51100000000E-03 0. -1.
        -11    1    4    4    0    0  0.89410274680E-01  0.93050762358E+00 -0.11001800123E+01  0.14436879702E+01  0.51100000000E-03 0.  1.
        -12    1    4    4    0    0 -0.34544453085E+02  0.41634775815E+01 -0.14511811493E+02  0.37699422506E+02  0.00000000000E+00 0.  1.
</event>
<event>
 8    1  0.4042158E-011  0.9118800E+02  0.7816164E-02  0.1184000E+00
        -11   -1    0    0    0    0  0.00000000000E+00  0.00000000000E+00  0.45593999997E+02  0.45594000000E+02  0.51100000000E-03 0. -1.
         11   -1    0    0    0    0 -0.00000000000E+00 -0.00000000000E+00 -0.45593999997E+02  0.45594000000E+02  0.51100000000E-03 0.  1.
         23    2    1    2    0    0  0.00000000000E+00  0.00000000000E+00 -0.71054273576E-14  0.91188000000E+02  0.91188000000E+02 0.  0.
    9900012    2    3    3    0    0 -0.97010206468E+01  0.72884391224E+01 -0.41670026948E+02  0.47787282353E+02  0.20000051561E+02 0.  0.
         12    1    3    3    0    0  0.97010206468E+01 -0.72884391224E+01  0.41670026948E+02  0.43400717647E+02  0.00000000000E+00 0. -1.
         11    1    4    4    0    0 -0.35645291369E+01  0.10118750579E+01  0.10208040911E+01  0.38434099904E+01  0.51100000000E-03 0. -1.
        -11    1    4    4    0    0  0.32415246189E+00  0.23413180564E+01 -0.16965042512E+02  0.17128908685E+02  0.51100000000E-03 0.  1.
        -12    1    4    4    0    0 -0.64606439718E+01  0.39352460080E+01 -0.25725788527E+02  0.26814963677E+02  0.00000000000E+00 0.  1.
</event>
<event>
 8    1  0.4042158E-011  0.9118800E+02  0.7816164E-02  0.1184000E+00
        -11   -1    0    0    0    0  0.00000000000E+00  0.00000000000E+00  0.45593999997E+02  0.45594000000E+02  0.51100000000E-03 0. -1.
         11   -1    0    0    0    0 -0.00000000000E+00 -0.00000000000E+00 -0.45593999997E+02  0.45594000000E+02  0.51100000000E-03 0.  1.
         23    2    1    2    0    0  0.00000000000E+00  0.00000000000E+00  0.00000000000E+00  0.91188000000E+02  0.91188000000E+02 0.  0.
    9900012    2    3    3    0    0  0.43935028887E+01  0.25410444553E+02 -0.34908878420E+02  0.47787270138E+02  0.19999995868E+02 0.  0.
         12    1    3    3    0    0 -0.43935028887E+01 -0.25410444553E+02  0.34908878420E+02  0.43400729862E+02  0.00000000000E+00 0. -1.
         11    1    4    4    0    0  0.29466464935E+01  0.92701815019E+01 -0.50953968725E+01  0.10980986303E+02  0.51100000000E-03 0. -1.
        -11    1    4    4    0    0 -0.33810888336E+01  0.59891656102E+01 -0.25825524616E+01  0.73465259739E+01  0.51100000000E-03 0.  1.
        -12    1    4    4    0    0  0.48279452288E+01  0.10151097441E+02 -0.27230929086E+02  0.29459757861E+02  0.00000000000E+00 0.  1.
</event>
<event>
 8    1  0.4042158E-011  0.9118800E+02  0.7816164E-02  0.1184000E+00
        -11   -1    0    0    0    0  0.00000000000E+00  0.00000000000E+00  0.45593999997E+02  0.45594000000E+02  0.51100000000E-03 0. -1.
         11   -1    0    0    0    0 -0.00000000000E+00 -0.00000000000E+00 -0.45593999997E+02  0.45594000000E+02  0.51100000000E-03 0.  1.
         23    2    1    2    0    0 -0.71054273576E-14  0.17763568394E-14  0.35527136788E-14  0.91188000000E+02  0.91188000000E+02 0.  0.
    9900012    2    3    3    0    0  0.36015485166E+02 -0.15715327864E+02 -0.18426524881E+02  0.47787268200E+02  0.19999987029E+02 0.  0.
         12    1    3    3    0    0 -0.36015485166E+02  0.15715327864E+02  0.18426524881E+02  0.43400731800E+02  0.00000000000E+00 0. -1.
         11    1    4    4    0    0  0.18868813704E+02 -0.52659307384E+01 -0.71821596085E+01  0.20864936473E+02  0.51100000000E-03 0.  1.
        -11    1    4    4    0    0  0.14427982713E+02 -0.92772071391E+01 -0.14544028043E+02  0.22489153151E+02  0.51100000000E-03 0. -1.
         12    1    4    4    0    0  0.27186887498E+01 -0.11721899868E+01  0.32996627707E+01  0.44331785757E+01  0.00000000000E+00 0. -1.
</event>
<event>
 8    1  0.4042158E-011  0.9118800E+02  0.7816164E-02  0.1184000E+00
        -11   -1    0    0    0    0  0.00000000000E+00  0.00000000000E+00  0.45593999997E+02  0.45594000000E+02  0.51100000000E-03 0. -1.
         11   -1    0    0    0    0 -0.00000000000E+00 -0.00000000000E+00 -0.45593999997E+02  0.45594000000E+02  0.51100000000E-03 0.  1.
         23    2    1    2    0    0  0.00000000000E+00  0.17763568394E-14  0.00000000000E+00  0.91188000000E+02  0.91188000000E+02 0.  0.
    9900012    2    3    3    0    0 -0.11174494645E+02  0.11681465516E+02  0.40277750321E+02  0.47787272608E+02  0.20000007130E+02 0.  0.
        -12    1    3    3    0    0  0.11174494645E+02 -0.11681465516E+02 -0.40277750321E+02  0.43400727392E+02  0.00000000000E+00 0.  1.
         11    1    4    4    0    0 -0.40449822588E+01  0.89788761251E+01  0.17084879693E+02  0.19719919177E+02  0.51100000000E-03 0. -1.
        -11    1    4    4    0    0 -0.77621518579E+01  0.75864933018E+01  0.15155600174E+02  0.18641300893E+02  0.51100000000E-03 0.  1.
        -12    1    4    4    0    0  0.63263947134E+00 -0.48839039104E+01  0.80372704540E+01  0.94260525384E+01  0.00000000000E+00 0.  1.
</event>
<event>
 8    1  0.4042158E-011  0.9118800E+02  0.7816164E-02  0.1184000E+00
        -11   -1    0    0    0    0  0.00000000000E+00  0.00000000000E+00  0.45593999997E+02  0.45594000000E+02  0.51100000000E-03 0. -1.
         11   -1    0    0    0    0 -0.00000000000E+00 -0.00000000000E+00 -0.45593999997E+02  0.45594000000E+02  0.51100000000E-03 0.  1.
         23    2    1    2    0    0  0.00000000000E+00  0.00000000000E+00  0.00000000000E+00  0.91188000000E+02  0.91188000000E+02 0.  0.
    9900012    2    3    3    0    0  0.36731293601E+01 -0.26227253656E+02 -0.34384042540E+02  0.47787273105E+02  0.20000009395E+02 0.  0.
         12    1    3    3    0    0 -0.36731293601E+01  0.26227253656E+02  0.34384042540E+02  0.43400726895E+02  0.00000000000E+00 0. -1.
         11    1    4    4    0    0 -0.18925233575E+00 -0.47162338508E+01 -0.88058926186E+01  0.99911172175E+01  0.51100000000E-03 0. -1.
        -11    1    4    4    0    0 -0.25292516803E+01 -0.42940910954E+01 -0.16642403142E+02  0.17372562132E+02  0.51100000000E-03 0.  1.
         12    1    4    4    0    0  0.63916333762E+01 -0.17216928710E+02 -0.89357467785E+01  0.20423593756E+02  0.00000000000E+00 0. -1.
</event>
<event>
 8    1  0.4042158E-011  0.9118800E+02  0.7816164E-02  0.1184000E+00
        -11   -1    0    0    0    0  0.00000000000E+00  0.00000000000E+00  0.45593999997E+02  0.45594000000E+02  0.51100000000E-03 0. -1.
         11   -1    0    0    0    0 -0.00000000000E+00 -0.00000000000E+00 -0.45593999997E+02  0.45594000000E+02  0.51100000000E-03 0.  1.
         23    2    1    2    0    0  0.00000000000E+00  0.00000000000E+00  0.00000000000E+00  0.91188000000E+02  0.91188000000E+02 0.  0.
    9900012    2    3    3    0    0 -0.95294837449E+01  0.41612896436E+02 -0.78216961509E+01  0.47787272576E+02  0.20000006985E+02 0.  0.
        -12    1    3    3    0    0  0.95294837449E+01 -0.41612896436E+02  0.78216961509E+01  0.43400727424E+02  0.00000000000E+00 0.  1.
         11    1    4    4    0    0 -0.77627716612E+01  0.19213937872E+02 -0.52926517246E+01  0.21388038595E+02  0.51100000000E-03 0. -1.
        -11    1    4    4    0    0 -0.22552829938E+01  0.14186926090E+01  0.36532102738E+01  0.45216076419E+01  0.51100000000E-03 0.  1.
         12    1    4    4    0    0  0.48857091010E+00  0.20980265955E+02 -0.61822547001E+01  0.21877626339E+02  0.00000000000E+00 0. -1.
</event>
<event>
 8    1  0.4042158E-011  0.9118800E+02  0.7816164E-02  0.1184000E+00
        -11   -1    0    0    0    0  0.00000000000E+00  0.00000000000E+00  0.45593999997E+02  0.45594000000E+02  0.51100000000E-03 0. -1.
         11   -1    0    0    0    0 -0.00000000000E+00 -0.00000000000E+00 -0.45593999997E+02  0.45594000000E+02  0.51100000000E-03 0.  1.
         23    2    1    2    0    0  0.00000000000E+00  0.00000000000E+00  0.00000000000E+00  0.91188000000E+02  0.91188000000E+02 0.  0.
    9900012    2    3    3    0    0 -0.23938569431E+02 -0.62726507468E+01 -0.35654193181E+02  0.47787277135E+02  0.20000027770E+02 0.  0.
         12    1    3    3    0    0  0.23938569431E+02  0.62726507468E+01  0.35654193181E+02  0.43400722865E+02  0.00000000000E+00 0. -1.
         11    1    4    4    0    0 -0.82280964812E+01  0.88723172291E+00 -0.95025561343E+01  0.12601084286E+02  0.51100000000E-03 0. -1.
        -11    1    4    4    0    0 -0.99783544868E+01  0.16499119882E+01 -0.21363248546E+02  0.23636373591E+02  0.51100000000E-03 0.  1.
         12    1    4    4    0    0 -0.57321184627E+01 -0.88097944579E+01 -0.47883885010E+01  0.11549819258E+02  0.00000000000E+00 0. -1.
</event>
<event>
 8    1  0.4042158E-011  0.9118800E+02  0.7816164E-02  0.1184000E+00
        -11   -1    0    0    0    0  0.00000000000E+00  0.00000000000E+00  0.45593999997E+02  0.45594000000E+02  0.51100000000E-03 0. -1.
         11   -1    0    0    0    0 -0.00000000000E+00 -0.00000000000E+00 -0.45593999997E+02  0.45594000000E+02  0.51100000000E-03 0.  1.
         23    2    1    2    0    0  0.00000000000E+00  0.17763568394E-14  0.35527136788E-14  0.91188000000E+02  0.91188000000E+02 0.  0.
    9900012    2    3    3    0    0  0.33942287049E+02 -0.11817668085E+02 -0.24328730866E+02  0.47787271035E+02  0.19999999958E+02 0.  0.
         12    1    3    3    0    0 -0.33942287049E+02  0.11817668085E+02  0.24328730866E+02  0.43400728965E+02  0.00000000000E+00 0. -1.
         11    1    4    4    0    0  0.19742374882E+02 -0.27905485151E+01 -0.82141417785E+01  0.21564337514E+02  0.51100000000E-03 0.  1.
        -11    1    4    4    0    0  0.48473261034E+01  0.98860116924E+00  0.15713363281E+00  0.49496054251E+01  0.51100000000E-03 0. -1.
         12    1    4    4    0    0  0.93525860643E+01 -0.10015720739E+02 -0.16271722720E+02  0.21273328097E+02  0.00000000000E+00 0. -1.
</event>
<event>
 8    1  0.4042158E-011  0.9118800E+02  0.7816164E-02  0.1184000E+00
        -11   -1    0    0    0    0  0.00000000000E+00  0.00000000000E+00  0.45593999997E+02  0.45594000000E+02  0.51100000000E-03 0. -1.
         11   -1    0    0    0    0 -0.00000000000E+00 -0.00000000000E+00 -0.45593999997E+02  0.45594000000E+02  0.51100000000E-03 0.  1.
         23    2    1    2    0    0 -0.35527136788E-14  0.35527136788E-14  0.35527136788E-14  0.91188000000E+02  0.91188000000E+02 0.  0.
    9900012    2    3    3    0    0 -0.27948424863E+02  0.20193388681E+02  0.26357843668E+02  0.47787270495E+02  0.19999997494E+02 0.  0.
        -12    1    3    3    0    0  0.27948424863E+02 -0.20193388681E+02 -0.26357843668E+02  0.43400729505E+02  0.00000000000E+00 0.  1.
         11    1    4    4    0    0 -0.53549171158E+01  0.20498110258E+00  0.13573917681E+02  0.14593436746E+02  0.51100000000E-03 0. -1.
        -11    1    4    4    0    0 -0.54097712174E+01  0.69810305134E+01  0.56842481256E+01  0.10502908581E+02  0.51100000000E-03 0.  1.
         12    1    4    4    0    0 -0.17183736530E+02  0.13007377065E+02  0.70996778611E+01  0.22690925168E+02  0.00000000000E+00 0. -1.
</event>
<event>
 8    1  0.4042158E-011  0.9118800E+02  0.7816164E-02  0.1184000E+00
        -11   -1    0    0    0    0  0.00000000000E+00  0.00000000000E+00  0.45593999997E+02  0.45594000000E+02  0.51100000000E-03 0.  1.
         11   -1    0    0    0    0 -0.00000000000E+00 -0.00000000000E+00 -0.45593999997E+02  0.45594000000E+02  0.51100000000E-03 0. -1.
         23    2    1    2    0    0  0.00000000000E+00  0.00000000000E+00  0.17763568394E-14  0.91188000000E+02  0.91188000000E+02 0.  0.
    9900012    2    3    3    0    0 -0.34135295788E+02 -0.25279094417E+02  0.89091237907E+01  0.47787268211E+02  0.19999987083E+02 0.  0.
        -12    1    3    3    0    0  0.34135295788E+02  0.25279094417E+02 -0.89091237907E+01  0.43400731789E+02  0.00000000000E+00 0.  1.
         11    1    4    4    0    0 -0.14724121439E+02 -0.17030635825E+02  0.11337667998E+02  0.25206844797E+02  0.51100000000E-03 0. -1.
        -11    1    4    4    0    0  0.80306413004E-01 -0.71188304916E+00  0.11730859537E+01  0.13745390178E+01  0.51100000000E-03 0.  1.
         12    1    4    4    0    0 -0.19491480762E+02 -0.75365755428E+01 -0.36016301606E+01  0.21205884396E+02  0.00000000000E+00 0. -1.
</event>
<event>
 8    1  0.4042158E-011  0.9118800E+02  0.7816164E-02  0.1184000E+00
        -11   -1    0    0    0    0  0.00000000000E+00  0.00000000000E+00  0.45593999997E+02  0.45594000000E+02  0.51100000000E-03 0. -1.
         11   -1    0    0    0    0 -0.00000000000E+00 -0.00000000000E+00 -0.45593999997E+02  0.45594000000E+02  0.51100000000E-03 0.  1.
         23    2    1    2    0    0  0.00000000000E+00  0.00000000000E+00  0.00000000000E+00  0.91188000000E+02  0.91188000000E+02 0.  0.
    9900012    2    3    3    0    0  0.14305255158E+02  0.15233820060E+01  0.40947083399E+02  0.47787255113E+02  0.19999927360E+02 0.  0.
        -12    1    3    3    0    0 -0.14305255158E+02 -0.15233820060E+01 -0.40947083399E+02  0.43400744887E+02  0.00000000000E+00 0.  1.
         11    1    4    4    0    0  0.46854534120E+01  0.38147353490E+01  0.13921380095E+02  0.15175984432E+02  0.51100000000E-03 0. -1.
        -11    1    4    4    0    0  0.25903205178E+01  0.45546322560E+01  0.17932330988E+01  0.55380610849E+01  0.51100000000E-03 0.  1.
         12    1    4    4    0    0  0.70294812280E+01 -0.68459855990E+01  0.25232470205E+02  0.27073209596E+02  0.00000000000E+00 0. -1.
</event>
<event>
 8    1  0.4042158E-011  0.9118800E+02  0.7816164E-02  0.1184000E+00
        -11   -1    0    0    0    0  0.00000000000E+00  0.00000000000E+00  0.45593999997E+02  0.45594000000E+02  0.51100000000E-03 0. -1.
         11   -1    0    0    0    0 -0.00000000000E+00 -0.00000000000E+00 -0.45593999997E+02  0.45594000000E+02  0.51100000000E-03 0.  1.
         23    2    1    2    0    0 -0.88817841970E-15 -0.17763568394E-14  0.00000000000E+00  0.91188000000E+02  0.91188000000E+02 0.  0.
    9900012    2    3    3    0    0  0.46915239114E+01 -0.99486217331E+01 -0.41983779990E+02  0.47787271282E+02  0.20000001082E+02 0.  0.
         12    1    3    3    0    0 -0.46915239114E+01  0.99486217331E+01  0.41983779990E+02  0.43400728718E+02  0.00000000000E+00 0. -1.
         11    1    4    4    0    0 -0.29081371608E+01 -0.27245281353E+01 -0.16749743890E+02  0.17217265635E+02  0.51100000000E-03 0. -1.
        -11    1    4    4    0    0  0.20806721510E+01 -0.76852859024E+01 -0.23429212855E+02  0.24745117322E+02  0.51100000000E-03 0.  1.
         12    1    4    4    0    0  0.55189889212E+01  0.46119230449E+00 -0.18048232453E+01  0.58248883252E+01  0.00000000000E+00 0. -1.
</event>
<event>
 8    1  0.4042158E-011  0.9118800E+02  0.7816164E-02  0.1184000E+00
        -11   -1    0    0    0    0  0.00000000000E+00  0.00000000000E+00  0.45593999997E+02  0.45594000000E+02  0.51100000000E-03 0. -1.
         11   -1    0    0    0    0 -0.00000000000E+00 -0.00000000000E+00 -0.45593999997E+02  0.45594000000E+02  0.51100000000E-03 0.  1.
         23    2    1    2    0    0 -0.11102230246E-15  0.00000000000E+00  0.00000000000E+00  0.91188000000E+02  0.91188000000E+02 0.  0.
    9900012    2    3    3    0    0 -0.51435976648E+00 -0.37738427032E+02 -0.21428247950E+02  0.47787271308E+02  0.20000001200E+02 0.  0.
         12    1    3    3    0    0  0.51435976648E+00  0.37738427032E+02  0.21428247950E+02  0.43400728692E+02  0.00000000000E+00 0. -1.
         11    1    4    4    0    0 -0.17083241211E+01 -0.16498956605E+01 -0.61548990507E+01  0.65972198371E+01  0.51100000000E-03 0. -1.
        -11    1    4    4    0    0  0.47257985104E+01 -0.54507634425E+01 -0.12950888783E+01  0.73294780940E+01  0.51100000000E-03 0.  1.
        -12    1    4    4    0    0 -0.35318341557E+01 -0.30637767929E+02 -0.13978260021E+02  0.33860573377E+02  0.00000000000E+00 0.  1.
</event>
<event>
 8    1  0.4042158E-011  0.9118800E+02  0.7816164E-02  0.1184000E+00
        -11   -1    0    0    0    0  0.00000000000E+00  0.00000000000E+00  0.45593999997E+02  0.45594000000E+02  0.51100000000E-03 0. -1.
         11   -1    0    0    0    0 -0.00000000000E+00 -0.00000000000E+00 -0.45593999997E+02  0.45594000000E+02  0.51100000000E-03 0.  1.
         23    2    1    2    0    0  0.44408920985E-15  0.00000000000E+00  0.71054273576E-14  0.91188000000E+02  0.91188000000E+02 0.  0.
    9900012    2    3    3    0    0  0.22853874193E+01  0.14109754538E+02  0.40979401208E+02  0.47787314612E+02  0.20000198642E+02 0.  0.
        -12    1    3    3    0    0 -0.22853874193E+01 -0.14109754538E+02 -0.40979401208E+02  0.43400685388E+02  0.00000000000E+00 0.  1.
         11    1    4    4    0    0  0.64614750437E+01  0.91369088606E+01  0.33633679431E+02  0.35446553508E+02  0.51100000000E-03 0. -1.
        -11    1    4    4    0    0  0.20563257781E+01  0.21967219215E+01  0.30149969809E+01  0.42596091326E+01  0.51100000000E-03 0.  1.
        -12    1    4    4    0    0 -0.62324134026E+01  0.27761237559E+01  0.43307247954E+01  0.80811519713E+01  0.00000000000E+00 0.  1.
</event>
<event>
 8    1  0.4042158E-011  0.9118800E+02  0.7816164E-02  0.1184000E+00
        -11   -1    0    0    0    0  0.00000000000E+00  0.00000000000E+00  0.45593999997E+02  0.45594000000E+02  0.51100000000E-03 0.  1.
         11   -1    0    0    0    0 -0.00000000000E+00 -0.00000000000E+00 -0.45593999997E+02  0.45594000000E+02  0.51100000000E-03 0. -1.
         23    2    1    2    0    0  0.00000000000E+00  0.71054273576E-14 -0.44408920985E-15  0.91188000000E+02  0.91188000000E+02 0.  0.
    9900012    2    3    3    0    0 -0.25448543861E+02 -0.35055323240E+02 -0.26680900985E+01  0.47787276770E+02  0.20000026105E+02 0.  0.
         12    1    3    3    0    0  0.25448543861E+02  0.35055323240E+02  0.26680900985E+01  0.43400723230E+02  0.00000000000E+00 0. -1.
         11    1    4    4    0    0 -0.31932208492E+01 -0.20483745393E+01 -0.46020115997E+01  0.59641435823E+01  0.51100000000E-03 0. -1.
        -11    1    4    4    0    0 -0.77919902218E+00 -0.96425330347E+01 -0.18950386783E+01  0.98578276662E+01  0.51100000000E-03 0.  1.
         12    1    4    4    0    0 -0.21476123990E+02 -0.23364415666E+02  0.38289601795E+01  0.31965305522E+02  0.00000000000E+00 0. -1.
</event>
<event>
 8    1  0.4042158E-011  0.9118800E+02  0.7816164E-02  0.1184000E+00
        -11   -1    0    0    0    0  0.00000000000E+00  0.00000000000E+00  0.45593999997E+02  0.45594000000E+02  0.51100000000E-03 0. -1.
         11   -1    0    0    0    0 -0.00000000000E+00 -0.00000000000E+00 -0.45593999997E+02  0.45594000000E+02  0.51100000000E-03 0.  1.
         23    2    1    2    0    0  0.00000000000E+00  0.00000000000E+00  0.00000000000E+00  0.91188000000E+02  0.91188000000E+02 0.  0.
    9900012    2    3    3    0    0  0.97428997815E+01 -0.72436393876E+01 -0.41668078376E+02  0.47787272318E+02  0.20000005809E+02 0.  0.
         12    1    3    3    0    0 -0.97428997815E+01  0.72436393876E+01  0.41668078376E+02  0.43400727682E+02  0.00000000000E+00 0. -1.
         11    1    4    4    0    0 -0.40450365923E+01 -0.35582927736E+00 -0.12303071715E+02  0.12955867759E+02  0.51100000000E-03 0. -1.
        -11    1    4    4    0    0  0.49154068940E+00 -0.97219772861E-01 -0.11663854243E+02  0.11674611771E+02  0.51100000000E-03 0.  1.
        -12    1    4    4    0    0  0.13296395684E+02 -0.67905903374E+01 -0.17701152418E+02  0.23156792789E+02  0.00000000000E+00 0.  1.
</event>
<event>
 8    1  0.4042158E-011  0.9118800E+02  0.7816164E-02  0.1184000E+00
        -11   -1    0    0    0    0  0.00000000000E+00  0.00000000000E+00  0.45593999997E+02  0.45594000000E+02  0.51100000000E-03 0.  1.
         11   -1    0    0    0    0 -0.00000000000E+00 -0.00000000000E+00 -0.45593999997E+02  0.45594000000E+02  0.51100000000E-03 0. -1.
         23    2    1    2    0    0 -0.35527136788E-14  0.35527136788E-14 -0.13877787808E-15  0.91188000000E+02  0.91188000000E+02 0.  0.
    9900012    2    3    3    0    0  0.31446197746E+02  0.29912298806E+02  0.11615986957E+00  0.47787280356E+02  0.20000042456E+02 0.  0.
        -12    1    3    3    0    0 -0.31446197746E+02 -0.29912298806E+02 -0.11615986957E+00  0.43400719644E+02  0.00000000000E+00 0.  1.
         11    1    4    4    0    0  0.50230291118E+01  0.20262002436E+01  0.12976139060E+01  0.55695700907E+01  0.51100000000E-03 0. -1.
        -11    1    4    4    0    0  0.20106795499E+02  0.25248566138E+02  0.53963558437E+01  0.32724516404E+02  0.51100000000E-03 0.  1.
         12    1    4    4    0    0  0.63163731352E+01  0.26375324244E+01 -0.65778098800E+01  0.94931938614E+01  0.00000000000E+00 0. -1.
</event>
<event>
 8    1  0.4042158E-011  0.9118800E+02  0.7816164E-02  0.1184000E+00
        -11   -1    0    0    0    0  0.00000000000E+00  0.00000000000E+00  0.45593999997E+02  0.45594000000E+02  0.51100000000E-03 0. -1.
         11   -1    0    0    0    0 -0.00000000000E+00 -0.00000000000E+00 -0.45593999997E+02  0.45594000000E+02  0.51100000000E-03 0.  1.
         23    2    1    2    0    0  0.00000000000E+00 -0.17763568394E-14  0.00000000000E+00  0.91188000000E+02  0.91188000000E+02 0.  0.
    9900012    2    3    3    0    0 -0.18856137268E+02 -0.10762538708E+02 -0.37579743526E+02  0.47787271025E+02  0.19999999910E+02 0.  0.
         12    1    3    3    0    0  0.18856137268E+02  0.10762538708E+02  0.37579743526E+02  0.43400728975E+02  0.00000000000E+00 0. -1.
         11    1    4    4    0    0  0.69170266719E-01 -0.15652295698E+01  0.19125760288E+01  0.24723825471E+01  0.51100000000E-03 0. -1.
        -11    1    4    4    0    0 -0.14893788460E+01 -0.32936331394E+01 -0.44631996573E+01  0.57433805416E+01  0.51100000000E-03 0.  1.
        -12    1    4    4    0    0 -0.17435928688E+02 -0.59036759987E+01 -0.35029119898E+02  0.39571507936E+02  0.00000000000E+00 0.  1.
</event>
<event>
 8    1  0.4042158E-011  0.9118800E+02  0.7816164E-02  0.1184000E+00
        -11   -1    0    0    0    0  0.00000000000E+00  0.00000000000E+00  0.45593999997E+02  0.45594000000E+02  0.51100000000E-03 0. -1.
         11   -1    0    0    0    0 -0.00000000000E+00 -0.00000000000E+00 -0.45593999997E+02  0.45594000000E+02  0.51100000000E-03 0.  1.
         23    2    1    2    0    0  0.00000000000E+00  0.00000000000E+00  0.71054273576E-14  0.91188000000E+02  0.91188000000E+02 0.  0.
    9900012    2    3    3    0    0 -0.54600417184E+00  0.13389560599E+02 -0.41280076981E+02  0.47787271790E+02  0.20000003399E+02 0.  0.
         12    1    3    3    0    0  0.54600417184E+00 -0.13389560599E+02  0.41280076981E+02  0.43400728210E+02  0.00000000000E+00 0. -1.
         11    1    4    4    0    0 -0.22034139428E+01  0.17818552974E+01 -0.24330706450E+02  0.24495169277E+02  0.51100000000E-03 0. -1.
        -11    1    4    4    0    0  0.22275398231E+01 -0.15930803488E+01 -0.24393212359E+01  0.36674414807E+01  0.51100000000E-03 0.  1.
        -12    1    4    4    0    0 -0.57013005209E+00  0.13200785651E+02 -0.14510049296E+02  0.19624661032E+02  0.00000000000E+00 0.  1.
</event>
<event>
 8    1  0.4042158E-011  0.9118800E+02  0.7816164E-02  0.1184000E+00
        -11   -1    0    0    0    0  0.00000000000E+00  0.00000000000E+00  0.45593999997E+02  0.45594000000E+02  0.51100000000E-03 0. -1.
         11   -1    0    0    0    0 -0.00000000000E+00 -0.00000000000E+00 -0.45593999997E+02  0.45594000000E+02  0.51100000000E-03 0.  1.
         23    2    1    2    0    0  0.10824674490E-14  0.00000000000E+00  0.71054273576E-14  0.91188000000E+02  0.91188000000E+02 0.  0.
    9900012    2    3    3    0    0  0.17903063128E+00  0.13123125802E+02  0.41368764682E+02  0.47787272194E+02  0.20000005240E+02 0.  0.
        -12    1    3    3    0    0 -0.17903063128E+00 -0.13123125802E+02 -0.41368764682E+02  0.43400727806E+02  0.00000000000E+00 0.  1.
         11    1    4    4    0    0  0.66379078431E+00  0.10488764344E+01  0.28867483892E+01  0.31423043302E+01  0.51100000000E-03 0. -1.
        -11    1    4    4    0    0  0.75136512328E+01  0.13836796806E+01  0.22816810990E+02  0.24061928192E+02  0.51100000000E-03 0.  1.
        -12    1    4    4    0    0 -0.79984113858E+01  0.10690569687E+02  0.15665205303E+02  0.20583039671E+02  0.00000000000E+00 0.  1.
</event>
<event>
 8    1  0.4042158E-011  0.9118800E+02  0.7816164E-02  0.1184000E+00
        -11   -1    0    0    0    0  0.00000000000E+00  0.00000000000E+00  0.45593999997E+02  0.45594000000E+02  0.51100000000E-03 0. -1.
         11   -1    0    0    0    0 -0.00000000000E+00 -0.00000000000E+00 -0.45593999997E+02  0.45594000000E+02  0.51100000000E-03 0.  1.
         23    2    1    2    0    0 -0.35527136788E-14 -0.35527136788E-14  0.00000000000E+00  0.91188000000E+02  0.91188000000E+02 0.  0.
    9900012    2    3    3    0    0  0.17713133249E+02 -0.21993495670E+02  0.32956856819E+02  0.47787270137E+02  0.19999995861E+02 0.  0.
        -12    1    3    3    0    0 -0.17713133249E+02  0.21993495670E+02 -0.32956856819E+02  0.43400729863E+02  0.00000000000E+00 0.  1.
         11    1    4    4    0    0  0.11036789113E+02 -0.12171488917E+02  0.72818123751E+01  0.17971662364E+02  0.51100000000E-03 0. -1.
        -11    1    4    4    0    0  0.37508473515E+01  0.95811413430E+00  0.50860823289E+01  0.63917972641E+01  0.51100000000E-03 0.  1.
         12    1    4    4    0    0  0.29254967843E+01 -0.10780120887E+02  0.20588962115E+02  0.23423810509E+02  0.00000000000E+00 0. -1.
</event>
<event>
 8    1  0.4042158E-011  0.9118800E+02  0.7816164E-02  0.1184000E+00
        -11   -1    0    0    0    0  0.00000000000E+00  0.00000000000E+00  0.45593999997E+02  0.45594000000E+02  0.51100000000E-03 0. -1.
         11   -1    0    0    0    0 -0.00000000000E+00 -0.00000000000E+00 -0.45593999997E+02  0.45594000000E+02  0.51100000000E-03 0.  1.
         23    2    1    2    0    0  0.00000000000E+00  0.00000000000E+00  0.00000000000E+00  0.91188000000E+02  0.91188000000E+02 0.  0.
    9900012    2    3    3    0    0 -0.21438104047E+02 -0.23029229932E+02 -0.29894575129E+02  0.47787270069E+02  0.19999995554E+02 0.  0.
         12    1    3    3    0    0  0.21438104047E+02  0.23029229932E+02  0.29894575129E+02  0.43400729931E+02  0.00000000000E+00 0. -1.
         11    1    4    4    0    0 -0.15048949596E+02 -0.25300228534E+02 -0.22945704895E+02  0.37323957738E+02  0.51100000000E-03 0.  1.
        -11    1    4    4    0    0 -0.34498798419E-01  0.24428927204E+00 -0.23467645578E+01  0.23596973463E+01  0.51100000000E-03 0. -1.
        -12    1    4    4    0    0 -0.63546556533E+01  0.20267093304E+01 -0.46021056754E+01  0.81036149853E+01  0.00000000000E+00 0.  1.
</event>
<event>
 8    1  0.4042158E-011  0.9118800E+02  0.7816164E-02  0.1184000E+00
        -11   -1    0    0    0    0  0.00000000000E+00  0.00000000000E+00  0.45593999997E+02  0.45594000000E+02  0.51100000000E-03 0. -1.
         11   -1    0    0    0    0 -0.00000000000E+00 -0.00000000000E+00 -0.45593999997E+02  0.45594000000E+02  0.51100000000E-03 0.  1.
         23    2    1    2    0    0 -0.71054273576E-14 -0.35527136788E-14  0.71054273576E-14  0.91188000000E+02  0.91188000000E+02 0.  0.
    9900012    2    3    3    0    0 -0.23298332104E+02 -0.25837116158E+02  0.25947149902E+02  0.47787269151E+02  0.19999991369E+02 0.  0.
        -12    1    3    3    0    0  0.23298332104E+02  0.25837116158E+02 -0.25947149902E+02  0.43400730849E+02  0.00000000000E+00 0.  1.
         11    1    4    4    0    0 -0.19776528054E+02 -0.16527166666E+02  0.13007256101E+02  0.28869482354E+02  0.51100000000E-03 0. -1.
        -11    1    4    4    0    0 -0.18168286315E+01 -0.10119785374E+02  0.13480930963E+02  0.16954244960E+02  0.51100000000E-03 0.  1.
         12    1    4    4    0    0 -0.17049754185E+01  0.80983588201E+00 -0.54103716235E+00  0.19635418367E+01  0.00000000000E+00 0. -1.
</event>
<event>
 8    1  0.4042158E-011  0.9118800E+02  0.7816164E-02  0.1184000E+00
        -11   -1    0    0    0    0  0.00000000000E+00  0.00000000000E+00  0.45593999997E+02  0.45594000000E+02  0.51100000000E-03 0. -1.
         11   -1    0    0    0    0 -0.00000000000E+00 -0.00000000000E+00 -0.45593999997E+02  0.45594000000E+02  0.51100000000E-03 0.  1.
         23    2    1    2    0    0  0.00000000000E+00  0.00000000000E+00  0.00000000000E+00  0.91188000000E+02  0.91188000000E+02 0.  0.
    9900012    2    3    3    0    0 -0.94506473843E+01  0.22183023627E+02  0.36086314554E+02  0.47787269921E+02  0.19999994880E+02 0.  0.
        -12    1    3    3    0    0  0.94506473843E+01 -0.22183023627E+02 -0.36086314554E+02  0.43400730079E+02  0.00000000000E+00 0.  1.
         11    1    4    4    0    0 -0.29849604981E+01  0.63963089063E+00  0.33408962053E+01  0.45255612433E+01  0.51100000000E-03 0. -1.
        -11    1    4    4    0    0 -0.41822651274E+01  0.24178460704E+02  0.26548823474E+02  0.36151477587E+02  0.51100000000E-03 0.  1.
        -12    1    4    4    0    0 -0.22834217588E+01 -0.26350679672E+01  0.61965948756E+01  0.71102310914E+01  0.00000000000E+00 0.  1.
</event>
<event>
 8    1  0.4042158E-011  0.9118800E+02  0.7816164E-02  0.1184000E+00
        -11   -1    0    0    0    0  0.00000000000E+00  0.00000000000E+00  0.45593999997E+02  0.45594000000E+02  0.51100000000E-03 0. -1.
         11   -1    0    0    0    0 -0.00000000000E+00 -0.00000000000E+00 -0.45593999997E+02  0.45594000000E+02  0.51100000000E-03 0.  1.
         23    2    1    2    0    0 -0.35527136788E-14 -0.22204460493E-14  0.71054273576E-14  0.91188000000E+02  0.91188000000E+02 0.  0.
    9900012    2    3    3    0    0  0.16937251019E+02  0.25626297591E+01 -0.39877129909E+02  0.47787273818E+02  0.20000012646E+02 0.  0.
         12    1    3    3    0    0 -0.16937251019E+02 -0.25626297591E+01  0.39877129909E+02  0.43400726182E+02  0.00000000000E+00 0. -1.
         11    1    4    4    0    0  0.78124405244E+01  0.78769195240E+01 -0.31583202275E+02  0.33475046742E+02  0.51100000000E-03 0. -1.
        -11    1    4    4    0    0  0.52319002198E+01 -0.63285490606E+00 -0.54865811592E+01  0.76076184394E+01  0.51100000000E-03 0.  1.
         12    1    4    4    0    0  0.38929102752E+01 -0.46814348589E+01 -0.28073464741E+01  0.67046086369E+01  0.00000000000E+00 0. -1.
</event>
<event>
 8    1  0.4042158E-011  0.9118800E+02  0.7816164E-02  0.1184000E+00
        -11   -1    0    0    0    0  0.00000000000E+00  0.00000000000E+00  0.45593999997E+02  0.45594000000E+02  0.51100000000E-03 0. -1.
         11   -1    0    0    0    0 -0.00000000000E+00 -0.00000000000E+00 -0.45593999997E+02  0.45594000000E+02  0.51100000000E-03 0.  1.
         23    2    1    2    0    0  0.17763568394E-14  0.17763568394E-14  0.00000000000E+00  0.91188000000E+02  0.91188000000E+02 0.  0.
    9900012    2    3    3    0    0 -0.11922314501E+02  0.12053308776E+02 -0.39952462701E+02  0.47787272916E+02  0.20000008535E+02 0.  0.
         12    1    3    3    0    0  0.11922314501E+02 -0.12053308776E+02  0.39952462701E+02  0.43400727084E+02  0.00000000000E+00 0. -1.
         11    1    4    4    0    0  0.27267532867E+01  0.10529533537E+02 -0.20205085366E+02  0.22946715122E+02  0.51100000000E-03 0. -1.
        -11    1    4    4    0    0  0.21252761770E-01  0.14392272229E+00  0.56640296364E-01  0.15612115221E+00  0.51100000000E-03 0.  1.
        -12    1    4    4    0    0 -0.14670320549E+02  0.13798525168E+01 -0.19804017632E+02  0.24684436642E+02  0.00000000000E+00 0.  1.
</event>
<event>
 8    1  0.4042158E-011  0.9118800E+02  0.7816164E-02  0.1184000E+00
        -11   -1    0    0    0    0  0.00000000000E+00  0.00000000000E+00  0.45593999997E+02  0.45594000000E+02  0.51100000000E-03 0. -1.
         11   -1    0    0    0    0 -0.00000000000E+00 -0.00000000000E+00 -0.45593999997E+02  0.45594000000E+02  0.51100000000E-03 0.  1.
         23    2    1    2    0    0 -0.71054273576E-14  0.00000000000E+00  0.35527136788E-14  0.91188000000E+02  0.91188000000E+02 0.  0.
    9900012    2    3    3    0    0 -0.21831505860E+02  0.24576539735E+02  0.28337302238E+02  0.47787266693E+02  0.19999980160E+02 0.  0.
        -12    1    3    3    0    0  0.21831505860E+02 -0.24576539735E+02 -0.28337302238E+02  0.43400733307E+02  0.00000000000E+00 0.  1.
         11    1    4    4    0    0 -0.13485991299E+01  0.14453786597E+01  0.82413627747E+01  0.84751342012E+01  0.51100000000E-03 0. -1.
        -11    1    4    4    0    0 -0.17410390943E+02  0.11759653518E+02  0.81491810380E+01  0.22534868882E+02  0.51100000000E-03 0.  1.
         12    1    4    4    0    0 -0.30725157872E+01  0.11371507557E+02  0.11946758425E+02  0.16777263610E+02  0.00000000000E+00 0. -1.
</event>
<event>
 8    1  0.4042158E-011  0.9118800E+02  0.7816164E-02  0.1184000E+00
        -11   -1    0    0    0    0  0.00000000000E+00  0.00000000000E+00  0.45593999997E+02  0.45594000000E+02  0.51100000000E-03 0. -1.
         11   -1    0    0    0    0 -0.00000000000E+00 -0.00000000000E+00 -0.45593999997E+02  0.45594000000E+02  0.51100000000E-03 0.  1.
         23    2    1    2    0    0  0.00000000000E+00  0.00000000000E+00  0.00000000000E+00  0.91188000000E+02  0.91188000000E+02 0.  0.
    9900012    2    3    3    0    0  0.79585650653E+00 -0.20846817114E+02 -0.38057850635E+02  0.47787272283E+02  0.20000005649E+02 0.  0.
         12    1    3    3    0    0 -0.79585650653E+00  0.20846817114E+02  0.38057850635E+02  0.43400727717E+02  0.00000000000E+00 0. -1.
         11    1    4    4    0    0 -0.61041804972E+01 -0.83169366428E+01 -0.25493210092E+02  0.27501567514E+02  0.51100000000E-03 0. -1.
        -11    1    4    4    0    0  0.17639125244E+01  0.40156760234E+00 -0.26169295163E+01  0.31813463011E+01  0.51100000000E-03 0.  1.
        -12    1    4    4    0    0  0.51361244793E+01 -0.12931448073E+02 -0.99477110271E+01  0.17104358468E+02  0.00000000000E+00 0.  1.
</event>
<event>
 8    1  0.4042158E-011  0.9118800E+02  0.7816164E-02  0.1184000E+00
        -11   -1    0    0    0    0  0.00000000000E+00  0.00000000000E+00  0.45593999997E+02  0.45594000000E+02  0.51100000000E-03 0. -1.
         11   -1    0    0    0    0 -0.00000000000E+00 -0.00000000000E+00 -0.45593999997E+02  0.45594000000E+02  0.51100000000E-03 0.  1.
         23    2    1    2    0    0  0.00000000000E+00 -0.35527136788E-14  0.00000000000E+00  0.91188000000E+02  0.91188000000E+02 0.  0.
    9900012    2    3    3    0    0 -0.28243603817E+02 -0.27908023424E+02  0.17523258229E+02  0.47787268359E+02  0.19999987756E+02 0.  0.
        -12    1    3    3    0    0  0.28243603817E+02  0.27908023424E+02 -0.17523258229E+02  0.43400731641E+02  0.00000000000E+00 0.  1.
         11    1    4    4    0    0 -0.34092173422E+01 -0.30985461864E+01  0.49536977199E+01  0.67648261410E+01  0.51100000000E-03 0. -1.
        -11    1    4    4    0    0 -0.90707532360E+01 -0.20932187220E+02  0.71026535794E+01  0.23893152036E+02  0.51100000000E-03 0.  1.
        -12    1    4    4    0    0 -0.15763633239E+02 -0.38772900180E+01  0.54669069297E+01  0.17129290182E+02  0.00000000000E+00 0.  1.
</event>
<event>
 8    1  0.4042158E-011  0.9118800E+02  0.7816164E-02  0.1184000E+00
        -11   -1    0    0    0    0  0.00000000000E+00  0.00000000000E+00  0.45593999997E+02  0.45594000000E+02  0.51100000000E-03 0. -1.
         11   -1    0    0    0    0 -0.00000000000E+00 -0.00000000000E+00 -0.45593999997E+02  0.45594000000E+02  0.51100000000E-03 0.  1.
         23    2    1    2    0    0  0.00000000000E+00 -0.35527136788E-14  0.00000000000E+00  0.91188000000E+02  0.91188000000E+02 0.  0.
    9900012    2    3    3    0    0 -0.23678985871E+02  0.25574413534E+02 -0.25862673582E+02  0.47787275532E+02  0.20000020462E+02 0.  0.
         12    1    3    3    0    0  0.23678985871E+02 -0.25574413534E+02  0.25862673582E+02  0.43400724468E+02  0.00000000000E+00 0. -1.
         11    1    4    4    0    0 -0.25501600821E+00  0.13877747632E+01 -0.42128247815E+01  0.44428419799E+01  0.51100000000E-03 0. -1.
        -11    1    4    4    0    0 -0.22390500964E+02  0.12982789636E+02 -0.12030635279E+02  0.28541610775E+02  0.51100000000E-03 0.  1.
         12    1    4    4    0    0 -0.10334688986E+01  0.11203849135E+02 -0.96192135214E+01  0.14802822777E+02  0.00000000000E+00 0. -1.
</event>
<event>
 8    1  0.4042158E-011  0.9118800E+02  0.7816164E-02  0.1184000E+00
        -11   -1    0    0    0    0  0.00000000000E+00  0.00000000000E+00  0.45593999997E+02  0.45594000000E+02  0.51100000000E-03 0. -1.
         11   -1    0    0    0    0 -0.00000000000E+00 -0.00000000000E+00 -0.45593999997E+02  0.45594000000E+02  0.51100000000E-03 0.  1.
         23    2    1    2    0    0  0.00000000000E+00  0.88817841970E-15  0.00000000000E+00  0.91188000000E+02  0.91188000000E+02 0.  0.
    9900012    2    3    3    0    0  0.25724656724E+02 -0.65154511928E+01 -0.34342600629E+02  0.47787270907E+02  0.19999999375E+02 0.  0.
         12    1    3    3    0    0 -0.25724656724E+02  0.65154511928E+01  0.34342600629E+02  0.43400729093E+02  0.00000000000E+00 0. -1.
         11    1    4    4    0    0  0.16739000351E+01  0.27151098046E+01 -0.34575386265E+01  0.47040765505E+01  0.51100000000E-03 0. -1.
        -11    1    4    4    0    0  0.98930241400E+01  0.96104492861E+00 -0.20497181880E+02  0.22780035102E+02  0.51100000000E-03 0.  1.
        -12    1    4    4    0    0  0.14157732549E+02 -0.10191605926E+02 -0.10387880123E+02  0.20303159255E+02  0.00000000000E+00 0.  1.
</event>
<event>
 8    1  0.4042158E-011  0.9118800E+02  0.7816164E-02  0.1184000E+00
        -11   -1    0    0    0    0  0.00000000000E+00  0.00000000000E+00  0.45593999997E+02  0.45594000000E+02  0.51100000000E-03 0. -1.
         11   -1    0    0    0    0 -0.00000000000E+00 -0.00000000000E+00 -0.45593999997E+02  0.45594000000E+02  0.51100000000E-03 0.  1.
         23    2    1    2    0    0 -0.71054273576E-14  0.00000000000E+00  0.00000000000E+00  0.91188000000E+02  0.91188000000E+02 0.  0.
    9900012    2    3    3    0    0 -0.37653785911E+02  0.84349910552E+01 -0.19866223328E+02  0.47787268476E+02  0.19999988290E+02 0.  0.
         12    1    3    3    0    0  0.37653785911E+02 -0.84349910552E+01  0.19866223328E+02  0.43400731524E+02  0.00000000000E+00 0. -1.
         11    1    4    4    0    0 -0.18759009920E+02  0.99737920632E+01 -0.11033991486E+02  0.23940049074E+02  0.51100000000E-03 0. -1.
        -11    1    4    4    0    0 -0.13892813528E+02  0.22459610284E+01 -0.10257709272E+02  0.17414798547E+02  0.51100000000E-03 0.  1.
         12    1    4    4    0    0 -0.50019624633E+01 -0.37847620363E+01  0.14254774301E+01  0.64324208553E+01  0.00000000000E+00 0. -1.
</event>
<event>
 8    1  0.4042158E-011  0.9118800E+02  0.7816164E-02  0.1184000E+00
        -11   -1    0    0    0    0  0.00000000000E+00  0.00000000000E+00  0.45593999997E+02  0.45594000000E+02  0.51100000000E-03 0. -1.
         11   -1    0    0    0    0 -0.00000000000E+00 -0.00000000000E+00 -0.45593999997E+02  0.45594000000E+02  0.51100000000E-03 0.  1.
         23    2    1    2    0    0  0.00000000000E+00  0.00000000000E+00  0.00000000000E+00  0.91188000000E+02  0.91188000000E+02 0.  0.
    9900012    2    3    3    0    0 -0.24444902019E+02 -0.34846561723E+02  0.84727924669E+01  0.47787259098E+02  0.19999945531E+02 0.  0.
        -12    1    3    3    0    0  0.24444902019E+02  0.34846561723E+02 -0.84727924669E+01  0.43400740902E+02  0.00000000000E+00 0.  1.
         11    1    4    4    0    0 -0.81506200375E+01 -0.53550058576E+01 -0.16510407852E+01  0.98911389974E+01  0.51100000000E-03 0. -1.
        -11    1    4    4    0    0 -0.28057905453E+01 -0.11473416193E+02 -0.25241616886E+01  0.12078208982E+02  0.51100000000E-03 0.  1.
         12    1    4    4    0    0 -0.13488491436E+02 -0.18018139673E+02  0.12647994941E+02  0.25817911118E+02  0.00000000000E+00 0. -1.
</event>
<event>
 8    1  0.4042158E-011  0.9118800E+02  0.7816164E-02  0.1184000E+00
        -11   -1    0    0    0    0  0.00000000000E+00  0.00000000000E+00  0.45593999997E+02  0.45594000000E+02  0.51100000000E-03 0. -1.
         11   -1    0    0    0    0 -0.00000000000E+00 -0.00000000000E+00 -0.45593999997E+02  0.45594000000E+02  0.51100000000E-03 0.  1.
         23    2    1    2    0    0  0.00000000000E+00  0.00000000000E+00  0.00000000000E+00  0.91188000000E+02  0.91188000000E+02 0.  0.
    9900012    2    3    3    0    0  0.14701751281E+02 -0.52743209634E+01 -0.40492754623E+02  0.47787272710E+02  0.20000007595E+02 0.  0.
         12    1    3    3    0    0 -0.14701751281E+02  0.52743209634E+01  0.40492754623E+02  0.43400727290E+02  0.00000000000E+00 0. -1.
         11    1    4    4    0    0  0.90338775235E+00 -0.62201190553E+00  0.71051798302E+00  0.13068451733E+01  0.51100000000E-03 0. -1.
        -11    1    4    4    0    0  0.16558304583E+02 -0.20832968822E+01 -0.26630105790E+02  0.31427378370E+02  0.51100000000E-03 0.  1.
        -12    1    4    4    0    0 -0.27599410544E+01 -0.25690121756E+01 -0.14573166816E+02  0.15053049167E+02  0.00000000000E+00 0.  1.
</event>
<event>
 8    1  0.4042158E-011  0.9118800E+02  0.7816164E-02  0.1184000E+00
        -11   -1    0    0    0    0  0.00000000000E+00  0.00000000000E+00  0.45593999997E+02  0.45594000000E+02  0.51100000000E-03 0. -1.
         11   -1    0    0    0    0 -0.00000000000E+00 -0.00000000000E+00 -0.45593999997E+02  0.45594000000E+02  0.51100000000E-03 0.  1.
         23    2    1    2    0    0 -0.88817841970E-15 -0.17763568394E-14  0.00000000000E+00  0.91188000000E+02  0.91188000000E+02 0.  0.
    9900012    2    3    3    0    0  0.67763805094E+01 -0.12504481322E+02  0.41004179118E+02  0.47787261630E+02  0.19999957076E+02 0.  0.
        -12    1    3    3    0    0 -0.67763805094E+01  0.12504481322E+02 -0.41004179118E+02  0.43400738370E+02  0.00000000000E+00 0.  1.
         11    1    4    4    0    0  0.30964425917E+01 -0.69835072507E+01  0.66014155850E+01  0.10096336872E+02  0.51100000000E-03 0. -1.
        -11    1    4    4    0    0 -0.63111969296E+00 -0.89074181297E+01  0.27270060441E+02  0.28694888160E+02  0.51100000000E-03 0.  1.
        -12    1    4    4    0    0  0.43110576106E+01  0.33864440583E+01  0.71327030921E+01  0.89960365985E+01  0.00000000000E+00 0.  1.
</event>
<event>
 8    1  0.4957234E-011  0.9118800E+02  0.7816164E-02  0.1184000E+00
        -11   -1    0    0    0    0  0.00000000000E+00  0.00000000000E+00  0.45593999997E+02  0.45594000000E+02  0.51100000000E-03 0. -1.
         11   -1    0    0    0    0 -0.00000000000E+00 -0.00000000000E+00 -0.45593999997E+02  0.45594000000E+02  0.51100000000E-03 0.  1.
         23    2    1    2    0    0  0.35527136788E-14  0.00000000000E+00  0.35527136788E-14  0.91188000000E+02  0.91188000000E+02 0.  0.
    9900012    2    3    3    0    0  0.28404016869E+02  0.89696306807E+01  0.31565501854E+02  0.47787270096E+02  0.19999995677E+02 0.  0.
        -12    1    3    3    0    0 -0.28404016869E+02 -0.89696306807E+01 -0.31565501854E+02  0.43400729904E+02  0.00000000000E+00 0.  1.
         11    1    4    4    0    0  0.80643572820E+01  0.75361339730E+01  0.13494275909E+02  0.17433377647E+02  0.51100000000E-03 0. -1.
        -11    1    4    4    0    0  0.12251828907E+02 -0.59302089368E+00  0.18279298424E+02  0.22013444449E+02  0.51100000000E-03 0.  1.
        -12    1    4    4    0    0  0.80878306796E+01  0.20265176014E+01 -0.20807247842E+00  0.83404480004E+01  0.00000000000E+00 0.  1.
</event>
<event>
 8    1  0.4042158E-011  0.9118800E+02  0.7816164E-02  0.1184000E+00
        -11   -1    0    0    0    0  0.00000000000E+00  0.00000000000E+00  0.45593999997E+02  0.45594000000E+02  0.51100000000E-03 0. -1.
         11   -1    0    0    0    0 -0.00000000000E+00 -0.00000000000E+00 -0.45593999997E+02  0.45594000000E+02  0.51100000000E-03 0.  1.
         23    2    1    2    0    0  0.00000000000E+00  0.35527136788E-14  0.71054273576E-14  0.91188000000E+02  0.91188000000E+02 0.  0.
    9900012    2    3    3    0    0  0.11328397345E+02 -0.24294235925E+02 -0.34133277737E+02  0.47787272649E+02  0.20000007314E+02 0.  0.
         12    1    3    3    0    0 -0.11328397345E+02  0.24294235925E+02  0.34133277737E+02  0.43400727351E+02  0.00000000000E+00 0. -1.
         11    1    4    4    0    0  0.15509854147E+01 -0.57595393984E+01 -0.37018784762E+01  0.70200964631E+01  0.51100000000E-03 0. -1.
        -11    1    4    4    0    0 -0.43115188821E+01 -0.66517677221E+01 -0.13935440494E+02  0.16032208548E+02  0.51100000000E-03 0.  1.
        -12    1    4    4    0    0  0.14088930812E+02 -0.11882928804E+02 -0.16495958766E+02  0.24734967637E+02  0.00000000000E+00 0.  1.
</event>
<event>
 8    1  0.4042158E-011  0.9118800E+02  0.7816164E-02  0.1184000E+00
        -11   -1    0    0    0    0  0.00000000000E+00  0.00000000000E+00  0.45593999997E+02  0.45594000000E+02  0.51100000000E-03 0. -1.
         11   -1    0    0    0    0 -0.00000000000E+00 -0.00000000000E+00 -0.45593999997E+02  0.45594000000E+02  0.51100000000E-03 0.  1.
         23    2    1    2    0    0  0.00000000000E+00 -0.35527136788E-14 -0.35527136788E-14  0.91188000000E+02  0.91188000000E+02 0.  0.
    9900012    2    3    3    0    0  0.27726321203E+02 -0.18395074059E+02  0.27865666208E+02  0.47787274311E+02  0.20000014896E+02 0.  0.
        -12    1    3    3    0    0 -0.27726321203E+02  0.18395074059E+02 -0.27865666208E+02  0.43400725689E+02  0.00000000000E+00 0.  1.
         11    1    4    4    0    0  0.19122610450E+02 -0.63093784598E+01  0.19650446693E+02  0.28135787575E+02  0.51100000000E-03 0. -1.
        -11    1    4    4    0    0  0.89255802435E+01 -0.85013078526E+01  0.97724670264E+01  0.15730204383E+02  0.51100000000E-03 0.  1.
        -12    1    4    4    0    0 -0.32186949045E+00 -0.35843877465E+01 -0.15572475113E+01  0.39212823537E+01  0.00000000000E+00 0.  1.
</event>
<event>
 8    1  0.4042158E-011  0.9118800E+02  0.7816164E-02  0.1184000E+00
        -11   -1    0    0    0    0  0.00000000000E+00  0.00000000000E+00  0.45593999997E+02  0.45594000000E+02  0.51100000000E-03 0. -1.
         11   -1    0    0    0    0 -0.00000000000E+00 -0.00000000000E+00 -0.45593999997E+02  0.45594000000E+02  0.51100000000E-03 0.  1.
         23    2    1    2    0    0  0.88817841970E-15  0.00000000000E+00  0.00000000000E+00  0.91188000000E+02  0.91188000000E+02 0.  0.
    9900012    2    3    3    0    0 -0.61062825243E+01 -0.23133778467E+02  0.36210008827E+02  0.47787272682E+02  0.20000007467E+02 0.  0.
        -12    1    3    3    0    0  0.61062825243E+01  0.23133778467E+02 -0.36210008827E+02  0.43400727318E+02  0.00000000000E+00 0.  1.
         11    1    4    4    0    0  0.18229326834E+01  0.21752472611E+01  0.24037656550E+01  0.37192571571E+01  0.51100000000E-03 0.  1.
        -11    1    4    4    0    0 -0.37751374839E+01 -0.29328837891E+01  0.10269815339E+02  0.11327955584E+02  0.51100000000E-03 0. -1.
         12    1    4    4    0    0 -0.41540777238E+01 -0.22376141939E+02  0.23536427833E+02  0.32740059941E+02  0.00000000000E+00 0. -1.
</event>
<event>
 8    1  0.4042158E-011  0.9118800E+02  0.7816164E-02  0.1184000E+00
        -11   -1    0    0    0    0  0.00000000000E+00  0.00000000000E+00  0.45593999997E+02  0.45594000000E+02  0.51100000000E-03 0. -1.
         11   -1    0    0    0    0 -0.00000000000E+00 -0.00000000000E+00 -0.45593999997E+02  0.45594000000E+02  0.51100000000E-03 0.  1.
         23    2    1    2    0    0 -0.35527136788E-14  0.17763568394E-14  0.71054273576E-14  0.91188000000E+02  0.91188000000E+02 0.  0.
    9900012    2    3    3    0    0  0.17366621000E+02 -0.74715844023E+01 -0.39066598296E+02  0.47787271886E+02  0.20000003836E+02 0.  0.
         12    1    3    3    0    0 -0.17366621000E+02  0.74715844023E+01  0.39066598296E+02  0.43400728114E+02  0.00000000000E+00 0. -1.
         11    1    4    4    0    0 -0.14592416673E-01 -0.20385547416E+01  0.81936015396E+00  0.21971048441E+01  0.51100000000E-03 0. -1.
        -11    1    4    4    0    0 -0.70794891207E-01  0.21975513136E+01 -0.93150765524E+01  0.95710446206E+01  0.51100000000E-03 0.  1.
        -12    1    4    4    0    0  0.17452008308E+02 -0.76305809743E+01 -0.30570881897E+02  0.36019122421E+02  0.00000000000E+00 0.  1.
</event>
<event>
 8    1  0.4042158E-011  0.9118800E+02  0.7816164E-02  0.1184000E+00
        -11   -1    0    0    0    0  0.00000000000E+00  0.00000000000E+00  0.45593999997E+02  0.45594000000E+02  0.51100000000E-03 0. -1.
         11   -1    0    0    0    0 -0.00000000000E+00 -0.00000000000E+00 -0.45593999997E+02  0.45594000000E+02  0.51100000000E-03 0.  1.
         23    2    1    2    0    0  0.00000000000E+00  0.35527136788E-14  0.35527136788E-14  0.91188000000E+02  0.91188000000E+02 0.  0.
    9900012    2    3    3    0    0  0.20350084684E+02  0.30781831933E+02 -0.22846798883E+02  0.47787270248E+02  0.19999996367E+02 0.  0.
         12    1    3    3    0    0 -0.20350084684E+02 -0.30781831933E+02  0.22846798883E+02  0.43400729752E+02  0.00000000000E+00 0. -1.
         11    1    4    4    0    0  0.43702061299E+01  0.72841712341E+01  0.18123678569E+01  0.86857659246E+01  0.51100000000E-03 0. -1.
        -11    1    4    4    0    0  0.19352380572E+01  0.39269387997E+01  0.33258780619E+00  0.43905135901E+01  0.51100000000E-03 0.  1.
        -12    1    4    4    0    0  0.14044640497E+02  0.19570721900E+02 -0.24991754546E+02  0.34710990733E+02  0.00000000000E+00 0.  1.
</event>
<event>
 8    1  0.4042158E-011  0.9118800E+02  0.7816164E-02  0.1184000E+00
        -11   -1    0    0    0    0  0.00000000000E+00  0.00000000000E+00  0.45593999997E+02  0.45594000000E+02  0.51100000000E-03 0. -1.
         11   -1    0    0    0    0 -0.00000000000E+00 -0.00000000000E+00 -0.45593999997E+02  0.45594000000E+02  0.51100000000E-03 0.  1.
         23    2    1    2    0    0 -0.35527136788E-14  0.00000000000E+00 -0.35527136788E-14  0.91188000000E+02  0.91188000000E+02 0.  0.
    9900012    2    3    3    0    0 -0.23837315989E+02 -0.19931665159E+02 -0.30300727505E+02  0.47787274235E+02  0.20000014547E+02 0.  0.
         12    1    3    3    0    0  0.23837315989E+02  0.19931665159E+02  0.30300727505E+02  0.43400725765E+02  0.00000000000E+00 0. -1.
         11    1    4    4    0    0 -0.13029830797E+01 -0.70054935921E+01 -0.39892339296E+01  0.81663145287E+01  0.51100000000E-03 0. -1.
        -11    1    4    4    0    0 -0.43821354057E+01  0.25820192991E+01 -0.17782765633E+01  0.53881538741E+01  0.51100000000E-03 0.  1.
        -12    1    4    4    0    0 -0.18152197504E+02 -0.15508190866E+02 -0.24533217012E+02  0.34232805832E+02  0.00000000000E+00 0.  1.
</event>
<event>
 8    1  0.4042158E-011  0.9118800E+02  0.7816164E-02  0.1184000E+00
        -11   -1    0    0    0    0  0.00000000000E+00  0.00000000000E+00  0.45593999997E+02  0.45594000000E+02  0.51100000000E-03 0. -1.
         11   -1    0    0    0    0 -0.00000000000E+00 -0.00000000000E+00 -0.45593999997E+02  0.45594000000E+02  0.51100000000E-03 0.  1.
         23    2    1    2    0    0  0.00000000000E+00  0.15543122345E-14  0.00000000000E+00  0.91188000000E+02  0.91188000000E+02 0.  0.
    9900012    2    3    3    0    0 -0.22715984841E+02  0.61015170703E+00  0.36976141121E+02  0.47787271151E+02  0.20000000487E+02 0.  0.
        -12    1    3    3    0    0  0.22715984841E+02 -0.61015170703E+00 -0.36976141121E+02  0.43400728849E+02  0.00000000000E+00 0.  1.
         11    1    4    4    0    0 -0.81949566023E+01  0.47203922954E+01  0.69022391606E+01  0.11708130629E+02  0.51100000000E-03 0. -1.
        -11    1    4    4    0    0  0.39238469115E+00  0.16088098490E+01 -0.37258973024E+00  0.16973680345E+01  0.51100000000E-03 0.  1.
         12    1    4    4    0    0 -0.14913412929E+02 -0.57190504374E+01  0.30446491691E+02  0.34381772488E+02  0.00000000000E+00 0. -1.
</event>
<event>
 8    1  0.4042158E-011  0.9118800E+02  0.7816164E-02  0.1184000E+00
        -11   -1    0    0    0    0  0.00000000000E+00  0.00000000000E+00  0.45593999997E+02  0.45594000000E+02  0.51100000000E-03 0. -1.
         11   -1    0    0    0    0 -0.00000000000E+00 -0.00000000000E+00 -0.45593999997E+02  0.45594000000E+02  0.51100000000E-03 0.  1.
         23    2    1    2    0    0  0.88817841970E-15  0.00000000000E+00  0.35527136788E-14  0.91188000000E+02  0.91188000000E+02 0.  0.
    9900012    2    3    3    0    0  0.37618963260E+01  0.39731598239E+02  0.17054960212E+02  0.47787269241E+02  0.19999991779E+02 0.  0.
        -12    1    3    3    0    0 -0.37618963260E+01 -0.39731598239E+02 -0.17054960212E+02  0.43400730759E+02  0.00000000000E+00 0.  1.
         11    1    4    4    0    0  0.53046888154E+01  0.29991319449E+02  0.88350153085E+01  0.31712402329E+02  0.51100000000E-03 0. -1.
        -11    1    4    4    0    0 -0.50987402413E+00  0.31236917705E+01 -0.20814282608E+01  0.37881084546E+01  0.51100000000E-03 0.  1.
         12    1    4    4    0    0 -0.10329184652E+01  0.66165870195E+01  0.10301373164E+02  0.12286758458E+02  0.00000000000E+00 0. -1.
</event>
<event>
 8    1  0.4042158E-011  0.9118800E+02  0.7816164E-02  0.1184000E+00
        -11   -1    0    0    0    0  0.00000000000E+00  0.00000000000E+00  0.45593999997E+02  0.45594000000E+02  0.51100000000E-03 0. -1.
         11   -1    0    0    0    0 -0.00000000000E+00 -0.00000000000E+00 -0.45593999997E+02  0.45594000000E+02  0.51100000000E-03 0.  1.
         23    2    1    2    0    0  0.17763568394E-14  0.00000000000E+00  0.35527136788E-14  0.91188000000E+02  0.91188000000E+02 0.  0.
    9900012    2    3    3    0    0 -0.89172759126E+01 -0.28274065775E+02 -0.31696732655E+02  0.47787268829E+02  0.19999989899E+02 0.  0.
         12    1    3    3    0    0  0.89172759126E+01  0.28274065775E+02  0.31696732655E+02  0.43400731171E+02  0.00000000000E+00 0. -1.
         11    1    4    4    0    0  0.36986049855E+01 -0.64372258464E+01 -0.38877006002E+01  0.83804398246E+01  0.51100000000E-03 0. -1.
        -11    1    4    4    0    0  0.13605343785E+01 -0.97409015248E+00  0.31566805022E+00  0.17028070939E+01  0.51100000000E-03 0.  1.
        -12    1    4    4    0    0 -0.13976415277E+02 -0.20862749776E+02 -0.28124700105E+02  0.37704021910E+02  0.00000000000E+00 0.  1.
</event>
<event>
 8    1  0.4042158E-011  0.9118800E+02  0.7816164E-02  0.1184000E+00
        -11   -1    0    0    0    0  0.00000000000E+00  0.00000000000E+00  0.45593999997E+02  0.45594000000E+02  0.51100000000E-03 0. -1.
         11   -1    0    0    0    0 -0.00000000000E+00 -0.00000000000E+00 -0.45593999997E+02  0.45594000000E+02  0.51100000000E-03 0.  1.
         23    2    1    2    0    0 -0.17763568394E-14  0.17763568394E-14  0.00000000000E+00  0.91188000000E+02  0.91188000000E+02 0.  0.
    9900012    2    3    3    0    0  0.13634357367E+02 -0.11998112791E+02 -0.39417928148E+02  0.47787268776E+02  0.19999989656E+02 0.  0.
         12    1    3    3    0    0 -0.13634357367E+02  0.11998112791E+02  0.39417928148E+02  0.43400731224E+02  0.00000000000E+00 0. -1.
         11    1    4    4    0    0  0.90263216338E+00  0.26472432889E+01 -0.51105330211E+01  0.58258209613E+01  0.51100000000E-03 0. -1.
        -11    1    4    4    0    0  0.35014805019E+01  0.17394238989E+01 -0.15824487894E+01  0.42178318645E+01  0.51100000000E-03 0.  1.
        -12    1    4    4    0    0  0.92302447014E+01 -0.16384779979E+02 -0.32724946337E+02  0.37743615950E+02  0.00000000000E+00 0.  1.
</event>
<event>
 8    1  0.4042158E-011  0.9118800E+02  0.7816164E-02  0.1184000E+00
        -11   -1    0    0    0    0  0.00000000000E+00  0.00000000000E+00  0.45593999997E+02  0.45594000000E+02  0.51100000000E-03 0. -1.
         11   -1    0    0    0    0 -0.00000000000E+00 -0.00000000000E+00 -0.45593999997E+02  0.45594000000E+02  0.51100000000E-03 0.  1.
         23    2    1    2    0    0  0.17763568394E-14  0.17763568394E-14 -0.71054273576E-14  0.91188000000E+02  0.91188000000E+02 0.  0.
    9900012    2    3    3    0    0 -0.98953302350E+01 -0.11955578836E+02  0.40531096798E+02  0.47787271511E+02  0.20000002125E+02 0.  0.
        -12    1    3    3    0    0  0.98953302350E+01  0.11955578836E+02 -0.40531096798E+02  0.43400728489E+02  0.00000000000E+00 0.  1.
         11    1    4    4    0    0  0.32492249559E+00 -0.15905746806E+01  0.47243961104E+00  0.16907696146E+01  0.51100000000E-03 0.  1.
        -11    1    4    4    0    0 -0.34019847928E+01 -0.47878462890E+01  0.35860905875E+02  0.36338705853E+02  0.51100000000E-03 0. -1.
         12    1    4    4    0    0 -0.68182679378E+01 -0.55771578668E+01  0.41977513118E+01  0.97577960431E+01  0.00000000000E+00 0. -1.
</event>
<event>
 8    1  0.4042158E-011  0.9118800E+02  0.7816164E-02  0.1184000E+00
        -11   -1    0    0    0    0  0.00000000000E+00  0.00000000000E+00  0.45593999997E+02  0.45594000000E+02  0.51100000000E-03 0. -1.
         11   -1    0    0    0    0 -0.00000000000E+00 -0.00000000000E+00 -0.45593999997E+02  0.45594000000E+02  0.51100000000E-03 0.  1.
         23    2    1    2    0    0  0.00000000000E+00  0.00000000000E+00  0.00000000000E+00  0.91188000000E+02  0.91188000000E+02 0.  0.
    9900012    2    3    3    0    0 -0.25476593537E+02 -0.15499842397E+01 -0.35102194892E+02  0.47787270103E+02  0.19999995706E+02 0.  0.
         12    1    3    3    0    0  0.25476593537E+02  0.15499842397E+01  0.35102194892E+02  0.43400729897E+02  0.00000000000E+00 0. -1.
         11    1    4    4    0    0 -0.45728757789E+01  0.39878423361E+01 -0.12664535034E+02  0.14042952940E+02  0.51100000000E-03 0. -1.
        -11    1    4    4    0    0 -0.98633837958E+01  0.14399357853E+01 -0.31558922363E+01  0.10455592333E+02  0.51100000000E-03 0.  1.
         12    1    4    4    0    0 -0.11040333962E+02 -0.69777623611E+01 -0.19281767622E+02  0.23288724830E+02  0.00000000000E+00 0. -1.
</event>
<event>
 8    1  0.4042158E-011  0.9118800E+02  0.7816164E-02  0.1184000E+00
        -11   -1    0    0    0    0  0.00000000000E+00  0.00000000000E+00  0.45593999997E+02  0.45594000000E+02  0.51100000000E-03 0. -1.
         11   -1    0    0    0    0 -0.00000000000E+00 -0.00000000000E+00 -0.45593999997E+02  0.45594000000E+02  0.51100000000E-03 0.  1.
         23    2    1    2    0    0  0.00000000000E+00  0.71054273576E-14 -0.35527136788E-14  0.91188000000E+02  0.91188000000E+02 0.  0.
    9900012    2    3    3    0    0 -0.17437101973E+02  0.33317709328E+02 -0.21667972976E+02  0.47787270364E+02  0.19999996897E+02 0.  0.
         12    1    3    3    0    0  0.17437101973E+02 -0.33317709328E+02  0.21667972976E+02  0.43400729636E+02  0.00000000000E+00 0. -1.
         11    1    4    4    0    0 -0.10709399810E+00  0.83841387622E+01 -0.11577827353E+02  0.14295150870E+02  0.51100000000E-03 0.  1.
        -11    1    4    4    0    0 -0.13717578262E+01  0.21143388682E+01  0.19184083996E+01  0.31674026318E+01  0.51100000000E-03 0. -1.
         12    1    4    4    0    0 -0.15958250149E+02  0.22819231697E+02 -0.12008554022E+02  0.30324716862E+02  0.00000000000E+00 0. -1.
</event>
<event>
 8    1  0.4225735E-011  0.9118800E+02  0.7816164E-02  0.1184000E+00
        -11   -1    0    0    0    0  0.00000000000E+00  0.00000000000E+00  0.45593999997E+02  0.45594000000E+02  0.51100000000E-03 0. -1.
         11   -1    0    0    0    0 -0.00000000000E+00 -0.00000000000E+00 -0.45593999997E+02  0.45594000000E+02  0.51100000000E-03 0.  1.
         23    2    1    2    0    0 -0.66613381478E-15  0.17763568394E-14  0.00000000000E+00  0.91188000000E+02  0.91188000000E+02 0.  0.
    9900012    2    3    3    0    0 -0.19260735528E+01  0.14092941148E+02  0.41003688139E+02  0.47787272004E+02  0.20000004377E+02 0.  0.
        -12    1    3    3    0    0  0.19260735528E+01 -0.14092941148E+02 -0.41003688139E+02  0.43400727996E+02  0.00000000000E+00 0.  1.
         11    1    4    4    0    0  0.43726747899E+01  0.76694032403E+01  0.10689240635E+02  0.13863617727E+02  0.51100000000E-03 0. -1.
        -11    1    4    4    0    0  0.90468955017E+00  0.50883803528E+01  0.22991433932E+02  0.23565146134E+02  0.51100000000E-03 0.  1.
        -12    1    4    4    0    0 -0.72034378929E+01  0.13351575546E+01  0.73230135725E+01  0.10358508143E+02  0.00000000000E+00 0.  1.
</event>
<event>
 8    1  0.4042158E-011  0.9118800E+02  0.7816164E-02  0.1184000E+00
        -11   -1    0    0    0    0  0.00000000000E+00  0.00000000000E+00  0.45593999997E+02  0.45594000000E+02  0.51100000000E-03 0. -1.
         11   -1    0    0    0    0 -0.00000000000E+00 -0.00000000000E+00 -0.45593999997E+02  0.45594000000E+02  0.51100000000E-03 0.  1.
         23    2    1    2    0    0 -0.17763568394E-14 -0.22204460493E-15  0.00000000000E+00  0.91188000000E+02  0.91188000000E+02 0.  0.
    9900012    2    3    3    0    0 -0.95153764704E+01  0.16810728000E+01 -0.42311402697E+02  0.47787271972E+02  0.20000004229E+02 0.  0.
         12    1    3    3    0    0  0.95153764704E+01 -0.16810728000E+01  0.42311402697E+02  0.43400728028E+02  0.00000000000E+00 0. -1.
         11    1    4    4    0    0 -0.96949496264E+01 -0.19974389369E+01 -0.13360842825E+02  0.16628106682E+02  0.51100000000E-03 0. -1.
        -11    1    4    4    0    0 -0.49319359530E+01  0.40483983999E+01 -0.16879372384E+02  0.18045130484E+02  0.51100000000E-03 0.  1.
         12    1    4    4    0    0  0.51115091090E+01 -0.36988666298E+00 -0.12071187489E+02  0.13114034806E+02  0.00000000000E+00 0. -1.
</event>
<event>
 8    1  0.4042158E-011  0.9118800E+02  0.7816164E-02  0.1184000E+00
        -11   -1    0    0    0    0  0.00000000000E+00  0.00000000000E+00  0.45593999997E+02  0.45594000000E+02  0.51100000000E-03 0. -1.
         11   -1    0    0    0    0 -0.00000000000E+00 -0.00000000000E+00 -0.45593999997E+02  0.45594000000E+02  0.51100000000E-03 0.  1.
         23    2    1    2    0    0 -0.71054273576E-14  0.88817841970E-15  0.00000000000E+00  0.91188000000E+02  0.91188000000E+02 0.  0.
    9900012    2    3    3    0    0 -0.41665363922E+02  0.50285916395E+01 -0.11060467264E+02  0.47787271657E+02  0.20000002793E+02 0.  0.
        -12    1    3    3    0    0  0.41665363922E+02 -0.50285916395E+01  0.11060467264E+02  0.43400728343E+02  0.00000000000E+00 0.  1.
         11    1    4    4    0    0 -0.27060908570E+02 -0.20420228332E+01 -0.40076538007E+01  0.27432169421E+02  0.51100000000E-03 0. -1.
        -11    1    4    4    0    0 -0.75404955000E+01 -0.18021531765E+01 -0.28541511068E+01  0.82615378265E+01  0.51100000000E-03 0.  1.
        -12    1    4    4    0    0 -0.70639598515E+01  0.88727676491E+01 -0.41986623561E+01  0.12093564409E+02  0.00000000000E+00 0.  1.
</event>
<event>
 8    1  0.4042158E-011  0.9118800E+02  0.7816164E-02  0.1184000E+00
        -11   -1    0    0    0    0  0.00000000000E+00  0.00000000000E+00  0.45593999997E+02  0.45594000000E+02  0.51100000000E-03 0.  1.
         11   -1    0    0    0    0 -0.00000000000E+00 -0.00000000000E+00 -0.45593999997E+02  0.45594000000E+02  0.51100000000E-03 0. -1.
         23    2    1    2    0    0  0.44408920985E-15  0.00000000000E+00  0.00000000000E+00  0.91188000000E+02  0.91188000000E+02 0.  0.
    9900012    2    3    3    0    0  0.90517765025E+00 -0.28902260710E+02 -0.32364536904E+02  0.47787271092E+02  0.20000000217E+02 0.  0.
         12    1    3    3    0    0 -0.90517765025E+00  0.28902260710E+02  0.32364536904E+02  0.43400728908E+02  0.00000000000E+00 0. -1.
         11    1    4    4    0    0 -0.51212599987E-02  0.15324165879E+01  0.47909569838E+00  0.16055714794E+01  0.51100000000E-03 0. -1.
        -11    1    4    4    0    0 -0.45373893498E+01 -0.10960151362E+02 -0.88316899137E+01  0.14788900128E+02  0.51100000000E-03 0.  1.
        -12    1    4    4    0    0  0.54476882601E+01 -0.19474525936E+02 -0.24011942689E+02  0.31392799485E+02  0.00000000000E+00 0.  1.
</event>
<event>
 8    1  0.4042158E-011  0.9118800E+02  0.7816164E-02  0.1184000E+00
        -11   -1    0    0    0    0  0.00000000000E+00  0.00000000000E+00  0.45593999997E+02  0.45594000000E+02  0.51100000000E-03 0. -1.
         11   -1    0    0    0    0 -0.00000000000E+00 -0.00000000000E+00 -0.45593999997E+02  0.45594000000E+02  0.51100000000E-03 0.  1.
         23    2    1    2    0    0  0.00000000000E+00  0.44408920985E-15  0.71054273576E-14  0.91188000000E+02  0.91188000000E+02 0.  0.
    9900012    2    3    3    0    0  0.13894067580E+02  0.30264384168E+01 -0.41005106459E+02  0.47787271906E+02  0.20000003928E+02 0.  0.
         12    1    3    3    0    0 -0.13894067580E+02 -0.30264384168E+01  0.41005106459E+02  0.43400728094E+02  0.00000000000E+00 0. -1.
         11    1    4    4    0    0  0.28504727656E+00  0.10727322460E+01 -0.14193539592E+02  0.14236873703E+02  0.51100000000E-03 0. -1.
        -11    1    4    4    0    0  0.11360565027E+00  0.59005809717E+01 -0.10225648914E+02  0.11806509138E+02  0.51100000000E-03 0.  1.
        -12    1    4    4    0    0  0.13495414653E+02 -0.39468748009E+01 -0.16585917953E+02  0.21743889065E+02  0.00000000000E+00 0.  1.
</event>
<event>
 8    1  0.4042158E-011  0.9118800E+02  0.7816164E-02  0.1184000E+00
        -11   -1    0    0    0    0  0.00000000000E+00  0.00000000000E+00  0.45593999997E+02  0.45594000000E+02  0.51100000000E-03 0. -1.
         11   -1    0    0    0    0 -0.00000000000E+00 -0.00000000000E+00 -0.45593999997E+02  0.45594000000E+02  0.51100000000E-03 0.  1.
         23    2    1    2    0    0  0.88817841970E-15  0.00000000000E+00  0.71054273576E-14  0.91188000000E+02  0.91188000000E+02 0.  0.
    9900012    2    3    3    0    0  0.29790791021E+01  0.14625070606E+02 -0.40753598330E+02  0.47787269829E+02  0.19999994458E+02 0.  0.
         12    1    3    3    0    0 -0.29790791021E+01 -0.14625070606E+02  0.40753598330E+02  0.43400730171E+02  0.00000000000E+00 0. -1.
         11    1    4    4    0    0  0.12144190621E-01  0.19414696642E+01 -0.68450065774E+01  0.71150240508E+01  0.51100000000E-03 0. -1.
        -11    1    4    4    0    0 -0.40422167876E+01  0.42944331210E+01 -0.27230790312E+02  0.27862117896E+02  0.51100000000E-03 0.  1.
         12    1    4    4    0    0  0.70091516990E+01  0.83891678207E+01 -0.66778014407E+01  0.12810127882E+02  0.00000000000E+00 0. -1.
</event>
<event>
 8    1  0.4042158E-011  0.9118800E+02  0.7816164E-02  0.1184000E+00
        -11   -1    0    0    0    0  0.00000000000E+00  0.00000000000E+00  0.45593999997E+02  0.45594000000E+02  0.51100000000E-03 0.  1.
         11   -1    0    0    0    0 -0.00000000000E+00 -0.00000000000E+00 -0.45593999997E+02  0.45594000000E+02  0.51100000000E-03 0. -1.
         23    2    1    2    0    0 -0.35527136788E-14  0.00000000000E+00  0.00000000000E+00  0.91188000000E+02  0.91188000000E+02 0.  0.
    9900012    2    3    3    0    0  0.27266529353E+02  0.33376569388E+02 -0.51151130738E+01  0.47787269721E+02  0.19999993964E+02 0.  0.
         12    1    3    3    0    0 -0.27266529353E+02 -0.33376569388E+02  0.51151130738E+01  0.43400730279E+02  0.00000000000E+00 0. -1.
         11    1    4    4    0    0  0.46112798383E+01  0.14265757181E+01 -0.51577909243E+01  0.70641225574E+01  0.51100000000E-03 0. -1.
        -11    1    4    4    0    0  0.89662771367E+01  0.65261132480E+01  0.35307055407E+01  0.11638305791E+02  0.51100000000E-03 0.  1.
         12    1    4    4    0    0  0.13688972378E+02  0.25423880422E+02 -0.34880276902E+01  0.29084841372E+02  0.00000000000E+00 0. -1.
</event>
<event>
 8    1  0.4042158E-011  0.9118800E+02  0.7816164E-02  0.1184000E+00
        -11   -1    0    0    0    0  0.00000000000E+00  0.00000000000E+00  0.45593999997E+02  0.45594000000E+02  0.51100000000E-03 0.  1.
         11   -1    0    0    0    0 -0.00000000000E+00 -0.00000000000E+00 -0.45593999997E+02  0.45594000000E+02  0.51100000000E-03 0. -1.
         23    2    1    2    0    0  0.00000000000E+00  0.00000000000E+00  0.00000000000E+00  0.91188000000E+02  0.91188000000E+02 0.  0.
    9900012    2    3    3    0    0 -0.37800554734E+02  0.44789565483E+01 -0.20848980622E+02  0.47787274396E+02  0.20000015280E+02 0.  0.
         12    1    3    3    0    0  0.37800554734E+02 -0.44789565483E+01  0.20848980622E+02  0.43400725604E+02  0.00000000000E+00 0. -1.
         11    1    4    4    0    0 -0.93294182062E+01 -0.46242622723E+01 -0.39853154900E+01  0.11149196628E+02  0.51100000000E-03 0. -1.
        -11    1    4    4    0    0 -0.25088126541E+02  0.48225987017E+01 -0.90397138927E+01  0.27099593707E+02  0.51100000000E-03 0.  1.
         12    1    4    4    0    0 -0.33830099870E+01  0.42806201189E+01 -0.78239512397E+01  0.95384840607E+01  0.00000000000E+00 0. -1.
</event>
<event>
 8    1  0.4042158E-011  0.9118800E+02  0.7816164E-02  0.1184000E+00
        -11   -1    0    0    0    0  0.00000000000E+00  0.00000000000E+00  0.45593999997E+02  0.45594000000E+02  0.51100000000E-03 0. -1.
         11   -1    0    0    0    0 -0.00000000000E+00 -0.00000000000E+00 -0.45593999997E+02  0.45594000000E+02  0.51100000000E-03 0.  1.
         23    2    1    2    0    0 -0.35527136788E-14 -0.71054273576E-14  0.00000000000E+00  0.91188000000E+02  0.91188000000E+02 0.  0.
    9900012    2    3    3    0    0  0.19791256793E+02  0.34348828645E+02 -0.17665993043E+02  0.47787272069E+02  0.20000004669E+02 0.  0.
         12    1    3    3    0    0 -0.19791256793E+02 -0.34348828645E+02  0.17665993043E+02  0.43400727931E+02  0.00000000000E+00 0. -1.
         11    1    4    4    0    0  0.16373181122E+02  0.13644764720E+02 -0.13628133015E+02  0.25297957903E+02  0.51100000000E-03 0. -1.
        -11    1    4    4    0    0  0.46929061222E+01  0.79158446955E+01 -0.25676418191E+01  0.95538866377E+01  0.51100000000E-03 0.  1.
         12    1    4    4    0    0 -0.12748304505E+01  0.12788219230E+02 -0.14702182089E+01  0.12935427528E+02  0.00000000000E+00 0. -1.
</event>
<event>
 8    1  0.4042158E-011  0.9118800E+02  0.7816164E-02  0.1184000E+00
        -11   -1    0    0    0    0  0.00000000000E+00  0.00000000000E+00  0.45593999997E+02  0.45594000000E+02  0.51100000000E-03 0. -1.
         11   -1    0    0    0    0 -0.00000000000E+00 -0.00000000000E+00 -0.45593999997E+02  0.45594000000E+02  0.51100000000E-03 0.  1.
         23    2    1    2    0    0 -0.17763568394E-14  0.35527136788E-14 -0.71054273576E-14  0.91188000000E+02  0.91188000000E+02 0.  0.
    9900012    2    3    3    0    0 -0.89897292603E+01  0.98613350877E+01 -0.41298434038E+02  0.47787287841E+02  0.20000076582E+02 0.  0.
         12    1    3    3    0    0  0.89897292603E+01 -0.98613350877E+01  0.41298434038E+02  0.43400712159E+02  0.00000000000E+00 0. -1.
         11    1    4    4    0    0 -0.86680171047E+01  0.61762833872E+01 -0.23292052481E+02  0.25608606094E+02  0.51100000000E-03 0.  1.
        -11    1    4    4    0    0 -0.31778940392E+01  0.51247949797E+01 -0.28160859718E+01  0.66552892176E+01  0.51100000000E-03 0. -1.
        -12    1    4    4    0    0  0.28561818836E+01 -0.14397432793E+01 -0.15190295585E+02  0.15523392530E+02  0.00000000000E+00 0.  1.
</event>
<event>
 8    1  0.4042158E-011  0.9118800E+02  0.7816164E-02  0.1184000E+00
        -11   -1    0    0    0    0  0.00000000000E+00  0.00000000000E+00  0.45593999997E+02  0.45594000000E+02  0.51100000000E-03 0. -1.
         11   -1    0    0    0    0 -0.00000000000E+00 -0.00000000000E+00 -0.45593999997E+02  0.45594000000E+02  0.51100000000E-03 0.  1.
         23    2    1    2    0    0  0.35527136788E-14 -0.88817841970E-15  0.00000000000E+00  0.91188000000E+02  0.91188000000E+02 0.  0.
    9900012    2    3    3    0    0  0.25216483791E+02 -0.69213105243E+01  0.34638806485E+02  0.47787279857E+02  0.20000040181E+02 0.  0.
        -12    1    3    3    0    0 -0.25216483791E+02  0.69213105243E+01 -0.34638806485E+02  0.43400720143E+02  0.00000000000E+00 0.  1.
         11    1    4    4    0    0  0.87865551632E+01  0.40015127317E+01  0.11600313831E+02  0.15092479486E+02  0.51100000000E-03 0. -1.
        -11    1    4    4    0    0 -0.13502856180E+01 -0.17552700158E+01  0.60754519577E+01  0.64664797866E+01  0.51100000000E-03 0.  1.
         12    1    4    4    0    0  0.17780214246E+02 -0.91675532403E+01  0.16963040696E+02  0.26228320585E+02  0.00000000000E+00 0. -1.
</event>
<event>
 8    1  0.4042158E-011  0.9118800E+02  0.7816164E-02  0.1184000E+00
        -11   -1    0    0    0    0  0.00000000000E+00  0.00000000000E+00  0.45593999997E+02  0.45594000000E+02  0.51100000000E-03 0.  1.
         11   -1    0    0    0    0 -0.00000000000E+00 -0.00000000000E+00 -0.45593999997E+02  0.45594000000E+02  0.51100000000E-03 0. -1.
         23    2    1    2    0    0  0.00000000000E+00  0.00000000000E+00  0.00000000000E+00  0.91188000000E+02  0.91188000000E+02 0.  0.
    9900012    2    3    3    0    0 -0.34020129999E+02 -0.25965515103E+02 -0.72143086030E+01  0.47787268804E+02  0.19999989785E+02 0.  0.
         12    1    3    3    0    0  0.34020129999E+02  0.25965515103E+02  0.72143086030E+01  0.43400731196E+02  0.00000000000E+00 0. -1.
         11    1    4    4    0    0 -0.10248291730E+02 -0.26573043961E+01  0.26457915451E+01  0.10912788975E+02  0.51100000000E-03 0. -1.
        -11    1    4    4    0    0 -0.69724629899E+01 -0.11536033503E+02  0.12645899676E+01  0.13538629812E+02  0.51100000000E-03 0.  1.
         12    1    4    4    0    0 -0.16799375279E+02 -0.11772177203E+02 -0.11124690116E+02  0.23335850018E+02  0.00000000000E+00 0. -1.
</event>
<event>
 8    1  0.4042158E-011  0.9118800E+02  0.7816164E-02  0.1184000E+00
        -11   -1    0    0    0    0  0.00000000000E+00  0.00000000000E+00  0.45593999997E+02  0.45594000000E+02  0.51100000000E-03 0. -1.
         11   -1    0    0    0    0 -0.00000000000E+00 -0.00000000000E+00 -0.45593999997E+02  0.45594000000E+02  0.51100000000E-03 0.  1.
         23    2    1    2    0    0  0.00000000000E+00  0.00000000000E+00 -0.13322676296E-14  0.91188000000E+02  0.91188000000E+02 0.  0.
    9900012    2    3    3    0    0 -0.10333796296E+02 -0.42100482142E+02  0.20941324811E+01  0.47787270359E+02  0.19999996876E+02 0.  0.
         12    1    3    3    0    0  0.10333796296E+02  0.42100482142E+02 -0.20941324811E+01  0.43400729641E+02  0.00000000000E+00 0. -1.
         11    1    4    4    0    0 -0.32304406490E+01 -0.12975260630E+01  0.15409625097E+01  0.38070837117E+01  0.51100000000E-03 0. -1.
        -11    1    4    4    0    0 -0.86587130053E+01 -0.25249906309E+02  0.61235296024E+01  0.27386651759E+02  0.51100000000E-03 0.  1.
         12    1    4    4    0    0  0.15553573587E+01 -0.15553049770E+02 -0.55703596310E+01  0.16593534888E+02  0.00000000000E+00 0. -1.
</event>
<event>
 8    1  0.4042158E-011  0.9118800E+02  0.7816164E-02  0.1184000E+00
        -11   -1    0    0    0    0  0.00000000000E+00  0.00000000000E+00  0.45593999997E+02  0.45594000000E+02  0.51100000000E-03 0. -1.
         11   -1    0    0    0    0 -0.00000000000E+00 -0.00000000000E+00 -0.45593999997E+02  0.45594000000E+02  0.51100000000E-03 0.  1.
         23    2    1    2    0    0  0.00000000000E+00 -0.44408920985E-15  0.00000000000E+00  0.91188000000E+02  0.91188000000E+02 0.  0.
    9900012    2    3    3    0    0  0.21079793381E+02  0.20940499877E+01  0.37879816493E+02  0.47787271528E+02  0.20000002206E+02 0.  0.
        -12    1    3    3    0    0 -0.21079793381E+02 -0.20940499877E+01 -0.37879816493E+02  0.43400728472E+02  0.00000000000E+00 0.  1.
         11    1    4    4    0    0  0.37884948544E+01 -0.52290410944E+01  0.11550612521E+02  0.13232997163E+02  0.51100000000E-03 0. -1.
        -11    1    4    4    0    0  0.15798948745E+01 -0.24065592467E+00  0.11655210478E+02  0.11764264305E+02  0.51100000000E-03 0.  1.
        -12    1    4    4    0    0  0.15711403652E+02  0.75637470068E+01  0.14673993493E+02  0.22790010060E+02  0.00000000000E+00 0.  1.
</event>
<event>
 8    1  0.4042158E-011  0.9118800E+02  0.7816164E-02  0.1184000E+00
        -11   -1    0    0    0    0  0.00000000000E+00  0.00000000000E+00  0.45593999997E+02  0.45594000000E+02  0.51100000000E-03 0. -1.
         11   -1    0    0    0    0 -0.00000000000E+00 -0.00000000000E+00 -0.45593999997E+02  0.45594000000E+02  0.51100000000E-03 0.  1.
         23    2    1    2    0    0  0.00000000000E+00  0.00000000000E+00  0.00000000000E+00  0.91188000000E+02  0.91188000000E+02 0.  0.
    9900012    2    3    3    0    0 -0.16231472435E+02 -0.16932334411E+02  0.36516549926E+02  0.47787273456E+02  0.20000010997E+02 0.  0.
        -12    1    3    3    0    0  0.16231472435E+02  0.16932334411E+02 -0.36516549926E+02  0.43400726544E+02  0.00000000000E+00 0.  1.
         11    1    4    4    0    0 -0.11561995431E+02 -0.52725613538E+01  0.96585775132E+01  0.15961446094E+02  0.51100000000E-03 0. -1.
        -11    1    4    4    0    0 -0.65534200505E+01 -0.26624835768E+01  0.70407351923E+01  0.99803850359E+01  0.51100000000E-03 0.  1.
        -12    1    4    4    0    0  0.18839430460E+01 -0.89972894806E+01  0.19817237220E+02  0.21845442327E+02  0.00000000000E+00 0.  1.
</event>
<event>
 8    1  0.4042158E-011  0.9118800E+02  0.7816164E-02  0.1184000E+00
        -11   -1    0    0    0    0  0.00000000000E+00  0.00000000000E+00  0.45593999997E+02  0.45594000000E+02  0.51100000000E-03 0. -1.
         11   -1    0    0    0    0 -0.00000000000E+00 -0.00000000000E+00 -0.45593999997E+02  0.45594000000E+02  0.51100000000E-03 0.  1.
         23    2    1    2    0    0  0.00000000000E+00 -0.17763568394E-14  0.00000000000E+00  0.91188000000E+02  0.91188000000E+02 0.  0.
    9900012    2    3    3    0    0 -0.36015372261E+02 -0.12640820238E+02  0.20657325458E+02  0.47787280300E+02  0.20000042199E+02 0.  0.
        -12    1    3    3    0    0  0.36015372261E+02  0.12640820238E+02 -0.20657325458E+02  0.43400719700E+02  0.00000000000E+00 0.  1.
         11    1    4    4    0    0 -0.57279412745E+01 -0.15301151127E+01 -0.12355696473E+01  0.60561700865E+01  0.51100000000E-03 0. -1.
        -11    1    4    4    0    0 -0.66569825249E+01 -0.93456070101E+01  0.44485688915E+01  0.12306321634E+02  0.51100000000E-03 0.  1.
         12    1    4    4    0    0 -0.23630448462E+02 -0.17650981152E+01  0.17444326214E+02  0.29424788579E+02  0.00000000000E+00 0. -1.
</event>
<event>
 8    1  0.4042158E-011  0.9118800E+02  0.7816164E-02  0.1184000E+00
        -11   -1    0    0    0    0  0.00000000000E+00  0.00000000000E+00  0.45593999997E+02  0.45594000000E+02  0.51100000000E-03 0. -1.
         11   -1    0    0    0    0 -0.00000000000E+00 -0.00000000000E+00 -0.45593999997E+02  0.45594000000E+02  0.51100000000E-03 0.  1.
         23    2    1    2    0    0  0.00000000000E+00  0.00000000000E+00 -0.17763568394E-14  0.91188000000E+02  0.91188000000E+02 0.  0.
    9900012    2    3    3    0    0 -0.17405886075E+02  0.36796342136E+02  0.15056156212E+02  0.47787268387E+02  0.19999987885E+02 0.  0.
        -12    1    3    3    0    0  0.17405886075E+02 -0.36796342136E+02 -0.15056156212E+02  0.43400731613E+02  0.00000000000E+00 0.  1.
         11    1    4    4    0    0 -0.65014092443E+01  0.46191160675E+01  0.53034810910E+01  0.95776545850E+01  0.51100000000E-03 0. -1.
        -11    1    4    4    0    0 -0.54829688859E+01  0.23861001507E+02  0.13056729163E+02  0.27746865002E+02  0.51100000000E-03 0.  1.
        -12    1    4    4    0    0 -0.54215079450E+01  0.83162245613E+01 -0.33040540422E+01  0.10462748801E+02  0.00000000000E+00 0.  1.
</event>
<event>
 8    1  0.4042158E-011  0.9118800E+02  0.7816164E-02  0.1184000E+00
        -11   -1    0    0    0    0  0.00000000000E+00  0.00000000000E+00  0.45593999997E+02  0.45594000000E+02  0.51100000000E-03 0.  1.
         11   -1    0    0    0    0 -0.00000000000E+00 -0.00000000000E+00 -0.45593999997E+02  0.45594000000E+02  0.51100000000E-03 0. -1.
         23    2    1    2    0    0  0.00000000000E+00  0.00000000000E+00  0.13322676296E-14  0.91188000000E+02  0.91188000000E+02 0.  0.
    9900012    2    3    3    0    0  0.22431129861E+02  0.36995926958E+02  0.34306176573E+01  0.47787270331E+02  0.19999996745E+02 0.  0.
         12    1    3    3    0    0 -0.22431129861E+02 -0.36995926958E+02 -0.34306176573E+01  0.43400729669E+02  0.00000000000E+00 0. -1.
         11    1    4    4    0    0  0.22459379286E+01 -0.74745021599E+00  0.36608287004E+00  0.23951901664E+01  0.51100000000E-03 0. -1.
        -11    1    4    4    0    0 -0.62143432298E+00  0.10221715123E+02  0.36892623114E+01  0.10884865518E+02  0.51100000000E-03 0.  1.
        -12    1    4    4    0    0  0.20806626255E+02  0.27521662051E+02 -0.62472752416E+00  0.34507214646E+02  0.00000000000E+00 0.  1.
</event>
<event>
 8    1  0.4042158E-011  0.9118800E+02  0.7816164E-02  0.1184000E+00
        -11   -1    0    0    0    0  0.00000000000E+00  0.00000000000E+00  0.45593999997E+02  0.45594000000E+02  0.51100000000E-03 0. -1.
         11   -1    0    0    0    0 -0.00000000000E+00 -0.00000000000E+00 -0.45593999997E+02  0.45594000000E+02  0.51100000000E-03 0.  1.
         23    2    1    2    0    0  0.35527136788E-14  0.26645352591E-14  0.71054273576E-14  0.91188000000E+02  0.91188000000E+02 0.  0.
    9900012    2    3    3    0    0 -0.20650149848E+02 -0.59976787270E+01 -0.37699101471E+02  0.47787273156E+02  0.20000009629E+02 0.  0.
         12    1    3    3    0    0  0.20650149848E+02  0.59976787270E+01  0.37699101471E+02  0.43400726844E+02  0.00000000000E+00 0. -1.
         11    1    4    4    0    0 -0.28750625120E+01  0.44494530528E-02 -0.13847138615E+02  0.14142462740E+02  0.51100000000E-03 0. -1.
        -11    1    4    4    0    0 -0.11584007885E+02 -0.70836517121E+01 -0.23751997051E+02  0.27359179894E+02  0.51100000000E-03 0.  1.
        -12    1    4    4    0    0 -0.61910794505E+01  0.10815235320E+01 -0.99965803978E-01  0.62856305232E+01  0.00000000000E+00 0.  1.
</event>
<event>
 8    1  0.4042158E-011  0.9118800E+02  0.7816164E-02  0.1184000E+00
        -11   -1    0    0    0    0  0.00000000000E+00  0.00000000000E+00  0.45593999997E+02  0.45594000000E+02  0.51100000000E-03 0. -1.
         11   -1    0    0    0    0 -0.00000000000E+00 -0.00000000000E+00 -0.45593999997E+02  0.45594000000E+02  0.51100000000E-03 0.  1.
         23    2    1    2    0    0  0.35527136788E-14  0.00000000000E+00 -0.71054273576E-14  0.91188000000E+02  0.91188000000E+02 0.  0.
    9900012    2    3    3    0    0  0.23295093603E+02  0.21841278960E+01 -0.36553957944E+02  0.47787266803E+02  0.19999980663E+02 0.  0.
         12    1    3    3    0    0 -0.23295093603E+02 -0.21841278960E+01  0.36553957944E+02  0.43400733197E+02  0.00000000000E+00 0. -1.
         11    1    4    4    0    0  0.10398209281E+02  0.49900318216E+01 -0.19312502563E+02  0.22494353277E+02  0.51100000000E-03 0. -1.
        -11    1    4    4    0    0  0.13901734664E+02  0.15825775426E+01 -0.12644297313E+02  0.18858447263E+02  0.51100000000E-03 0.  1.
        -12    1    4    4    0    0 -0.10048503418E+01 -0.43884814682E+01 -0.45971580675E+01  0.64344662641E+01  0.00000000000E+00 0.  1.
</event>
<event>
 8    1  0.4042158E-011  0.9118800E+02  0.7816164E-02  0.1184000E+00
        -11   -1    0    0    0    0  0.00000000000E+00  0.00000000000E+00  0.45593999997E+02  0.45594000000E+02  0.51100000000E-03 0. -1.
         11   -1    0    0    0    0 -0.00000000000E+00 -0.00000000000E+00 -0.45593999997E+02  0.45594000000E+02  0.51100000000E-03 0.  1.
         23    2    1    2    0    0  0.35527136788E-14  0.00000000000E+00 -0.71054273576E-14  0.91188000000E+02  0.91188000000E+02 0.  0.
    9900012    2    3    3    0    0  0.26610076511E+02 -0.16613073512E+02 -0.29992212771E+02  0.47787271776E+02  0.20000003338E+02 0.  0.
         12    1    3    3    0    0 -0.26610076511E+02  0.16613073512E+02  0.29992212771E+02  0.43400728224E+02  0.00000000000E+00 0. -1.
         11    1    4    4    0    0  0.62750343493E+01 -0.52363733350E+01 -0.46271136243E+01  0.93917965557E+01  0.51100000000E-03 0. -1.
        -11    1    4    4    0    0  0.13059479021E+02 -0.15634230728E+02 -0.18634173234E+02  0.27608179496E+02  0.51100000000E-03 0.  1.
         12    1    4    4    0    0  0.72755631411E+01  0.42575305503E+01 -0.67309259124E+01  0.10787295724E+02  0.00000000000E+00 0. -1.
</event>
<event>
 8    1  0.4042158E-011  0.9118800E+02  0.7816164E-02  0.1184000E+00
        -11   -1    0    0    0    0  0.00000000000E+00  0.00000000000E+00  0.45593999997E+02  0.45594000000E+02  0.51100000000E-03 0. -1.
         11   -1    0    0    0    0 -0.00000000000E+00 -0.00000000000E+00 -0.45593999997E+02  0.45594000000E+02  0.51100000000E-03 0.  1.
         23    2    1    2    0    0  0.00000000000E+00  0.00000000000E+00  0.00000000000E+00  0.91188000000E+02  0.91188000000E+02 0.  0.
    9900012    2    3    3    0    0  0.43143742752E+01  0.30627077586E+02  0.30446536599E+02  0.47787270770E+02  0.19999998750E+02 0.  0.
        -12    1    3    3    0    0 -0.43143742752E+01 -0.30627077586E+02 -0.30446536599E+02  0.43400729230E+02  0.00000000000E+00 0.  1.
         11    1    4    4    0    0  0.62789325506E+00  0.15310511394E+02  0.18787813040E+02  0.24244338064E+02  0.51100000000E-03 0. -1.
        -11    1    4    4    0    0  0.29749822294E+01  0.29771715588E+01  0.10277749046E+02  0.11106133237E+02  0.51100000000E-03 0.  1.
        -12    1    4    4    0    0  0.71149879074E+00  0.12339394633E+02  0.13809745125E+01  0.12436799469E+02  0.00000000000E+00 0.  1.
</event>
<event>
 8    1  0.4042158E-011  0.9118800E+02  0.7816164E-02  0.1184000E+00
        -11   -1    0    0    0    0  0.00000000000E+00  0.00000000000E+00  0.45593999997E+02  0.45594000000E+02  0.51100000000E-03 0. -1.
         11   -1    0    0    0    0 -0.00000000000E+00 -0.00000000000E+00 -0.45593999997E+02  0.45594000000E+02  0.51100000000E-03 0.  1.
         23    2    1    2    0    0  0.00000000000E+00  0.00000000000E+00  0.00000000000E+00  0.91188000000E+02  0.91188000000E+02 0.  0.
    9900012    2    3    3    0    0  0.10694872524E+02  0.81090809107E+01  0.41273304841E+02  0.47787272080E+02  0.20000004721E+02 0.  0.
        -12    1    3    3    0    0 -0.10694872524E+02 -0.81090809107E+01 -0.41273304841E+02  0.43400727920E+02  0.00000000000E+00 0.  1.
         11    1    4    4    0    0 -0.28506440169E+01 -0.24174168522E+01  0.16101885492E+02  0.16529996740E+02  0.51100000000E-03 0. -1.
        -11    1    4    4    0    0  0.12375631954E+01 -0.44566658209E+00  0.19592862050E+00  0.13298758026E+01  0.51100000000E-03 0.  1.
        -12    1    4    4    0    0  0.12307953345E+02  0.10972164345E+02  0.24975490728E+02  0.29927399537E+02  0.00000000000E+00 0.  1.
</event>
<event>
 8    1  0.4042158E-011  0.9118800E+02  0.7816164E-02  0.1184000E+00
        -11   -1    0    0    0    0  0.00000000000E+00  0.00000000000E+00  0.45593999997E+02  0.45594000000E+02  0.51100000000E-03 0.  1.
         11   -1    0    0    0    0 -0.00000000000E+00 -0.00000000000E+00 -0.45593999997E+02  0.45594000000E+02  0.51100000000E-03 0. -1.
         23    2    1    2    0    0  0.00000000000E+00  0.00000000000E+00  0.00000000000E+00  0.91188000000E+02  0.91188000000E+02 0.  0.
    9900012    2    3    3    0    0 -0.38345015470E+02  0.17248903075E+02  0.10759105941E+02  0.47787271558E+02  0.20000002341E+02 0.  0.
         12    1    3    3    0    0  0.38345015470E+02 -0.17248903075E+02 -0.10759105941E+02  0.43400728442E+02  0.00000000000E+00 0. -1.
         11    1    4    4    0    0 -0.32596600459E+02  0.13543121360E+02  0.76745865452E+01  0.36122759813E+02  0.51100000000E-03 0.  1.
        -11    1    4    4    0    0 -0.59275683451E+01  0.26354813891E+01 -0.17425068342E+01  0.67170052081E+01  0.51100000000E-03 0. -1.
        -12    1    4    4    0    0  0.17915333407E+00  0.10703003258E+01  0.48270262297E+01  0.49475065363E+01  0.00000000000E+00 0.  1.
</event>
<event>
 8    1  0.4042158E-011  0.9118800E+02  0.7816164E-02  0.1184000E+00
        -11   -1    0    0    0    0  0.00000000000E+00  0.00000000000E+00  0.45593999997E+02  0.45594000000E+02  0.51100000000E-03 0. -1.
         11   -1    0    0    0    0 -0.00000000000E+00 -0.00000000000E+00 -0.45593999997E+02  0.45594000000E+02  0.51100000000E-03 0.  1.
         23    2    1    2    0    0  0.88817841970E-15 -0.35527136788E-14  0.00000000000E+00  0.91188000000E+02  0.91188000000E+02 0.  0.
    9900012    2    3    3    0    0 -0.63542037994E+01  0.20292901985E+02  0.37834448313E+02  0.47787271250E+02  0.20000000936E+02 0.  0.
        -12    1    3    3    0    0  0.63542037994E+01 -0.20292901985E+02 -0.37834448313E+02  0.43400728750E+02  0.00000000000E+00 0.  1.
         11    1    4    4    0    0 -0.36505975527E+01  0.12772407978E+02  0.80731613657E+01  0.15544684067E+02  0.51100000000E-03 0. -1.
        -11    1    4    4    0    0  0.15113076030E+01  0.27829447928E+01  0.19533233360E+01  0.37207935587E+01  0.51100000000E-03 0.  1.
        -12    1    4    4    0    0 -0.42149138496E+01  0.47375492139E+01  0.27807963611E+02  0.28521793624E+02  0.00000000000E+00 0.  1.
</event>
<event>
 8    1  0.4042158E-011  0.9118800E+02  0.7816164E-02  0.1184000E+00
        -11   -1    0    0    0    0  0.00000000000E+00  0.00000000000E+00  0.45593999997E+02  0.45594000000E+02  0.51100000000E-03 0. -1.
         11   -1    0    0    0    0 -0.00000000000E+00 -0.00000000000E+00 -0.45593999997E+02  0.45594000000E+02  0.51100000000E-03 0.  1.
         23    2    1    2    0    0 -0.17763568394E-14  0.00000000000E+00  0.00000000000E+00  0.91188000000E+02  0.91188000000E+02 0.  0.
    9900012    2    3    3    0    0  0.14226117462E+02  0.26230547276E+02 -0.31515068171E+02  0.47787267860E+02  0.19999985482E+02 0.  0.
         12    1    3    3    0    0 -0.14226117462E+02 -0.26230547276E+02  0.31515068171E+02  0.43400732140E+02  0.00000000000E+00 0. -1.
         11    1    4    4    0    0 -0.16307417821E+01  0.58941251157E+01 -0.10920019470E+01  0.62122860650E+01  0.51100000000E-03 0. -1.
        -11    1    4    4    0    0  0.48791395509E+01  0.11104249455E+01 -0.16473787412E+01  0.52681024378E+01  0.51100000000E-03 0.  1.
         12    1    4    4    0    0  0.10977719693E+02  0.19225997215E+02 -0.28775687483E+02  0.36306879357E+02  0.00000000000E+00 0. -1.
</event>
<event>
 8    1  0.4042158E-011  0.9118800E+02  0.7816164E-02  0.1184000E+00
        -11   -1    0    0    0    0  0.00000000000E+00  0.00000000000E+00  0.45593999997E+02  0.45594000000E+02  0.51100000000E-03 0. -1.
         11   -1    0    0    0    0 -0.00000000000E+00 -0.00000000000E+00 -0.45593999997E+02  0.45594000000E+02  0.51100000000E-03 0.  1.
         23    2    1    2    0    0  0.00000000000E+00  0.00000000000E+00  0.00000000000E+00  0.91188000000E+02  0.91188000000E+02 0.  0.
    9900012    2    3    3    0    0  0.47355609661E+01  0.25733518634E+02 -0.34626328187E+02  0.47787284307E+02  0.20000060468E+02 0.  0.
         12    1    3    3    0    0 -0.47355609661E+01 -0.25733518634E+02  0.34626328187E+02  0.43400715693E+02  0.00000000000E+00 0. -1.
         11    1    4    4    0    0  0.35443986881E+01  0.12986913640E+02 -0.31829451941E+01  0.13833070097E+02  0.51100000000E-03 0. -1.
        -11    1    4    4    0    0  0.20863575104E+00  0.14759707697E+01 -0.32464260636E+01  0.35722963255E+01  0.51100000000E-03 0.  1.
         12    1    4    4    0    0  0.98252652693E+00  0.11270634225E+02 -0.28196956930E+02  0.30381917884E+02  0.00000000000E+00 0. -1.
</event>
<event>
 8    1  0.4042158E-011  0.9118800E+02  0.7816164E-02  0.1184000E+00
        -11   -1    0    0    0    0  0.00000000000E+00  0.00000000000E+00  0.45593999997E+02  0.45594000000E+02  0.51100000000E-03 0. -1.
         11   -1    0    0    0    0 -0.00000000000E+00 -0.00000000000E+00 -0.45593999997E+02  0.45594000000E+02  0.51100000000E-03 0.  1.
         23    2    1    2    0    0  0.00000000000E+00  0.88817841970E-15  0.71054273576E-14  0.91188000000E+02  0.91188000000E+02 0.  0.
    9900012    2    3    3    0    0  0.12780418894E+02 -0.47474408717E+01 -0.41203694867E+02  0.47787288339E+02  0.20000078855E+02 0.  0.
         12    1    3    3    0    0 -0.12780418894E+02  0.47474408717E+01  0.41203694867E+02  0.43400711661E+02  0.00000000000E+00 0. -1.
         11    1    4    4    0    0  0.87155216425E+01 -0.36708323202E+00 -0.21271163788E+02  0.22990377917E+02  0.51100000000E-03 0. -1.
        -11    1    4    4    0    0  0.76072597843E+01 -0.35991067077E+01 -0.58362712690E+01  0.10241388241E+02  0.51100000000E-03 0.  1.
         12    1    4    4    0    0 -0.35423625333E+01 -0.78125093199E+00 -0.14096259810E+02  0.14555522181E+02  0.00000000000E+00 0. -1.
</event>
<event>
 8    1  0.4042158E-011  0.9118800E+02  0.7816164E-02  0.1184000E+00
        -11   -1    0    0    0    0  0.00000000000E+00  0.00000000000E+00  0.45593999997E+02  0.45594000000E+02  0.51100000000E-03 0. -1.
         11   -1    0    0    0    0 -0.00000000000E+00 -0.00000000000E+00 -0.45593999997E+02  0.45594000000E+02  0.51100000000E-03 0.  1.
         23    2    1    2    0    0  0.00000000000E+00  0.00000000000E+00 -0.17763568394E-14  0.91188000000E+02  0.91188000000E+02 0.  0.
    9900012    2    3    3    0    0  0.37028438112E+02  0.18003428796E+02  0.13725690591E+02  0.47787271209E+02  0.20000000750E+02 0.  0.
        -12    1    3    3    0    0 -0.37028438112E+02 -0.18003428796E+02 -0.13725690591E+02  0.43400728791E+02  0.00000000000E+00 0.  1.
         11    1    4    4    0    0  0.10784031398E+02  0.11631389324E+02  0.85330933006E+01  0.18011058612E+02  0.51100000000E-03 0. -1.
        -11    1    4    4    0    0  0.47645122569E+01  0.51403690003E+01  0.43407981394E+01  0.82441797199E+01  0.51100000000E-03 0.  1.
        -12    1    4    4    0    0  0.21479894457E+02  0.12316704717E+01  0.85179915100E+00  0.21532032877E+02  0.00000000000E+00 0.  1.
</event>
<event>
 8    1  0.4042158E-011  0.9118800E+02  0.7816164E-02  0.1184000E+00
        -11   -1    0    0    0    0  0.00000000000E+00  0.00000000000E+00  0.45593999997E+02  0.45594000000E+02  0.51100000000E-03 0. -1.
         11   -1    0    0    0    0 -0.00000000000E+00 -0.00000000000E+00 -0.45593999997E+02  0.45594000000E+02  0.51100000000E-03 0.  1.
         23    2    1    2    0    0  0.00000000000E+00  0.00000000000E+00  0.00000000000E+00  0.91188000000E+02  0.91188000000E+02 0.  0.
    9900012    2    3    3    0    0 -0.35033483860E+01  0.17135785156E+02 -0.39720457987E+02  0.47787269988E+02  0.19999995185E+02 0.  0.
         12    1    3    3    0    0  0.35033483860E+01 -0.17135785156E+02  0.39720457987E+02  0.43400730012E+02  0.00000000000E+00 0. -1.
         11    1    4    4    0    0  0.26610855408E+01 -0.16133311161E+01 -0.57966679562E+01  0.65791772435E+01  0.51100000000E-03 0. -1.
        -11    1    4    4    0    0 -0.36810477527E+01  0.28765803087E+00 -0.11380183233E+02  0.11964172783E+02  0.51100000000E-03 0.  1.
        -12    1    4    4    0    0 -0.24833861741E+01  0.18461458241E+02 -0.22543606799E+02  0.29243919962E+02  0.00000000000E+00 0.  1.
</event>
<event>
 8    1  0.4042158E-011  0.9118800E+02  0.7816164E-02  0.1184000E+00
        -11   -1    0    0    0    0  0.00000000000E+00  0.00000000000E+00  0.45593999997E+02  0.45594000000E+02  0.51100000000E-03 0. -1.
         11   -1    0    0    0    0 -0.00000000000E+00 -0.00000000000E+00 -0.45593999997E+02  0.45594000000E+02  0.51100000000E-03 0.  1.
         23    2    1    2    0    0  0.00000000000E+00  0.00000000000E+00  0.00000000000E+00  0.91188000000E+02  0.91188000000E+02 0.  0.
    9900012    2    3    3    0    0  0.94219048669E+01  0.26553403475E+02 -0.33011628186E+02  0.47787272784E+02  0.20000007930E+02 0.  0.
         12    1    3    3    0    0 -0.94219048669E+01 -0.26553403475E+02  0.33011628186E+02  0.43400727216E+02  0.00000000000E+00 0. -1.
         11    1    4    4    0    0 -0.18249319739E+00  0.31392523113E+01  0.96732311934E+00  0.32899731183E+01  0.51100000000E-03 0. -1.
        -11    1    4    4    0    0 -0.72373645048E+00  0.29205972907E+01  0.52903134305E+00  0.30550871358E+01  0.51100000000E-03 0.  1.
        -12    1    4    4    0    0  0.10328134515E+02  0.20493553873E+02 -0.34507982648E+02  0.41442212530E+02  0.00000000000E+00 0.  1.
</event>
<event>
 8    1  0.4042158E-011  0.9118800E+02  0.7816164E-02  0.1184000E+00
        -11   -1    0    0    0    0  0.00000000000E+00  0.00000000000E+00  0.45593999997E+02  0.45594000000E+02  0.51100000000E-03 0. -1.
         11   -1    0    0    0    0 -0.00000000000E+00 -0.00000000000E+00 -0.45593999997E+02  0.45594000000E+02  0.51100000000E-03 0.  1.
         23    2    1    2    0    0  0.00000000000E+00 -0.17763568394E-14  0.00000000000E+00  0.91188000000E+02  0.91188000000E+02 0.  0.
    9900012    2    3    3    0    0  0.18969410364E+02  0.10362324570E+02 -0.37635178868E+02  0.47787274333E+02  0.20000014992E+02 0.  0.
         12    1    3    3    0    0 -0.18969410364E+02 -0.10362324570E+02  0.37635178868E+02  0.43400725667E+02  0.00000000000E+00 0. -1.
         11    1    4    4    0    0 -0.16981958187E+01  0.18721784464E+00 -0.54243298744E+01  0.56870268513E+01  0.51100000000E-03 0. -1.
        -11    1    4    4    0    0  0.10648392820E+02 -0.23216146502E+01 -0.15548887639E+02  0.18988050750E+02  0.51100000000E-03 0.  1.
        -12    1    4    4    0    0  0.10019213362E+02  0.12496721376E+02 -0.16661961355E+02  0.23112196731E+02  0.00000000000E+00 0.  1.
</event>
<event>
 8    1  0.4042158E-011  0.9118800E+02  0.7816164E-02  0.1184000E+00
        -11   -1    0    0    0    0  0.00000000000E+00  0.00000000000E+00  0.45593999997E+02  0.45594000000E+02  0.51100000000E-03 0.  1.
         11   -1    0    0    0    0 -0.00000000000E+00 -0.00000000000E+00 -0.45593999997E+02  0.45594000000E+02  0.51100000000E-03 0. -1.
         23    2    1    2    0    0  0.00000000000E+00  0.00000000000E+00  0.00000000000E+00  0.91188000000E+02  0.91188000000E+02 0.  0.
    9900012    2    3    3    0    0 -0.36642790207E+02  0.22703163841E+02 -0.50493212432E+01  0.47787269965E+02  0.19999995080E+02 0.  0.
        -12    1    3    3    0    0  0.36642790207E+02 -0.22703163841E+02  0.50493212432E+01  0.43400730035E+02  0.00000000000E+00 0.  1.
         11    1    4    4    0    0 -0.70588894282E+01  0.26325472839E+01  0.19418842520E+01  0.77800475494E+01  0.51100000000E-03 0.  1.
        -11    1    4    4    0    0 -0.22733806720E+02  0.67229515252E+01 -0.64063631201E+00  0.23715700714E+02  0.51100000000E-03 0. -1.
        -12    1    4    4    0    0 -0.68500940580E+01  0.13347665032E+02 -0.63505691832E+01  0.16291521702E+02  0.00000000000E+00 0.  1.
</event>
<event>
 8    1  0.4042158E-011  0.9118800E+02  0.7816164E-02  0.1184000E+00
        -11   -1    0    0    0    0  0.00000000000E+00  0.00000000000E+00  0.45593999997E+02  0.45594000000E+02  0.51100000000E-03 0. -1.
         11   -1    0    0    0    0 -0.00000000000E+00 -0.00000000000E+00 -0.45593999997E+02  0.45594000000E+02  0.51100000000E-03 0.  1.
         23    2    1    2    0    0 -0.71054273576E-14  0.00000000000E+00  0.71054273576E-14  0.91188000000E+02  0.91188000000E+02 0.  0.
    9900012    2    3    3    0    0  0.27507508659E+02  0.74340438334E+01 -0.32736763266E+02  0.47787266026E+02  0.19999977120E+02 0.  0.
         12    1    3    3    0    0 -0.27507508659E+02 -0.74340438334E+01  0.32736763266E+02  0.43400733974E+02  0.00000000000E+00 0. -1.
         11    1    4    4    0    0  0.69613832855E+01 -0.86096201769E+00 -0.16002235607E+01  0.71946388756E+01  0.51100000000E-03 0. -1.
        -11    1    4    4    0    0  0.18663762097E+02  0.12039132355E+01 -0.22020912587E+02  0.28891279205E+02  0.51100000000E-03 0.  1.
         12    1    4    4    0    0  0.18823632764E+01  0.70910926156E+01 -0.91156271177E+01  0.11701347945E+02  0.00000000000E+00 0. -1.
</event>
<event>
 8    1  0.4042158E-011  0.9118800E+02  0.7816164E-02  0.1184000E+00
        -11   -1    0    0    0    0  0.00000000000E+00  0.00000000000E+00  0.45593999997E+02  0.45594000000E+02  0.51100000000E-03 0. -1.
         11   -1    0    0    0    0 -0.00000000000E+00 -0.00000000000E+00 -0.45593999997E+02  0.45594000000E+02  0.51100000000E-03 0.  1.
         23    2    1    2    0    0  0.00000000000E+00  0.00000000000E+00  0.00000000000E+00  0.91188000000E+02  0.91188000000E+02 0.  0.
    9900012    2    3    3    0    0  0.13586519547E+02  0.19036650370E+02 -0.36560031454E+02  0.47787268777E+02  0.19999989663E+02 0.  0.
         12    1    3    3    0    0 -0.13586519547E+02 -0.19036650370E+02  0.36560031454E+02  0.43400731223E+02  0.00000000000E+00 0. -1.
         11    1    4    4    0    0  0.11746990037E+01  0.18188830812E+00 -0.89832137160E+01  0.90615191902E+01  0.51100000000E-03 0. -1.
        -11    1    4    4    0    0  0.13533065780E+02  0.18059598900E+02 -0.29000530460E+02  0.36746751545E+02  0.51100000000E-03 0.  1.
         12    1    4    4    0    0 -0.11212452370E+01  0.79516316195E+00  0.14237127222E+01  0.19789980421E+01  0.00000000000E+00 0. -1.
</event>
<event>
 8    1  0.4042158E-011  0.9118800E+02  0.7816164E-02  0.1184000E+00
        -11   -1    0    0    0    0  0.00000000000E+00  0.00000000000E+00  0.45593999997E+02  0.45594000000E+02  0.51100000000E-03 0.  1.
         11   -1    0    0    0    0 -0.00000000000E+00 -0.00000000000E+00 -0.45593999997E+02  0.45594000000E+02  0.51100000000E-03 0. -1.
         23    2    1    2    0    0  0.35527136788E-14  0.00000000000E+00  0.71054273576E-14  0.91188000000E+02  0.91188000000E+02 0.  0.
    9900012    2    3    3    0    0 -0.20053439445E+02  0.15492519647E+02 -0.35234426119E+02  0.47787269793E+02  0.19999994292E+02 0.  0.
         12    1    3    3    0    0  0.20053439445E+02 -0.15492519647E+02  0.35234426119E+02  0.43400730207E+02  0.00000000000E+00 0. -1.
         11    1    4    4    0    0 -0.13461030471E+01  0.85268175116E+01 -0.77533342010E+01  0.11603137584E+02  0.51100000000E-03 0. -1.
        -11    1    4    4    0    0 -0.13900803301E+02  0.76362461448E+01 -0.11797329547E+02  0.19766678332E+02  0.51100000000E-03 0.  1.
         12    1    4    4    0    0 -0.48065330970E+01 -0.67054400896E+00 -0.15683762371E+02  0.16417453877E+02  0.00000000000E+00 0. -1.
</event>
<event>
 8    1  0.4042158E-011  0.9118800E+02  0.7816164E-02  0.1184000E+00
        -11   -1    0    0    0    0  0.00000000000E+00  0.00000000000E+00  0.45593999997E+02  0.45594000000E+02  0.51100000000E-03 0. -1.
         11   -1    0    0    0    0 -0.00000000000E+00 -0.00000000000E+00 -0.45593999997E+02  0.45594000000E+02  0.51100000000E-03 0.  1.
         23    2    1    2    0    0  0.00000000000E+00  0.35527136788E-14  0.00000000000E+00  0.91188000000E+02  0.91188000000E+02 0.  0.
    9900012    2    3    3    0    0 -0.33678840750E+02 -0.19945221637E+02  0.18749574489E+02  0.47787277380E+02  0.20000028886E+02 0.  0.
        -12    1    3    3    0    0  0.33678840750E+02  0.19945221637E+02 -0.18749574489E+02  0.43400722620E+02  0.00000000000E+00 0.  1.
         11    1    4    4    0    0 -0.35643250971E+00 -0.31704821104E+01  0.35468154389E+01  0.47706289905E+01  0.51100000000E-03 0. -1.
        -11    1    4    4    0    0  0.69983444021E-01  0.60228436059E+00  0.35639978955E+01  0.36152075174E+01  0.51100000000E-03 0.  1.
         12    1    4    4    0    0 -0.33392391685E+02 -0.17377023887E+02  0.11638761154E+02  0.39401440872E+02  0.00000000000E+00 0. -1.
</event>
<event>
 8    1  0.4042158E-011  0.9118800E+02  0.7816164E-02  0.1184000E+00
        -11   -1    0    0    0    0  0.00000000000E+00  0.00000000000E+00  0.45593999997E+02  0.45594000000E+02  0.51100000000E-03 0. -1.
         11   -1    0    0    0    0 -0.00000000000E+00 -0.00000000000E+00 -0.45593999997E+02  0.45594000000E+02  0.51100000000E-03 0.  1.
         23    2    1    2    0    0  0.00000000000E+00  0.00000000000E+00  0.00000000000E+00  0.91188000000E+02  0.91188000000E+02 0.  0.
    9900012    2    3    3    0    0 -0.27473343968E+02  0.83929645985E+01 -0.32533011891E+02  0.47787270211E+02  0.19999996198E+02 0.  0.
         12    1    3    3    0    0  0.27473343968E+02 -0.83929645985E+01  0.32533011891E+02  0.43400729789E+02  0.00000000000E+00 0. -1.
         11    1    4    4    0    0 -0.12805919160E+02  0.46154136369E+01 -0.49259543353E+01  0.14476140195E+02  0.51100000000E-03 0. -1.
        -11    1    4    4    0    0 -0.88351893461E+01  0.18061019694E+01 -0.59692633307E+01  0.10814558709E+02  0.51100000000E-03 0.  1.
        -12    1    4    4    0    0 -0.58322354623E+01  0.19714489922E+01 -0.21637794225E+02  0.22496571306E+02  0.00000000000E+00 0.  1.
</event>
<event>
 8    1  0.4042158E-011  0.9118800E+02  0.7816164E-02  0.1184000E+00
        -11   -1    0    0    0    0  0.00000000000E+00  0.00000000000E+00  0.45593999997E+02  0.45594000000E+02  0.51100000000E-03 0. -1.
         11   -1    0    0    0    0 -0.00000000000E+00 -0.00000000000E+00 -0.45593999997E+02  0.45594000000E+02  0.51100000000E-03 0.  1.
         23    2    1    2    0    0  0.00000000000E+00  0.55511151231E-15  0.00000000000E+00  0.91188000000E+02  0.91188000000E+02 0.  0.
    9900012    2    3    3    0    0 -0.25650003859E+02 -0.76922351852E+00  0.35001546380E+02  0.47787278212E+02  0.20000032679E+02 0.  0.
        -12    1    3    3    0    0  0.25650003859E+02  0.76922351852E+00 -0.35001546380E+02  0.43400721788E+02  0.00000000000E+00 0.  1.
         11    1    4    4    0    0 -0.12450758888E+02  0.20190259265E+00  0.25553257959E+02  0.28425888801E+02  0.51100000000E-03 0. -1.
        -11    1    4    4    0    0 -0.11918766182E+01  0.32749501789E+01  0.45142957045E+01  0.57030460734E+01  0.51100000000E-03 0.  1.
        -12    1    4    4    0    0 -0.12007368352E+02 -0.42460762901E+01  0.49339927161E+01  0.13658343337E+02  0.00000000000E+00 0.  1.
</event>
<event>
 8    1  0.4042158E-011  0.9118800E+02  0.7816164E-02  0.1184000E+00
        -11   -1    0    0    0    0  0.00000000000E+00  0.00000000000E+00  0.45593999997E+02  0.45594000000E+02  0.51100000000E-03 0. -1.
         11   -1    0    0    0    0 -0.00000000000E+00 -0.00000000000E+00 -0.45593999997E+02  0.45594000000E+02  0.51100000000E-03 0.  1.
         23    2    1    2    0    0  0.00000000000E+00  0.88817841970E-15  0.00000000000E+00  0.91188000000E+02  0.91188000000E+02 0.  0.
    9900012    2    3    3    0    0  0.40046855796E+02 -0.48257731677E+01 -0.16018267026E+02  0.47787267007E+02  0.19999981591E+02 0.  0.
         12    1    3    3    0    0 -0.40046855796E+02  0.48257731677E+01  0.16018267026E+02  0.43400732993E+02  0.00000000000E+00 0. -1.
         11    1    4    4    0    0  0.33514568186E+00  0.71835011635E-01  0.18567556856E+01  0.18881273352E+01  0.51100000000E-03 0. -1.
        -11    1    4    4    0    0  0.48315988109E+01 -0.49016924896E+01 -0.57602040056E+01  0.89750145838E+01  0.51100000000E-03 0.  1.
        -12    1    4    4    0    0  0.34880111303E+02  0.40843102448E-02 -0.12114818706E+02  0.36924125088E+02  0.00000000000E+00 0.  1.
</event>
<event>
 8    1  0.4042158E-011  0.9118800E+02  0.7816164E-02  0.1184000E+00
        -11   -1    0    0    0    0  0.00000000000E+00  0.00000000000E+00  0.45593999997E+02  0.45594000000E+02  0.51100000000E-03 0. -1.
         11   -1    0    0    0    0 -0.00000000000E+00 -0.00000000000E+00 -0.45593999997E+02  0.45594000000E+02  0.51100000000E-03 0.  1.
         23    2    1    2    0    0  0.00000000000E+00  0.00000000000E+00  0.00000000000E+00  0.91188000000E+02  0.91188000000E+02 0.  0.
    9900012    2    3    3    0    0  0.11489069902E+02 -0.44188432385E+01 -0.41618482280E+02  0.47787274545E+02  0.20000015960E+02 0.  0.
         12    1    3    3    0    0 -0.11489069902E+02  0.44188432385E+01  0.41618482280E+02  0.43400725455E+02  0.00000000000E+00 0. -1.
         11    1    4    4    0    0  0.64901048294E+01 -0.23590567256E+01 -0.72452852924E+01  0.10009034347E+02  0.51100000000E-03 0. -1.
        -11    1    4    4    0    0  0.96116169192E+01 -0.33111017086E+01 -0.28164542887E+02  0.29943080179E+02  0.51100000000E-03 0.  1.
        -12    1    4    4    0    0 -0.46126518470E+01  0.12513151957E+01 -0.62086541004E+01  0.78351600188E+01  0.00000000000E+00 0.  1.
</event>
<event>
 8    1  0.4042158E-011  0.9118800E+02  0.7816164E-02  0.1184000E+00
        -11   -1    0    0    0    0  0.00000000000E+00  0.00000000000E+00  0.45593999997E+02  0.45594000000E+02  0.51100000000E-03 0. -1.
         11   -1    0    0    0    0 -0.00000000000E+00 -0.00000000000E+00 -0.45593999997E+02  0.45594000000E+02  0.51100000000E-03 0.  1.
         23    2    1    2    0    0  0.00000000000E+00  0.00000000000E+00  0.35527136788E-14  0.91188000000E+02  0.91188000000E+02 0.  0.
    9900012    2    3    3    0    0 -0.12726347984E+02  0.27342833481E+02  0.31209500672E+02  0.47787269499E+02  0.19999992955E+02 0.  0.
        -12    1    3    3    0    0  0.12726347984E+02 -0.27342833481E+02 -0.31209500672E+02  0.43400730501E+02  0.00000000000E+00 0.  1.
         11    1    4    4    0    0 -0.81786547554E+01  0.64393599527E+01  0.72091912801E+01  0.12662076819E+02  0.51100000000E-03 0. -1.
        -11    1    4    4    0    0 -0.69618428438E+01  0.17749067636E+02  0.12104039506E+02  0.22583277671E+02  0.51100000000E-03 0.  1.
         12    1    4    4    0    0  0.24141496149E+01  0.31544058926E+01  0.11896269886E+02  0.12541915009E+02  0.00000000000E+00 0. -1.
</event>
<event>
 8    1  0.4042158E-011  0.9118800E+02  0.7816164E-02  0.1184000E+00
        -11   -1    0    0    0    0  0.00000000000E+00  0.00000000000E+00  0.45593999997E+02  0.45594000000E+02  0.51100000000E-03 0. -1.
         11   -1    0    0    0    0 -0.00000000000E+00 -0.00000000000E+00 -0.45593999997E+02  0.45594000000E+02  0.51100000000E-03 0.  1.
         23    2    1    2    0    0  0.00000000000E+00  0.00000000000E+00  0.00000000000E+00  0.91188000000E+02  0.91188000000E+02 0.  0.
    9900012    2    3    3    0    0 -0.17513943008E+02  0.34547490313E+02  0.19579474567E+02  0.47787272922E+02  0.20000008560E+02 0.  0.
        -12    1    3    3    0    0  0.17513943008E+02 -0.34547490313E+02 -0.19579474567E+02  0.43400727078E+02  0.00000000000E+00 0.  1.
         11    1    4    4    0    0 -0.14102543987E+02  0.21620487211E+02  0.79047806177E+01  0.26996532574E+02  0.51100000000E-03 0. -1.
        -11    1    4    4    0    0 -0.47680360874E+01  0.61035610171E+00  0.30330361840E+01  0.56838377401E+01  0.51100000000E-03 0.  1.
         12    1    4    4    0    0  0.13566370671E+01  0.12316647000E+02  0.86416577656E+01  0.15106902608E+02  0.00000000000E+00 0. -1.
</event>
<event>
 8    1  0.4042158E-011  0.9118800E+02  0.7816164E-02  0.1184000E+00
        -11   -1    0    0    0    0  0.00000000000E+00  0.00000000000E+00  0.45593999997E+02  0.45594000000E+02  0.51100000000E-03 0. -1.
         11   -1    0    0    0    0 -0.00000000000E+00 -0.00000000000E+00 -0.45593999997E+02  0.45594000000E+02  0.51100000000E-03 0.  1.
         23    2    1    2    0    0 -0.22204460493E-15  0.00000000000E+00  0.00000000000E+00  0.91188000000E+02  0.91188000000E+02 0.  0.
    9900012    2    3    3    0    0  0.10616527552E+01 -0.40322653781E+01  0.43199960634E+02  0.47787275704E+02  0.20000021245E+02 0.  0.
        -12    1    3    3    0    0 -0.10616527552E+01  0.40322653781E+01 -0.43199960634E+02  0.43400724296E+02  0.00000000000E+00 0.  1.
         11    1    4    4    0    0 -0.43810550093E+00  0.15001599947E+01  0.13431236381E+02  0.13521853698E+02  0.51100000000E-03 0. -1.
        -11    1    4    4    0    0 -0.54894496729E+01 -0.38629432640E+01  0.47184955269E+01  0.82049124718E+01  0.51100000000E-03 0.  1.
        -12    1    4    4    0    0  0.69892079290E+01 -0.16694821087E+01  0.25050228725E+02  0.26060509534E+02  0.00000000000E+00 0.  1.
</event>
<event>
 8    1  0.4042158E-011  0.9118800E+02  0.7816164E-02  0.1184000E+00
        -11   -1    0    0    0    0  0.00000000000E+00  0.00000000000E+00  0.45593999997E+02  0.45594000000E+02  0.51100000000E-03 0.  1.
         11   -1    0    0    0    0 -0.00000000000E+00 -0.00000000000E+00 -0.45593999997E+02  0.45594000000E+02  0.51100000000E-03 0. -1.
         23    2    1    2    0    0  0.00000000000E+00  0.00000000000E+00  0.17763568394E-14  0.91188000000E+02  0.91188000000E+02 0.  0.
    9900012    2    3    3    0    0  0.32138076997E+02 -0.26734670011E+02 -0.11662955403E+02  0.47787273020E+02  0.20000009005E+02 0.  0.
         12    1    3    3    0    0 -0.32138076997E+02  0.26734670011E+02  0.11662955403E+02  0.43400726980E+02  0.00000000000E+00 0. -1.
         11    1    4    4    0    0 -0.16112611727E+01 -0.20757544692E+01 -0.40196883870E+01  0.48023758883E+01  0.51100000000E-03 0. -1.
        -11    1    4    4    0    0  0.86902404386E+01 -0.10073159509E+02 -0.25614873706E+01  0.13548064038E+02  0.51100000000E-03 0.  1.
        -12    1    4    4    0    0  0.25059097732E+02 -0.14585756033E+02 -0.50817796456E+01  0.29436833093E+02  0.00000000000E+00 0.  1.
</event>
<event>
 8    1  0.4042158E-011  0.9118800E+02  0.7816164E-02  0.1184000E+00
        -11   -1    0    0    0    0  0.00000000000E+00  0.00000000000E+00  0.45593999997E+02  0.45594000000E+02  0.51100000000E-03 0. -1.
         11   -1    0    0    0    0 -0.00000000000E+00 -0.00000000000E+00 -0.45593999997E+02  0.45594000000E+02  0.51100000000E-03 0.  1.
         23    2    1    2    0    0  0.00000000000E+00  0.00000000000E+00  0.00000000000E+00  0.91188000000E+02  0.91188000000E+02 0.  0.
    9900012    2    3    3    0    0  0.13166397548E+02 -0.29820617973E+01  0.41247746210E+02  0.47787270924E+02  0.19999999450E+02 0.  0.
        -12    1    3    3    0    0 -0.13166397548E+02  0.29820617973E+01 -0.41247746210E+02  0.43400729076E+02  0.00000000000E+00 0.  1.
         11    1    4    4    0    0  0.44545326860E+00  0.47028407164E+01  0.84864705611E+01  0.97126372455E+01  0.51100000000E-03 0. -1.
        -11    1    4    4    0    0  0.75194458686E+01  0.14294143127E+01  0.74812658398E+01  0.10703019680E+02  0.51100000000E-03 0.  1.
         12    1    4    4    0    0  0.52014984112E+01 -0.91143168264E+01  0.25280009809E+02  0.27371613998E+02  0.00000000000E+00 0. -1.
</event>
<event>
 8    1  0.4042158E-011  0.9118800E+02  0.7816164E-02  0.1184000E+00
        -11   -1    0    0    0    0  0.00000000000E+00  0.00000000000E+00  0.45593999997E+02  0.45594000000E+02  0.51100000000E-03 0. -1.
         11   -1    0    0    0    0 -0.00000000000E+00 -0.00000000000E+00 -0.45593999997E+02  0.45594000000E+02  0.51100000000E-03 0.  1.
         23    2    1    2    0    0 -0.71054273576E-14  0.17763568394E-14  0.17763568394E-14  0.91188000000E+02  0.91188000000E+02 0.  0.
    9900012    2    3    3    0    0 -0.42593990315E+02  0.44484707959E+01  0.70418858784E+01  0.47787250466E+02  0.19999906176E+02 0.  0.
         12    1    3    3    0    0  0.42593990315E+02 -0.44484707959E+01 -0.70418858784E+01  0.43400749534E+02  0.00000000000E+00 0. -1.
         11    1    4    4    0    0 -0.12265501821E+02 -0.12817028085E+01 -0.14714405434E+01  0.12419759842E+02  0.51100000000E-03 0. -1.
        -11    1    4    4    0    0 -0.31080474690E+02  0.67622317814E+01  0.57496861885E+01  0.32323096652E+02  0.51100000000E-03 0.  1.
         12    1    4    4    0    0  0.75198619621E+00 -0.10320581770E+01  0.27636402333E+01  0.30443939724E+01  0.00000000000E+00 0. -1.
</event>
<event>
 8    1  0.4042158E-011  0.9118800E+02  0.7816164E-02  0.1184000E+00
        -11   -1    0    0    0    0  0.00000000000E+00  0.00000000000E+00  0.45593999997E+02  0.45594000000E+02  0.51100000000E-03 0. -1.
         11   -1    0    0    0    0 -0.00000000000E+00 -0.00000000000E+00 -0.45593999997E+02  0.45594000000E+02  0.51100000000E-03 0.  1.
         23    2    1    2    0    0 -0.35527136788E-14 -0.17763568394E-14  0.00000000000E+00  0.91188000000E+02  0.91188000000E+02 0.  0.
    9900012    2    3    3    0    0 -0.16568512139E+02  0.15579744549E+02 -0.36964571256E+02  0.47787267715E+02  0.19999984819E+02 0.  0.
         12    1    3    3    0    0  0.16568512139E+02 -0.15579744549E+02  0.36964571256E+02  0.43400732285E+02  0.00000000000E+00 0. -1.
         11    1    4    4    0    0 -0.11767922297E+02  0.99927507713E+01 -0.20923585668E+02  0.26002605650E+02  0.51100000000E-03 0. -1.
        -11    1    4    4    0    0 -0.79353932214E+01  0.39503946221E+01 -0.49698310886E+01  0.10162445796E+02  0.51100000000E-03 0.  1.
         12    1    4    4    0    0  0.31348033788E+01  0.16365991560E+01 -0.11071154500E+02  0.11622216268E+02  0.00000000000E+00 0. -1.
</event>
<event>
 8    1  0.4042158E-011  0.9118800E+02  0.7816164E-02  0.1184000E+00
        -11   -1    0    0    0    0  0.00000000000E+00  0.00000000000E+00  0.45593999997E+02  0.45594000000E+02  0.51100000000E-03 0. -1.
         11   -1    0    0    0    0 -0.00000000000E+00 -0.00000000000E+00 -0.45593999997E+02  0.45594000000E+02  0.51100000000E-03 0.  1.
         23    2    1    2    0    0  0.00000000000E+00  0.00000000000E+00  0.00000000000E+00  0.91188000000E+02  0.91188000000E+02 0.  0.
    9900012    2    3    3    0    0 -0.10599492779E+02  0.27508602840E+02  0.31852019373E+02  0.47787267108E+02  0.19999982053E+02 0.  0.
        -12    1    3    3    0    0  0.10599492779E+02 -0.27508602840E+02 -0.31852019373E+02  0.43400732892E+02  0.00000000000E+00 0.  1.
         11    1    4    4    0    0 -0.30785823088E+01  0.70145537383E+01  0.14932612953E+02  0.16782865162E+02  0.51100000000E-03 0. -1.
        -11    1    4    4    0    0 -0.18726767560E+01  0.18139816928E+02  0.16932551351E+02  0.24885159673E+02  0.51100000000E-03 0.  1.
        -12    1    4    4    0    0 -0.56482337141E+01  0.23542321739E+01 -0.13144930250E-01  0.61192422740E+01  0.00000000000E+00 0.  1.
</event>
<event>
 8    1  0.4042158E-011  0.9118800E+02  0.7816164E-02  0.1184000E+00
        -11   -1    0    0    0    0  0.00000000000E+00  0.00000000000E+00  0.45593999997E+02  0.45594000000E+02  0.51100000000E-03 0. -1.
         11   -1    0    0    0    0 -0.00000000000E+00 -0.00000000000E+00 -0.45593999997E+02  0.45594000000E+02  0.51100000000E-03 0.  1.
         23    2    1    2    0    0  0.00000000000E+00  0.00000000000E+00 -0.17763568394E-14  0.91188000000E+02  0.91188000000E+02 0.  0.
    9900012    2    3    3    0    0 -0.37434415278E+02  0.16841409758E+02  0.14094495469E+02  0.47787270371E+02  0.19999996928E+02 0.  0.
        -12    1    3    3    0    0  0.37434415278E+02 -0.16841409758E+02 -0.14094495469E+02  0.43400729629E+02  0.00000000000E+00 0.  1.
         11    1    4    4    0    0 -0.54008489226E+01 -0.20089151800E+01  0.49772667868E+01  0.76143347847E+01  0.51100000000E-03 0. -1.
        -11    1    4    4    0    0 -0.36791471725E+01 -0.12053750610E+01 -0.10004637414E+01  0.39987474180E+01  0.51100000000E-03 0.  1.
        -12    1    4    4    0    0 -0.28354419183E+02  0.20055699999E+02  0.10117692423E+02  0.36174188168E+02  0.00000000000E+00 0.  1.
</event>
<event>
 8    1  0.4042158E-011  0.9118800E+02  0.7816164E-02  0.1184000E+00
        -11   -1    0    0    0    0  0.00000000000E+00  0.00000000000E+00  0.45593999997E+02  0.45594000000E+02  0.51100000000E-03 0. -1.
         11   -1    0    0    0    0 -0.00000000000E+00 -0.00000000000E+00 -0.45593999997E+02  0.45594000000E+02  0.51100000000E-03 0.  1.
         23    2    1    2    0    0  0.00000000000E+00 -0.35527136788E-14  0.00000000000E+00  0.91188000000E+02  0.91188000000E+02 0.  0.
    9900012    2    3    3    0    0 -0.59516200217E+01 -0.28269481677E+02 -0.32388846052E+02  0.47787277382E+02  0.20000028896E+02 0.  0.
         12    1    3    3    0    0  0.59516200217E+01  0.28269481677E+02  0.32388846052E+02  0.43400722618E+02  0.00000000000E+00 0. -1.
         11    1    4    4    0    0  0.17845550918E+01 -0.44241440338E+01  0.25003790429E-01  0.47705673413E+01  0.51100000000E-03 0. -1.
        -11    1    4    4    0    0  0.13128575323E+01 -0.16410570692E+02 -0.20752081625E+02  0.26489230214E+02  0.51100000000E-03 0.  1.
        -12    1    4    4    0    0 -0.90490326458E+01 -0.74347669516E+01 -0.11661768218E+02  0.16527479826E+02  0.00000000000E+00 0.  1.
</event>
<event>
 8    1  0.4042158E-011  0.9118800E+02  0.7816164E-02  0.1184000E+00
        -11   -1    0    0    0    0  0.00000000000E+00  0.00000000000E+00  0.45593999997E+02  0.45594000000E+02  0.51100000000E-03 0. -1.
         11   -1    0    0    0    0 -0.00000000000E+00 -0.00000000000E+00 -0.45593999997E+02  0.45594000000E+02  0.51100000000E-03 0.  1.
         23    2    1    2    0    0  0.00000000000E+00 -0.55511151231E-15  0.00000000000E+00  0.91188000000E+02  0.91188000000E+02 0.  0.
    9900012    2    3    3    0    0 -0.17288947676E+02  0.93674748802E+00 -0.39797465313E+02  0.47787268981E+02  0.19999990594E+02 0.  0.
         12    1    3    3    0    0  0.17288947676E+02 -0.93674748802E+00  0.39797465313E+02  0.43400731019E+02  0.00000000000E+00 0. -1.
         11    1    4    4    0    0 -0.16839348088E+01  0.10631778248E+01  0.89797166042E+00  0.21845678958E+01  0.51100000000E-03 0. -1.
        -11    1    4    4    0    0 -0.93703952678E+01  0.10207288656E+01 -0.81961502290E+01  0.12490919651E+02  0.51100000000E-03 0.  1.
         12    1    4    4    0    0 -0.62346175989E+01 -0.11471592024E+01 -0.32499286745E+02  0.33111781434E+02  0.00000000000E+00 0. -1.
</event>
<event>
 8    1  0.5489963E-011  0.9118800E+02  0.7816164E-02  0.1184000E+00
        -11   -1    0    0    0    0  0.00000000000E+00  0.00000000000E+00  0.45593999997E+02  0.45594000000E+02  0.51100000000E-03 0. -1.
         11   -1    0    0    0    0 -0.00000000000E+00 -0.00000000000E+00 -0.45593999997E+02  0.45594000000E+02  0.51100000000E-03 0.  1.
         23    2    1    2    0    0  0.00000000000E+00  0.00000000000E+00  0.00000000000E+00  0.91188000000E+02  0.91188000000E+02 0.  0.
    9900012    2    3    3    0    0 -0.21517775910E+02  0.17742338796E+02  0.33253851566E+02  0.47787263716E+02  0.19999966585E+02 0.  0.
        -12    1    3    3    0    0  0.21517775910E+02 -0.17742338796E+02 -0.33253851566E+02  0.43400736284E+02  0.00000000000E+00 0.  1.
         11    1    4    4    0    0 -0.13794516396E+02  0.54709218576E+01  0.17613746924E+02  0.23031798660E+02  0.51100000000E-03 0. -1.
        -11    1    4    4    0    0 -0.94959784984E+01  0.95387056358E+01  0.16589240000E+02  0.21362663619E+02  0.51100000000E-03 0.  1.
        -12    1    4    4    0    0  0.17727189840E+01  0.27327113025E+01 -0.94913535827E+00  0.33928014365E+01  0.00000000000E+00 0.  1.
</event>
<event>
 8    1  0.4042158E-011  0.9118800E+02  0.7816164E-02  0.1184000E+00
        -11   -1    0    0    0    0  0.00000000000E+00  0.00000000000E+00  0.45593999997E+02  0.45594000000E+02  0.51100000000E-03 0. -1.
         11   -1    0    0    0    0 -0.00000000000E+00 -0.00000000000E+00 -0.45593999997E+02  0.45594000000E+02  0.51100000000E-03 0.  1.
         23    2    1    2    0    0 -0.35527136788E-14  0.17763568394E-14  0.00000000000E+00  0.91188000000E+02  0.91188000000E+02 0.  0.
    9900012    2    3    3    0    0 -0.19708296655E+02  0.11436295707E+02 -0.36938024406E+02  0.47787268859E+02  0.19999990036E+02 0.  0.
         12    1    3    3    0    0  0.19708296655E+02 -0.11436295707E+02  0.36938024406E+02  0.43400731141E+02  0.00000000000E+00 0. -1.
         11    1    4    4    0    0 -0.21233156591E+01 -0.30952460026E+01 -0.39161728086E+01  0.54245208943E+01  0.51100000000E-03 0. -1.
        -11    1    4    4    0    0 -0.45838467758E+01  0.45624683509E+01 -0.12095268830E+01  0.65795686985E+01  0.51100000000E-03 0.  1.
        -12    1    4    4    0    0 -0.13001134220E+02  0.99690733586E+01 -0.31812324715E+02  0.35783179266E+02  0.00000000000E+00 0.  1.
</event>
<event>
 8    1  0.4042158E-011  0.9118800E+02  0.7816164E-02  0.1184000E+00
        -11   -1    0    0    0    0  0.00000000000E+00  0.00000000000E+00  0.45593999997E+02  0.45594000000E+02  0.51100000000E-03 0. -1.
         11   -1    0    0    0    0 -0.00000000000E+00 -0.00000000000E+00 -0.45593999997E+02  0.45594000000E+02  0.51100000000E-03 0.  1.
         23    2    1    2    0    0  0.35527136788E-14 -0.44408920985E-15  0.00000000000E+00  0.91188000000E+02  0.91188000000E+02 0.  0.
    9900012    2    3    3    0    0  0.17490242289E+02  0.38535970950E+01  0.39533080613E+02  0.47787271335E+02  0.20000001325E+02 0.  0.
        -12    1    3    3    0    0 -0.17490242289E+02 -0.38535970950E+01 -0.39533080613E+02  0.43400728665E+02  0.00000000000E+00 0.  1.
         11    1    4    4    0    0  0.25229795974E+01  0.61888089885E+01  0.11857500094E+02  0.13611285446E+02  0.51100000000E-03 0. -1.
        -11    1    4    4    0    0  0.14473787252E+02  0.90731812874E+00  0.27249908706E+02  0.30868612997E+02  0.51100000000E-03 0.  1.
        -12    1    4    4    0    0  0.49347543958E+00 -0.32425300222E+01  0.42567181237E+00  0.33073728919E+01  0.00000000000E+00 0.  1.
</event>
<event>
 8    1  0.4042158E-011  0.9118800E+02  0.7816164E-02  0.1184000E+00
        -11   -1    0    0    0    0  0.00000000000E+00  0.00000000000E+00  0.45593999997E+02  0.45594000000E+02  0.51100000000E-03 0. -1.
         11   -1    0    0    0    0 -0.00000000000E+00 -0.00000000000E+00 -0.45593999997E+02  0.45594000000E+02  0.51100000000E-03 0.  1.
         23    2    1    2    0    0 -0.35527136788E-14  0.17763568394E-14  0.71054273576E-14  0.91188000000E+02  0.91188000000E+02 0.  0.
    9900012    2    3    3    0    0 -0.24035412527E+02  0.81500377564E+01 -0.35206522201E+02  0.47787269865E+02  0.19999994622E+02 0.  0.
         12    1    3    3    0    0  0.24035412527E+02 -0.81500377564E+01  0.35206522201E+02  0.43400730135E+02  0.00000000000E+00 0. -1.
         11    1    4    4    0    0 -0.92220244433E+01  0.97169779268E+01 -0.25056973316E+02  0.28413329739E+02  0.51100000000E-03 0. -1.
        -11    1    4    4    0    0 -0.99284740542E+01  0.19666288028E+01 -0.82350147508E+01  0.13048283186E+02  0.51100000000E-03 0.  1.
         12    1    4    4    0    0 -0.48849140297E+01 -0.35335689732E+01 -0.19145341341E+01  0.63256569395E+01  0.00000000000E+00 0. -1.
</event>
<event>
 8    1  0.4042158E-011  0.9118800E+02  0.7816164E-02  0.1184000E+00
        -11   -1    0    0    0    0  0.00000000000E+00  0.00000000000E+00  0.45593999997E+02  0.45594000000E+02  0.51100000000E-03 0. -1.
         11   -1    0    0    0    0 -0.00000000000E+00 -0.00000000000E+00 -0.45593999997E+02  0.45594000000E+02  0.51100000000E-03 0.  1.
         23    2    1    2    0    0  0.17763568394E-14  0.00000000000E+00 -0.71054273576E-14  0.91188000000E+02  0.91188000000E+02 0.  0.
    9900012    2    3    3    0    0 -0.78928833698E+01 -0.14683448238E+02  0.40071452749E+02  0.47787278975E+02  0.20000036159E+02 0.  0.
        -12    1    3    3    0    0  0.78928833698E+01  0.14683448238E+02 -0.40071452749E+02  0.43400721025E+02  0.00000000000E+00 0.  1.
         11    1    4    4    0    0 -0.58552652984E+01 -0.56500402769E+01  0.29336370374E+02  0.30443878101E+02  0.51100000000E-03 0. -1.
        -11    1    4    4    0    0  0.32489336229E+01 -0.67446183765E+01  0.80322939847E+01  0.10980127215E+02  0.51100000000E-03 0.  1.
        -12    1    4    4    0    0 -0.52865516944E+01 -0.22887895843E+01  0.27027883904E+01  0.63632736592E+01  0.00000000000E+00 0.  1.
</event>
<event>
 8    1  0.4042158E-011  0.9118800E+02  0.7816164E-02  0.1184000E+00
        -11   -1    0    0    0    0  0.00000000000E+00  0.00000000000E+00  0.45593999997E+02  0.45594000000E+02  0.51100000000E-03 0. -1.
         11   -1    0    0    0    0 -0.00000000000E+00 -0.00000000000E+00 -0.45593999997E+02  0.45594000000E+02  0.51100000000E-03 0.  1.
         23    2    1    2    0    0  0.00000000000E+00  0.17763568394E-14  0.00000000000E+00  0.91188000000E+02  0.91188000000E+02 0.  0.
    9900012    2    3    3    0    0 -0.14406848732E+02 -0.97095110351E+01 -0.39771739763E+02  0.47787272141E+02  0.20000005001E+02 0.  0.
         12    1    3    3    0    0  0.14406848732E+02  0.97095110351E+01  0.39771739763E+02  0.43400727859E+02  0.00000000000E+00 0. -1.
         11    1    4    4    0    0  0.14582705239E+01  0.16458336351E+00 -0.47105036485E+01  0.49338104430E+01  0.51100000000E-03 0. -1.
        -11    1    4    4    0    0 -0.28977356799E+01 -0.60349255318E+01 -0.25310954472E+02  0.26181321869E+02  0.51100000000E-03 0.  1.
        -12    1    4    4    0    0 -0.12967383576E+02 -0.38391688668E+01 -0.97502816418E+01  0.16672139829E+02  0.00000000000E+00 0.  1.
</event>
<event>
 8    1  0.4042158E-011  0.9118800E+02  0.7816164E-02  0.1184000E+00
        -11   -1    0    0    0    0  0.00000000000E+00  0.00000000000E+00  0.45593999997E+02  0.45594000000E+02  0.51100000000E-03 0.  1.
         11   -1    0    0    0    0 -0.00000000000E+00 -0.00000000000E+00 -0.45593999997E+02  0.45594000000E+02  0.51100000000E-03 0. -1.
         23    2    1    2    0    0  0.35527136788E-14  0.35527136788E-14 -0.44408920985E-15  0.91188000000E+02  0.91188000000E+02 0.  0.
    9900012    2    3    3    0    0  0.31410806455E+02  0.29795689028E+02  0.30333377766E+01  0.47787274374E+02  0.20000015181E+02 0.  0.
         12    1    3    3    0    0 -0.31410806455E+02 -0.29795689028E+02 -0.30333377766E+01  0.43400725626E+02  0.00000000000E+00 0. -1.
         11    1    4    4    0    0  0.48896383511E+01  0.63715580000E+01  0.70480487920E+01  0.10685518546E+02  0.51100000000E-03 0. -1.
        -11    1    4    4    0    0  0.12021384885E+02  0.15239309076E+02  0.17329354932E+01  0.19487259975E+02  0.51100000000E-03 0.  1.
         12    1    4    4    0    0  0.14499783219E+02  0.81848219524E+01 -0.57476465087E+01  0.17614495854E+02  0.00000000000E+00 0. -1.
</event>
<event>
 8    1  0.4042158E-011  0.9118800E+02  0.7816164E-02  0.1184000E+00
        -11   -1    0    0    0    0  0.00000000000E+00  0.00000000000E+00  0.45593999997E+02  0.45594000000E+02  0.51100000000E-03 0. -1.
         11   -1    0    0    0    0 -0.00000000000E+00 -0.00000000000E+00 -0.45593999997E+02  0.45594000000E+02  0.51100000000E-03 0.  1.
         23    2    1    2    0    0 -0.17763568394E-14  0.00000000000E+00 -0.71054273576E-14  0.91188000000E+02  0.91188000000E+02 0.  0.
    9900012    2    3    3    0    0 -0.54913086921E+01 -0.41383283029E+01 -0.42852574865E+02  0.47787269535E+02  0.19999993118E+02 0.  0.
         12    1    3    3    0    0  0.54913086921E+01  0.41383283029E+01  0.42852574865E+02  0.43400730465E+02  0.00000000000E+00 0. -1.
         11    1    4    4    0    0 -0.66625909164E+01 -0.74230497157E+01 -0.24993349772E+02  0.26910208432E+02  0.51100000000E-03 0. -1.
        -11    1    4    4    0    0 -0.21977885691E+01  0.21868188676E+01 -0.16933083639E+02  0.17214580249E+02  0.51100000000E-03 0.  1.
         12    1    4    4    0    0  0.33690707934E+01  0.10979025452E+01 -0.92614145444E+00  0.36624808536E+01  0.00000000000E+00 0. -1.
</event>
<event>
 8    1  0.4042158E-011  0.9118800E+02  0.7816164E-02  0.1184000E+00
        -11   -1    0    0    0    0  0.00000000000E+00  0.00000000000E+00  0.45593999997E+02  0.45594000000E+02  0.51100000000E-03 0.  1.
         11   -1    0    0    0    0 -0.00000000000E+00 -0.00000000000E+00 -0.45593999997E+02  0.45594000000E+02  0.51100000000E-03 0. -1.
         23    2    1    2    0    0  0.00000000000E+00  0.00000000000E+00  0.22204460493E-15  0.91188000000E+02  0.91188000000E+02 0.  0.
    9900012    2    3    3    0    0  0.42098441282E+02 -0.10525543690E+02  0.74639930014E+00  0.47787274888E+02  0.20000017524E+02 0.  0.
         12    1    3    3    0    0 -0.42098441282E+02  0.10525543690E+02 -0.74639930014E+00  0.43400725112E+02  0.00000000000E+00 0. -1.
         11    1    4    4    0    0 -0.19708070938E+01 -0.57558080942E+00  0.38938263181E+00  0.20897351421E+01  0.51100000000E-03 0. -1.
        -11    1    4    4    0    0  0.62695540502E+01 -0.15934079942E+01  0.24776304586E+01  0.69271141159E+01  0.51100000000E-03 0.  1.
        -12    1    4    4    0    0  0.37799694326E+02 -0.83565548863E+01 -0.21206137902E+01  0.38770425630E+02  0.00000000000E+00 0.  1.
</event>
<event>
 8    1  0.4042158E-011  0.9118800E+02  0.7816164E-02  0.1184000E+00
        -11   -1    0    0    0    0  0.00000000000E+00  0.00000000000E+00  0.45593999997E+02  0.45594000000E+02  0.51100000000E-03 0. -1.
         11   -1    0    0    0    0 -0.00000000000E+00 -0.00000000000E+00 -0.45593999997E+02  0.45594000000E+02  0.51100000000E-03 0.  1.
         23    2    1    2    0    0  0.44408920985E-15 -0.44408920985E-15  0.71054273576E-14  0.91188000000E+02  0.91188000000E+02 0.  0.
    9900012    2    3    3    0    0  0.25522570118E+01  0.14056951125E+01 -0.43302804728E+02  0.47787275445E+02  0.20000020065E+02 0.  0.
         12    1    3    3    0    0 -0.25522570118E+01 -0.14056951125E+01  0.43302804728E+02  0.43400724555E+02  0.00000000000E+00 0. -1.
         11    1    4    4    0    0 -0.13610038644E+01 -0.24432686163E+01 -0.22438384038E+01  0.35856246448E+01  0.51100000000E-03 0.  1.
        -11    1    4    4    0    0  0.57618633400E+01 -0.38226680182E+01 -0.28830319856E+02  0.29647920723E+02  0.51100000000E-03 0. -1.
         12    1    4    4    0    0 -0.18486024637E+01  0.76716317470E+01 -0.12228646468E+02  0.14553730077E+02  0.00000000000E+00 0. -1.
</event>
<event>
 8    1  0.4042158E-011  0.9118800E+02  0.7816164E-02  0.1184000E+00
        -11   -1    0    0    0    0  0.00000000000E+00  0.00000000000E+00  0.45593999997E+02  0.45594000000E+02  0.51100000000E-03 0. -1.
         11   -1    0    0    0    0 -0.00000000000E+00 -0.00000000000E+00 -0.45593999997E+02  0.45594000000E+02  0.51100000000E-03 0.  1.
         23    2    1    2    0    0  0.00000000000E+00  0.00000000000E+00  0.00000000000E+00  0.91188000000E+02  0.91188000000E+02 0.  0.
    9900012    2    3    3    0    0 -0.24141434128E+02 -0.12347503880E+02 -0.33887366870E+02  0.47787270430E+02  0.19999997196E+02 0.  0.
         12    1    3    3    0    0  0.24141434128E+02  0.12347503880E+02  0.33887366870E+02  0.43400729570E+02  0.00000000000E+00 0. -1.
         11    1    4    4    0    0 -0.48080834185E+01 -0.11393795813E+02 -0.20854333434E+02  0.24245401057E+02  0.51100000000E-03 0. -1.
        -11    1    4    4    0    0 -0.50956477969E+01 -0.14727772327E+01 -0.27772425765E+01  0.59873012149E+01  0.51100000000E-03 0.  1.
         12    1    4    4    0    0 -0.14237702913E+02  0.51906916577E+00 -0.10255790860E+02  0.17554568158E+02  0.00000000000E+00 0. -1.
</event>
<event>
 8    1  0.4042158E-011  0.9118800E+02  0.7816164E-02  0.1184000E+00
        -11   -1    0    0    0    0  0.00000000000E+00  0.00000000000E+00  0.45593999997E+02  0.45594000000E+02  0.51100000000E-03 0. -1.
         11   -1    0    0    0    0 -0.00000000000E+00 -0.00000000000E+00 -0.45593999997E+02  0.45594000000E+02  0.51100000000E-03 0.  1.
         23    2    1    2    0    0  0.00000000000E+00  0.00000000000E+00  0.00000000000E+00  0.91188000000E+02  0.91188000000E+02 0.  0.
    9900012    2    3    3    0    0  0.14704954014E+02  0.96494134012E+01 -0.39677150631E+02  0.47787272659E+02  0.20000007361E+02 0.  0.
         12    1    3    3    0    0 -0.14704954014E+02 -0.96494134012E+01  0.39677150631E+02  0.43400727341E+02  0.00000000000E+00 0. -1.
         11    1    4    4    0    0  0.13931999748E+02  0.12728368932E+01 -0.15563920127E+02  0.20927406450E+02  0.51100000000E-03 0. -1.
        -11    1    4    4    0    0  0.44750924249E+01  0.35956439670E+01 -0.10576778056E+02  0.12034257021E+02  0.51100000000E-03 0.  1.
         12    1    4    4    0    0 -0.37021381588E+01  0.47809325409E+01 -0.13536452448E+02  0.14825609188E+02  0.00000000000E+00 0. -1.
</event>
<event>
 8    1  0.4042158E-011  0.9118800E+02  0.7816164E-02  0.1184000E+00
        -11   -1    0    0    0    0  0.00000000000E+00  0.00000000000E+00  0.45593999997E+02  0.45594000000E+02  0.51100000000E-03 0. -1.
         11   -1    0    0    0    0 -0.00000000000E+00 -0.00000000000E+00 -0.45593999997E+02  0.45594000000E+02  0.51100000000E-03 0.  1.
         23    2    1    2    0    0  0.00000000000E+00 -0.35527136788E-14 -0.35527136788E-14  0.91188000000E+02  0.91188000000E+02 0.  0.
    9900012    2    3    3    0    0 -0.45110833021E+01 -0.31470352292E+02  0.29544711969E+02  0.47787274761E+02  0.20000016944E+02 0.  0.
        -12    1    3    3    0    0  0.45110833021E+01  0.31470352292E+02 -0.29544711969E+02  0.43400725239E+02  0.00000000000E+00 0.  1.
         11    1    4    4    0    0 -0.14575368274E+01 -0.17317441194E+02  0.27688262999E+02  0.32690336360E+02  0.51100000000E-03 0. -1.
        -11    1    4    4    0    0 -0.33329179876E+00 -0.10937328898E+01 -0.92482277970E+00  0.14705891650E+01  0.51100000000E-03 0.  1.
         12    1    4    4    0    0 -0.27202546760E+01 -0.13059178208E+02  0.27812717499E+01  0.13626349236E+02  0.00000000000E+00 0. -1.
</event>
<event>
 8    1  0.4042158E-011  0.9118800E+02  0.7816164E-02  0.1184000E+00
        -11   -1    0    0    0    0  0.00000000000E+00  0.00000000000E+00  0.45593999997E+02  0.45594000000E+02  0.51100000000E-03 0.  1.
         11   -1    0    0    0    0 -0.00000000000E+00 -0.00000000000E+00 -0.45593999997E+02  0.45594000000E+02  0.51100000000E-03 0. -1.
         23    2    1    2    0    0 -0.17763568394E-14  0.00000000000E+00 -0.44408920985E-15  0.91188000000E+02  0.91188000000E+02 0.  0.
    9900012    2    3    3    0    0  0.10203970778E+02 -0.42175008100E+02 -0.88028971856E+00  0.47787225377E+02  0.19999791783E+02 0.  0.
         12    1    3    3    0    0 -0.10203970778E+02  0.42175008100E+02  0.88028971856E+00  0.43400774623E+02  0.00000000000E+00 0. -1.
         11    1    4    4    0    0 -0.27695478199E+01 -0.57572832750E+01  0.35053330126E+01  0.72872536408E+01  0.51100000000E-03 0.  1.
        -11    1    4    4    0    0  0.20472227063E+01 -0.44127595450E+01  0.32238071169E+01  0.58357947359E+01  0.51100000000E-03 0. -1.
         12    1    4    4    0    0  0.10926295892E+02 -0.32004965280E+02 -0.76094298480E+01  0.34664177000E+02  0.00000000000E+00 0. -1.
</event>
<event>
 8    1  0.4042158E-011  0.9118800E+02  0.7816164E-02  0.1184000E+00
        -11   -1    0    0    0    0  0.00000000000E+00  0.00000000000E+00  0.45593999997E+02  0.45594000000E+02  0.51100000000E-03 0.  1.
         11   -1    0    0    0    0 -0.00000000000E+00 -0.00000000000E+00 -0.45593999997E+02  0.45594000000E+02  0.51100000000E-03 0. -1.
         23    2    1    2    0    0  0.00000000000E+00  0.00000000000E+00  0.00000000000E+00  0.91188000000E+02  0.91188000000E+02 0.  0.
    9900012    2    3    3    0    0  0.22432674411E+02 -0.11960821577E+02  0.35175800390E+02  0.47787273427E+02  0.20000010862E+02 0.  0.
        -12    1    3    3    0    0 -0.22432674411E+02  0.11960821577E+02 -0.35175800390E+02  0.43400726573E+02  0.00000000000E+00 0.  1.
         11    1    4    4    0    0  0.61114167073E+01 -0.68716433950E+01  0.73715976783E+01  0.11785981067E+02  0.51100000000E-03 0. -1.
        -11    1    4    4    0    0  0.18026290843E+02 -0.18881472052E+01  0.17985219968E+02  0.25533906849E+02  0.51100000000E-03 0.  1.
        -12    1    4    4    0    0 -0.17050331390E+01 -0.32010309764E+01  0.98189827435E+01  0.10467385511E+02  0.00000000000E+00 0.  1.
</event>
<event>
 8    1  0.4042158E-011  0.9118800E+02  0.7816164E-02  0.1184000E+00
        -11   -1    0    0    0    0  0.00000000000E+00  0.00000000000E+00  0.45593999997E+02  0.45594000000E+02  0.51100000000E-03 0. -1.
         11   -1    0    0    0    0 -0.00000000000E+00 -0.00000000000E+00 -0.45593999997E+02  0.45594000000E+02  0.51100000000E-03 0.  1.
         23    2    1    2    0    0 -0.35527136788E-14  0.35527136788E-14  0.35527136788E-14  0.91188000000E+02  0.91188000000E+02 0.  0.
    9900012    2    3    3    0    0  0.30754749132E+02 -0.16853645220E+02 -0.25568017179E+02  0.47787268971E+02  0.19999990549E+02 0.  0.
         12    1    3    3    0    0 -0.30754749132E+02  0.16853645220E+02  0.25568017179E+02  0.43400731029E+02  0.00000000000E+00 0. -1.
         11    1    4    4    0    0  0.72839466512E+01  0.17901864624E+01 -0.43935988668E+01  0.86927761763E+01  0.51100000000E-03 0. -1.
        -11    1    4    4    0    0  0.23096514859E+02 -0.11745146868E+02 -0.17521518493E+02  0.31279403514E+02  0.51100000000E-03 0.  1.
         12    1    4    4    0    0  0.37428762135E+00 -0.68986848147E+01 -0.36528998183E+01  0.78150892816E+01  0.00000000000E+00 0. -1.
</event>
<event>
 8    1  0.4042158E-011  0.9118800E+02  0.7816164E-02  0.1184000E+00
        -11   -1    0    0    0    0  0.00000000000E+00  0.00000000000E+00  0.45593999997E+02  0.45594000000E+02  0.51100000000E-03 0. -1.
         11   -1    0    0    0    0 -0.00000000000E+00 -0.00000000000E+00 -0.45593999997E+02  0.45594000000E+02  0.51100000000E-03 0.  1.
         23    2    1    2    0    0  0.00000000000E+00  0.17763568394E-14 -0.35527136788E-14  0.91188000000E+02  0.91188000000E+02 0.  0.
    9900012    2    3    3    0    0 -0.39124156452E+02  0.71915398592E+01 -0.17355269506E+02  0.47787271397E+02  0.20000001608E+02 0.  0.
         12    1    3    3    0    0  0.39124156452E+02 -0.71915398592E+01  0.17355269506E+02  0.43400728603E+02  0.00000000000E+00 0. -1.
         11    1    4    4    0    0 -0.14928009585E+02  0.95161108531E+01 -0.90780923631E+01  0.19895064643E+02  0.51100000000E-03 0. -1.
        -11    1    4    4    0    0 -0.15424580446E+02  0.38601452099E+01 -0.51391243348E+01  0.16710146683E+02  0.51100000000E-03 0.  1.
        -12    1    4    4    0    0 -0.87715664204E+01 -0.61847162038E+01 -0.31380528086E+01  0.11182060070E+02  0.00000000000E+00 0.  1.
</event>
<event>
 8    1  0.4042158E-011  0.9118800E+02  0.7816164E-02  0.1184000E+00
        -11   -1    0    0    0    0  0.00000000000E+00  0.00000000000E+00  0.45593999997E+02  0.45594000000E+02  0.51100000000E-03 0. -1.
         11   -1    0    0    0    0 -0.00000000000E+00 -0.00000000000E+00 -0.45593999997E+02  0.45594000000E+02  0.51100000000E-03 0.  1.
         23    2    1    2    0    0  0.00000000000E+00  0.35527136788E-14 -0.17763568394E-14  0.91188000000E+02  0.91188000000E+02 0.  0.
    9900012    2    3    3    0    0 -0.35861736257E+02  0.18680341839E+02  0.15767191733E+02  0.47787266899E+02  0.19999981097E+02 0.  0.
        -12    1    3    3    0    0  0.35861736257E+02 -0.18680341839E+02 -0.15767191733E+02  0.43400733101E+02  0.00000000000E+00 0.  1.
         11    1    4    4    0    0 -0.23720102422E+02  0.10249812536E+02  0.11489785317E+02  0.28279269489E+02  0.51100000000E-03 0. -1.
        -11    1    4    4    0    0 -0.92471233314E+01  0.49710367258E+01  0.83627710643E+01  0.13422236631E+02  0.51100000000E-03 0.  1.
         12    1    4    4    0    0 -0.28945105040E+01  0.34594925772E+01 -0.40853646485E+01  0.60857607791E+01  0.00000000000E+00 0. -1.
</event>
<event>
 8    1  0.4042158E-011  0.9118800E+02  0.7816164E-02  0.1184000E+00
        -11   -1    0    0    0    0  0.00000000000E+00  0.00000000000E+00  0.45593999997E+02  0.45594000000E+02  0.51100000000E-03 0. -1.
         11   -1    0    0    0    0 -0.00000000000E+00 -0.00000000000E+00 -0.45593999997E+02  0.45594000000E+02  0.51100000000E-03 0.  1.
         23    2    1    2    0    0 -0.71054273576E-14  0.00000000000E+00 -0.35527136788E-14  0.91188000000E+02  0.91188000000E+02 0.  0.
    9900012    2    3    3    0    0 -0.35862717992E+02 -0.17230582403E+02 -0.17337702857E+02  0.47787268992E+02  0.19999990641E+02 0.  0.
         12    1    3    3    0    0  0.35862717992E+02  0.17230582403E+02  0.17337702857E+02  0.43400731008E+02  0.00000000000E+00 0. -1.
         11    1    4    4    0    0 -0.36696467791E+01 -0.38863411567E+01  0.33322639807E+01  0.62987251542E+01  0.51100000000E-03 0. -1.
        -11    1    4    4    0    0 -0.80173442584E+01 -0.77626141842E+01 -0.65975089462E+01  0.12963915785E+02  0.51100000000E-03 0.  1.
        -12    1    4    4    0    0 -0.24175726954E+02 -0.55816270624E+01 -0.14072457891E+02  0.28524628052E+02  0.00000000000E+00 0.  1.
</event>
<event>
 8    1  0.4042158E-011  0.9118800E+02  0.7816164E-02  0.1184000E+00
        -11   -1    0    0    0    0  0.00000000000E+00  0.00000000000E+00  0.45593999997E+02  0.45594000000E+02  0.51100000000E-03 0. -1.
         11   -1    0    0    0    0 -0.00000000000E+00 -0.00000000000E+00 -0.45593999997E+02  0.45594000000E+02  0.51100000000E-03 0.  1.
         23    2    1    2    0    0  0.35527136788E-14 -0.44408920985E-15  0.71054273576E-14  0.91188000000E+02  0.91188000000E+02 0.  0.
    9900012    2    3    3    0    0 -0.21730478066E+02  0.35511701716E+01 -0.37400522456E+02  0.47787267673E+02  0.19999984629E+02 0.  0.
         12    1    3    3    0    0  0.21730478066E+02 -0.35511701716E+01  0.37400522456E+02  0.43400732327E+02  0.00000000000E+00 0. -1.
         11    1    4    4    0    0 -0.22514369732E+01  0.29100061085E+01 -0.14821061825E+02  0.15270919353E+02  0.51100000000E-03 0. -1.
        -11    1    4    4    0    0 -0.73835712275E+00  0.17744924831E+01 -0.93577525935E+01  0.95530900066E+01  0.51100000000E-03 0.  1.
        -12    1    4    4    0    0 -0.18740683970E+02 -0.11333284200E+01 -0.13221708037E+02  0.22963258314E+02  0.00000000000E+00 0.  1.
</event>
<event>
 8    1  0.4042158E-011  0.9118800E+02  0.7816164E-02  0.1184000E+00
        -11   -1    0    0    0    0  0.00000000000E+00  0.00000000000E+00  0.45593999997E+02  0.45594000000E+02  0.51100000000E-03 0. -1.
         11   -1    0    0    0    0 -0.00000000000E+00 -0.00000000000E+00 -0.45593999997E+02  0.45594000000E+02  0.51100000000E-03 0.  1.
         23    2    1    2    0    0 -0.35527136788E-14  0.44408920985E-15  0.00000000000E+00  0.91188000000E+02  0.91188000000E+02 0.  0.
    9900012    2    3    3    0    0  0.22832032673E+02 -0.39833291648E+01 -0.36694063152E+02  0.47787275377E+02  0.20000019753E+02 0.  0.
         12    1    3    3    0    0 -0.22832032673E+02  0.39833291648E+01  0.36694063152E+02  0.43400724623E+02  0.00000000000E+00 0. -1.
         11    1    4    4    0    0  0.18756269995E+02 -0.78195200722E+00 -0.21084190632E+02  0.28230341973E+02  0.51100000000E-03 0. -1.
        -11    1    4    4    0    0  0.50243193461E+01 -0.19144588182E+01 -0.16750986108E+02  0.17592739222E+02  0.51100000000E-03 0.  1.
         12    1    4    4    0    0 -0.94855666737E+00 -0.12869183394E+01  0.11411135883E+01  0.19641941821E+01  0.00000000000E+00 0. -1.
</event>
<event>
 8    1  0.4042158E-011  0.9118800E+02  0.7816164E-02  0.1184000E+00
        -11   -1    0    0    0    0  0.00000000000E+00  0.00000000000E+00  0.45593999997E+02  0.45594000000E+02  0.51100000000E-03 0. -1.
         11   -1    0    0    0    0 -0.00000000000E+00 -0.00000000000E+00 -0.45593999997E+02  0.45594000000E+02  0.51100000000E-03 0.  1.
         23    2    1    2    0    0  0.00000000000E+00 -0.14210854715E-13 -0.17763568394E-14  0.91188000000E+02  0.91188000000E+02 0.  0.
    9900012    2    3    3    0    0 -0.71169873928E+01  0.40839953646E+02  0.12847947138E+02  0.47787273405E+02  0.20000010761E+02 0.  0.
        -12    1    3    3    0    0  0.71169873928E+01 -0.40839953646E+02 -0.12847947138E+02  0.43400726595E+02  0.00000000000E+00 0.  1.
         11    1    4    4    0    0 -0.43707263559E+01  0.93318694431E+01  0.83119320332E+01  0.13239155961E+02  0.51100000000E-03 0.  1.
        -11    1    4    4    0    0 -0.50287366243E+01  0.29552094276E+02  0.68561218726E+01  0.30750949181E+02  0.51100000000E-03 0. -1.
         12    1    4    4    0    0  0.22824755873E+01  0.19559899272E+01 -0.23201067680E+01  0.37971682629E+01  0.00000000000E+00 0. -1.
</event>
<event>
 8    1  0.4042158E-011  0.9118800E+02  0.7816164E-02  0.1184000E+00
        -11   -1    0    0    0    0  0.00000000000E+00  0.00000000000E+00  0.45593999997E+02  0.45594000000E+02  0.51100000000E-03 0. -1.
         11   -1    0    0    0    0 -0.00000000000E+00 -0.00000000000E+00 -0.45593999997E+02  0.45594000000E+02  0.51100000000E-03 0.  1.
         23    2    1    2    0    0 -0.17763568394E-14  0.00000000000E+00  0.71054273576E-14  0.91188000000E+02  0.91188000000E+02 0.  0.
    9900012    2    3    3    0    0  0.95332051625E+01  0.13633653707E+02 -0.40085717550E+02  0.47787271140E+02  0.20000000434E+02 0.  0.
         12    1    3    3    0    0 -0.95332051625E+01 -0.13633653707E+02  0.40085717550E+02  0.43400728860E+02  0.00000000000E+00 0. -1.
         11    1    4    4    0    0 -0.61229755119E+00  0.46542659639E+01 -0.62510956942E+00  0.47358063927E+01  0.51100000000E-03 0. -1.
        -11    1    4    4    0    0  0.35089848755E+00  0.37323648363E+01 -0.26251423589E+01  0.45765761969E+01  0.51100000000E-03 0.  1.
        -12    1    4    4    0    0  0.97946042262E+01  0.52470229071E+01 -0.36835465622E+02  0.38474888550E+02  0.00000000000E+00 0.  1.
</event>
<event>
 8    1  0.4042158E-011  0.9118800E+02  0.7816164E-02  0.1184000E+00
        -11   -1    0    0    0    0  0.00000000000E+00  0.00000000000E+00  0.45593999997E+02  0.45594000000E+02  0.51100000000E-03 0. -1.
         11   -1    0    0    0    0 -0.00000000000E+00 -0.00000000000E+00 -0.45593999997E+02  0.45594000000E+02  0.51100000000E-03 0.  1.
         23    2    1    2    0    0 -0.22204460493E-15  0.00000000000E+00  0.00000000000E+00  0.91188000000E+02  0.91188000000E+02 0.  0.
    9900012    2    3    3    0    0  0.12797443097E+01  0.36487982857E+02  0.23465137833E+02  0.47787270375E+02  0.19999996948E+02 0.  0.
        -12    1    3    3    0    0 -0.12797443097E+01 -0.36487982857E+02 -0.23465137833E+02  0.43400729625E+02  0.00000000000E+00 0.  1.
         11    1    4    4    0    0  0.16570984206E+01  0.92018810241E+01  0.11559420886E+01  0.94210823121E+01  0.51100000000E-03 0. -1.
        -11    1    4    4    0    0  0.54145617914E+01  0.91329927380E+01  0.25566302980E+01  0.10920869676E+02  0.51100000000E-03 0.  1.
         12    1    4    4    0    0 -0.57919159023E+01  0.18153109095E+02  0.19752565447E+02  0.27445318387E+02  0.00000000000E+00 0. -1.
</event>
<event>
 8    1  0.4042158E-011  0.9118800E+02  0.7816164E-02  0.1184000E+00
        -11   -1    0    0    0    0  0.00000000000E+00  0.00000000000E+00  0.45593999997E+02  0.45594000000E+02  0.51100000000E-03 0. -1.
         11   -1    0    0    0    0 -0.00000000000E+00 -0.00000000000E+00 -0.45593999997E+02  0.45594000000E+02  0.51100000000E-03 0.  1.
         23    2    1    2    0    0 -0.88817841970E-15  0.00000000000E+00 -0.71054273576E-14  0.91188000000E+02  0.91188000000E+02 0.  0.
    9900012    2    3    3    0    0  0.33523362020E+01  0.51517909661E+01 -0.42963285037E+02  0.47787274553E+02  0.20000015997E+02 0.  0.
         12    1    3    3    0    0 -0.33523362020E+01 -0.51517909661E+01  0.42963285037E+02  0.43400725447E+02  0.00000000000E+00 0. -1.
         11    1    4    4    0    0 -0.48878151886E+01 -0.12025428019E+01 -0.51398417264E+01  0.71940822724E+01  0.51100000000E-03 0. -1.
        -11    1    4    4    0    0 -0.10660248840E+01 -0.11644543697E+01 -0.12345478938E+02  0.12446011952E+02  0.51100000000E-03 0.  1.
        -12    1    4    4    0    0  0.93061762746E+01  0.75187881377E+01 -0.25477964372E+02  0.28147180329E+02  0.00000000000E+00 0.  1.
</event>
<event>
 8    1  0.4042158E-011  0.9118800E+02  0.7816164E-02  0.1184000E+00
        -11   -1    0    0    0    0  0.00000000000E+00  0.00000000000E+00  0.45593999997E+02  0.45594000000E+02  0.51100000000E-03 0.  1.
         11   -1    0    0    0    0 -0.00000000000E+00 -0.00000000000E+00 -0.45593999997E+02  0.45594000000E+02  0.51100000000E-03 0. -1.
         23    2    1    2    0    0  0.00000000000E+00  0.00000000000E+00  0.00000000000E+00  0.91188000000E+02  0.91188000000E+02 0.  0.
    9900012    2    3    3    0    0 -0.18718753861E+02  0.34059944259E+02  0.19317132515E+02  0.47787272383E+02  0.20000006104E+02 0.  0.
        -12    1    3    3    0    0  0.18718753861E+02 -0.34059944259E+02 -0.19317132515E+02  0.43400727617E+02  0.00000000000E+00 0.  1.
         11    1    4    4    0    0 -0.27205551733E+01  0.58257993337E+01 -0.10309286673E+01  0.65118486243E+01  0.51100000000E-03 0. -1.
        -11    1    4    4    0    0 -0.60052636958E+00 -0.11702505333E+01 -0.11353330708E+01  0.17375556607E+01  0.51100000000E-03 0.  1.
         12    1    4    4    0    0 -0.15397672318E+02  0.29404395459E+02  0.21483394253E+02  0.39537868098E+02  0.00000000000E+00 0. -1.
</event>
<event>
 8    1  0.4042158E-011  0.9118800E+02  0.7816164E-02  0.1184000E+00
        -11   -1    0    0    0    0  0.00000000000E+00  0.00000000000E+00  0.45593999997E+02  0.45594000000E+02  0.51100000000E-03 0. -1.
         11   -1    0    0    0    0 -0.00000000000E+00 -0.00000000000E+00 -0.45593999997E+02  0.45594000000E+02  0.51100000000E-03 0.  1.
         23    2    1    2    0    0  0.00000000000E+00  0.00000000000E+00  0.00000000000E+00  0.91188000000E+02  0.91188000000E+02 0.  0.
    9900012    2    3    3    0    0 -0.20532008465E+02  0.32657593544E+02 -0.19888225672E+02  0.47787270651E+02  0.19999998204E+02 0.  0.
         12    1    3    3    0    0  0.20532008465E+02 -0.32657593544E+02  0.19888225672E+02  0.43400729349E+02  0.00000000000E+00 0. -1.
         11    1    4    4    0    0 -0.66334570059E+00  0.36999666683E+01 -0.62511323416E+01  0.72942742393E+01  0.51100000000E-03 0. -1.
        -11    1    4    4    0    0 -0.74784597971E+01  0.13304653323E+01 -0.46620996817E+01  0.89125009195E+01  0.51100000000E-03 0.  1.
         12    1    4    4    0    0 -0.12390202967E+02  0.27627161543E+02 -0.89749936490E+01  0.31580495492E+02  0.00000000000E+00 0. -1.
</event>
<event>
 8    1  0.4042158E-011  0.9118800E+02  0.7816164E-02  0.1184000E+00
        -11   -1    0    0    0    0  0.00000000000E+00  0.00000000000E+00  0.45593999997E+02  0.45594000000E+02  0.51100000000E-03 0.  1.
         11   -1    0    0    0    0 -0.00000000000E+00 -0.00000000000E+00 -0.45593999997E+02  0.45594000000E+02  0.51100000000E-03 0. -1.
         23    2    1    2    0    0  0.00000000000E+00 -0.35527136788E-14  0.00000000000E+00  0.91188000000E+02  0.91188000000E+02 0.  0.
    9900012    2    3    3    0    0  0.28455659606E+02  0.28225986427E+02 -0.16649100289E+02  0.47787269432E+02  0.19999992649E+02 0.  0.
         12    1    3    3    0    0 -0.28455659606E+02 -0.28225986427E+02  0.16649100289E+02  0.43400730568E+02  0.00000000000E+00 0. -1.
         11    1    4    4    0    0 -0.27392839327E+01  0.13701670693E+01 -0.30852715757E+01  0.43474055733E+01  0.51100000000E-03 0. -1.
        -11    1    4    4    0    0  0.87621370967E+01  0.88728497279E+01 -0.31578498661E+01  0.12863690172E+02  0.51100000000E-03 0.  1.
        -12    1    4    4    0    0  0.22432806442E+02  0.17982969630E+02 -0.10405978847E+02  0.30576173687E+02  0.00000000000E+00 0.  1.
</event>
<event>
 8    1  0.4042158E-011  0.9118800E+02  0.7816164E-02  0.1184000E+00
        -11   -1    0    0    0    0  0.00000000000E+00  0.00000000000E+00  0.45593999997E+02  0.45594000000E+02  0.51100000000E-03 0. -1.
         11   -1    0    0    0    0 -0.00000000000E+00 -0.00000000000E+00 -0.45593999997E+02  0.45594000000E+02  0.51100000000E-03 0.  1.
         23    2    1    2    0    0  0.00000000000E+00 -0.17763568394E-14  0.00000000000E+00  0.91188000000E+02  0.91188000000E+02 0.  0.
    9900012    2    3    3    0    0  0.83763305604E+01  0.65373041589E+01  0.42079973491E+02  0.47787269265E+02  0.19999991888E+02 0.  0.
        -12    1    3    3    0    0 -0.83763305604E+01 -0.65373041589E+01 -0.42079973491E+02  0.43400730735E+02  0.00000000000E+00 0.  1.
         11    1    4    4    0    0  0.49220586332E+01  0.71064903166E+01  0.28247462062E+02  0.29540615752E+02  0.51100000000E-03 0. -1.
        -11    1    4    4    0    0 -0.36067293781E+01 -0.22764826573E+01  0.74119772937E+01  0.85515073384E+01  0.51100000000E-03 0.  1.
         12    1    4    4    0    0  0.70610013053E+01  0.17072964996E+01  0.64205341349E+01  0.96951461747E+01  0.00000000000E+00 0. -1.
</event>
<event>
 8    1  0.4042158E-011  0.9118800E+02  0.7816164E-02  0.1184000E+00
        -11   -1    0    0    0    0  0.00000000000E+00  0.00000000000E+00  0.45593999997E+02  0.45594000000E+02  0.51100000000E-03 0. -1.
         11   -1    0    0    0    0 -0.00000000000E+00 -0.00000000000E+00 -0.45593999997E+02  0.45594000000E+02  0.51100000000E-03 0.  1.
         23    2    1    2    0    0  0.00000000000E+00  0.00000000000E+00 -0.71054273576E-14  0.91188000000E+02  0.91188000000E+02 0.  0.
    9900012    2    3    3    0    0  0.38924875230E+01 -0.25289044839E+02 -0.35056185319E+02  0.47787269855E+02  0.19999994575E+02 0.  0.
         12    1    3    3    0    0 -0.38924875230E+01  0.25289044839E+02  0.35056185319E+02  0.43400730145E+02  0.00000000000E+00 0. -1.
         11    1    4    4    0    0  0.13118575823E+00  0.51281951302E+00 -0.44039750209E+01  0.44356724183E+01  0.51100000000E-03 0. -1.
        -11    1    4    4    0    0  0.39120187594E+01 -0.10637568940E+02 -0.24483953361E+02  0.26980098891E+02  0.51100000000E-03 0.  1.
         12    1    4    4    0    0 -0.15071699464E+00 -0.15164295413E+02 -0.61682569372E+01  0.16371498545E+02  0.00000000000E+00 0. -1.
</event>
<event>
 8    1  0.4042158E-011  0.9118800E+02  0.7816164E-02  0.1184000E+00
        -11   -1    0    0    0    0  0.00000000000E+00  0.00000000000E+00  0.45593999997E+02  0.45594000000E+02  0.51100000000E-03 0. -1.
         11   -1    0    0    0    0 -0.00000000000E+00 -0.00000000000E+00 -0.45593999997E+02  0.45594000000E+02  0.51100000000E-03 0.  1.
         23    2    1    2    0    0  0.00000000000E+00 -0.35527136788E-14  0.00000000000E+00  0.91188000000E+02  0.91188000000E+02 0.  0.
    9900012    2    3    3    0    0 -0.12429773715E+02  0.22504661367E+02  0.34966624864E+02  0.47787263690E+02  0.19999966469E+02 0.  0.
        -12    1    3    3    0    0  0.12429773715E+02 -0.22504661367E+02 -0.34966624864E+02  0.43400736310E+02  0.00000000000E+00 0.  1.
         11    1    4    4    0    0  0.31752973353E+01 -0.17346206663E+00  0.33036457734E+01  0.45854855700E+01  0.51100000000E-03 0. -1.
        -11    1    4    4    0    0 -0.63762272085E+01  0.45625478931E+01  0.14957761439E+02  0.16888094748E+02  0.51100000000E-03 0.  1.
         12    1    4    4    0    0 -0.92288438422E+01  0.18115575540E+02  0.16705217652E+02  0.26313683372E+02  0.00000000000E+00 0. -1.
</event>
<event>
 8    1  0.4042158E-011  0.9118800E+02  0.7816164E-02  0.1184000E+00
        -11   -1    0    0    0    0  0.00000000000E+00  0.00000000000E+00  0.45593999997E+02  0.45594000000E+02  0.51100000000E-03 0. -1.
         11   -1    0    0    0    0 -0.00000000000E+00 -0.00000000000E+00 -0.45593999997E+02  0.45594000000E+02  0.51100000000E-03 0.  1.
         23    2    1    2    0    0  0.71054273576E-14  0.00000000000E+00  0.00000000000E+00  0.91188000000E+02  0.91188000000E+02 0.  0.
    9900012    2    3    3    0    0  0.37754475064E+02  0.16867167948E+02  0.13180348477E+02  0.47787270422E+02  0.19999997161E+02 0.  0.
        -12    1    3    3    0    0 -0.37754475064E+02 -0.16867167948E+02 -0.13180348477E+02  0.43400729578E+02  0.00000000000E+00 0.  1.
         11    1    4    4    0    0  0.98221427423E+01 -0.21205313703E+01  0.28944850610E+01  0.10457016084E+02  0.51100000000E-03 0. -1.
        -11    1    4    4    0    0  0.47101971975E+01 -0.14126174803E+01  0.21522772535E+01  0.53678434610E+01  0.51100000000E-03 0.  1.
        -12    1    4    4    0    0  0.23222135124E+02  0.20400316799E+02  0.81335861629E+01  0.31962410877E+02  0.00000000000E+00 0.  1.
</event>
<event>
 8    1  0.4042158E-011  0.9118800E+02  0.7816164E-02  0.1184000E+00
        -11   -1    0    0    0    0  0.00000000000E+00  0.00000000000E+00  0.45593999997E+02  0.45594000000E+02  0.51100000000E-03 0. -1.
         11   -1    0    0    0    0 -0.00000000000E+00 -0.00000000000E+00 -0.45593999997E+02  0.45594000000E+02  0.51100000000E-03 0.  1.
         23    2    1    2    0    0  0.00000000000E+00  0.17763568394E-14  0.00000000000E+00  0.91188000000E+02  0.91188000000E+02 0.  0.
    9900012    2    3    3    0    0 -0.20585670510E+02 -0.15774267898E+02  0.34799764873E+02  0.47787297318E+02  0.20000119792E+02 0.  0.
        -12    1    3    3    0    0  0.20585670510E+02  0.15774267898E+02 -0.34799764873E+02  0.43400702682E+02  0.00000000000E+00 0.  1.
         11    1    4    4    0    0 -0.99003457949E+01 -0.50238926509E+01  0.17671553695E+02  0.20869598810E+02  0.51100000000E-03 0. -1.
        -11    1    4    4    0    0 -0.96171536626E+01 -0.13071353739E-01  0.10571540224E+02  0.14291510711E+02  0.51100000000E-03 0.  1.
        -12    1    4    4    0    0 -0.10681710523E+01 -0.10737303894E+02  0.65566709541E+01  0.12626187798E+02  0.00000000000E+00 0.  1.
</event>
<event>
 8    1  0.4042158E-011  0.9118800E+02  0.7816164E-02  0.1184000E+00
        -11   -1    0    0    0    0  0.00000000000E+00  0.00000000000E+00  0.45593999997E+02  0.45594000000E+02  0.51100000000E-03 0. -1.
         11   -1    0    0    0    0 -0.00000000000E+00 -0.00000000000E+00 -0.45593999997E+02  0.45594000000E+02  0.51100000000E-03 0.  1.
         23    2    1    2    0    0  0.00000000000E+00  0.35527136788E-14  0.35527136788E-14  0.91188000000E+02  0.91188000000E+02 0.  0.
    9900012    2    3    3    0    0 -0.33619912449E+02 -0.19152562539E+02 -0.19659691273E+02  0.47787278510E+02  0.20000034038E+02 0.  0.
         12    1    3    3    0    0  0.33619912449E+02  0.19152562539E+02  0.19659691273E+02  0.43400721490E+02  0.00000000000E+00 0. -1.
         11    1    4    4    0    0 -0.98777146248E+01  0.54176390715E+00 -0.10889217842E+02  0.14711825849E+02  0.51100000000E-03 0. -1.
        -11    1    4    4    0    0 -0.98768701683E+01 -0.40327068613E+01 -0.82626018502E+00  0.10700373596E+02  0.51100000000E-03 0.  1.
        -12    1    4    4    0    0 -0.13865327656E+02 -0.15661619585E+02 -0.79442132463E+01  0.22375079065E+02  0.00000000000E+00 0.  1.
</event>
<event>
 8    1  0.4042158E-011  0.9118800E+02  0.7816164E-02  0.1184000E+00
        -11   -1    0    0    0    0  0.00000000000E+00  0.00000000000E+00  0.45593999997E+02  0.45594000000E+02  0.51100000000E-03 0.  1.
         11   -1    0    0    0    0 -0.00000000000E+00 -0.00000000000E+00 -0.45593999997E+02  0.45594000000E+02  0.51100000000E-03 0. -1.
         23    2    1    2    0    0  0.35527136788E-14  0.00000000000E+00  0.00000000000E+00  0.91188000000E+02  0.91188000000E+02 0.  0.
    9900012    2    3    3    0    0  0.26937634432E+02  0.17187674635E+02 -0.29369550400E+02  0.47787276516E+02  0.20000024948E+02 0.  0.
         12    1    3    3    0    0 -0.26937634432E+02 -0.17187674635E+02  0.29369550400E+02  0.43400723484E+02  0.00000000000E+00 0. -1.
         11    1    4    4    0    0  0.91044439247E+01  0.64730344880E+01 -0.10825660610E+02  0.15555899285E+02  0.51100000000E-03 0. -1.
        -11    1    4    4    0    0  0.20390950066E+02  0.77451500317E+01 -0.12840442977E+02  0.25311166898E+02  0.51100000000E-03 0.  1.
         12    1    4    4    0    0 -0.25577595586E+01  0.29694901158E+01 -0.57034468138E+01  0.69202103339E+01  0.00000000000E+00 0. -1.
</event>
<event>
 8    1  0.4042158E-011  0.9118800E+02  0.7816164E-02  0.1184000E+00
        -11   -1    0    0    0    0  0.00000000000E+00  0.00000000000E+00  0.45593999997E+02  0.45594000000E+02  0.51100000000E-03 0.  1.
         11   -1    0    0    0    0 -0.00000000000E+00 -0.00000000000E+00 -0.45593999997E+02  0.45594000000E+02  0.51100000000E-03 0. -1.
         23    2    1    2    0    0 -0.44408920985E-15  0.00000000000E+00  0.88817841970E-15  0.91188000000E+02  0.91188000000E+02 0.  0.
    9900012    2    3    3    0    0  0.38614287372E+01  0.43220466956E+02 -0.83928429047E+00  0.47787265054E+02  0.19999972685E+02 0.  0.
        -12    1    3    3    0    0 -0.38614287372E+01 -0.43220466956E+02  0.83928429047E+00  0.43400734946E+02  0.00000000000E+00 0.  1.
         11    1    4    4    0    0  0.19274975117E+01  0.27004467579E+02 -0.98370246106E+01  0.28804922658E+02  0.51100000000E-03 0. -1.
        -11    1    4    4    0    0 -0.37481962688E+00  0.39240487833E+01  0.36772241979E+01  0.53907909131E+01  0.51100000000E-03 0.  1.
         12    1    4    4    0    0  0.23087508523E+01  0.12291950594E+02  0.53205161223E+01  0.13591551483E+02  0.00000000000E+00 0. -1.
</event>
<event>
 8    1  0.4440660E-011  0.9118800E+02  0.7816164E-02  0.1184000E+00
        -11   -1    0    0    0    0  0.00000000000E+00  0.00000000000E+00  0.45593999997E+02  0.45594000000E+02  0.51100000000E-03 0. -1.
         11   -1    0    0    0    0 -0.00000000000E+00 -0.00000000000E+00 -0.45593999997E+02  0.45594000000E+02  0.51100000000E-03 0.  1.
         23    2    1    2    0    0 -0.44408920985E-15  0.00000000000E+00  0.00000000000E+00  0.91188000000E+02  0.91188000000E+02 0.  0.
    9900012    2    3    3    0    0 -0.37224543310E+01  0.11118294601E+02  0.41786959303E+02  0.47787272945E+02  0.20000008665E+02 0.  0.
        -12    1    3    3    0    0  0.37224543310E+01 -0.11118294601E+02 -0.41786959303E+02  0.43400727055E+02  0.00000000000E+00 0.  1.
         11    1    4    4    0    0 -0.69543121538E+01  0.10496764470E+02  0.22492047199E+02  0.25776669865E+02  0.51100000000E-03 0. -1.
        -11    1    4    4    0    0  0.13386765565E+01  0.53373595818E+01  0.10426067009E+02  0.11789076968E+02  0.51100000000E-03 0.  1.
        -12    1    4    4    0    0  0.18931812664E+01 -0.47158294512E+01  0.88688450959E+01  0.10221526112E+02  0.00000000000E+00 0.  1.
</event>
<event>
 8    1  0.4042158E-011  0.9118800E+02  0.7816164E-02  0.1184000E+00
        -11   -1    0    0    0    0  0.00000000000E+00  0.00000000000E+00  0.45593999997E+02  0.45594000000E+02  0.51100000000E-03 0.  1.
         11   -1    0    0    0    0 -0.00000000000E+00 -0.00000000000E+00 -0.45593999997E+02  0.45594000000E+02  0.51100000000E-03 0. -1.
         23    2    1    2    0    0  0.00000000000E+00 -0.71054273576E-14  0.00000000000E+00  0.91188000000E+02  0.91188000000E+02 0.  0.
    9900012    2    3    3    0    0 -0.11038020080E+02 -0.39548084117E+02  0.14061838436E+02  0.47787261011E+02  0.19999954255E+02 0.  0.
        -12    1    3    3    0    0  0.11038020080E+02  0.39548084117E+02 -0.14061838436E+02  0.43400738989E+02  0.00000000000E+00 0.  1.
         11    1    4    4    0    0 -0.21440356310E+01 -0.23956301743E+02  0.55431942565E+01  0.24682550208E+02  0.51100000000E-03 0. -1.
        -11    1    4    4    0    0 -0.19288465035E+01 -0.28744988591E+01 -0.30045616391E+01  0.45837302963E+01  0.51100000000E-03 0.  1.
         12    1    4    4    0    0 -0.69651379454E+01 -0.12717283515E+02  0.11523205818E+02  0.18520980507E+02  0.00000000000E+00 0. -1.
</event>
<event>
 8    1  0.4042158E-011  0.9118800E+02  0.7816164E-02  0.1184000E+00
        -11   -1    0    0    0    0  0.00000000000E+00  0.00000000000E+00  0.45593999997E+02  0.45594000000E+02  0.51100000000E-03 0. -1.
         11   -1    0    0    0    0 -0.00000000000E+00 -0.00000000000E+00 -0.45593999997E+02  0.45594000000E+02  0.51100000000E-03 0.  1.
         23    2    1    2    0    0  0.88817841970E-15  0.00000000000E+00 -0.71054273576E-14  0.91188000000E+02  0.91188000000E+02 0.  0.
    9900012    2    3    3    0    0  0.44262651176E+01 -0.28624001027E+02 -0.32321793631E+02  0.47787267274E+02  0.19999982807E+02 0.  0.
         12    1    3    3    0    0 -0.44262651176E+01  0.28624001027E+02  0.32321793631E+02  0.43400732726E+02  0.00000000000E+00 0. -1.
         11    1    4    4    0    0  0.30388822421E+01 -0.34139546873E+01 -0.13824401785E+02  0.14560356344E+02  0.51100000000E-03 0. -1.
        -11    1    4    4    0    0  0.40047269238E+01 -0.12560698361E+02 -0.14736949666E+02  0.19773382785E+02  0.51100000000E-03 0.  1.
         12    1    4    4    0    0 -0.26173440482E+01 -0.12649347978E+02 -0.37604421800E+01  0.13453528144E+02  0.00000000000E+00 0. -1.
</event>
<event>
 8    1  0.4042158E-011  0.9118800E+02  0.7816164E-02  0.1184000E+00
        -11   -1    0    0    0    0  0.00000000000E+00  0.00000000000E+00  0.45593999997E+02  0.45594000000E+02  0.51100000000E-03 0. -1.
         11   -1    0    0    0    0 -0.00000000000E+00 -0.00000000000E+00 -0.45593999997E+02  0.45594000000E+02  0.51100000000E-03 0.  1.
         23    2    1    2    0    0 -0.17763568394E-14  0.00000000000E+00  0.00000000000E+00  0.91188000000E+02  0.91188000000E+02 0.  0.
    9900012    2    3    3    0    0  0.99993306617E+01  0.26162963511E+02  0.33153220008E+02  0.47787271086E+02  0.20000000190E+02 0.  0.
        -12    1    3    3    0    0 -0.99993306617E+01 -0.26162963511E+02 -0.33153220008E+02  0.43400728914E+02  0.00000000000E+00 0.  1.
         11    1    4    4    0    0 -0.23886524786E-01  0.78242644038E+01  0.15191860747E+02  0.17088367893E+02  0.51100000000E-03 0. -1.
        -11    1    4    4    0    0 -0.28565332731E+01  0.15621711844E+01  0.47590734301E+01  0.57661894978E+01  0.51100000000E-03 0.  1.
        -12    1    4    4    0    0  0.12879750460E+02  0.16776527923E+02  0.13202285831E+02  0.24932713695E+02  0.00000000000E+00 0.  1.
</event>
<event>
 8    1  0.4042158E-011  0.9118800E+02  0.7816164E-02  0.1184000E+00
        -11   -1    0    0    0    0  0.00000000000E+00  0.00000000000E+00  0.45593999997E+02  0.45594000000E+02  0.51100000000E-03 0. -1.
         11   -1    0    0    0    0 -0.00000000000E+00 -0.00000000000E+00 -0.45593999997E+02  0.45594000000E+02  0.51100000000E-03 0.  1.
         23    2    1    2    0    0 -0.44408920985E-15  0.00000000000E+00 -0.71054273576E-14  0.91188000000E+02  0.91188000000E+02 0.  0.
    9900012    2    3    3    0    0  0.13555937954E+01  0.18139639101E+02 -0.39404807365E+02  0.47787274376E+02  0.20000015190E+02 0.  0.
         12    1    3    3    0    0 -0.13555937954E+01 -0.18139639101E+02  0.39404807365E+02  0.43400725624E+02  0.00000000000E+00 0. -1.
         11    1    4    4    0    0  0.34342550956E+00 -0.18544479529E+01 -0.58386376575E-01  0.18868830173E+01  0.51100000000E-03 0. -1.
        -11    1    4    4    0    0  0.46358190046E+01  0.91573415408E+01 -0.96761095006E+01  0.14105843373E+02  0.51100000000E-03 0.  1.
        -12    1    4    4    0    0 -0.36236507188E+01  0.10836745513E+02 -0.29670311487E+02  0.31794547986E+02  0.00000000000E+00 0.  1.
</event>
<event>
 8    1  0.4042158E-011  0.9118800E+02  0.7816164E-02  0.1184000E+00
        -11   -1    0    0    0    0  0.00000000000E+00  0.00000000000E+00  0.45593999997E+02  0.45594000000E+02  0.51100000000E-03 0. -1.
         11   -1    0    0    0    0 -0.00000000000E+00 -0.00000000000E+00 -0.45593999997E+02  0.45594000000E+02  0.51100000000E-03 0.  1.
         23    2    1    2    0    0  0.00000000000E+00  0.00000000000E+00  0.00000000000E+00  0.91188000000E+02  0.91188000000E+02 0.  0.
    9900012    2    3    3    0    0  0.85225228109E+01  0.14013668811E+02 -0.40182176957E+02  0.47787266670E+02  0.19999980054E+02 0.  0.
         12    1    3    3    0    0 -0.85225228109E+01 -0.14013668811E+02  0.40182176957E+02  0.43400733330E+02  0.00000000000E+00 0. -1.
         11    1    4    4    0    0  0.21270669013E+01 -0.10049116303E+01 -0.93837114088E+00  0.25327458709E+01  0.51100000000E-03 0. -1.
        -11    1    4    4    0    0  0.66803668576E+01 -0.69040454307E+00 -0.97894035973E+01  0.11871663019E+02  0.51100000000E-03 0.  1.
        -12    1    4    4    0    0 -0.28491094793E+00  0.15708984984E+02 -0.29454402219E+02  0.33382857780E+02  0.00000000000E+00 0.  1.
</event>
<event>
 8    1  0.4042158E-011  0.9118800E+02  0.7816164E-02  0.1184000E+00
        -11   -1    0    0    0    0  0.00000000000E+00  0.00000000000E+00  0.45593999997E+02  0.45594000000E+02  0.51100000000E-03 0.  1.
         11   -1    0    0    0    0 -0.00000000000E+00 -0.00000000000E+00 -0.45593999997E+02  0.45594000000E+02  0.51100000000E-03 0. -1.
         23    2    1    2    0    0  0.00000000000E+00  0.00000000000E+00  0.00000000000E+00  0.91188000000E+02  0.91188000000E+02 0.  0.
    9900012    2    3    3    0    0 -0.40954768615E+02 -0.11362230174E+02  0.87880557743E+01  0.47787271076E+02  0.20000000142E+02 0.  0.
        -12    1    3    3    0    0  0.40954768615E+02  0.11362230174E+02 -0.87880557743E+01  0.43400728924E+02  0.00000000000E+00 0.  1.
         11    1    4    4    0    0 -0.13622550480E+02 -0.70583204616E+01 -0.24254310132E+01  0.15533077132E+02  0.51100000000E-03 0. -1.
        -11    1    4    4    0    0 -0.10304093289E+02  0.49782598034E+00 -0.15591119430E+01  0.10433264088E+02  0.51100000000E-03 0.  1.
        -12    1    4    4    0    0 -0.17028124846E+02 -0.48017356929E+01  0.12772598731E+02  0.21820929856E+02  0.00000000000E+00 0.  1.
</event>
<event>
 8    1  0.4042158E-011  0.9118800E+02  0.7816164E-02  0.1184000E+00
        -11   -1    0    0    0    0  0.00000000000E+00  0.00000000000E+00  0.45593999997E+02  0.45594000000E+02  0.51100000000E-03 0. -1.
         11   -1    0    0    0    0 -0.00000000000E+00 -0.00000000000E+00 -0.45593999997E+02  0.45594000000E+02  0.51100000000E-03 0.  1.
         23    2    1    2    0    0  0.88817841970E-15  0.00000000000E+00  0.00000000000E+00  0.91188000000E+02  0.91188000000E+02 0.  0.
    9900012    2    3    3    0    0 -0.78774181966E+01  0.29591446699E+01 -0.42577143137E+02  0.47787269910E+02  0.19999994826E+02 0.  0.
         12    1    3    3    0    0  0.78774181966E+01 -0.29591446699E+01  0.42577143137E+02  0.43400730090E+02  0.00000000000E+00 0. -1.
         11    1    4    4    0    0  0.40259469016E+01  0.41027847272E+01 -0.16399590622E+02  0.17377792259E+02  0.51100000000E-03 0. -1.
        -11    1    4    4    0    0 -0.47378878091E+01 -0.75420986634E+00 -0.21049916932E+02  0.21589706263E+02  0.51100000000E-03 0.  1.
        -12    1    4    4    0    0 -0.71654772891E+01 -0.38943019099E+00 -0.51276355836E+01  0.88197713878E+01  0.00000000000E+00 0.  1.
</event>
<event>
 8    1  0.4042158E-011  0.9118800E+02  0.7816164E-02  0.1184000E+00
        -11   -1    0    0    0    0  0.00000000000E+00  0.00000000000E+00  0.45593999997E+02  0.45594000000E+02  0.51100000000E-03 0.  1.
         11   -1    0    0    0    0 -0.00000000000E+00 -0.00000000000E+00 -0.45593999997E+02  0.45594000000E+02  0.51100000000E-03 0. -1.
         23    2    1    2    0    0  0.00000000000E+00  0.35527136788E-14  0.00000000000E+00  0.91188000000E+02  0.91188000000E+02 0.  0.
    9900012    2    3    3    0    0 -0.39590477171E+02 -0.15356500609E+02 -0.89663431282E+01  0.47787270713E+02  0.19999998488E+02 0.  0.
         12    1    3    3    0    0  0.39590477171E+02  0.15356500609E+02  0.89663431282E+01  0.43400729287E+02  0.00000000000E+00 0. -1.
         11    1    4    4    0    0 -0.69234097202E+01  0.11945401997E-01 -0.30083358426E+01  0.75487634516E+01  0.51100000000E-03 0. -1.
        -11    1    4    4    0    0 -0.29016149889E+02 -0.18376797874E+02 -0.76978655065E+01  0.35198022503E+02  0.51100000000E-03 0.  1.
        -12    1    4    4    0    0 -0.36509175612E+01  0.30083518629E+01  0.17398582209E+01  0.50404847583E+01  0.00000000000E+00 0.  1.
</event>
<event>
 8    1  0.4042158E-011  0.9118800E+02  0.7816164E-02  0.1184000E+00
        -11   -1    0    0    0    0  0.00000000000E+00  0.00000000000E+00  0.45593999997E+02  0.45594000000E+02  0.51100000000E-03 0. -1.
         11   -1    0    0    0    0 -0.00000000000E+00 -0.00000000000E+00 -0.45593999997E+02  0.45594000000E+02  0.51100000000E-03 0.  1.
         23    2    1    2    0    0  0.17763568394E-14  0.17763568394E-14  0.00000000000E+00  0.91188000000E+02  0.91188000000E+02 0.  0.
    9900012    2    3    3    0    0 -0.14279512546E+02 -0.15705522449E+02  0.37855719178E+02  0.47787269724E+02  0.19999993981E+02 0.  0.
        -12    1    3    3    0    0  0.14279512546E+02  0.15705522449E+02 -0.37855719178E+02  0.43400730276E+02  0.00000000000E+00 0.  1.
         11    1    4    4    0    0  0.29525333363E+00 -0.37079517762E+01 -0.60978133832E+00  0.37693387281E+01  0.51100000000E-03 0. -1.
        -11    1    4    4    0    0  0.93812811643E+00 -0.60101683236E+00  0.13082603489E+00  0.11217937904E+01  0.51100000000E-03 0.  1.
         12    1    4    4    0    0 -0.15512893996E+02 -0.11396553841E+02  0.38334674482E+02  0.42896137206E+02  0.00000000000E+00 0. -1.
</event>
<event>
 8    1  0.4042158E-011  0.9118800E+02  0.7816164E-02  0.1184000E+00
        -11   -1    0    0    0    0  0.00000000000E+00  0.00000000000E+00  0.45593999997E+02  0.45594000000E+02  0.51100000000E-03 0. -1.
         11   -1    0    0    0    0 -0.00000000000E+00 -0.00000000000E+00 -0.45593999997E+02  0.45594000000E+02  0.51100000000E-03 0.  1.
         23    2    1    2    0    0 -0.88817841970E-15 -0.71054273576E-14  0.00000000000E+00  0.91188000000E+02  0.91188000000E+02 0.  0.
    9900012    2    3    3    0    0  0.24239583834E+01  0.35530393506E+02 -0.24806014106E+02  0.47787276818E+02  0.20000026323E+02 0.  0.
         12    1    3    3    0    0 -0.24239583834E+01 -0.35530393506E+02  0.24806014106E+02  0.43400723182E+02  0.00000000000E+00 0. -1.
         11    1    4    4    0    0  0.69740818883E+01  0.13242905806E+02 -0.80651275911E+01  0.17001725080E+02  0.51100000000E-03 0. -1.
        -11    1    4    4    0    0  0.89815717411E+00  0.81895818149E+01 -0.12704141646E+02  0.15141702409E+02  0.51100000000E-03 0.  1.
         12    1    4    4    0    0 -0.54482806791E+01  0.14097905885E+02 -0.40367448688E+01  0.15643849329E+02  0.00000000000E+00 0. -1.
</event>
<event>
 8    1  0.4042158E-011  0.9118800E+02  0.7816164E-02  0.1184000E+00
        -11   -1    0    0    0    0  0.00000000000E+00  0.00000000000E+00  0.45593999997E+02  0.45594000000E+02  0.51100000000E-03 0. -1.
         11   -1    0    0    0    0 -0.00000000000E+00 -0.00000000000E+00 -0.45593999997E+02  0.45594000000E+02  0.51100000000E-03 0.  1.
         23    2    1    2    0    0  0.00000000000E+00  0.00000000000E+00  0.17763568394E-14  0.91188000000E+02  0.91188000000E+02 0.  0.
    9900012    2    3    3    0    0  0.34057387079E+02  0.21783445423E+02 -0.15786074948E+02  0.47787259552E+02  0.19999947600E+02 0.  0.
         12    1    3    3    0    0 -0.34057387079E+02 -0.21783445423E+02  0.15786074948E+02  0.43400740448E+02  0.00000000000E+00 0. -1.
         11    1    4    4    0    0  0.16551867609E+02  0.80436867491E+01 -0.78098275739E+01  0.19991463800E+02  0.51100000000E-03 0. -1.
        -11    1    4    4    0    0  0.75782535749E+01  0.91102116713E+01 -0.11274147099E+02  0.16356413941E+02  0.51100000000E-03 0.  1.
         12    1    4    4    0    0  0.99272658951E+01  0.46295470029E+01  0.32978997250E+01  0.11439381810E+02  0.00000000000E+00 0. -1.
</event>
<event>
 8    1  0.4042158E-011  0.9118800E+02  0.7816164E-02  0.1184000E+00
        -11   -1    0    0    0    0  0.00000000000E+00  0.00000000000E+00  0.45593999997E+02  0.45594000000E+02  0.51100000000E-03 0. -1.
         11   -1    0    0    0    0 -0.00000000000E+00 -0.00000000000E+00 -0.45593999997E+02  0.45594000000E+02  0.51100000000E-03 0.  1.
         23    2    1    2    0    0  0.00000000000E+00 -0.88817841970E-15 -0.35527136788E-14  0.91188000000E+02  0.91188000000E+02 0.  0.
    9900012    2    3    3    0    0  0.31039729189E+02  0.76946304110E+01  0.29341931244E+02  0.47787296614E+02  0.20000116581E+02 0.  0.
        -12    1    3    3    0    0 -0.31039729189E+02 -0.76946304110E+01 -0.29341931244E+02  0.43400703386E+02  0.00000000000E+00 0.  1.
         11    1    4    4    0    0  0.20531440171E+02  0.52102587645E+01  0.26393484670E+02  0.33842323579E+02  0.51100000000E-03 0. -1.
        -11    1    4    4    0    0  0.51244389221E+01 -0.30019081843E+01  0.14539510376E+01  0.61143520420E+01  0.51100000000E-03 0.  1.
         12    1    4    4    0    0  0.53838500958E+01  0.54862798307E+01  0.14944955358E+01  0.78306209933E+01  0.00000000000E+00 0. -1.
</event>
<event>
 8    1  0.4042158E-011  0.9118800E+02  0.7816164E-02  0.1184000E+00
        -11   -1    0    0    0    0  0.00000000000E+00  0.00000000000E+00  0.45593999997E+02  0.45594000000E+02  0.51100000000E-03 0. -1.
         11   -1    0    0    0    0 -0.00000000000E+00 -0.00000000000E+00 -0.45593999997E+02  0.45594000000E+02  0.51100000000E-03 0.  1.
         23    2    1    2    0    0  0.00000000000E+00 -0.44408920985E-15  0.00000000000E+00  0.91188000000E+02  0.91188000000E+02 0.  0.
    9900012    2    3    3    0    0 -0.25668733985E+02 -0.27173435687E+01 -0.34890621490E+02  0.47787270416E+02  0.19999997134E+02 0.  0.
         12    1    3    3    0    0  0.25668733985E+02  0.27173435687E+01  0.34890621490E+02  0.43400729584E+02  0.00000000000E+00 0. -1.
         11    1    4    4    0    0 -0.89500672543E+01 -0.58782341148E+01 -0.96817316409E+01  0.14435832778E+02  0.51100000000E-03 0. -1.
        -11    1    4    4    0    0 -0.11815275946E+02 -0.17766374941E+01 -0.23220749637E+02  0.26114371531E+02  0.51100000000E-03 0.  1.
         12    1    4    4    0    0 -0.49033907848E+01  0.49375280402E+01 -0.19881402118E+01  0.72370661071E+01  0.00000000000E+00 0. -1.
</event>
<event>
 8    1  0.4042158E-011  0.9118800E+02  0.7816164E-02  0.1184000E+00
        -11   -1    0    0    0    0  0.00000000000E+00  0.00000000000E+00  0.45593999997E+02  0.45594000000E+02  0.51100000000E-03 0.  1.
         11   -1    0    0    0    0 -0.00000000000E+00 -0.00000000000E+00 -0.45593999997E+02  0.45594000000E+02  0.51100000000E-03 0. -1.
         23    2    1    2    0    0  0.00000000000E+00 -0.71054273576E-14  0.88817841970E-15  0.91188000000E+02  0.91188000000E+02 0.  0.
    9900012    2    3    3    0    0  0.24219453648E+02 -0.35473326466E+02 -0.62196943474E+01  0.47787269322E+02  0.19999992149E+02 0.  0.
         12    1    3    3    0    0 -0.24219453648E+02  0.35473326466E+02  0.62196943474E+01  0.43400730678E+02  0.00000000000E+00 0. -1.
         11    1    4    4    0    0  0.14634081033E+02 -0.16111338087E+02  0.22829217588E+01  0.21884772666E+02  0.51100000000E-03 0. -1.
        -11    1    4    4    0    0  0.74330639898E+01 -0.12384402037E+02  0.32343760244E+00  0.14447438051E+02  0.51100000000E-03 0.  1.
         12    1    4    4    0    0  0.21523086250E+01 -0.69775863416E+01 -0.88260537086E+01  0.11455058605E+02  0.00000000000E+00 0. -1.
</event>
<event>
 8    1  0.4042158E-011  0.9118800E+02  0.7816164E-02  0.1184000E+00
        -11   -1    0    0    0    0  0.00000000000E+00  0.00000000000E+00  0.45593999997E+02  0.45594000000E+02  0.51100000000E-03 0. -1.
         11   -1    0    0    0    0 -0.00000000000E+00 -0.00000000000E+00 -0.45593999997E+02  0.45594000000E+02  0.51100000000E-03 0.  1.
         23    2    1    2    0    0  0.00000000000E+00  0.00000000000E+00  0.00000000000E+00  0.91188000000E+02  0.91188000000E+02 0.  0.
    9900012    2    3    3    0    0 -0.62047359177E+01 -0.20980180966E+02  0.37482764047E+02  0.47787258741E+02  0.19999943905E+02 0.  0.
        -12    1    3    3    0    0  0.62047359177E+01  0.20980180966E+02 -0.37482764047E+02  0.43400741259E+02  0.00000000000E+00 0.  1.
         11    1    4    4    0    0  0.14277041410E+01 -0.11129505516E+02  0.19579813167E+02  0.22567084793E+02  0.51100000000E-03 0. -1.
        -11    1    4    4    0    0 -0.35659476355E+01 -0.56557120840E+01  0.18180701795E+02  0.19371137802E+02  0.51100000000E-03 0.  1.
        -12    1    4    4    0    0 -0.40664924231E+01 -0.41949633665E+01 -0.27775091459E+00  0.58490361466E+01  0.00000000000E+00 0.  1.
</event>
<event>
 8    1  0.4042158E-011  0.9118800E+02  0.7816164E-02  0.1184000E+00
        -11   -1    0    0    0    0  0.00000000000E+00  0.00000000000E+00  0.45593999997E+02  0.45594000000E+02  0.51100000000E-03 0. -1.
         11   -1    0    0    0    0 -0.00000000000E+00 -0.00000000000E+00 -0.45593999997E+02  0.45594000000E+02  0.51100000000E-03 0.  1.
         23    2    1    2    0    0  0.00000000000E+00  0.00000000000E+00  0.00000000000E+00  0.91188000000E+02  0.91188000000E+02 0.  0.
    9900012    2    3    3    0    0 -0.10083025703E+02 -0.16743107605E+02 -0.38750796949E+02  0.47787270469E+02  0.19999997378E+02 0.  0.
         12    1    3    3    0    0  0.10083025703E+02  0.16743107605E+02  0.38750796949E+02  0.43400729531E+02  0.00000000000E+00 0. -1.
         11    1    4    4    0    0 -0.54620862124E+01 -0.76365841101E+01 -0.51112640464E+01  0.10690033820E+02  0.51100000000E-03 0. -1.
        -11    1    4    4    0    0 -0.50041186551E+01  0.13271128005E+01 -0.10251245807E+02  0.11484357742E+02  0.51100000000E-03 0.  1.
        -12    1    4    4    0    0  0.38317916440E+00 -0.10433636295E+02 -0.23388287096E+02  0.25612878907E+02  0.00000000000E+00 0.  1.
</event>
<event>
 8    1  0.4042158E-011  0.9118800E+02  0.7816164E-02  0.1184000E+00
        -11   -1    0    0    0    0  0.00000000000E+00  0.00000000000E+00  0.45593999997E+02  0.45594000000E+02  0.51100000000E-03 0. -1.
         11   -1    0    0    0    0 -0.00000000000E+00 -0.00000000000E+00 -0.45593999997E+02  0.45594000000E+02  0.51100000000E-03 0.  1.
         23    2    1    2    0    0 -0.35527136788E-14  0.00000000000E+00  0.00000000000E+00  0.91188000000E+02  0.91188000000E+02 0.  0.
    9900012    2    3    3    0    0 -0.27075941247E+02 -0.21057864836E+02 -0.26591025829E+02  0.47787275116E+02  0.20000018563E+02 0.  0.
         12    1    3    3    0    0  0.27075941247E+02  0.21057864836E+02  0.26591025829E+02  0.43400724884E+02  0.00000000000E+00 0. -1.
         11    1    4    4    0    0 -0.54345517895E+01 -0.70404970991E+01 -0.13477323723E+02  0.16147483009E+02  0.51100000000E-03 0. -1.
        -11    1    4    4    0    0 -0.12305979766E+02 -0.27561480633E+01 -0.11239636828E+02  0.16892688550E+02  0.51100000000E-03 0.  1.
         12    1    4    4    0    0 -0.93354096917E+01 -0.11261219674E+02 -0.18740652778E+01  0.14747103557E+02  0.00000000000E+00 0. -1.
</event>
<event>
 8    1  0.4042158E-011  0.9118800E+02  0.7816164E-02  0.1184000E+00
        -11   -1    0    0    0    0  0.00000000000E+00  0.00000000000E+00  0.45593999997E+02  0.45594000000E+02  0.51100000000E-03 0. -1.
         11   -1    0    0    0    0 -0.00000000000E+00 -0.00000000000E+00 -0.45593999997E+02  0.45594000000E+02  0.51100000000E-03 0.  1.
         23    2    1    2    0    0  0.00000000000E+00  0.00000000000E+00  0.35527136788E-14  0.91188000000E+02  0.91188000000E+02 0.  0.
    9900012    2    3    3    0    0 -0.34643757770E+02  0.12045599126E+02 -0.23202083229E+02  0.47787273314E+02  0.20000010346E+02 0.  0.
         12    1    3    3    0    0  0.34643757770E+02 -0.12045599126E+02  0.23202083229E+02  0.43400726686E+02  0.00000000000E+00 0. -1.
         11    1    4    4    0    0 -0.73050539111E+01 -0.29360907036E+01 -0.23737970340E+01  0.82230988006E+01  0.51100000000E-03 0. -1.
        -11    1    4    4    0    0 -0.35758274993E+00  0.37251487305E+01 -0.52216858854E+01  0.64242199709E+01  0.51100000000E-03 0.  1.
        -12    1    4    4    0    0 -0.26981121109E+02  0.11256541099E+02 -0.15606600309E+02  0.33139954542E+02  0.00000000000E+00 0.  1.
</event>
<event>
 8    1  0.4042158E-011  0.9118800E+02  0.7816164E-02  0.1184000E+00
        -11   -1    0    0    0    0  0.00000000000E+00  0.00000000000E+00  0.45593999997E+02  0.45594000000E+02  0.51100000000E-03 0.  1.
         11   -1    0    0    0    0 -0.00000000000E+00 -0.00000000000E+00 -0.45593999997E+02  0.45594000000E+02  0.51100000000E-03 0. -1.
         23    2    1    2    0    0  0.35527136788E-14  0.35527136788E-14  0.71054273576E-14  0.91188000000E+02  0.91188000000E+02 0.  0.
    9900012    2    3    3    0    0  0.20460600358E+02  0.27288765824E+02  0.26838583556E+02  0.47787280254E+02  0.20000041988E+02 0.  0.
        -12    1    3    3    0    0 -0.20460600358E+02 -0.27288765824E+02 -0.26838583556E+02  0.43400719746E+02  0.00000000000E+00 0.  1.
         11    1    4    4    0    0  0.17402666128E+02  0.15827313894E+02  0.12167481988E+02  0.26484038054E+02  0.51100000000E-03 0. -1.
        -11    1    4    4    0    0  0.59761249906E+01  0.73843213310E+01  0.12825588488E+02  0.15960513518E+02  0.51100000000E-03 0.  1.
         12    1    4    4    0    0 -0.29181907607E+01  0.40771305982E+01  0.18455130800E+01  0.53427286810E+01  0.00000000000E+00 0. -1.
</event>
<event>
 8    1  0.4042158E-011  0.9118800E+02  0.7816164E-02  0.1184000E+00
        -11   -1    0    0    0    0  0.00000000000E+00  0.00000000000E+00  0.45593999997E+02  0.45594000000E+02  0.51100000000E-03 0. -1.
         11   -1    0    0    0    0 -0.00000000000E+00 -0.00000000000E+00 -0.45593999997E+02  0.45594000000E+02  0.51100000000E-03 0.  1.
         23    2    1    2    0    0  0.17763568394E-14  0.88817841970E-15  0.00000000000E+00  0.91188000000E+02  0.91188000000E+02 0.  0.
    9900012    2    3    3    0    0  0.91229676277E+01  0.68296199647E+01  0.41877812778E+02  0.47787269012E+02  0.19999990733E+02 0.  0.
        -12    1    3    3    0    0 -0.91229676277E+01 -0.68296199647E+01 -0.41877812778E+02  0.43400730988E+02  0.00000000000E+00 0.  1.
         11    1    4    4    0    0  0.28952065548E+01  0.29291851216E+01  0.21962826447E+02  0.22345650410E+02  0.51100000000E-03 0. -1.
        -11    1    4    4    0    0  0.90757054359E+01  0.48487708946E+01  0.19941569960E+02  0.22439813303E+02  0.51100000000E-03 0.  1.
         12    1    4    4    0    0 -0.28479443630E+01 -0.94833605156E+00 -0.26583628275E-01  0.30018052986E+01  0.00000000000E+00 0. -1.
</event>
<event>
 8    1  0.4042158E-011  0.9118800E+02  0.7816164E-02  0.1184000E+00
        -11   -1    0    0    0    0  0.00000000000E+00  0.00000000000E+00  0.45593999997E+02  0.45594000000E+02  0.51100000000E-03 0. -1.
         11   -1    0    0    0    0 -0.00000000000E+00 -0.00000000000E+00 -0.45593999997E+02  0.45594000000E+02  0.51100000000E-03 0.  1.
         23    2    1    2    0    0  0.00000000000E+00 -0.71054273576E-14  0.00000000000E+00  0.91188000000E+02  0.91188000000E+02 0.  0.
    9900012    2    3    3    0    0 -0.73868256214E+01  0.24628685775E+02  0.34964073300E+02  0.47787265243E+02  0.19999973547E+02 0.  0.
        -12    1    3    3    0    0  0.73868256214E+01 -0.24628685775E+02 -0.34964073300E+02  0.43400734757E+02  0.00000000000E+00 0.  1.
         11    1    4    4    0    0 -0.27598004866E+01  0.19265975980E+02  0.25330864024E+02  0.31944436161E+02  0.51100000000E-03 0. -1.
        -11    1    4    4    0    0  0.26155679877E+01  0.40446006575E+01  0.19335093178E+01  0.51902262879E+01  0.51100000000E-03 0.  1.
         12    1    4    4    0    0 -0.72425931224E+01  0.13181091375E+01  0.76996999575E+01  0.10652602793E+02  0.00000000000E+00 0. -1.
</event>
<event>
 8    1  0.4042158E-011  0.9118800E+02  0.7816164E-02  0.1184000E+00
        -11   -1    0    0    0    0  0.00000000000E+00  0.00000000000E+00  0.45593999997E+02  0.45594000000E+02  0.51100000000E-03 0. -1.
         11   -1    0    0    0    0 -0.00000000000E+00 -0.00000000000E+00 -0.45593999997E+02  0.45594000000E+02  0.51100000000E-03 0.  1.
         23    2    1    2    0    0  0.00000000000E+00  0.00000000000E+00  0.00000000000E+00  0.91188000000E+02  0.91188000000E+02 0.  0.
    9900012    2    3    3    0    0 -0.40156353599E+01 -0.70587985060E+01 -0.42634153880E+02  0.47787273731E+02  0.20000012247E+02 0.  0.
         12    1    3    3    0    0  0.40156353599E+01  0.70587985060E+01  0.42634153880E+02  0.43400726269E+02  0.00000000000E+00 0. -1.
         11    1    4    4    0    0 -0.19845442715E+01  0.26455233903E+01 -0.65394907378E+01  0.73281750351E+01  0.51100000000E-03 0. -1.
        -11    1    4    4    0    0 -0.45625932957E+01  0.19590133052E+01 -0.18809783524E+02  0.19454124169E+02  0.51100000000E-03 0.  1.
        -12    1    4    4    0    0  0.25315022073E+01 -0.11663335202E+02 -0.17284879618E+02  0.21004974526E+02  0.00000000000E+00 0.  1.
</event>
<event>
 8    1  0.4042158E-011  0.9118800E+02  0.7816164E-02  0.1184000E+00
        -11   -1    0    0    0    0  0.00000000000E+00  0.00000000000E+00  0.45593999997E+02  0.45594000000E+02  0.51100000000E-03 0. -1.
         11   -1    0    0    0    0 -0.00000000000E+00 -0.00000000000E+00 -0.45593999997E+02  0.45594000000E+02  0.51100000000E-03 0.  1.
         23    2    1    2    0    0  0.44408920985E-15  0.00000000000E+00  0.00000000000E+00  0.91188000000E+02  0.91188000000E+02 0.  0.
    9900012    2    3    3    0    0 -0.23910315301E+01 -0.60223176474E+01  0.42914299212E+02  0.47787280899E+02  0.20000044930E+02 0.  0.
        -12    1    3    3    0    0  0.23910315301E+01  0.60223176474E+01 -0.42914299212E+02  0.43400719101E+02  0.00000000000E+00 0.  1.
         11    1    4    4    0    0 -0.21919942097E+01 -0.11196061662E+02  0.30053395341E+02  0.32145967198E+02  0.51100000000E-03 0. -1.
        -11    1    4    4    0    0  0.69612279435E+00  0.44530299671E+00  0.10017739688E+02  0.10051765537E+02  0.51100000000E-03 0.  1.
        -12    1    4    4    0    0 -0.89516011475E+00  0.47284410180E+01  0.28431641839E+01  0.55895481632E+01  0.00000000000E+00 0.  1.
</event>
<event>
 8    1  0.4042158E-011  0.9118800E+02  0.7816164E-02  0.1184000E+00
        -11   -1    0    0    0    0  0.00000000000E+00  0.00000000000E+00  0.45593999997E+02  0.45594000000E+02  0.51100000000E-03 0. -1.
         11   -1    0    0    0    0 -0.00000000000E+00 -0.00000000000E+00 -0.45593999997E+02  0.45594000000E+02  0.51100000000E-03 0.  1.
         23    2    1    2    0    0  0.88817841970E-15  0.00000000000E+00  0.00000000000E+00  0.91188000000E+02  0.91188000000E+02 0.  0.
    9900012    2    3    3    0    0 -0.60382223505E+01  0.18171445543E+02 -0.38948193140E+02  0.47787270615E+02  0.19999998043E+02 0.  0.
         12    1    3    3    0    0  0.60382223505E+01 -0.18171445543E+02  0.38948193140E+02  0.43400729385E+02  0.00000000000E+00 0. -1.
         11    1    4    4    0    0 -0.21267673275E+01  0.99035085701E+01 -0.14019789042E+02  0.17296158715E+02  0.51100000000E-03 0. -1.
        -11    1    4    4    0    0 -0.65271576565E+00  0.44973236059E+01 -0.25096481833E+02  0.25504614448E+02  0.51100000000E-03 0.  1.
         12    1    4    4    0    0 -0.32587392574E+01  0.37706133671E+01  0.16807773507E+00  0.49864974518E+01  0.00000000000E+00 0. -1.
</event>
<event>
 8    1  0.4042158E-011  0.9118800E+02  0.7816164E-02  0.1184000E+00
        -11   -1    0    0    0    0  0.00000000000E+00  0.00000000000E+00  0.45593999997E+02  0.45594000000E+02  0.51100000000E-03 0.  1.
         11   -1    0    0    0    0 -0.00000000000E+00 -0.00000000000E+00 -0.45593999997E+02  0.45594000000E+02  0.51100000000E-03 0. -1.
         23    2    1    2    0    0  0.00000000000E+00  0.00000000000E+00 -0.94368957093E-15  0.91188000000E+02  0.91188000000E+02 0.  0.
    9900012    2    3    3    0    0 -0.16695483238E+02 -0.40059644651E+02 -0.33009522466E+00  0.47787271285E+02  0.20000001098E+02 0.  0.
         12    1    3    3    0    0  0.16695483238E+02  0.40059644651E+02  0.33009522466E+00  0.43400728715E+02  0.00000000000E+00 0. -1.
         11    1    4    4    0    0 -0.70328145556E+01 -0.99733350564E+01  0.19828756990E+01  0.12363643841E+02  0.51100000000E-03 0. -1.
        -11    1    4    4    0    0 -0.11851538419E+02 -0.21254000209E+02 -0.68151248771E+01  0.25271276484E+02  0.51100000000E-03 0.  1.
         12    1    4    4    0    0  0.21888697362E+01 -0.88323093852E+01  0.45021539534E+01  0.10152350960E+02  0.00000000000E+00 0. -1.
</event>
<event>
 8    1  0.4042158E-011  0.9118800E+02  0.7816164E-02  0.1184000E+00
        -11   -1    0    0    0    0  0.00000000000E+00  0.00000000000E+00  0.45593999997E+02  0.45594000000E+02  0.51100000000E-03 0. -1.
         11   -1    0    0    0    0 -0.00000000000E+00 -0.00000000000E+00 -0.45593999997E+02  0.45594000000E+02  0.51100000000E-03 0.  1.
         23    2    1    2    0    0  0.00000000000E+00  0.00000000000E+00  0.00000000000E+00  0.91188000000E+02  0.91188000000E+02 0.  0.
    9900012    2    3    3    0    0 -0.24239081569E+02  0.23541732025E+02  0.27237417465E+02  0.47787272677E+02  0.20000007443E+02 0.  0.
        -12    1    3    3    0    0  0.24239081569E+02 -0.23541732025E+02 -0.27237417465E+02  0.43400727323E+02  0.00000000000E+00 0.  1.
         11    1    4    4    0    0 -0.17791512093E+02  0.16087447512E+02  0.12681926012E+02  0.27132547201E+02  0.51100000000E-03 0. -1.
        -11    1    4    4    0    0 -0.70276923391E+00  0.21970194383E+01 -0.15406016560E+01  0.27738480009E+01  0.51100000000E-03 0.  1.
        -12    1    4    4    0    0 -0.57448002420E+01  0.52572650744E+01  0.16096093109E+02  0.17880877475E+02  0.00000000000E+00 0.  1.
</event>
<event>
 8    1  0.4042158E-011  0.9118800E+02  0.7816164E-02  0.1184000E+00
        -11   -1    0    0    0    0  0.00000000000E+00  0.00000000000E+00  0.45593999997E+02  0.45594000000E+02  0.51100000000E-03 0. -1.
         11   -1    0    0    0    0 -0.00000000000E+00 -0.00000000000E+00 -0.45593999997E+02  0.45594000000E+02  0.51100000000E-03 0.  1.
         23    2    1    2    0    0 -0.17763568394E-14  0.00000000000E+00  0.35527136788E-14  0.91188000000E+02  0.91188000000E+02 0.  0.
    9900012    2    3    3    0    0  0.92291389465E+01  0.35640797380E+02 -0.22982152673E+02  0.47787276675E+02  0.20000025674E+02 0.  0.
         12    1    3    3    0    0 -0.92291389465E+01 -0.35640797380E+02  0.22982152673E+02  0.43400723325E+02  0.00000000000E+00 0. -1.
         11    1    4    4    0    0 -0.83975475691E+00  0.91966056850E+01 -0.86648145099E+01  0.12663402186E+02  0.51100000000E-03 0. -1.
        -11    1    4    4    0    0  0.41785136267E+01  0.19210384574E+02 -0.16357464141E+02  0.25574704006E+02  0.51100000000E-03 0.  1.
        -12    1    4    4    0    0  0.58903800768E+01  0.72338071212E+01  0.20401259772E+01  0.95491704833E+01  0.00000000000E+00 0.  1.
</event>
<event>
 8    1  0.4042158E-011  0.9118800E+02  0.7816164E-02  0.1184000E+00
        -11   -1    0    0    0    0  0.00000000000E+00  0.00000000000E+00  0.45593999997E+02  0.45594000000E+02  0.51100000000E-03 0. -1.
         11   -1    0    0    0    0 -0.00000000000E+00 -0.00000000000E+00 -0.45593999997E+02  0.45594000000E+02  0.51100000000E-03 0.  1.
         23    2    1    2    0    0 -0.35527136788E-14  0.00000000000E+00  0.00000000000E+00  0.91188000000E+02  0.91188000000E+02 0.  0.
    9900012    2    3    3    0    0 -0.30153997907E+02 -0.10419785722E+02  0.29424278675E+02  0.47787266137E+02  0.19999977627E+02 0.  0.
        -12    1    3    3    0    0  0.30153997907E+02  0.10419785722E+02 -0.29424278675E+02  0.43400733863E+02  0.00000000000E+00 0.  1.
         11    1    4    4    0    0 -0.49337205385E+01 -0.90106190092E+01  0.99278320862E+01  0.14286171757E+02  0.51100000000E-03 0. -1.
        -11    1    4    4    0    0  0.73404654175E+00  0.91653478951E+00  0.65410145893E+00  0.13441388788E+01  0.51100000000E-03 0.  1.
         12    1    4    4    0    0 -0.25954323911E+02 -0.23257015021E+01  0.18842345130E+02  0.32156955501E+02  0.00000000000E+00 0. -1.
</event>
<event>
 8    1  0.4042158E-011  0.9118800E+02  0.7816164E-02  0.1184000E+00
        -11   -1    0    0    0    0  0.00000000000E+00  0.00000000000E+00  0.45593999997E+02  0.45594000000E+02  0.51100000000E-03 0. -1.
         11   -1    0    0    0    0 -0.00000000000E+00 -0.00000000000E+00 -0.45593999997E+02  0.45594000000E+02  0.51100000000E-03 0.  1.
         23    2    1    2    0    0 -0.35527136788E-14 -0.35527136788E-14 -0.35527136788E-14  0.91188000000E+02  0.91188000000E+02 0.  0.
    9900012    2    3    3    0    0  0.20124123589E+02  0.26991359984E+02  0.27388137560E+02  0.47787263335E+02  0.19999964850E+02 0.  0.
        -12    1    3    3    0    0 -0.20124123589E+02 -0.26991359984E+02 -0.27388137560E+02  0.43400736665E+02  0.00000000000E+00 0.  1.
         11    1    4    4    0    0 -0.12114761525E+00  0.81152818143E+01  0.10813161672E+02  0.13520241909E+02  0.51100000000E-03 0. -1.
        -11    1    4    4    0    0 -0.15848822417E+00  0.49546340853E+01  0.97349974725E+00  0.50518530715E+01  0.51100000000E-03 0.  1.
        -12    1    4    4    0    0  0.20403759429E+02  0.13921444085E+02  0.15601476141E+02  0.29215168355E+02  0.00000000000E+00 0.  1.
</event>
<event>
 8    1  0.4042158E-011  0.9118800E+02  0.7816164E-02  0.1184000E+00
        -11   -1    0    0    0    0  0.00000000000E+00  0.00000000000E+00  0.45593999997E+02  0.45594000000E+02  0.51100000000E-03 0. -1.
         11   -1    0    0    0    0 -0.00000000000E+00 -0.00000000000E+00 -0.45593999997E+02  0.45594000000E+02  0.51100000000E-03 0.  1.
         23    2    1    2    0    0  0.00000000000E+00  0.35527136788E-14  0.00000000000E+00  0.91188000000E+02  0.91188000000E+02 0.  0.
    9900012    2    3    3    0    0 -0.27861055805E+02  0.18876275813E+02 -0.27405675483E+02  0.47787271114E+02  0.20000000317E+02 0.  0.
         12    1    3    3    0    0  0.27861055805E+02 -0.18876275813E+02  0.27405675483E+02  0.43400728886E+02  0.00000000000E+00 0. -1.
         11    1    4    4    0    0 -0.48215547834E+01  0.28704602197E+01  0.18751280262E+00  0.56144539997E+01  0.51100000000E-03 0. -1.
        -11    1    4    4    0    0 -0.86228413694E+01 -0.13507449617E+01 -0.11598536900E+02  0.14515645481E+02  0.51100000000E-03 0.  1.
        -12    1    4    4    0    0 -0.14416659652E+02  0.17356560555E+02 -0.15994651386E+02  0.27657171634E+02  0.00000000000E+00 0.  1.
</event>
<event>
 8    1  0.4042158E-011  0.9118800E+02  0.7816164E-02  0.1184000E+00
        -11   -1    0    0    0    0  0.00000000000E+00  0.00000000000E+00  0.45593999997E+02  0.45594000000E+02  0.51100000000E-03 0. -1.
         11   -1    0    0    0    0 -0.00000000000E+00 -0.00000000000E+00 -0.45593999997E+02  0.45594000000E+02  0.51100000000E-03 0.  1.
         23    2    1    2    0    0 -0.17763568394E-14  0.71054273576E-14  0.00000000000E+00  0.91188000000E+02  0.91188000000E+02 0.  0.
    9900012    2    3    3    0    0 -0.14652710943E+02 -0.35355263663E+02 -0.20467707526E+02  0.47787266619E+02  0.19999979824E+02 0.  0.
         12    1    3    3    0    0  0.14652710943E+02  0.35355263663E+02  0.20467707526E+02  0.43400733381E+02  0.00000000000E+00 0. -1.
         11    1    4    4    0    0  0.65570974857E+00  0.10812275368E+00 -0.44942305189E+01  0.45430996052E+01  0.51100000000E-03 0. -1.
        -11    1    4    4    0    0 -0.50167555870E+01 -0.24375400451E+01 -0.17998450171E+01  0.58607917927E+01  0.51100000000E-03 0.  1.
        -12    1    4    4    0    0 -0.10291665104E+02 -0.33025846371E+02 -0.14173631990E+02  0.37383375221E+02  0.00000000000E+00 0.  1.
</event>
<event>
 8    1  0.4042158E-011  0.9118800E+02  0.7816164E-02  0.1184000E+00
        -11   -1    0    0    0    0  0.00000000000E+00  0.00000000000E+00  0.45593999997E+02  0.45594000000E+02  0.51100000000E-03 0. -1.
         11   -1    0    0    0    0 -0.00000000000E+00 -0.00000000000E+00 -0.45593999997E+02  0.45594000000E+02  0.51100000000E-03 0.  1.
         23    2    1    2    0    0 -0.88817841970E-15  0.44408920985E-15  0.00000000000E+00  0.91188000000E+02  0.91188000000E+02 0.  0.
    9900012    2    3    3    0    0  0.74719953481E+01  0.31284559623E+01  0.42638074651E+02  0.47787270039E+02  0.19999995416E+02 0.  0.
        -12    1    3    3    0    0 -0.74719953481E+01 -0.31284559623E+01 -0.42638074651E+02  0.43400729961E+02  0.00000000000E+00 0.  1.
         11    1    4    4    0    0  0.62232384894E+01 -0.15172969927E+01  0.66411509473E+01  0.92269048779E+01  0.51100000000E-03 0. -1.
        -11    1    4    4    0    0 -0.51185568012E+00 -0.37458163088E+01  0.43067612858E+01  0.57307354755E+01  0.51100000000E-03 0.  1.
         12    1    4    4    0    0  0.17606125388E+01  0.83915692638E+01  0.31690162418E+02  0.32829629686E+02  0.00000000000E+00 0. -1.
</event>
<event>
 8    1  0.4042158E-011  0.9118800E+02  0.7816164E-02  0.1184000E+00
        -11   -1    0    0    0    0  0.00000000000E+00  0.00000000000E+00  0.45593999997E+02  0.45594000000E+02  0.51100000000E-03 0. -1.
         11   -1    0    0    0    0 -0.00000000000E+00 -0.00000000000E+00 -0.45593999997E+02  0.45594000000E+02  0.51100000000E-03 0.  1.
         23    2    1    2    0    0 -0.71054273576E-14 -0.22204460493E-15  0.00000000000E+00  0.91188000000E+02  0.91188000000E+02 0.  0.
    9900012    2    3    3    0    0 -0.39023109447E+02  0.11107203514E+01 -0.18962768815E+02  0.47787269916E+02  0.19999994857E+02 0.  0.
         12    1    3    3    0    0  0.39023109447E+02 -0.11107203514E+01  0.18962768815E+02  0.43400730084E+02  0.00000000000E+00 0. -1.
         11    1    4    4    0    0 -0.12290484890E+02  0.14961706867E+00  0.66921092580E+00  0.12309599816E+02  0.51100000000E-03 0. -1.
        -11    1    4    4    0    0 -0.13969453721E+02  0.35710158559E+01 -0.36775839589E+01  0.14880269337E+02  0.51100000000E-03 0.  1.
        -12    1    4    4    0    0 -0.12763170836E+02 -0.26099125732E+01 -0.15954395782E+02  0.20597400763E+02  0.00000000000E+00 0.  1.
</event>
<event>
 8    1  0.4042158E-011  0.9118800E+02  0.7816164E-02  0.1184000E+00
        -11   -1    0    0    0    0  0.00000000000E+00  0.00000000000E+00  0.45593999997E+02  0.45594000000E+02  0.51100000000E-03 0.  1.
         11   -1    0    0    0    0 -0.00000000000E+00 -0.00000000000E+00 -0.45593999997E+02  0.45594000000E+02  0.51100000000E-03 0. -1.
         23    2    1    2    0    0  0.71054273576E-14  0.00000000000E+00  0.00000000000E+00  0.91188000000E+02  0.91188000000E+02 0.  0.
    9900012    2    3    3    0    0  0.33809544628E+02 -0.26868333570E+02  0.43163203221E+01  0.47787270998E+02  0.19999999790E+02 0.  0.
        -12    1    3    3    0    0 -0.33809544628E+02  0.26868333570E+02 -0.43163203221E+01  0.43400729002E+02  0.00000000000E+00 0.  1.
         11    1    4    4    0    0  0.21010216700E+02 -0.23159589305E+02 -0.18704940720E+01  0.31325620998E+02  0.51100000000E-03 0. -1.
        -11    1    4    4    0    0  0.17840006523E+00  0.14074241946E+01 -0.17692969050E+00  0.14296761254E+01  0.51100000000E-03 0.  1.
        -12    1    4    4    0    0  0.12620927862E+02 -0.51161684596E+01  0.63637440846E+01  0.15031973875E+02  0.00000000000E+00 0.  1.
</event>
<event>
 8    1  0.4042158E-011  0.9118800E+02  0.7816164E-02  0.1184000E+00
        -11   -1    0    0    0    0  0.00000000000E+00  0.00000000000E+00  0.45593999997E+02  0.45594000000E+02  0.51100000000E-03 0. -1.
         11   -1    0    0    0    0 -0.00000000000E+00 -0.00000000000E+00 -0.45593999997E+02  0.45594000000E+02  0.51100000000E-03 0.  1.
         23    2    1    2    0    0 -0.88817841970E-15  0.00000000000E+00  0.00000000000E+00  0.91188000000E+02  0.91188000000E+02 0.  0.
    9900012    2    3    3    0    0 -0.50049568074E+01 -0.29296327809E+02  0.31627495233E+02  0.47787275692E+02  0.20000021189E+02 0.  0.
        -12    1    3    3    0    0  0.50049568074E+01  0.29296327809E+02 -0.31627495233E+02  0.43400724308E+02  0.00000000000E+00 0.  1.
         11    1    4    4    0    0 -0.28776291271E+01 -0.23439849759E+02  0.13493793881E+02  0.27199076817E+02  0.51100000000E-03 0.  1.
        -11    1    4    4    0    0 -0.33781647121E+01 -0.58021196935E+01  0.83018579941E+01  0.10676958189E+02  0.51100000000E-03 0. -1.
        -12    1    4    4    0    0  0.12508370318E+01 -0.54358356453E-01  0.98318433578E+01  0.99112406854E+01  0.00000000000E+00 0.  1.
</event>
<event>
 8    1  0.4042158E-011  0.9118800E+02  0.7816164E-02  0.1184000E+00
        -11   -1    0    0    0    0  0.00000000000E+00  0.00000000000E+00  0.45593999997E+02  0.45594000000E+02  0.51100000000E-03 0. -1.
         11   -1    0    0    0    0 -0.00000000000E+00 -0.00000000000E+00 -0.45593999997E+02  0.45594000000E+02  0.51100000000E-03 0.  1.
         23    2    1    2    0    0  0.00000000000E+00  0.17763568394E-14 -0.71054273576E-14  0.91188000000E+02  0.91188000000E+02 0.  0.
    9900012    2    3    3    0    0  0.91046824871E+01 -0.10389943458E+02 -0.41143398551E+02  0.47787246406E+02  0.19999887661E+02 0.  0.
         12    1    3    3    0    0 -0.91046824871E+01  0.10389943458E+02  0.41143398551E+02  0.43400753594E+02  0.00000000000E+00 0. -1.
         11    1    4    4    0    0  0.53454620626E+01 -0.39789571321E+01 -0.10114221729E+02  0.12112123925E+02  0.51100000000E-03 0. -1.
        -11    1    4    4    0    0 -0.17361791731E+01 -0.10479986183E+02 -0.21042356173E+02  0.23571702995E+02  0.51100000000E-03 0.  1.
         12    1    4    4    0    0  0.54953995977E+01  0.40689998570E+01 -0.99868206484E+01  0.12103419485E+02  0.00000000000E+00 0. -1.
</event>
<event>
 8    1  0.4042158E-011  0.9118800E+02  0.7816164E-02  0.1184000E+00
        -11   -1    0    0    0    0  0.00000000000E+00  0.00000000000E+00  0.45593999997E+02  0.45594000000E+02  0.51100000000E-03 0. -1.
         11   -1    0    0    0    0 -0.00000000000E+00 -0.00000000000E+00 -0.45593999997E+02  0.45594000000E+02  0.51100000000E-03 0.  1.
         23    2    1    2    0    0  0.11102230246E-15 -0.44408920985E-15 -0.71054273576E-14  0.91188000000E+02  0.91188000000E+02 0.  0.
    9900012    2    3    3    0    0  0.40160160988E+00 -0.21861851347E+01 -0.43343780036E+02  0.47787263173E+02  0.19999964111E+02 0.  0.
         12    1    3    3    0    0 -0.40160160988E+00  0.21861851347E+01  0.43343780036E+02  0.43400736827E+02  0.00000000000E+00 0. -1.
         11    1    4    4    0    0 -0.23822272798E+01  0.53645081874E+01 -0.61209763051E+01  0.84805251072E+01  0.51100000000E-03 0. -1.
        -11    1    4    4    0    0  0.27411757884E+01  0.41525044198E+00 -0.26754539822E+01  0.38528602239E+01  0.51100000000E-03 0.  1.
        -12    1    4    4    0    0  0.42653101190E-01 -0.79659437641E+01 -0.34547349749E+02  0.35453877842E+02  0.00000000000E+00 0.  1.
</event>
<event>
 8    1  0.4042158E-011  0.9118800E+02  0.7816164E-02  0.1184000E+00
        -11   -1    0    0    0    0  0.00000000000E+00  0.00000000000E+00  0.45593999997E+02  0.45594000000E+02  0.51100000000E-03 0.  1.
         11   -1    0    0    0    0 -0.00000000000E+00 -0.00000000000E+00 -0.45593999997E+02  0.45594000000E+02  0.51100000000E-03 0. -1.
         23    2    1    2    0    0  0.00000000000E+00  0.00000000000E+00  0.00000000000E+00  0.91188000000E+02  0.91188000000E+02 0.  0.
    9900012    2    3    3    0    0  0.39108921717E+02  0.12941599837E+02  0.13661270829E+02  0.47787273222E+02  0.20000009929E+02 0.  0.
         12    1    3    3    0    0 -0.39108921717E+02 -0.12941599837E+02 -0.13661270829E+02  0.43400726778E+02  0.00000000000E+00 0. -1.
         11    1    4    4    0    0 -0.64413085999E+00  0.23094464621E+00  0.25495768190E+01  0.26398072299E+01  0.51100000000E-03 0. -1.
        -11    1    4    4    0    0  0.28937523089E+00  0.61550098925E+00 -0.17799637819E+01  0.19054791570E+01  0.51100000000E-03 0.  1.
        -12    1    4    4    0    0  0.39463677346E+02  0.12095154202E+02  0.12891657792E+02  0.43241986835E+02  0.00000000000E+00 0.  1.
</event>
<event>
 8    1  0.4042158E-011  0.9118800E+02  0.7816164E-02  0.1184000E+00
        -11   -1    0    0    0    0  0.00000000000E+00  0.00000000000E+00  0.45593999997E+02  0.45594000000E+02  0.51100000000E-03 0. -1.
         11   -1    0    0    0    0 -0.00000000000E+00 -0.00000000000E+00 -0.45593999997E+02  0.45594000000E+02  0.51100000000E-03 0.  1.
         23    2    1    2    0    0  0.00000000000E+00 -0.17763568394E-14  0.00000000000E+00  0.91188000000E+02  0.91188000000E+02 0.  0.
    9900012    2    3    3    0    0 -0.40663019474E+02  0.13837177179E+02  0.62188737668E+01  0.47787274016E+02  0.20000013548E+02 0.  0.
        -12    1    3    3    0    0  0.40663019474E+02 -0.13837177179E+02 -0.62188737668E+01  0.43400725984E+02  0.00000000000E+00 0.  1.
         11    1    4    4    0    0 -0.16921068030E+02  0.81508426371E-01  0.68667402436E+01  0.18261470608E+02  0.51100000000E-03 0. -1.
        -11    1    4    4    0    0 -0.92086783826E+01  0.10958137879E+02  0.21180011331E+01  0.14469501456E+02  0.51100000000E-03 0.  1.
         12    1    4    4    0    0 -0.14533273061E+02  0.27975308739E+01 -0.27658676098E+01  0.15056301953E+02  0.00000000000E+00 0. -1.
</event>
<event>
 8    1  0.4042158E-011  0.9118800E+02  0.7816164E-02  0.1184000E+00
        -11   -1    0    0    0    0  0.00000000000E+00  0.00000000000E+00  0.45593999997E+02  0.45594000000E+02  0.51100000000E-03 0. -1.
         11   -1    0    0    0    0 -0.00000000000E+00 -0.00000000000E+00 -0.45593999997E+02  0.45594000000E+02  0.51100000000E-03 0.  1.
         23    2    1    2    0    0  0.35527136788E-14  0.00000000000E+00  0.00000000000E+00  0.91188000000E+02  0.91188000000E+02 0.  0.
    9900012    2    3    3    0    0 -0.12283713801E+02  0.41619195802E+02 -0.75899148687E+00  0.47787272449E+02  0.20000006402E+02 0.  0.
        -12    1    3    3    0    0  0.12283713801E+02 -0.41619195802E+02  0.75899148687E+00  0.43400727551E+02  0.00000000000E+00 0.  1.
         11    1    4    4    0    0 -0.19193073446E+00 -0.28595485427E+00  0.12621806180E+00  0.36679537313E+00  0.51100000000E-03 0. -1.
        -11    1    4    4    0    0  0.42085394673E+01  0.97745534791E+01 -0.37366007796E+01  0.11279001986E+02  0.51100000000E-03 0.  1.
         12    1    4    4    0    0 -0.16300322534E+02  0.32130597177E+02  0.28513912310E+01  0.36141475089E+02  0.00000000000E+00 0. -1.
</event>
<event>
 8    1  0.4042158E-011  0.9118800E+02  0.7816164E-02  0.1184000E+00
        -11   -1    0    0    0    0  0.00000000000E+00  0.00000000000E+00  0.45593999997E+02  0.45594000000E+02  0.51100000000E-03 0. -1.
         11   -1    0    0    0    0 -0.00000000000E+00 -0.00000000000E+00 -0.45593999997E+02  0.45594000000E+02  0.51100000000E-03 0.  1.
         23    2    1    2    0    0  0.44408920985E-15  0.00000000000E+00  0.00000000000E+00  0.91188000000E+02  0.91188000000E+02 0.  0.
    9900012    2    3    3    0    0  0.24521627645E+01  0.30882826128E+02  0.30395085137E+02  0.47787271292E+02  0.20000001130E+02 0.  0.
        -12    1    3    3    0    0 -0.24521627645E+01 -0.30882826128E+02 -0.30395085137E+02  0.43400728708E+02  0.00000000000E+00 0.  1.
         11    1    4    4    0    0 -0.35510631305E+01  0.55109322001E+01  0.37805951553E+01  0.75679140494E+01  0.51100000000E-03 0.  1.
        -11    1    4    4    0    0 -0.47448129377E+01  0.12222384936E+02  0.10347017864E+02  0.16702117299E+02  0.51100000000E-03 0. -1.
         12    1    4    4    0    0  0.10748038833E+02  0.13149508992E+02  0.16267472117E+02  0.23517239944E+02  0.00000000000E+00 0. -1.
</event>
<event>
 8    1  0.6017084E-011  0.9118800E+02  0.7816164E-02  0.1184000E+00
        -11   -1    0    0    0    0  0.00000000000E+00  0.00000000000E+00  0.45593999997E+02  0.45594000000E+02  0.51100000000E-03 0. -1.
         11   -1    0    0    0    0 -0.00000000000E+00 -0.00000000000E+00 -0.45593999997E+02  0.45594000000E+02  0.51100000000E-03 0.  1.
         23    2    1    2    0    0 -0.44408920985E-15  0.00000000000E+00  0.00000000000E+00  0.91188000000E+02  0.91188000000E+02 0.  0.
    9900012    2    3    3    0    0 -0.35497931367E+01  0.11711428307E+02  0.41639700670E+02  0.47787271248E+02  0.20000000929E+02 0.  0.
        -12    1    3    3    0    0  0.35497931367E+01 -0.11711428307E+02 -0.41639700670E+02  0.43400728752E+02  0.00000000000E+00 0.  1.
         11    1    4    4    0    0 -0.39169422164E+01  0.68190009824E+01  0.16126775091E+02  0.17941964380E+02  0.51100000000E-03 0. -1.
        -11    1    4    4    0    0 -0.48659443618E+01  0.17077684357E+01  0.22376637608E+02  0.22963183544E+02  0.51100000000E-03 0.  1.
        -12    1    4    4    0    0  0.52330934415E+01  0.31846588894E+01  0.31362879703E+01  0.68821233237E+01  0.00000000000E+00 0.  1.
</event>
<event>
 8    1  0.4042158E-011  0.9118800E+02  0.7816164E-02  0.1184000E+00
        -11   -1    0    0    0    0  0.00000000000E+00  0.00000000000E+00  0.45593999997E+02  0.45594000000E+02  0.51100000000E-03 0. -1.
         11   -1    0    0    0    0 -0.00000000000E+00 -0.00000000000E+00 -0.45593999997E+02  0.45594000000E+02  0.51100000000E-03 0.  1.
         23    2    1    2    0    0 -0.44408920985E-15  0.88817841970E-15  0.00000000000E+00  0.91188000000E+02  0.91188000000E+02 0.  0.
    9900012    2    3    3    0    0  0.38440006306E+01 -0.45279908925E+01 -0.42992373854E+02  0.47787271297E+02  0.20000001150E+02 0.  0.
         12    1    3    3    0    0 -0.38440006306E+01  0.45279908925E+01  0.42992373854E+02  0.43400728703E+02  0.00000000000E+00 0. -1.
         11    1    4    4    0    0 -0.48508658480E+01 -0.22183852084E+01 -0.15959256576E+02  0.16827061631E+02  0.51100000000E-03 0. -1.
        -11    1    4    4    0    0  0.44541272822E+01 -0.72932514861E+01 -0.15538379029E+02  0.17733358119E+02  0.51100000000E-03 0.  1.
         12    1    4    4    0    0  0.42407391964E+01  0.49836458020E+01 -0.11494738250E+02  0.13226851547E+02  0.00000000000E+00 0. -1.
</event>
<event>
 8    1  0.4042158E-011  0.9118800E+02  0.7816164E-02  0.1184000E+00
        -11   -1    0    0    0    0  0.00000000000E+00  0.00000000000E+00  0.45593999997E+02  0.45594000000E+02  0.51100000000E-03 0. -1.
         11   -1    0    0    0    0 -0.00000000000E+00 -0.00000000000E+00 -0.45593999997E+02  0.45594000000E+02  0.51100000000E-03 0.  1.
         23    2    1    2    0    0  0.00000000000E+00  0.00000000000E+00  0.00000000000E+00  0.91188000000E+02  0.91188000000E+02 0.  0.
    9900012    2    3    3    0    0 -0.23553666312E+02  0.25028735985E+02  0.26503024897E+02  0.47787272466E+02  0.20000006483E+02 0.  0.
        -12    1    3    3    0    0  0.23553666312E+02 -0.25028735985E+02 -0.26503024897E+02  0.43400727534E+02  0.00000000000E+00 0.  1.
         11    1    4    4    0    0 -0.14430502892E+02  0.97596400087E+01  0.61622474387E+01  0.18478725080E+02  0.51100000000E-03 0. -1.
        -11    1    4    4    0    0 -0.54827600834E+01  0.66580480264E+01  0.22010745069E+01  0.89014038724E+01  0.51100000000E-03 0.  1.
        -12    1    4    4    0    0 -0.36404033366E+01  0.86110479503E+01  0.18139702951E+02  0.20407143514E+02  0.00000000000E+00 0.  1.
</event>
<event>
 8    1  0.4042158E-011  0.9118800E+02  0.7816164E-02  0.1184000E+00
        -11   -1    0    0    0    0  0.00000000000E+00  0.00000000000E+00  0.45593999997E+02  0.45594000000E+02  0.51100000000E-03 0.  1.
         11   -1    0    0    0    0 -0.00000000000E+00 -0.00000000000E+00 -0.45593999997E+02  0.45594000000E+02  0.51100000000E-03 0. -1.
         23    2    1    2    0    0  0.00000000000E+00 -0.35527136788E-14 -0.35527136788E-14  0.91188000000E+02  0.91188000000E+02 0.  0.
    9900012    2    3    3    0    0  0.25310917980E+02 -0.27714552821E+02 -0.21791837876E+02  0.47787271837E+02  0.20000003612E+02 0.  0.
         12    1    3    3    0    0 -0.25310917980E+02  0.27714552821E+02  0.21791837876E+02  0.43400728163E+02  0.00000000000E+00 0. -1.
         11    1    4    4    0    0  0.59931036456E+01 -0.17274717912E+01  0.28288386237E+01  0.68486333174E+01  0.51100000000E-03 0. -1.
        -11    1    4    4    0    0  0.52030123802E+01 -0.44296493682E+01 -0.38569595679E+01  0.78466087403E+01  0.51100000000E-03 0.  1.
         12    1    4    4    0    0  0.14114801954E+02 -0.21557431662E+02 -0.20763716932E+02  0.33092029779E+02  0.00000000000E+00 0. -1.
</event>
<event>
 8    1  0.4042158E-011  0.9118800E+02  0.7816164E-02  0.1184000E+00
        -11   -1    0    0    0    0  0.00000000000E+00  0.00000000000E+00  0.45593999997E+02  0.45594000000E+02  0.51100000000E-03 0. -1.
         11   -1    0    0    0    0 -0.00000000000E+00 -0.00000000000E+00 -0.45593999997E+02  0.45594000000E+02  0.51100000000E-03 0.  1.
         23    2    1    2    0    0  0.00000000000E+00  0.00000000000E+00  0.00000000000E+00  0.91188000000E+02  0.91188000000E+02 0.  0.
    9900012    2    3    3    0    0  0.25483739733E+02 -0.23694717691E+02  0.25937666820E+02  0.47787271927E+02  0.20000004022E+02 0.  0.
        -12    1    3    3    0    0 -0.25483739733E+02  0.23694717691E+02 -0.25937666820E+02  0.43400728073E+02  0.00000000000E+00 0.  1.
         11    1    4    4    0    0  0.10443671696E+02 -0.22640995862E+02  0.17022723277E+02  0.30190364028E+02  0.51100000000E-03 0. -1.
        -11    1    4    4    0    0  0.38297496303E+01 -0.10016990148E+01  0.21870349147E+01  0.45225551546E+01  0.51100000000E-03 0.  1.
         12    1    4    4    0    0  0.11210318407E+02 -0.52022813922E-01  0.67279086282E+01  0.13074352744E+02  0.00000000000E+00 0. -1.
</event>
<event>
 8    1  0.4516737E-011  0.9118800E+02  0.7816164E-02  0.1184000E+00
        -11   -1    0    0    0    0  0.00000000000E+00  0.00000000000E+00  0.45593999997E+02  0.45594000000E+02  0.51100000000E-03 0. -1.
         11   -1    0    0    0    0 -0.00000000000E+00 -0.00000000000E+00 -0.45593999997E+02  0.45594000000E+02  0.51100000000E-03 0.  1.
         23    2    1    2    0    0  0.00000000000E+00  0.35527136788E-14  0.17763568394E-14  0.91188000000E+02  0.91188000000E+02 0.  0.
    9900012    2    3    3    0    0  0.34156779533E+02  0.25249256796E+02  0.89114158525E+01  0.47787263955E+02  0.19999967675E+02 0.  0.
        -12    1    3    3    0    0 -0.34156779533E+02 -0.25249256796E+02 -0.89114158525E+01  0.43400736045E+02  0.00000000000E+00 0.  1.
         11    1    4    4    0    0  0.13260391933E+02  0.15124130088E+02  0.45164029539E+01  0.20614926656E+02  0.51100000000E-03 0. -1.
        -11    1    4    4    0    0  0.15593412715E+02  0.98774192625E+01  0.86347566244E+01  0.20378345213E+02  0.51100000000E-03 0.  1.
        -12    1    4    4    0    0  0.53029748845E+01  0.24770744534E+00 -0.42397437257E+01  0.67939920860E+01  0.00000000000E+00 0.  1.
</event>
<event>
 8    1  0.4042158E-011  0.9118800E+02  0.7816164E-02  0.1184000E+00
        -11   -1    0    0    0    0  0.00000000000E+00  0.00000000000E+00  0.45593999997E+02  0.45594000000E+02  0.51100000000E-03 0. -1.
         11   -1    0    0    0    0 -0.00000000000E+00 -0.00000000000E+00 -0.45593999997E+02  0.45594000000E+02  0.51100000000E-03 0.  1.
         23    2    1    2    0    0  0.88817841970E-15  0.17763568394E-14 -0.71054273576E-14  0.91188000000E+02  0.91188000000E+02 0.  0.
    9900012    2    3    3    0    0  0.36718946445E+01  0.11969458639E+02 -0.41555657371E+02  0.47787269477E+02  0.19999992853E+02 0.  0.
         12    1    3    3    0    0 -0.36718946445E+01 -0.11969458639E+02  0.41555657371E+02  0.43400730523E+02  0.00000000000E+00 0. -1.
         11    1    4    4    0    0  0.24641225335E+01  0.71989112264E+00 -0.78025615311E+00  0.26830846081E+01  0.51100000000E-03 0. -1.
        -11    1    4    4    0    0  0.72901927332E+01  0.10062003781E+01 -0.14923816404E+02  0.16639700887E+02  0.51100000000E-03 0.  1.
        -12    1    4    4    0    0 -0.60824206222E+01  0.10243367138E+02 -0.25851584815E+02  0.28464483982E+02  0.00000000000E+00 0.  1.
</event>
<event>
 8    1  0.4042158E-011  0.9118800E+02  0.7816164E-02  0.1184000E+00
        -11   -1    0    0    0    0  0.00000000000E+00  0.00000000000E+00  0.45593999997E+02  0.45594000000E+02  0.51100000000E-03 0. -1.
         11   -1    0    0    0    0 -0.00000000000E+00 -0.00000000000E+00 -0.45593999997E+02  0.45594000000E+02  0.51100000000E-03 0.  1.
         23    2    1    2    0    0  0.71054273576E-14  0.00000000000E+00  0.00000000000E+00  0.91188000000E+02  0.91188000000E+02 0.  0.
    9900012    2    3    3    0    0  0.35997189042E+02  0.17938131067E+02  0.16310938429E+02  0.47787298651E+02  0.20000125871E+02 0.  0.
        -12    1    3    3    0    0 -0.35997189042E+02 -0.17938131067E+02 -0.16310938429E+02  0.43400701349E+02  0.00000000000E+00 0.  1.
         11    1    4    4    0    0  0.82967813271E+01  0.90299923941E+01  0.14616726069E+01  0.12349648987E+02  0.51100000000E-03 0. -1.
        -11    1    4    4    0    0  0.19323158914E+02  0.90657892875E+01  0.39771389189E+01  0.21711532421E+02  0.51100000000E-03 0.  1.
        -12    1    4    4    0    0  0.83772488007E+01 -0.15765061414E+00  0.10872126903E+02  0.13726117243E+02  0.00000000000E+00 0.  1.
</event>
<event>
 8    1  0.4042158E-011  0.9118800E+02  0.7816164E-02  0.1184000E+00
        -11   -1    0    0    0    0  0.00000000000E+00  0.00000000000E+00  0.45593999997E+02  0.45594000000E+02  0.51100000000E-03 0. -1.
         11   -1    0    0    0    0 -0.00000000000E+00 -0.00000000000E+00 -0.45593999997E+02  0.45594000000E+02  0.51100000000E-03 0.  1.
         23    2    1    2    0    0  0.44408920985E-15  0.35527136788E-14  0.00000000000E+00  0.91188000000E+02  0.91188000000E+02 0.  0.
    9900012    2    3    3    0    0  0.25424887628E+01  0.29829190965E+02 -0.31422576359E+02  0.47787272036E+02  0.20000004522E+02 0.  0.
         12    1    3    3    0    0 -0.25424887628E+01 -0.29829190965E+02  0.31422576359E+02  0.43400727964E+02  0.00000000000E+00 0. -1.
         11    1    4    4    0    0  0.52727433856E+01  0.12141174976E+02 -0.13178619789E+02  0.18678489565E+02  0.51100000000E-03 0. -1.
        -11    1    4    4    0    0 -0.11226311058E+01  0.14628875111E+02 -0.20330596202E+02  0.25071845361E+02  0.51100000000E-03 0.  1.
         12    1    4    4    0    0 -0.16076235170E+01  0.30591408777E+01  0.20866396318E+01  0.40369371106E+01  0.00000000000E+00 0. -1.
</event>
<event>
 8    1  0.4694783E-011  0.9118800E+02  0.7816164E-02  0.1184000E+00
        -11   -1    0    0    0    0  0.00000000000E+00  0.00000000000E+00  0.45593999997E+02  0.45594000000E+02  0.51100000000E-03 0. -1.
         11   -1    0    0    0    0 -0.00000000000E+00 -0.00000000000E+00 -0.45593999997E+02  0.45594000000E+02  0.51100000000E-03 0.  1.
         23    2    1    2    0    0  0.44408920985E-15  0.00000000000E+00  0.71054273576E-14  0.91188000000E+02  0.91188000000E+02 0.  0.
    9900012    2    3    3    0    0 -0.37665787401E+01 -0.10461087552E+02  0.41952376212E+02  0.47787270305E+02  0.19999996631E+02 0.  0.
        -12    1    3    3    0    0  0.37665787401E+01  0.10461087552E+02 -0.41952376212E+02  0.43400729695E+02  0.00000000000E+00 0.  1.
         11    1    4    4    0    0  0.13779880349E+01 -0.63337501752E+01  0.20863220143E+02  0.21846949382E+02  0.51100000000E-03 0. -1.
        -11    1    4    4    0    0  0.30744809513E+01  0.88892745525E+00  0.12927575005E+02  0.13317838448E+02  0.51100000000E-03 0.  1.
        -12    1    4    4    0    0 -0.82190477262E+01 -0.50162648317E+01  0.81615810639E+01  0.12622482476E+02  0.00000000000E+00 0.  1.
</event>
<event>
 8    1  0.4042158E-011  0.9118800E+02  0.7816164E-02  0.1184000E+00
        -11   -1    0    0    0    0  0.00000000000E+00  0.00000000000E+00  0.45593999997E+02  0.45594000000E+02  0.51100000000E-03 0. -1.
         11   -1    0    0    0    0 -0.00000000000E+00 -0.00000000000E+00 -0.45593999997E+02  0.45594000000E+02  0.51100000000E-03 0.  1.
         23    2    1    2    0    0 -0.88817841970E-15  0.00000000000E+00  0.35527136788E-14  0.91188000000E+02  0.91188000000E+02 0.  0.
    9900012    2    3    3    0    0  0.92231775810E+00 -0.35489981939E+02  0.24964652449E+02  0.47787270053E+02  0.19999995479E+02 0.  0.
        -12    1    3    3    0    0 -0.92231775810E+00  0.35489981939E+02 -0.24964652449E+02  0.43400729947E+02  0.00000000000E+00 0.  1.
         11    1    4    4    0    0 -0.11385136642E+01  0.10371161658E+01  0.96072858500E+00  0.18151647253E+01  0.51100000000E-03 0.  1.
        -11    1    4    4    0    0 -0.52517609767E+01 -0.13376159372E+02  0.12754788406E+02  0.19214246289E+02  0.51100000000E-03 0. -1.
         12    1    4    4    0    0  0.73125923990E+01 -0.23150938733E+02  0.11249135457E+02  0.26757859039E+02  0.00000000000E+00 0. -1.
</event>
<event>
 8    1  0.4042158E-011  0.9118800E+02  0.7816164E-02  0.1184000E+00
        -11   -1    0    0    0    0  0.00000000000E+00  0.00000000000E+00  0.45593999997E+02  0.45594000000E+02  0.51100000000E-03 0. -1.
         11   -1    0    0    0    0 -0.00000000000E+00 -0.00000000000E+00 -0.45593999997E+02  0.45594000000E+02  0.51100000000E-03 0.  1.
         23    2    1    2    0    0  0.00000000000E+00  0.00000000000E+00  0.00000000000E+00  0.91188000000E+02  0.91188000000E+02 0.  0.
    9900012    2    3    3    0    0 -0.30597156579E+02  0.12327742547E+02 -0.28203976651E+02  0.47787268140E+02  0.19999986759E+02 0.  0.
         12    1    3    3    0    0  0.30597156579E+02 -0.12327742547E+02  0.28203976651E+02  0.43400731860E+02  0.00000000000E+00 0. -1.
         11    1    4    4    0    0  0.95207567805E+00 -0.32551115938E+00 -0.46009422989E+01  0.47096789604E+01  0.51100000000E-03 0. -1.
        -11    1    4    4    0    0 -0.64970613864E+01  0.26123929759E+01 -0.11576964595E+02  0.13530059616E+02  0.51100000000E-03 0.  1.
         12    1    4    4    0    0 -0.25052170871E+02  0.10040860730E+02 -0.12026069757E+02  0.29547529564E+02  0.00000000000E+00 0. -1.
</event>
<event>
 8    1  0.4042158E-011  0.9118800E+02  0.7816164E-02  0.1184000E+00
        -11   -1    0    0    0    0  0.00000000000E+00  0.00000000000E+00  0.45593999997E+02  0.45594000000E+02  0.51100000000E-03 0. -1.
         11   -1    0    0    0    0 -0.00000000000E+00 -0.00000000000E+00 -0.45593999997E+02  0.45594000000E+02  0.51100000000E-03 0.  1.
         23    2    1    2    0    0  0.00000000000E+00  0.00000000000E+00  0.00000000000E+00  0.91188000000E+02  0.91188000000E+02 0.  0.
    9900012    2    3    3    0    0  0.15151255559E+02 -0.37072313676E+02 -0.16724420568E+02  0.47787271553E+02  0.20000002321E+02 0.  0.
         12    1    3    3    0    0 -0.15151255559E+02  0.37072313676E+02  0.16724420568E+02  0.43400728447E+02  0.00000000000E+00 0. -1.
         11    1    4    4    0    0  0.37883743814E+01 -0.18145923449E+01  0.24494089742E+01  0.48625230504E+01  0.51100000000E-03 0. -1.
        -11    1    4    4    0    0 -0.11621598470E+01 -0.59257066775E+00  0.14099136493E+00  0.13121106403E+01  0.51100000000E-03 0.  1.
        -12    1    4    4    0    0  0.12525041025E+02 -0.34665150664E+02 -0.19314820908E+02  0.41612637863E+02  0.00000000000E+00 0.  1.
</event>
<event>
 8    1  0.4042158E-011  0.9118800E+02  0.7816164E-02  0.1184000E+00
        -11   -1    0    0    0    0  0.00000000000E+00  0.00000000000E+00  0.45593999997E+02  0.45594000000E+02  0.51100000000E-03 0. -1.
         11   -1    0    0    0    0 -0.00000000000E+00 -0.00000000000E+00 -0.45593999997E+02  0.45594000000E+02  0.51100000000E-03 0.  1.
         23    2    1    2    0    0  0.00000000000E+00 -0.35527136788E-14 -0.71054273576E-14  0.91188000000E+02  0.91188000000E+02 0.  0.
    9900012    2    3    3    0    0 -0.10344366752E+01  0.11376415443E+02  0.41870398653E+02  0.47787272230E+02  0.20000005407E+02 0.  0.
        -12    1    3    3    0    0  0.10344366752E+01 -0.11376415443E+02 -0.41870398653E+02  0.43400727770E+02  0.00000000000E+00 0.  1.
         11    1    4    4    0    0  0.18890359396E+01 -0.38619286284E+01  0.47558910080E+01  0.64110411832E+01  0.51100000000E-03 0. -1.
        -11    1    4    4    0    0 -0.30967714638E+00 -0.10887292688E+01  0.63465137935E+01  0.64466633966E+01  0.51100000000E-03 0.  1.
        -12    1    4    4    0    0 -0.26137954684E+01  0.16327073340E+02  0.30767993852E+02  0.34929567651E+02  0.00000000000E+00 0.  1.
</event>
<event>
 8    1  0.4042158E-011  0.9118800E+02  0.7816164E-02  0.1184000E+00
        -11   -1    0    0    0    0  0.00000000000E+00  0.00000000000E+00  0.45593999997E+02  0.45594000000E+02  0.51100000000E-03 0.  1.
         11   -1    0    0    0    0 -0.00000000000E+00 -0.00000000000E+00 -0.45593999997E+02  0.45594000000E+02  0.51100000000E-03 0. -1.
         23    2    1    2    0    0  0.35527136788E-14  0.17763568394E-14  0.35527136788E-14  0.91188000000E+02  0.91188000000E+02 0.  0.
    9900012    2    3    3    0    0  0.28129870827E+02  0.10681350759E+02  0.31276864948E+02  0.47787272267E+02  0.20000005574E+02 0.  0.
        -12    1    3    3    0    0 -0.28129870827E+02 -0.10681350759E+02 -0.31276864948E+02  0.43400727733E+02  0.00000000000E+00 0.  1.
         11    1    4    4    0    0  0.14883217267E+02 -0.75781345080E-01  0.13118245480E+02  0.19839462285E+02  0.51100000000E-03 0. -1.
        -11    1    4    4    0    0  0.38604045188E+01  0.21169206087E+01  0.13769668748E+02  0.14456412197E+02  0.51100000000E-03 0.  1.
         12    1    4    4    0    0  0.93862490414E+01  0.86402114959E+01  0.43889507190E+01  0.13491397784E+02  0.00000000000E+00 0. -1.
</event>
<event>
 8    1  0.4042158E-011  0.9118800E+02  0.7816164E-02  0.1184000E+00
        -11   -1    0    0    0    0  0.00000000000E+00  0.00000000000E+00  0.45593999997E+02  0.45594000000E+02  0.51100000000E-03 0. -1.
         11   -1    0    0    0    0 -0.00000000000E+00 -0.00000000000E+00 -0.45593999997E+02  0.45594000000E+02  0.51100000000E-03 0.  1.
         23    2    1    2    0    0 -0.17763568394E-14  0.00000000000E+00  0.35527136788E-14  0.91188000000E+02  0.91188000000E+02 0.  0.
    9900012    2    3    3    0    0 -0.14709575810E+02 -0.36106932839E+02 -0.19066758426E+02  0.47787268481E+02  0.19999988311E+02 0.  0.
         12    1    3    3    0    0  0.14709575810E+02  0.36106932839E+02  0.19066758426E+02  0.43400731519E+02  0.00000000000E+00 0. -1.
         11    1    4    4    0    0 -0.91221298169E+01 -0.17874126192E+02 -0.10980132988E+02  0.22874898037E+02  0.51100000000E-03 0. -1.
        -11    1    4    4    0    0 -0.91221135212E+01 -0.89094081209E+01 -0.12275847783E+01  0.12810053583E+02  0.51100000000E-03 0.  1.
         12    1    4    4    0    0  0.35346675281E+01 -0.93233985262E+01 -0.68590406594E+01  0.12102316860E+02  0.00000000000E+00 0. -1.
</event>
<event>
 8    1  0.4042158E-011  0.9118800E+02  0.7816164E-02  0.1184000E+00
        -11   -1    0    0    0    0  0.00000000000E+00  0.00000000000E+00  0.45593999997E+02  0.45594000000E+02  0.51100000000E-03 0. -1.
         11   -1    0    0    0    0 -0.00000000000E+00 -0.00000000000E+00 -0.45593999997E+02  0.45594000000E+02  0.51100000000E-03 0.  1.
         23    2    1    2    0    0  0.35527136788E-14  0.00000000000E+00  0.00000000000E+00  0.91188000000E+02  0.91188000000E+02 0.  0.
    9900012    2    3    3    0    0  0.25161323870E+02  0.37600350733E+01 -0.35162358902E+02  0.47787290718E+02  0.20000089699E+02 0.  0.
         12    1    3    3    0    0 -0.25161323870E+02 -0.37600350733E+01  0.35162358902E+02  0.43400709282E+02  0.00000000000E+00 0. -1.
         11    1    4    4    0    0 -0.16213357486E+00  0.95493333873E+00 -0.84553201306E+01  0.85106182942E+01  0.51100000000E-03 0. -1.
        -11    1    4    4    0    0  0.33714693468E+01  0.30977082705E+01 -0.12021293001E+02  0.12863673183E+02  0.51100000000E-03 0.  1.
         12    1    4    4    0    0  0.21951988098E+02 -0.29260653591E+00 -0.14685745770E+02  0.26412999241E+02  0.00000000000E+00 0. -1.
</event>
<event>
 8    1  0.4042158E-011  0.9118800E+02  0.7816164E-02  0.1184000E+00
        -11   -1    0    0    0    0  0.00000000000E+00  0.00000000000E+00  0.45593999997E+02  0.45594000000E+02  0.51100000000E-03 0. -1.
         11   -1    0    0    0    0 -0.00000000000E+00 -0.00000000000E+00 -0.45593999997E+02  0.45594000000E+02  0.51100000000E-03 0.  1.
         23    2    1    2    0    0  0.35527136788E-14 -0.88817841970E-15 -0.71054273576E-14  0.91188000000E+02  0.91188000000E+02 0.  0.
    9900012    2    3    3    0    0 -0.24603580334E+02 -0.77302016947E+01  0.34907462226E+02  0.47787273018E+02  0.20000008999E+02 0.  0.
        -12    1    3    3    0    0  0.24603580334E+02  0.77302016947E+01 -0.34907462226E+02  0.43400726982E+02  0.00000000000E+00 0.  1.
         11    1    4    4    0    0 -0.19477525800E+02 -0.27130604277E+01  0.21782622171E+02  0.29346504683E+02  0.51100000000E-03 0. -1.
        -11    1    4    4    0    0 -0.72239945205E+01 -0.23004956293E+01  0.37517334646E+01  0.84589527262E+01  0.51100000000E-03 0.  1.
        -12    1    4    4    0    0  0.20979399865E+01 -0.27166456377E+01  0.93731065901E+01  0.99818156093E+01  0.00000000000E+00 0.  1.
</event>
<event>
 8    1  0.4042158E-011  0.9118800E+02  0.7816164E-02  0.1184000E+00
        -11   -1    0    0    0    0  0.00000000000E+00  0.00000000000E+00  0.45593999997E+02  0.45594000000E+02  0.51100000000E-03 0. -1.
         11   -1    0    0    0    0 -0.00000000000E+00 -0.00000000000E+00 -0.45593999997E+02  0.45594000000E+02  0.51100000000E-03 0.  1.
         23    2    1    2    0    0  0.00000000000E+00  0.00000000000E+00  0.71054273576E-14  0.91188000000E+02  0.91188000000E+02 0.  0.
    9900012    2    3    3    0    0  0.17258056942E+02 -0.14448150853E+02 -0.37108407997E+02  0.47787268019E+02  0.19999986204E+02 0.  0.
         12    1    3    3    0    0 -0.17258056942E+02  0.14448150853E+02  0.37108407997E+02  0.43400731981E+02  0.00000000000E+00 0. -1.
         11    1    4    4    0    0  0.30824936250E+01  0.54677984455E+00 -0.84517305701E+00  0.32426922309E+01  0.51100000000E-03 0. -1.
        -11    1    4    4    0    0 -0.61357880116E+00 -0.23327775536E+01 -0.16950965236E+02  0.17121727505E+02  0.51100000000E-03 0.  1.
        -12    1    4    4    0    0  0.14789142118E+02 -0.12662153144E+02 -0.19312269704E+02  0.27422848282E+02  0.00000000000E+00 0.  1.
</event>
<event>
 8    1  0.4042158E-011  0.9118800E+02  0.7816164E-02  0.1184000E+00
        -11   -1    0    0    0    0  0.00000000000E+00  0.00000000000E+00  0.45593999997E+02  0.45594000000E+02  0.51100000000E-03 0. -1.
         11   -1    0    0    0    0 -0.00000000000E+00 -0.00000000000E+00 -0.45593999997E+02  0.45594000000E+02  0.51100000000E-03 0.  1.
         23    2    1    2    0    0  0.00000000000E+00  0.00000000000E+00  0.00000000000E+00  0.91188000000E+02  0.91188000000E+02 0.  0.
    9900012    2    3    3    0    0  0.23377693885E+02 -0.27325433357E+02  0.24298716612E+02  0.47787268341E+02  0.19999987675E+02 0.  0.
        -12    1    3    3    0    0 -0.23377693885E+02  0.27325433357E+02 -0.24298716612E+02  0.43400731659E+02  0.00000000000E+00 0.  1.
         11    1    4    4    0    0  0.11741705384E+02 -0.12930401996E+02  0.75007544957E+01  0.19008531226E+02  0.51100000000E-03 0. -1.
        -11    1    4    4    0    0  0.89637028227E+01 -0.84770335968E+01  0.18341229848E+02  0.22104496816E+02  0.51100000000E-03 0.  1.
        -12    1    4    4    0    0  0.26722856780E+01 -0.59179977643E+01 -0.15432677312E+01  0.66742402993E+01  0.00000000000E+00 0.  1.
</event>
<event>
 8    1  0.4042158E-011  0.9118800E+02  0.7816164E-02  0.1184000E+00
        -11   -1    0    0    0    0  0.00000000000E+00  0.00000000000E+00  0.45593999997E+02  0.45594000000E+02  0.51100000000E-03 0. -1.
         11   -1    0    0    0    0 -0.00000000000E+00 -0.00000000000E+00 -0.45593999997E+02  0.45594000000E+02  0.51100000000E-03 0.  1.
         23    2    1    2    0    0 -0.17763568394E-14  0.00000000000E+00  0.00000000000E+00  0.91188000000E+02  0.91188000000E+02 0.  0.
    9900012    2    3    3    0    0 -0.14954357292E+02 -0.21502871004E+02 -0.34606602974E+02  0.47787271517E+02  0.20000002155E+02 0.  0.
         12    1    3    3    0    0  0.14954357292E+02  0.21502871004E+02  0.34606602974E+02  0.43400728483E+02  0.00000000000E+00 0. -1.
         11    1    4    4    0    0  0.28102799202E+01 -0.21984712706E+01 -0.12248960709E+02  0.12758055803E+02  0.51100000000E-03 0. -1.
        -11    1    4    4    0    0 -0.37325180208E+01 -0.78809590680E+01 -0.90564451661E+01  0.12572207679E+02  0.51100000000E-03 0.  1.
         12    1    4    4    0    0 -0.14032119192E+02 -0.11423440665E+02 -0.13301197099E+02  0.22457008035E+02  0.00000000000E+00 0. -1.
</event>
<event>
 8    1  0.4042158E-011  0.9118800E+02  0.7816164E-02  0.1184000E+00
        -11   -1    0    0    0    0  0.00000000000E+00  0.00000000000E+00  0.45593999997E+02  0.45594000000E+02  0.51100000000E-03 0. -1.
         11   -1    0    0    0    0 -0.00000000000E+00 -0.00000000000E+00 -0.45593999997E+02  0.45594000000E+02  0.51100000000E-03 0.  1.
         23    2    1    2    0    0  0.00000000000E+00  0.00000000000E+00  0.00000000000E+00  0.91188000000E+02  0.91188000000E+02 0.  0.
    9900012    2    3    3    0    0 -0.17177032710E+01  0.20107188850E+02  0.38423608039E+02  0.47787271864E+02  0.20000003737E+02 0.  0.
        -12    1    3    3    0    0  0.17177032710E+01 -0.20107188850E+02 -0.38423608039E+02  0.43400728136E+02  0.00000000000E+00 0.  1.
         11    1    4    4    0    0  0.11421737945E+01  0.18201039916E+02  0.38471207860E+02  0.42574831173E+02  0.51100000000E-03 0. -1.
        -11    1    4    4    0    0 -0.13979715335E+01 -0.63699928884E-01  0.16989871082E+01  0.22011223374E+01  0.51100000000E-03 0.  1.
        -12    1    4    4    0    0 -0.14619055320E+01  0.19698488625E+01 -0.17465869284E+01  0.30113183531E+01  0.00000000000E+00 0.  1.
</event>
<event>
 8    1  0.4042158E-011  0.9118800E+02  0.7816164E-02  0.1184000E+00
        -11   -1    0    0    0    0  0.00000000000E+00  0.00000000000E+00  0.45593999997E+02  0.45594000000E+02  0.51100000000E-03 0. -1.
         11   -1    0    0    0    0 -0.00000000000E+00 -0.00000000000E+00 -0.45593999997E+02  0.45594000000E+02  0.51100000000E-03 0.  1.
         23    2    1    2    0    0  0.00000000000E+00  0.35527136788E-14  0.00000000000E+00  0.91188000000E+02  0.91188000000E+02 0.  0.
    9900012    2    3    3    0    0 -0.14307679216E+02 -0.29760244133E+02  0.28164541719E+02  0.47787271600E+02  0.20000002533E+02 0.  0.
        -12    1    3    3    0    0  0.14307679216E+02  0.29760244133E+02 -0.28164541719E+02  0.43400728400E+02  0.00000000000E+00 0.  1.
         11    1    4    4    0    0 -0.80115476902E+01 -0.79740507070E+01  0.15848323363E+01  0.11414117349E+02  0.51100000000E-03 0.  1.
        -11    1    4    4    0    0 -0.63287842841E+01 -0.14802832715E+02  0.11591357554E+02  0.19837765427E+02  0.51100000000E-03 0. -1.
        -12    1    4    4    0    0  0.32652758588E-01 -0.69833607108E+01  0.14988351829E+02  0.16535388824E+02  0.00000000000E+00 0.  1.
</event>
<event>
 8    1  0.4042158E-011  0.9118800E+02  0.7816164E-02  0.1184000E+00
        -11   -1    0    0    0    0  0.00000000000E+00  0.00000000000E+00  0.45593999997E+02  0.45594000000E+02  0.51100000000E-03 0.  1.
         11   -1    0    0    0    0 -0.00000000000E+00 -0.00000000000E+00 -0.45593999997E+02  0.45594000000E+02  0.51100000000E-03 0. -1.
         23    2    1    2    0    0  0.71054273576E-14  0.00000000000E+00  0.35527136788E-14  0.91188000000E+02  0.91188000000E+02 0.  0.
    9900012    2    3    3    0    0  0.35768358793E+02 -0.10966848485E+02 -0.21999460516E+02  0.47787268215E+02  0.19999987101E+02 0.  0.
         12    1    3    3    0    0 -0.35768358793E+02  0.10966848485E+02  0.21999460516E+02  0.43400731785E+02  0.00000000000E+00 0. -1.
         11    1    4    4    0    0  0.17373820865E+02 -0.11578066676E+01 -0.14934426213E+02  0.22939643726E+02  0.51100000000E-03 0. -1.
        -11    1    4    4    0    0  0.23386034373E+01 -0.54587304107E+01 -0.55763119728E+01  0.81462911323E+01  0.51100000000E-03 0.  1.
        -12    1    4    4    0    0  0.16055934491E+02 -0.43503114069E+01 -0.14887223303E+01  0.16701333357E+02  0.00000000000E+00 0.  1.
</event>
<event>
 8    1  0.4042158E-011  0.9118800E+02  0.7816164E-02  0.1184000E+00
        -11   -1    0    0    0    0  0.00000000000E+00  0.00000000000E+00  0.45593999997E+02  0.45594000000E+02  0.51100000000E-03 0.  1.
         11   -1    0    0    0    0 -0.00000000000E+00 -0.00000000000E+00 -0.45593999997E+02  0.45594000000E+02  0.51100000000E-03 0. -1.
         23    2    1    2    0    0  0.00000000000E+00  0.00000000000E+00  0.88817841970E-15  0.91188000000E+02  0.91188000000E+02 0.  0.
    9900012    2    3    3    0    0 -0.43018402234E+02  0.22170382648E+01 -0.53038275843E+01  0.47787207652E+02  0.19999710965E+02 0.  0.
         12    1    3    3    0    0  0.43018402234E+02 -0.22170382648E+01  0.53038275843E+01  0.43400792348E+02  0.00000000000E+00 0. -1.
         11    1    4    4    0    0 -0.76186430694E+01  0.14973460979E+01  0.50941963648E+01  0.92863665887E+01  0.51100000000E-03 0. -1.
        -11    1    4    4    0    0 -0.18767720806E+01  0.18340651005E+01  0.13631883317E+01  0.29570848693E+01  0.51100000000E-03 0.  1.
         12    1    4    4    0    0 -0.33522987084E+02 -0.11143729336E+01 -0.11761212281E+02  0.35543756194E+02  0.00000000000E+00 0. -1.
</event>
<event>
 8    1  0.4042158E-011  0.9118800E+02  0.7816164E-02  0.1184000E+00
        -11   -1    0    0    0    0  0.00000000000E+00  0.00000000000E+00  0.45593999997E+02  0.45594000000E+02  0.51100000000E-03 0. -1.
         11   -1    0    0    0    0 -0.00000000000E+00 -0.00000000000E+00 -0.45593999997E+02  0.45594000000E+02  0.51100000000E-03 0.  1.
         23    2    1    2    0    0  0.00000000000E+00  0.00000000000E+00 -0.88817841970E-15  0.91188000000E+02  0.91188000000E+02 0.  0.
    9900012    2    3    3    0    0 -0.42119733624E+02  0.81811421421E+01  0.65283491598E+01  0.47787281226E+02  0.20000046423E+02 0.  0.
        -12    1    3    3    0    0  0.42119733624E+02 -0.81811421421E+01 -0.65283491598E+01  0.43400718774E+02  0.00000000000E+00 0.  1.
         11    1    4    4    0    0 -0.17968994333E+02  0.69065875182E+00  0.53836026319E+01  0.18770853587E+02  0.51100000000E-03 0. -1.
        -11    1    4    4    0    0 -0.46675187556E-01 -0.20869462124E+01  0.22326689510E+01  0.30565231837E+01  0.51100000000E-03 0.  1.
        -12    1    4    4    0    0 -0.24104064104E+02  0.95774296027E+01 -0.10879224230E+01  0.25959904455E+02  0.00000000000E+00 0.  1.
</event>
<event>
 8    1  0.4042158E-011  0.9118800E+02  0.7816164E-02  0.1184000E+00
        -11   -1    0    0    0    0  0.00000000000E+00  0.00000000000E+00  0.45593999997E+02  0.45594000000E+02  0.51100000000E-03 0. -1.
         11   -1    0    0    0    0 -0.00000000000E+00 -0.00000000000E+00 -0.45593999997E+02  0.45594000000E+02  0.51100000000E-03 0.  1.
         23    2    1    2    0    0 -0.35527136788E-14 -0.44408920985E-15 -0.35527136788E-14  0.91188000000E+02  0.91188000000E+02 0.  0.
    9900012    2    3    3    0    0 -0.30229334962E+02 -0.24533776836E+01 -0.31044988465E+02  0.47787273473E+02  0.20000011071E+02 0.  0.
         12    1    3    3    0    0  0.30229334962E+02  0.24533776836E+01  0.31044988465E+02  0.43400726527E+02  0.00000000000E+00 0. -1.
         11    1    4    4    0    0 -0.40835452997E+01 -0.62930355899E+01 -0.63725543208E+01  0.98431238935E+01  0.51100000000E-03 0. -1.
        -11    1    4    4    0    0 -0.18090467160E+02 -0.25343242687E+01 -0.18295071163E+02  0.25853383351E+02  0.51100000000E-03 0.  1.
        -12    1    4    4    0    0 -0.80553225026E+01  0.63739821749E+01 -0.63773629807E+01  0.12090766228E+02  0.00000000000E+00 0.  1.
</event>
<event>
 8    1  0.4042158E-011  0.9118800E+02  0.7816164E-02  0.1184000E+00
        -11   -1    0    0    0    0  0.00000000000E+00  0.00000000000E+00  0.45593999997E+02  0.45594000000E+02  0.51100000000E-03 0.  1.
         11   -1    0    0    0    0 -0.00000000000E+00 -0.00000000000E+00 -0.45593999997E+02  0.45594000000E+02  0.51100000000E-03 0. -1.
         23    2    1    2    0    0  0.00000000000E+00  0.35527136788E-14  0.00000000000E+00  0.91188000000E+02  0.91188000000E+02 0.  0.
    9900012    2    3    3    0    0 -0.30154666343E+02  0.28279320038E+02  0.13213603196E+02  0.47787272431E+02  0.20000006324E+02 0.  0.
        -12    1    3    3    0    0  0.30154666343E+02 -0.28279320038E+02 -0.13213603196E+02  0.43400727569E+02  0.00000000000E+00 0.  1.
         11    1    4    4    0    0 -0.14044786439E+01  0.61489444291E+01  0.26192322883E+01  0.68295282336E+01  0.51100000000E-03 0. -1.
        -11    1    4    4    0    0 -0.57538178396E+01 -0.68749639717E+00  0.58184510493E+01  0.82117868885E+01  0.51100000000E-03 0.  1.
         12    1    4    4    0    0 -0.22996369859E+02  0.22817872007E+02  0.47759198580E+01  0.32745957309E+02  0.00000000000E+00 0. -1.
</event>
<event>
 8    1  0.4042158E-011  0.9118800E+02  0.7816164E-02  0.1184000E+00
        -11   -1    0    0    0    0  0.00000000000E+00  0.00000000000E+00  0.45593999997E+02  0.45594000000E+02  0.51100000000E-03 0. -1.
         11   -1    0    0    0    0 -0.00000000000E+00 -0.00000000000E+00 -0.45593999997E+02  0.45594000000E+02  0.51100000000E-03 0.  1.
         23    2    1    2    0    0  0.00000000000E+00  0.35527136788E-14  0.00000000000E+00  0.91188000000E+02  0.91188000000E+02 0.  0.
    9900012    2    3    3    0    0  0.51160994424E+01  0.17746099481E+02 -0.39274987962E+02  0.47787271899E+02  0.20000003894E+02 0.  0.
         12    1    3    3    0    0 -0.51160994424E+01 -0.17746099481E+02  0.39274987962E+02  0.43400728101E+02  0.00000000000E+00 0. -1.
         11    1    4    4    0    0  0.31108636383E+01 -0.16858512072E+01 -0.23780680361E+01  0.42631883273E+01  0.51100000000E-03 0. -1.
        -11    1    4    4    0    0 -0.47644428914E+01  0.12548874896E+02 -0.22051933532E+02  0.25815924349E+02  0.51100000000E-03 0.  1.
        -12    1    4    4    0    0  0.67696786955E+01  0.68830757920E+01 -0.14844986394E+02  0.17708159222E+02  0.00000000000E+00 0.  1.
</event>
<event>
 8    1  0.4042158E-011  0.9118800E+02  0.7816164E-02  0.1184000E+00
        -11   -1    0    0    0    0  0.00000000000E+00  0.00000000000E+00  0.45593999997E+02  0.45594000000E+02  0.51100000000E-03 0. -1.
         11   -1    0    0    0    0 -0.00000000000E+00 -0.00000000000E+00 -0.45593999997E+02  0.45594000000E+02  0.51100000000E-03 0.  1.
         23    2    1    2    0    0  0.00000000000E+00  0.00000000000E+00  0.00000000000E+00  0.91188000000E+02  0.91188000000E+02 0.  0.
    9900012    2    3    3    0    0 -0.35094877517E+02  0.19778110270E+02  0.16149279381E+02  0.47787270763E+02  0.19999998718E+02 0.  0.
        -12    1    3    3    0    0  0.35094877517E+02 -0.19778110270E+02 -0.16149279381E+02  0.43400729237E+02  0.00000000000E+00 0.  1.
         11    1    4    4    0    0 -0.79282155322E+01  0.66096856768E+00 -0.12395488787E+01  0.80517055743E+01  0.51100000000E-03 0. -1.
        -11    1    4    4    0    0 -0.44331752919E+01 -0.16006690702E+01  0.40329473767E+01  0.62032128325E+01  0.51100000000E-03 0.  1.
         12    1    4    4    0    0 -0.22733486692E+02  0.20717810773E+02  0.13355880883E+02  0.33532352356E+02  0.00000000000E+00 0. -1.
</event>
<event>
 8    1  0.4042158E-011  0.9118800E+02  0.7816164E-02  0.1184000E+00
        -11   -1    0    0    0    0  0.00000000000E+00  0.00000000000E+00  0.45593999997E+02  0.45594000000E+02  0.51100000000E-03 0. -1.
         11   -1    0    0    0    0 -0.00000000000E+00 -0.00000000000E+00 -0.45593999997E+02  0.45594000000E+02  0.51100000000E-03 0.  1.
         23    2    1    2    0    0 -0.35527136788E-14  0.00000000000E+00 -0.71054273576E-14  0.91188000000E+02  0.91188000000E+02 0.  0.
    9900012    2    3    3    0    0 -0.21574854374E+02  0.98854654109E+01 -0.36337672970E+02  0.47787271382E+02  0.20000001539E+02 0.  0.
         12    1    3    3    0    0  0.21574854374E+02 -0.98854654109E+01  0.36337672970E+02  0.43400728618E+02  0.00000000000E+00 0. -1.
         11    1    4    4    0    0 -0.29983291372E+01  0.46316655351E+01 -0.94137343760E+00  0.55971856726E+01  0.51100000000E-03 0. -1.
        -11    1    4    4    0    0 -0.64832529191E+01  0.37779823835E+00 -0.27805759670E+01  0.70644817850E+01  0.51100000000E-03 0.  1.
         12    1    4    4    0    0 -0.12093272318E+02  0.48760016375E+01 -0.32615723566E+02  0.35125603924E+02  0.00000000000E+00 0. -1.
</event>
<event>
 8    1  0.4042158E-011  0.9118800E+02  0.7816164E-02  0.1184000E+00
        -11   -1    0    0    0    0  0.00000000000E+00  0.00000000000E+00  0.45593999997E+02  0.45594000000E+02  0.51100000000E-03 0. -1.
         11   -1    0    0    0    0 -0.00000000000E+00 -0.00000000000E+00 -0.45593999997E+02  0.45594000000E+02  0.51100000000E-03 0.  1.
         23    2    1    2    0    0  0.17763568394E-14  0.35527136788E-14  0.35527136788E-14  0.91188000000E+02  0.91188000000E+02 0.  0.
    9900012    2    3    3    0    0 -0.11409745212E+02  0.27451969414E+02 -0.31620069637E+02  0.47787289011E+02  0.20000081915E+02 0.  0.
         12    1    3    3    0    0  0.11409745212E+02 -0.27451969414E+02  0.31620069637E+02  0.43400710989E+02  0.00000000000E+00 0. -1.
         11    1    4    4    0    0 -0.17529709186E+01  0.40451512343E+01 -0.30709447298E+01  0.53727886004E+01  0.51100000000E-03 0. -1.
        -11    1    4    4    0    0 -0.14145938732E+02  0.22797548060E+02 -0.24750321301E+02  0.36502249039E+02  0.51100000000E-03 0.  1.
        -12    1    4    4    0    0  0.44891644383E+01  0.60927011969E+00 -0.37988036066E+01  0.59122513711E+01  0.00000000000E+00 0.  1.
</event>
<event>
 8    1  0.4042158E-011  0.9118800E+02  0.7816164E-02  0.1184000E+00
        -11   -1    0    0    0    0  0.00000000000E+00  0.00000000000E+00  0.45593999997E+02  0.45594000000E+02  0.51100000000E-03 0. -1.
         11   -1    0    0    0    0 -0.00000000000E+00 -0.00000000000E+00 -0.45593999997E+02  0.45594000000E+02  0.51100000000E-03 0.  1.
         23    2    1    2    0    0  0.35527136788E-14 -0.88817841970E-15  0.00000000000E+00  0.91188000000E+02  0.91188000000E+02 0.  0.
    9900012    2    3    3    0    0 -0.30374090683E+02  0.50284691096E+01  0.30590070412E+02  0.47787270810E+02  0.19999998931E+02 0.  0.
        -12    1    3    3    0    0  0.30374090683E+02 -0.50284691096E+01 -0.30590070412E+02  0.43400729190E+02  0.00000000000E+00 0.  1.
         11    1    4    4    0    0 -0.22205959022E+02  0.89381804460E+01  0.11507630066E+02  0.26559767239E+02  0.51100000000E-03 0. -1.
        -11    1    4    4    0    0 -0.28629565989E-01 -0.10281094233E+00  0.12932350831E+01  0.12976312971E+01  0.51100000000E-03 0.  1.
         12    1    4    4    0    0 -0.81395020948E+01 -0.38069003941E+01  0.17789205263E+02  0.19929872274E+02  0.00000000000E+00 0. -1.
</event>
<event>
 8    1  0.4042158E-011  0.9118800E+02  0.7816164E-02  0.1184000E+00
        -11   -1    0    0    0    0  0.00000000000E+00  0.00000000000E+00  0.45593999997E+02  0.45594000000E+02  0.51100000000E-03 0. -1.
         11   -1    0    0    0    0 -0.00000000000E+00 -0.00000000000E+00 -0.45593999997E+02  0.45594000000E+02  0.51100000000E-03 0.  1.
         23    2    1    2    0    0  0.35527136788E-14  0.00000000000E+00 -0.35527136788E-14  0.91188000000E+02  0.91188000000E+02 0.  0.
    9900012    2    3    3    0    0  0.18973798133E+02 -0.24350375934E+02 -0.30507007875E+02  0.47787270131E+02  0.19999995835E+02 0.  0.
         12    1    3    3    0    0 -0.18973798133E+02  0.24350375934E+02  0.30507007875E+02  0.43400729869E+02  0.00000000000E+00 0. -1.
         11    1    4    4    0    0  0.80271952747E+01 -0.11242111017E+02 -0.15215375264E+02  0.20550634267E+02  0.51100000000E-03 0.  1.
        -11    1    4    4    0    0 -0.74124177646E+00 -0.10199997280E+02 -0.49506743655E+01  0.11362154761E+02  0.51100000000E-03 0. -1.
         12    1    4    4    0    0  0.11687844635E+02 -0.29082676367E+01 -0.10340958245E+02  0.15874481103E+02  0.00000000000E+00 0. -1.
</event>
<event>
 8    1  0.4042158E-011  0.9118800E+02  0.7816164E-02  0.1184000E+00
        -11   -1    0    0    0    0  0.00000000000E+00  0.00000000000E+00  0.45593999997E+02  0.45594000000E+02  0.51100000000E-03 0. -1.
         11   -1    0    0    0    0 -0.00000000000E+00 -0.00000000000E+00 -0.45593999997E+02  0.45594000000E+02  0.51100000000E-03 0.  1.
         23    2    1    2    0    0 -0.35527136788E-14  0.00000000000E+00  0.00000000000E+00  0.91188000000E+02  0.91188000000E+02 0.  0.
    9900012    2    3    3    0    0  0.24287566972E+02  0.11349670927E+02  0.34130957440E+02  0.47787271949E+02  0.20000004125E+02 0.  0.
        -12    1    3    3    0    0 -0.24287566972E+02 -0.11349670927E+02 -0.34130957440E+02  0.43400728051E+02  0.00000000000E+00 0.  1.
         11    1    4    4    0    0  0.32490793627E+01  0.61496617715E+01  0.37585576971E+01  0.79057961543E+01  0.51100000000E-03 0.  1.
        -11    1    4    4    0    0  0.18860705566E+02  0.92595203204E+01  0.22693318082E+02  0.30926551971E+02  0.51100000000E-03 0. -1.
         12    1    4    4    0    0  0.21777820435E+01 -0.40595111651E+01  0.76790816610E+01  0.89549238235E+01  0.00000000000E+00 0. -1.
</event>
<event>
 8    1  0.4042158E-011  0.9118800E+02  0.7816164E-02  0.1184000E+00
        -11   -1    0    0    0    0  0.00000000000E+00  0.00000000000E+00  0.45593999997E+02  0.45594000000E+02  0.51100000000E-03 0. -1.
         11   -1    0    0    0    0 -0.00000000000E+00 -0.00000000000E+00 -0.45593999997E+02  0.45594000000E+02  0.51100000000E-03 0.  1.
         23    2    1    2    0    0  0.35527136788E-14  0.00000000000E+00  0.00000000000E+00  0.91188000000E+02  0.91188000000E+02 0.  0.
    9900012    2    3    3    0    0  0.18105919481E+02  0.21555586662E+02 -0.33032640867E+02  0.47787274208E+02  0.20000014426E+02 0.  0.
         12    1    3    3    0    0 -0.18105919481E+02 -0.21555586662E+02  0.33032640867E+02  0.43400725792E+02  0.00000000000E+00 0. -1.
         11    1    4    4    0    0  0.21859358886E+01 -0.18385009245E+01 -0.63371905980E+01  0.69511428050E+01  0.51100000000E-03 0. -1.
        -11    1    4    4    0    0  0.13009399699E+02  0.81497073325E+01 -0.14190862308E+02  0.20905568240E+02  0.51100000000E-03 0.  1.
         12    1    4    4    0    0  0.29105838927E+01  0.15244380254E+02 -0.12504587961E+02  0.19930563163E+02  0.00000000000E+00 0. -1.
</event>
<event>
 8    1  0.4042158E-011  0.9118800E+02  0.7816164E-02  0.1184000E+00
        -11   -1    0    0    0    0  0.00000000000E+00  0.00000000000E+00  0.45593999997E+02  0.45594000000E+02  0.51100000000E-03 0. -1.
         11   -1    0    0    0    0 -0.00000000000E+00 -0.00000000000E+00 -0.45593999997E+02  0.45594000000E+02  0.51100000000E-03 0.  1.
         23    2    1    2    0    0  0.35527136788E-14  0.00000000000E+00  0.00000000000E+00  0.91188000000E+02  0.91188000000E+02 0.  0.
    9900012    2    3    3    0    0  0.20604747349E+02 -0.34920170811E+02 -0.15480604509E+02  0.47787273523E+02  0.20000011301E+02 0.  0.
         12    1    3    3    0    0 -0.20604747349E+02  0.34920170811E+02  0.15480604509E+02  0.43400726477E+02  0.00000000000E+00 0. -1.
         11    1    4    4    0    0  0.41291504597E+01 -0.33007731999E+01 -0.50107027477E+01  0.72836892797E+01  0.51100000000E-03 0. -1.
        -11    1    4    4    0    0  0.14422224346E+02 -0.14712791322E+02 -0.17572854086E+00  0.20603341097E+02  0.51100000000E-03 0.  1.
        -12    1    4    4    0    0  0.20533725436E+01 -0.16906606289E+02 -0.10294173220E+02  0.19900243147E+02  0.00000000000E+00 0.  1.
</event>
<event>
 8    1  0.4042158E-011  0.9118800E+02  0.7816164E-02  0.1184000E+00
        -11   -1    0    0    0    0  0.00000000000E+00  0.00000000000E+00  0.45593999997E+02  0.45594000000E+02  0.51100000000E-03 0. -1.
         11   -1    0    0    0    0 -0.00000000000E+00 -0.00000000000E+00 -0.45593999997E+02  0.45594000000E+02  0.51100000000E-03 0.  1.
         23    2    1    2    0    0  0.44408920985E-15  0.00000000000E+00  0.00000000000E+00  0.91188000000E+02  0.91188000000E+02 0.  0.
    9900012    2    3    3    0    0 -0.17442259489E+01  0.24816414812E+02  0.35562994979E+02  0.47787269820E+02  0.19999994418E+02 0.  0.
        -12    1    3    3    0    0  0.17442259489E+01 -0.24816414812E+02 -0.35562994979E+02  0.43400730180E+02  0.00000000000E+00 0.  1.
         11    1    4    4    0    0 -0.15983149816E+01  0.12243777377E+02  0.13136756176E+02  0.18028839627E+02  0.51100000000E-03 0. -1.
        -11    1    4    4    0    0  0.25996791318E+01  0.14198462399E+02  0.11739998785E+02  0.18605973176E+02  0.51100000000E-03 0.  1.
         12    1    4    4    0    0 -0.27455900992E+01 -0.16258249629E+01  0.10686240017E+02  0.11152457017E+02  0.00000000000E+00 0. -1.
</event>
<event>
 8    1  0.4042158E-011  0.9118800E+02  0.7816164E-02  0.1184000E+00
        -11   -1    0    0    0    0  0.00000000000E+00  0.00000000000E+00  0.45593999997E+02  0.45594000000E+02  0.51100000000E-03 0. -1.
         11   -1    0    0    0    0 -0.00000000000E+00 -0.00000000000E+00 -0.45593999997E+02  0.45594000000E+02  0.51100000000E-03 0.  1.
         23    2    1    2    0    0  0.00000000000E+00 -0.17763568394E-14  0.00000000000E+00  0.91188000000E+02  0.91188000000E+02 0.  0.
    9900012    2    3    3    0    0 -0.73801423358E+01 -0.14973512272E+02 -0.40061844304E+02  0.47787263374E+02  0.19999965027E+02 0.  0.
         12    1    3    3    0    0  0.73801423358E+01  0.14973512272E+02  0.40061844304E+02  0.43400736626E+02  0.00000000000E+00 0. -1.
         11    1    4    4    0    0 -0.64002692852E+01 -0.11675976530E+02 -0.19392847484E+02  0.23523911423E+02  0.51100000000E-03 0. -1.
        -11    1    4    4    0    0 -0.41437789348E+01 -0.51583343092E+01 -0.53447018283E+01  0.85055954877E+01  0.51100000000E-03 0.  1.
        -12    1    4    4    0    0  0.31639058841E+01  0.18607985671E+01 -0.15324294992E+02  0.15757756463E+02  0.00000000000E+00 0.  1.
</event>
<event>
 8    1  0.4042158E-011  0.9118800E+02  0.7816164E-02  0.1184000E+00
        -11   -1    0    0    0    0  0.00000000000E+00  0.00000000000E+00  0.45593999997E+02  0.45594000000E+02  0.51100000000E-03 0.  1.
         11   -1    0    0    0    0 -0.00000000000E+00 -0.00000000000E+00 -0.45593999997E+02  0.45594000000E+02  0.51100000000E-03 0. -1.
         23    2    1    2    0    0  0.35527136788E-14  0.35527136788E-14  0.00000000000E+00  0.91188000000E+02  0.91188000000E+02 0.  0.
    9900012    2    3    3    0    0  0.16690845388E+02  0.28424819358E+02  0.28232408937E+02  0.47787267406E+02  0.19999983410E+02 0.  0.
        -12    1    3    3    0    0 -0.16690845388E+02 -0.28424819358E+02 -0.28232408937E+02  0.43400732594E+02  0.00000000000E+00 0.  1.
         11    1    4    4    0    0  0.37953789134E+01  0.46242996388E+01 -0.19566401416E+01  0.62942425398E+01  0.51100000000E-03 0. -1.
        -11    1    4    4    0    0  0.55953264930E+01  0.14573467496E+02  0.11423206754E+02  0.19343817778E+02  0.51100000000E-03 0.  1.
        -12    1    4    4    0    0  0.73001399821E+01  0.92270522235E+01  0.18765842324E+02  0.22149207088E+02  0.00000000000E+00 0.  1.
</event>
<event>
 8    1  0.4042158E-011  0.9118800E+02  0.7816164E-02  0.1184000E+00
        -11   -1    0    0    0    0  0.00000000000E+00  0.00000000000E+00  0.45593999997E+02  0.45594000000E+02  0.51100000000E-03 0. -1.
         11   -1    0    0    0    0 -0.00000000000E+00 -0.00000000000E+00 -0.45593999997E+02  0.45594000000E+02  0.51100000000E-03 0.  1.
         23    2    1    2    0    0  0.00000000000E+00 -0.88817841970E-15  0.00000000000E+00  0.91188000000E+02  0.91188000000E+02 0.  0.
    9900012    2    3    3    0    0  0.18680598873E+02 -0.55926679472E+01  0.38773452848E+02  0.47787270113E+02  0.19999995751E+02 0.  0.
        -12    1    3    3    0    0 -0.18680598873E+02  0.55926679472E+01 -0.38773452848E+02  0.43400729887E+02  0.00000000000E+00 0.  1.
         11    1    4    4    0    0  0.83246766991E+01  0.11452708269E+01  0.13965347386E+02  0.16298552552E+02  0.51100000000E-03 0. -1.
        -11    1    4    4    0    0  0.66407737940E+01  0.41465381334E+01  0.88164726803E+01  0.11790837369E+02  0.51100000000E-03 0.  1.
        -12    1    4    4    0    0  0.37151483799E+01 -0.10884476908E+02  0.15991632781E+02  0.19697880191E+02  0.00000000000E+00 0.  1.
</event>
<event>
 8    1  0.4042158E-011  0.9118800E+02  0.7816164E-02  0.1184000E+00
        -11   -1    0    0    0    0  0.00000000000E+00  0.00000000000E+00  0.45593999997E+02  0.45594000000E+02  0.51100000000E-03 0. -1.
         11   -1    0    0    0    0 -0.00000000000E+00 -0.00000000000E+00 -0.45593999997E+02  0.45594000000E+02  0.51100000000E-03 0.  1.
         23    2    1    2    0    0 -0.55511151231E-15  0.00000000000E+00  0.00000000000E+00  0.91188000000E+02  0.91188000000E+02 0.  0.
    9900012    2    3    3    0    0 -0.61661212236E+00 -0.18119243370E+02  0.39432678098E+02  0.47787270826E+02  0.19999999005E+02 0.  0.
        -12    1    3    3    0    0  0.61661212236E+00  0.18119243370E+02 -0.39432678098E+02  0.43400729174E+02  0.00000000000E+00 0.  1.
         11    1    4    4    0    0  0.47963417867E+01 -0.97242818581E+00  0.47309143733E+01  0.68067659119E+01  0.51100000000E-03 0. -1.
        -11    1    4    4    0    0  0.60855384109E+00 -0.13065388258E+01 -0.79507305922E+00  0.16460628516E+01  0.51100000000E-03 0.  1.
        -12    1    4    4    0    0 -0.60215077502E+01 -0.15840276358E+02  0.35496836784E+02  0.39334442063E+02  0.00000000000E+00 0.  1.
</event>
<event>
 8    1  0.4042158E-011  0.9118800E+02  0.7816164E-02  0.1184000E+00
        -11   -1    0    0    0    0  0.00000000000E+00  0.00000000000E+00  0.45593999997E+02  0.45594000000E+02  0.51100000000E-03 0. -1.
         11   -1    0    0    0    0 -0.00000000000E+00 -0.00000000000E+00 -0.45593999997E+02  0.45594000000E+02  0.51100000000E-03 0.  1.
         23    2    1    2    0    0 -0.17763568394E-14  0.17763568394E-14  0.00000000000E+00  0.91188000000E+02  0.91188000000E+02 0.  0.
    9900012    2    3    3    0    0  0.13068340119E+02 -0.94111228606E+01  0.40302267481E+02  0.47787268312E+02  0.19999987541E+02 0.  0.
        -12    1    3    3    0    0 -0.13068340119E+02  0.94111228606E+01 -0.40302267481E+02  0.43400731688E+02  0.00000000000E+00 0.  1.
         11    1    4    4    0    0  0.96266729649E+01 -0.62726986076E+01  0.11559838336E+02  0.16298755867E+02  0.51100000000E-03 0. -1.
        -11    1    4    4    0    0  0.73072264019E+00 -0.55535134690E+01  0.51203150359E+01  0.75890113820E+01  0.51100000000E-03 0.  1.
         12    1    4    4    0    0  0.27109445144E+01  0.24150892160E+01  0.23622114109E+02  0.23899501063E+02  0.00000000000E+00 0. -1.
</event>
<event>
 8    1  0.4042158E-011  0.9118800E+02  0.7816164E-02  0.1184000E+00
        -11   -1    0    0    0    0  0.00000000000E+00  0.00000000000E+00  0.45593999997E+02  0.45594000000E+02  0.51100000000E-03 0. -1.
         11   -1    0    0    0    0 -0.00000000000E+00 -0.00000000000E+00 -0.45593999997E+02  0.45594000000E+02  0.51100000000E-03 0.  1.
         23    2    1    2    0    0  0.00000000000E+00  0.00000000000E+00  0.00000000000E+00  0.91188000000E+02  0.91188000000E+02 0.  0.
    9900012    2    3    3    0    0 -0.25964270173E+02  0.54803883443E+00 -0.34773263596E+02  0.47787268056E+02  0.19999986376E+02 0.  0.
         12    1    3    3    0    0  0.25964270173E+02 -0.54803883443E+00  0.34773263596E+02  0.43400731944E+02  0.00000000000E+00 0. -1.
         11    1    4    4    0    0  0.11405450716E+01 -0.19747771729E+01 -0.45111057710E+01  0.50547664121E+01  0.51100000000E-03 0. -1.
        -11    1    4    4    0    0 -0.82077733594E+01  0.68099130078E+01 -0.12665625431E+02  0.16557793528E+02  0.51100000000E-03 0.  1.
         12    1    4    4    0    0 -0.18897041885E+02 -0.42870970005E+01 -0.17596532394E+02  0.26174708116E+02  0.00000000000E+00 0. -1.
</event>
<event>
 8    1  0.4042158E-011  0.9118800E+02  0.7816164E-02  0.1184000E+00
        -11   -1    0    0    0    0  0.00000000000E+00  0.00000000000E+00  0.45593999997E+02  0.45594000000E+02  0.51100000000E-03 0. -1.
         11   -1    0    0    0    0 -0.00000000000E+00 -0.00000000000E+00 -0.45593999997E+02  0.45594000000E+02  0.51100000000E-03 0.  1.
         23    2    1    2    0    0 -0.17763568394E-14 -0.35527136788E-14  0.00000000000E+00  0.91188000000E+02  0.91188000000E+02 0.  0.
    9900012    2    3    3    0    0 -0.96121130649E+01  0.31525559009E+02 -0.28237734910E+02  0.47787271190E+02  0.20000000664E+02 0.  0.
         12    1    3    3    0    0  0.96121130649E+01 -0.31525559009E+02  0.28237734910E+02  0.43400728810E+02  0.00000000000E+00 0. -1.
         11    1    4    4    0    0 -0.33835084554E+01 -0.13601427042E+00 -0.25841677343E+01  0.42596422960E+01  0.51100000000E-03 0. -1.
        -11    1    4    4    0    0 -0.59189547824E+01  0.64267632786E+01 -0.20529963847E+01  0.89750825273E+01  0.51100000000E-03 0.  1.
        -12    1    4    4    0    0 -0.30964982702E+00  0.25234810000E+02 -0.23600570791E+02  0.34552546367E+02  0.00000000000E+00 0.  1.
</event>
<event>
 8    1  0.4042158E-011  0.9118800E+02  0.7816164E-02  0.1184000E+00
        -11   -1    0    0    0    0  0.00000000000E+00  0.00000000000E+00  0.45593999997E+02  0.45594000000E+02  0.51100000000E-03 0. -1.
         11   -1    0    0    0    0 -0.00000000000E+00 -0.00000000000E+00 -0.45593999997E+02  0.45594000000E+02  0.51100000000E-03 0.  1.
         23    2    1    2    0    0 -0.35527136788E-14 -0.35527136788E-14  0.17763568394E-14  0.91188000000E+02  0.91188000000E+02 0.  0.
    9900012    2    3    3    0    0  0.27545811100E+02  0.29482384709E+02 -0.15988696888E+02  0.47787295565E+02  0.20000111800E+02 0.  0.
         12    1    3    3    0    0 -0.27545811100E+02 -0.29482384709E+02  0.15988696888E+02  0.43400704435E+02  0.00000000000E+00 0. -1.
         11    1    4    4    0    0  0.50938764779E+01  0.12429588806E+02 -0.18561693426E+01  0.13560516965E+02  0.51100000000E-03 0. -1.
        -11    1    4    4    0    0 -0.18429948664E-01 -0.18172145498E+01 -0.10594569302E+01  0.21035820951E+01  0.51100000000E-03 0.  1.
        -12    1    4    4    0    0  0.22470364571E+02  0.18870010452E+02 -0.13073070615E+02  0.32123196505E+02  0.00000000000E+00 0.  1.
</event>
<event>
 8    1  0.4042158E-011  0.9118800E+02  0.7816164E-02  0.1184000E+00
        -11   -1    0    0    0    0  0.00000000000E+00  0.00000000000E+00  0.45593999997E+02  0.45594000000E+02  0.51100000000E-03 0. -1.
         11   -1    0    0    0    0 -0.00000000000E+00 -0.00000000000E+00 -0.45593999997E+02  0.45594000000E+02  0.51100000000E-03 0.  1.
         23    2    1    2    0    0 -0.17763568394E-14  0.00000000000E+00  0.00000000000E+00  0.91188000000E+02  0.91188000000E+02 0.  0.
    9900012    2    3    3    0    0 -0.14540962122E+02  0.14641778254E+02  0.38181175448E+02  0.47787269494E+02  0.19999992931E+02 0.  0.
        -12    1    3    3    0    0  0.14540962122E+02 -0.14641778254E+02 -0.38181175448E+02  0.43400730506E+02  0.00000000000E+00 0.  1.
         11    1    4    4    0    0 -0.68835279847E+01  0.50919773083E+01  0.11531076432E+02  0.14362343623E+02  0.51100000000E-03 0. -1.
        -11    1    4    4    0    0 -0.48536424618E+01  0.11301376148E+02  0.84392417297E+01  0.14916425484E+02  0.51100000000E-03 0.  1.
         12    1    4    4    0    0 -0.28037916758E+01 -0.17515752024E+01  0.18210857287E+02  0.18508500387E+02  0.00000000000E+00 0. -1.
</event>
<event>
 8    1  0.4042158E-011  0.9118800E+02  0.7816164E-02  0.1184000E+00
        -11   -1    0    0    0    0  0.00000000000E+00  0.00000000000E+00  0.45593999997E+02  0.45594000000E+02  0.51100000000E-03 0. -1.
         11   -1    0    0    0    0 -0.00000000000E+00 -0.00000000000E+00 -0.45593999997E+02  0.45594000000E+02  0.51100000000E-03 0.  1.
         23    2    1    2    0    0  0.00000000000E+00 -0.44408920985E-15  0.00000000000E+00  0.91188000000E+02  0.91188000000E+02 0.  0.
    9900012    2    3    3    0    0  0.24614895765E+02 -0.36684779830E+01 -0.35556604087E+02  0.47787275139E+02  0.20000018670E+02 0.  0.
         12    1    3    3    0    0 -0.24614895765E+02  0.36684779830E+01  0.35556604087E+02  0.43400724861E+02  0.00000000000E+00 0. -1.
         11    1    4    4    0    0  0.94120703345E+01 -0.84037661510E+01 -0.15089419603E+02  0.19669797603E+02  0.51100000000E-03 0. -1.
        -11    1    4    4    0    0  0.11509730742E+02 -0.17339013839E+01 -0.10511820738E+02  0.15683707829E+02  0.51100000000E-03 0.  1.
        -12    1    4    4    0    0  0.36930946881E+01  0.64691895519E+01 -0.99553637459E+01  0.12433769708E+02  0.00000000000E+00 0.  1.
</event>
<event>
 8    1  0.4042158E-011  0.9118800E+02  0.7816164E-02  0.1184000E+00
        -11   -1    0    0    0    0  0.00000000000E+00  0.00000000000E+00  0.45593999997E+02  0.45594000000E+02  0.51100000000E-03 0. -1.
         11   -1    0    0    0    0 -0.00000000000E+00 -0.00000000000E+00 -0.45593999997E+02  0.45594000000E+02  0.51100000000E-03 0.  1.
         23    2    1    2    0    0  0.17763568394E-14  0.35527136788E-14  0.71054273576E-14  0.91188000000E+02  0.91188000000E+02 0.  0.
    9900012    2    3    3    0    0 -0.14581726684E+02 -0.17621575442E+02 -0.36884638681E+02  0.47787271380E+02  0.20000001529E+02 0.  0.
         12    1    3    3    0    0  0.14581726684E+02  0.17621575442E+02  0.36884638681E+02  0.43400728620E+02  0.00000000000E+00 0. -1.
         11    1    4    4    0    0 -0.15172615627E+01 -0.44904439701E+01 -0.69231664229E+00  0.47901432434E+01  0.51100000000E-03 0. -1.
        -11    1    4    4    0    0 -0.50985654486E+01 -0.56562202028E+01 -0.28842671912E+02  0.29830989255E+02  0.51100000000E-03 0.  1.
        -12    1    4    4    0    0 -0.79658996723E+01 -0.74749112690E+01 -0.73496501262E+01  0.13166138881E+02  0.00000000000E+00 0.  1.
</event>
<event>
 8    1  0.4042158E-011  0.9118800E+02  0.7816164E-02  0.1184000E+00
        -11   -1    0    0    0    0  0.00000000000E+00  0.00000000000E+00  0.45593999997E+02  0.45594000000E+02  0.51100000000E-03 0. -1.
         11   -1    0    0    0    0 -0.00000000000E+00 -0.00000000000E+00 -0.45593999997E+02  0.45594000000E+02  0.51100000000E-03 0.  1.
         23    2    1    2    0    0  0.32959746044E-15  0.00000000000E+00  0.00000000000E+00  0.91188000000E+02  0.91188000000E+02 0.  0.
    9900012    2    3    3    0    0 -0.18608857810E-01 -0.23608441360E+02 -0.36417892973E+02  0.47787288274E+02  0.20000078558E+02 0.  0.
         12    1    3    3    0    0  0.18608857810E-01  0.23608441360E+02  0.36417892973E+02  0.43400711726E+02  0.00000000000E+00 0. -1.
         11    1    4    4    0    0 -0.35237008836E+01 -0.42799562636E+01 -0.50015617442E+00  0.55663857211E+01  0.51100000000E-03 0. -1.
        -11    1    4    4    0    0  0.10204099182E+01 -0.53884308894E+00 -0.10245487054E+02  0.10310266414E+02  0.51100000000E-03 0.  1.
        -12    1    4    4    0    0  0.24846821076E+01 -0.18789642007E+02 -0.25672249744E+02  0.31910636140E+02  0.00000000000E+00 0.  1.
</event>
<event>
 8    1  0.4042158E-011  0.9118800E+02  0.7816164E-02  0.1184000E+00
        -11   -1    0    0    0    0  0.00000000000E+00  0.00000000000E+00  0.45593999997E+02  0.45594000000E+02  0.51100000000E-03 0. -1.
         11   -1    0    0    0    0 -0.00000000000E+00 -0.00000000000E+00 -0.45593999997E+02  0.45594000000E+02  0.51100000000E-03 0.  1.
         23    2    1    2    0    0  0.00000000000E+00  0.71054273576E-14 -0.35527136788E-14  0.91188000000E+02  0.91188000000E+02 0.  0.
    9900012    2    3    3    0    0 -0.18433347266E+02 -0.23668237432E+02 -0.31363185366E+02  0.47787272462E+02  0.20000006461E+02 0.  0.
         12    1    3    3    0    0  0.18433347266E+02  0.23668237432E+02  0.31363185366E+02  0.43400727538E+02  0.00000000000E+00 0. -1.
         11    1    4    4    0    0 -0.10219004581E+02 -0.19406383084E+02 -0.20100145855E+02  0.29749817188E+02  0.51100000000E-03 0. -1.
        -11    1    4    4    0    0 -0.24406646726E+01 -0.71542604349E+01 -0.51617076329E+01  0.91533334017E+01  0.51100000000E-03 0.  1.
         12    1    4    4    0    0 -0.57736780124E+01  0.28924060867E+01 -0.61013318777E+01  0.88841218723E+01  0.00000000000E+00 0. -1.
</event>
<event>
 8    1  0.4042158E-011  0.9118800E+02  0.7816164E-02  0.1184000E+00
        -11   -1    0    0    0    0  0.00000000000E+00  0.00000000000E+00  0.45593999997E+02  0.45594000000E+02  0.51100000000E-03 0. -1.
         11   -1    0    0    0    0 -0.00000000000E+00 -0.00000000000E+00 -0.45593999997E+02  0.45594000000E+02  0.51100000000E-03 0.  1.
         23    2    1    2    0    0  0.00000000000E+00  0.00000000000E+00  0.35527136788E-14  0.91188000000E+02  0.91188000000E+02 0.  0.
    9900012    2    3    3    0    0 -0.36850660180E+02  0.21106924577E+01  0.22829738954E+02  0.47787272367E+02  0.20000006031E+02 0.  0.
        -12    1    3    3    0    0  0.36850660180E+02 -0.21106924577E+01 -0.22829738954E+02  0.43400727633E+02  0.00000000000E+00 0.  1.
         11    1    4    4    0    0 -0.28374919372E+01  0.32378203833E+01  0.77746710815E+01  0.88870890631E+01  0.51100000000E-03 0. -1.
        -11    1    4    4    0    0 -0.55580212201E+01  0.65157193991E+00 -0.16774764689E+01  0.58420949530E+01  0.51100000000E-03 0.  1.
         12    1    4    4    0    0 -0.28455147022E+02 -0.17786998655E+01  0.16732544342E+02  0.33058088351E+02  0.00000000000E+00 0. -1.
</event>
<event>
 8    1  0.4042158E-011  0.9118800E+02  0.7816164E-02  0.1184000E+00
        -11   -1    0    0    0    0  0.00000000000E+00  0.00000000000E+00  0.45593999997E+02  0.45594000000E+02  0.51100000000E-03 0. -1.
         11   -1    0    0    0    0 -0.00000000000E+00 -0.00000000000E+00 -0.45593999997E+02  0.45594000000E+02  0.51100000000E-03 0.  1.
         23    2    1    2    0    0  0.00000000000E+00  0.35527136788E-14  0.00000000000E+00  0.91188000000E+02  0.91188000000E+02 0.  0.
    9900012    2    3    3    0    0  0.10847796042E+02  0.25983709636E+02  0.33027188426E+02  0.47787273961E+02  0.20000013297E+02 0.  0.
        -12    1    3    3    0    0 -0.10847796042E+02 -0.25983709636E+02 -0.33027188426E+02  0.43400726039E+02  0.00000000000E+00 0.  1.
         11    1    4    4    0    0  0.17631689509E+01  0.95748036029E+01  0.14259216654E+02  0.17265888006E+02  0.51100000000E-03 0. -1.
        -11    1    4    4    0    0  0.22108305267E+01  0.61809098927E+01  0.16806590658E+02  0.18043084784E+02  0.51100000000E-03 0.  1.
         12    1    4    4    0    0  0.68737965639E+01  0.10227996140E+02  0.19613811145E+01  0.12478301171E+02  0.00000000000E+00 0. -1.
</event>
<event>
 8    1  0.4042158E-011  0.9118800E+02  0.7816164E-02  0.1184000E+00
        -11   -1    0    0    0    0  0.00000000000E+00  0.00000000000E+00  0.45593999997E+02  0.45594000000E+02  0.51100000000E-03 0. -1.
         11   -1    0    0    0    0 -0.00000000000E+00 -0.00000000000E+00 -0.45593999997E+02  0.45594000000E+02  0.51100000000E-03 0.  1.
         23    2    1    2    0    0 -0.17763568394E-14  0.00000000000E+00  0.00000000000E+00  0.91188000000E+02  0.91188000000E+02 0.  0.
    9900012    2    3    3    0    0 -0.13409728859E+02  0.95507297365E+01  0.40157021705E+02  0.47787266610E+02  0.19999979782E+02 0.  0.
        -12    1    3    3    0    0  0.13409728859E+02 -0.95507297365E+01 -0.40157021705E+02  0.43400733390E+02  0.00000000000E+00 0.  1.
         11    1    4    4    0    0 -0.77816623257E+00  0.21056486678E+01  0.10532751674E+01  0.24796547819E+01  0.51100000000E-03 0. -1.
        -11    1    4    4    0    0 -0.16069355167E+02  0.79983593525E+01  0.37281397960E+02  0.41377536924E+02  0.51100000000E-03 0.  1.
        -12    1    4    4    0    0  0.34377925408E+01 -0.55327828377E+00  0.18223485777E+01  0.39300749040E+01  0.00000000000E+00 0.  1.
</event>
<event>
 8    1  0.4042158E-011  0.9118800E+02  0.7816164E-02  0.1184000E+00
        -11   -1    0    0    0    0  0.00000000000E+00  0.00000000000E+00  0.45593999997E+02  0.45594000000E+02  0.51100000000E-03 0. -1.
         11   -1    0    0    0    0 -0.00000000000E+00 -0.00000000000E+00 -0.45593999997E+02  0.45594000000E+02  0.51100000000E-03 0.  1.
         23    2    1    2    0    0 -0.30531133177E-15  0.53290705182E-14  0.00000000000E+00  0.91188000000E+02  0.91188000000E+02 0.  0.
    9900012    2    3    3    0    0  0.24304364294E+00  0.15385350282E+02 -0.40581462262E+02  0.47787272439E+02  0.20000006358E+02 0.  0.
         12    1    3    3    0    0 -0.24304364294E+00 -0.15385350282E+02  0.40581462262E+02  0.43400727561E+02  0.00000000000E+00 0. -1.
         11    1    4    4    0    0 -0.66711429275E+00  0.58142977846E+01 -0.12721897288E+02  0.14003491388E+02  0.51100000000E-03 0. -1.
        -11    1    4    4    0    0 -0.86505846221E+00  0.10525067818E+02 -0.29405157644E+02  0.31244018228E+02  0.51100000000E-03 0.  1.
         12    1    4    4    0    0  0.17752163979E+01 -0.95401532102E+00  0.15455926695E+01  0.25397628220E+01  0.00000000000E+00 0. -1.
</event>
<event>
 8    1  0.5800939E-011  0.9118800E+02  0.7816164E-02  0.1184000E+00
        -11   -1    0    0    0    0  0.00000000000E+00  0.00000000000E+00  0.45593999997E+02  0.45594000000E+02  0.51100000000E-03 0. -1.
         11   -1    0    0    0    0 -0.00000000000E+00 -0.00000000000E+00 -0.45593999997E+02  0.45594000000E+02  0.51100000000E-03 0.  1.
         23    2    1    2    0    0 -0.17763568394E-14  0.00000000000E+00  0.00000000000E+00  0.91188000000E+02  0.91188000000E+02 0.  0.
    9900012    2    3    3    0    0  0.12354453985E+02 -0.37207189640E+02  0.18617627472E+02  0.47787267900E+02  0.19999985662E+02 0.  0.
        -12    1    3    3    0    0 -0.12354453985E+02  0.37207189640E+02 -0.18617627472E+02  0.43400732100E+02  0.00000000000E+00 0.  1.
         11    1    4    4    0    0  0.59874163747E+01 -0.18776311969E+02  0.71087581654E+01  0.20950739579E+02  0.51100000000E-03 0. -1.
        -11    1    4    4    0    0  0.10882099926E+01 -0.14649474206E+02  0.13595828137E+02  0.20015939611E+02  0.51100000000E-03 0.  1.
        -12    1    4    4    0    0  0.52788276177E+01 -0.37814034648E+01 -0.20869588313E+01  0.68205887095E+01  0.00000000000E+00 0.  1.
</event>
<event>
 8    1  0.4042158E-011  0.9118800E+02  0.7816164E-02  0.1184000E+00
        -11   -1    0    0    0    0  0.00000000000E+00  0.00000000000E+00  0.45593999997E+02  0.45594000000E+02  0.51100000000E-03 0. -1.
         11   -1    0    0    0    0 -0.00000000000E+00 -0.00000000000E+00 -0.45593999997E+02  0.45594000000E+02  0.51100000000E-03 0.  1.
         23    2    1    2    0    0 -0.88817841970E-15  0.00000000000E+00  0.00000000000E+00  0.91188000000E+02  0.91188000000E+02 0.  0.
    9900012    2    3    3    0    0 -0.59265855964E+01  0.36516541650E+02  0.22694519518E+02  0.47787269049E+02  0.19999990903E+02 0.  0.
        -12    1    3    3    0    0  0.59265855964E+01 -0.36516541650E+02 -0.22694519518E+02  0.43400730951E+02  0.00000000000E+00 0.  1.
         11    1    4    4    0    0 -0.44526921690E+01  0.10775057009E+02  0.24271700893E+01  0.11908798261E+02  0.51100000000E-03 0. -1.
        -11    1    4    4    0    0  0.26590486517E+01  0.10441374931E+02  0.84098792721E+00  0.10807410011E+02  0.51100000000E-03 0.  1.
         12    1    4    4    0    0 -0.41329420791E+01  0.15300109709E+02  0.19426361501E+02  0.25071060778E+02  0.00000000000E+00 0. -1.
</event>
<event>
 8    1  0.4042158E-011  0.9118800E+02  0.7816164E-02  0.1184000E+00
        -11   -1    0    0    0    0  0.00000000000E+00  0.00000000000E+00  0.45593999997E+02  0.45594000000E+02  0.51100000000E-03 0. -1.
         11   -1    0    0    0    0 -0.00000000000E+00 -0.00000000000E+00 -0.45593999997E+02  0.45594000000E+02  0.51100000000E-03 0.  1.
         23    2    1    2    0    0  0.00000000000E+00  0.00000000000E+00  0.00000000000E+00  0.91188000000E+02  0.91188000000E+02 0.  0.
    9900012    2    3    3    0    0 -0.74070899403E+01 -0.39238487096E+02  0.17002941942E+02  0.47787263996E+02  0.19999967864E+02 0.  0.
        -12    1    3    3    0    0  0.74070899403E+01  0.39238487096E+02 -0.17002941942E+02  0.43400736004E+02  0.00000000000E+00 0.  1.
         11    1    4    4    0    0  0.65543761700E+00 -0.16244462492E+01 -0.19330527515E+01  0.26086619726E+01  0.51100000000E-03 0. -1.
        -11    1    4    4    0    0 -0.64687224340E+01 -0.90889388216E+01  0.48001643569E+00  0.11166180854E+02  0.51100000000E-03 0.  1.
         12    1    4    4    0    0 -0.15938051233E+01 -0.28525102026E+02  0.18455978258E+02  0.34012421169E+02  0.00000000000E+00 0. -1.
</event>
<event>
 8    1  0.4042158E-011  0.9118800E+02  0.7816164E-02  0.1184000E+00
        -11   -1    0    0    0    0  0.00000000000E+00  0.00000000000E+00  0.45593999997E+02  0.45594000000E+02  0.51100000000E-03 0. -1.
         11   -1    0    0    0    0 -0.00000000000E+00 -0.00000000000E+00 -0.45593999997E+02  0.45594000000E+02  0.51100000000E-03 0.  1.
         23    2    1    2    0    0  0.35527136788E-14  0.00000000000E+00  0.00000000000E+00  0.91188000000E+02  0.91188000000E+02 0.  0.
    9900012    2    3    3    0    0  0.24774211928E+02 -0.12728183535E+02 -0.33284461396E+02  0.47787267251E+02  0.19999982703E+02 0.  0.
         12    1    3    3    0    0 -0.24774211928E+02  0.12728183535E+02  0.33284461396E+02  0.43400732749E+02  0.00000000000E+00 0. -1.
         11    1    4    4    0    0  0.85602841084E+00 -0.11055810287E+01 -0.89841936811E+01  0.90923501039E+01  0.51100000000E-03 0.  1.
        -11    1    4    4    0    0  0.14827593108E+01 -0.58387065477E+01 -0.15422584160E+01  0.62183302105E+01  0.51100000000E-03 0. -1.
         12    1    4    4    0    0  0.22435424206E+02 -0.57838959591E+01 -0.22758009299E+02  0.32476586936E+02  0.00000000000E+00 0. -1.
</event>
<event>
 8    1  0.4042158E-011  0.9118800E+02  0.7816164E-02  0.1184000E+00
        -11   -1    0    0    0    0  0.00000000000E+00  0.00000000000E+00  0.45593999997E+02  0.45594000000E+02  0.51100000000E-03 0. -1.
         11   -1    0    0    0    0 -0.00000000000E+00 -0.00000000000E+00 -0.45593999997E+02  0.45594000000E+02  0.51100000000E-03 0.  1.
         23    2    1    2    0    0  0.00000000000E+00 -0.88817841970E-15  0.00000000000E+00  0.91188000000E+02  0.91188000000E+02 0.  0.
    9900012    2    3    3    0    0  0.21272561298E+02 -0.74242165969E+01 -0.37094244321E+02  0.47787264776E+02  0.19999971419E+02 0.  0.
         12    1    3    3    0    0 -0.21272561298E+02  0.74242165969E+01  0.37094244321E+02  0.43400735224E+02  0.00000000000E+00 0. -1.
         11    1    4    4    0    0  0.43887879044E+01 -0.46862136276E+01 -0.11725800755E+02  0.13368487612E+02  0.51100000000E-03 0. -1.
        -11    1    4    4    0    0  0.16053159120E+02 -0.58103273031E+01 -0.26067269934E+02  0.31160333489E+02  0.51100000000E-03 0.  1.
         12    1    4    4    0    0  0.83061427422E+00  0.30723243338E+01  0.69882636828E+00  0.32584436741E+01  0.00000000000E+00 0. -1.
</event>
<event>
 8    1  0.4042158E-011  0.9118800E+02  0.7816164E-02  0.1184000E+00
        -11   -1    0    0    0    0  0.00000000000E+00  0.00000000000E+00  0.45593999997E+02  0.45594000000E+02  0.51100000000E-03 0. -1.
         11   -1    0    0    0    0 -0.00000000000E+00 -0.00000000000E+00 -0.45593999997E+02  0.45594000000E+02  0.51100000000E-03 0.  1.
         23    2    1    2    0    0 -0.17763568394E-14  0.00000000000E+00  0.00000000000E+00  0.91188000000E+02  0.91188000000E+02 0.  0.
    9900012    2    3    3    0    0 -0.13219283376E+02  0.21965817533E+02 -0.35019657984E+02  0.47787273760E+02  0.20000012381E+02 0.  0.
         12    1    3    3    0    0  0.13219283376E+02 -0.21965817533E+02  0.35019657984E+02  0.43400726240E+02  0.00000000000E+00 0. -1.
         11    1    4    4    0    0 -0.71766897616E+01  0.15563142100E+02 -0.32449981549E+02  0.36697650753E+02  0.51100000000E-03 0. -1.
        -11    1    4    4    0    0 -0.20742657734E+01  0.42691742619E+01 -0.41602782642E+01  0.63116038274E+01  0.51100000000E-03 0.  1.
         12    1    4    4    0    0 -0.39683278409E+01  0.21335011713E+01  0.15906018299E+01  0.47780191798E+01  0.00000000000E+00 0. -1.
</event>
<event>
 8    1  0.4042158E-011  0.9118800E+02  0.7816164E-02  0.1184000E+00
        -11   -1    0    0    0    0  0.00000000000E+00  0.00000000000E+00  0.45593999997E+02  0.45594000000E+02  0.51100000000E-03 0. -1.
         11   -1    0    0    0    0 -0.00000000000E+00 -0.00000000000E+00 -0.45593999997E+02  0.45594000000E+02  0.51100000000E-03 0.  1.
         23    2    1    2    0    0  0.00000000000E+00  0.00000000000E+00  0.00000000000E+00  0.91188000000E+02  0.91188000000E+02 0.  0.
    9900012    2    3    3    0    0  0.75622226137E+01 -0.92400393812E+01 -0.41725984791E+02  0.47787270220E+02  0.19999996241E+02 0.  0.
         12    1    3    3    0    0 -0.75622226137E+01  0.92400393812E+01  0.41725984791E+02  0.43400729780E+02  0.00000000000E+00 0. -1.
         11    1    4    4    0    0  0.71233631292E+01 -0.45294835389E+01 -0.17303551017E+02  0.19252828402E+02  0.51100000000E-03 0. -1.
        -11    1    4    4    0    0 -0.25677956535E+01 -0.65257910182E+01 -0.23992146723E+02  0.24996052240E+02  0.51100000000E-03 0.  1.
        -12    1    4    4    0    0  0.30066551380E+01  0.18152351759E+01 -0.43028705140E+00  0.35383895785E+01  0.00000000000E+00 0.  1.
</event>
<event>
 8    1  0.4042158E-011  0.9118800E+02  0.7816164E-02  0.1184000E+00
        -11   -1    0    0    0    0  0.00000000000E+00  0.00000000000E+00  0.45593999997E+02  0.45594000000E+02  0.51100000000E-03 0.  1.
         11   -1    0    0    0    0 -0.00000000000E+00 -0.00000000000E+00 -0.45593999997E+02  0.45594000000E+02  0.51100000000E-03 0. -1.
         23    2    1    2    0    0  0.00000000000E+00  0.00000000000E+00  0.00000000000E+00  0.91188000000E+02  0.91188000000E+02 0.  0.
    9900012    2    3    3    0    0 -0.39311256946E+02 -0.30756035905E+01 -0.18132535496E+02  0.47787273005E+02  0.20000008940E+02 0.  0.
         12    1    3    3    0    0  0.39311256946E+02  0.30756035905E+01  0.18132535496E+02  0.43400726995E+02  0.00000000000E+00 0. -1.
         11    1    4    4    0    0 -0.63638125593E+01  0.66611902878E+00 -0.83513861494E+01  0.10520811553E+02  0.51100000000E-03 0. -1.
        -11    1    4    4    0    0 -0.63354118759E+01 -0.46824439450E+00 -0.82468944106E+01  0.10409993474E+02  0.51100000000E-03 0.  1.
         12    1    4    4    0    0 -0.26612032511E+02 -0.32734782247E+01 -0.15342549360E+01  0.26856467978E+02  0.00000000000E+00 0. -1.
</event>
<event>
 8    1  0.4042158E-011  0.9118800E+02  0.7816164E-02  0.1184000E+00
        -11   -1    0    0    0    0  0.00000000000E+00  0.00000000000E+00  0.45593999997E+02  0.45594000000E+02  0.51100000000E-03 0. -1.
         11   -1    0    0    0    0 -0.00000000000E+00 -0.00000000000E+00 -0.45593999997E+02  0.45594000000E+02  0.51100000000E-03 0.  1.
         23    2    1    2    0    0  0.00000000000E+00  0.00000000000E+00  0.00000000000E+00  0.91188000000E+02  0.91188000000E+02 0.  0.
    9900012    2    3    3    0    0 -0.15773742599E+02 -0.37407237302E+01 -0.40259400176E+02  0.47787271064E+02  0.20000000090E+02 0.  0.
         12    1    3    3    0    0  0.15773742599E+02  0.37407237302E+01  0.40259400176E+02  0.43400728936E+02  0.00000000000E+00 0. -1.
         11    1    4    4    0    0 -0.67094197171E+01  0.13075195246E+01 -0.24344924441E+01  0.72562162294E+01  0.51100000000E-03 0. -1.
        -11    1    4    4    0    0 -0.47623866566E+00 -0.93699303591E+00  0.41017490065E+00  0.11282743134E+01  0.51100000000E-03 0.  1.
        -12    1    4    4    0    0 -0.85880842162E+01 -0.41112502189E+01 -0.38235082633E+02  0.39402780521E+02  0.00000000000E+00 0.  1.
</event>
<event>
 8    1  0.4042158E-011  0.9118800E+02  0.7816164E-02  0.1184000E+00
        -11   -1    0    0    0    0  0.00000000000E+00  0.00000000000E+00  0.45593999997E+02  0.45594000000E+02  0.51100000000E-03 0. -1.
         11   -1    0    0    0    0 -0.00000000000E+00 -0.00000000000E+00 -0.45593999997E+02  0.45594000000E+02  0.51100000000E-03 0.  1.
         23    2    1    2    0    0  0.00000000000E+00  0.00000000000E+00  0.00000000000E+00  0.91188000000E+02  0.91188000000E+02 0.  0.
    9900012    2    3    3    0    0 -0.94660941491E+01  0.37484745821E+02  0.19720805403E+02  0.47787271049E+02  0.20000000022E+02 0.  0.
        -12    1    3    3    0    0  0.94660941491E+01 -0.37484745821E+02 -0.19720805403E+02  0.43400728951E+02  0.00000000000E+00 0.  1.
         11    1    4    4    0    0 -0.48285826072E+00  0.46087366493E+01 -0.37292110891E+01  0.59481611621E+01  0.51100000000E-03 0. -1.
        -11    1    4    4    0    0 -0.15952975744E+01  0.43309476100E+01  0.86049072950E+00  0.46949468695E+01  0.51100000000E-03 0.  1.
         12    1    4    4    0    0 -0.73879383140E+01  0.28545061562E+02  0.22589525763E+02  0.37144163018E+02  0.00000000000E+00 0. -1.
</event>
<event>
 8    1  0.4042158E-011  0.9118800E+02  0.7816164E-02  0.1184000E+00
        -11   -1    0    0    0    0  0.00000000000E+00  0.00000000000E+00  0.45593999997E+02  0.45594000000E+02  0.51100000000E-03 0. -1.
         11   -1    0    0    0    0 -0.00000000000E+00 -0.00000000000E+00 -0.45593999997E+02  0.45594000000E+02  0.51100000000E-03 0.  1.
         23    2    1    2    0    0  0.00000000000E+00  0.17763568394E-14  0.00000000000E+00  0.91188000000E+02  0.91188000000E+02 0.  0.
    9900012    2    3    3    0    0 -0.17981796199E+02 -0.93564628277E+01  0.38376156949E+02  0.47787333953E+02  0.20000286823E+02 0.  0.
        -12    1    3    3    0    0  0.17981796199E+02  0.93564628277E+01 -0.38376156949E+02  0.43400666047E+02  0.00000000000E+00 0.  1.
         11    1    4    4    0    0 -0.69260036127E+01 -0.83715725440E+01  0.89436953841E+01  0.14072755249E+02  0.51100000000E-03 0. -1.
        -11    1    4    4    0    0  0.23834138073E+01  0.14720571997E+00  0.18831012584E+01  0.30411184639E+01  0.51100000000E-03 0.  1.
        -12    1    4    4    0    0 -0.13439206393E+02 -0.11320960037E+01  0.27549360306E+02  0.30673460240E+02  0.00000000000E+00 0.  1.
</event>
<event>
 8    1  0.4042158E-011  0.9118800E+02  0.7816164E-02  0.1184000E+00
        -11   -1    0    0    0    0  0.00000000000E+00  0.00000000000E+00  0.45593999997E+02  0.45594000000E+02  0.51100000000E-03 0. -1.
         11   -1    0    0    0    0 -0.00000000000E+00 -0.00000000000E+00 -0.45593999997E+02  0.45594000000E+02  0.51100000000E-03 0.  1.
         23    2    1    2    0    0 -0.17763568394E-14 -0.71054273576E-14  0.00000000000E+00  0.91188000000E+02  0.91188000000E+02 0.  0.
    9900012    2    3    3    0    0  0.91123789817E+01  0.19350916953E+02  0.37764134877E+02  0.47787270506E+02  0.19999997545E+02 0.  0.
        -12    1    3    3    0    0 -0.91123789817E+01 -0.19350916953E+02 -0.37764134877E+02  0.43400729494E+02  0.00000000000E+00 0.  1.
         11    1    4    4    0    0  0.76585834178E+01  0.42340679583E+01  0.83182417309E+01  0.12073706026E+02  0.51100000000E-03 0. -1.
        -11    1    4    4    0    0  0.64059262675E+01  0.13191177497E+02  0.19070135995E+02  0.24056457392E+02  0.51100000000E-03 0.  1.
        -12    1    4    4    0    0 -0.49521307035E+01  0.19256714977E+01  0.10375757150E+02  0.11657107088E+02  0.00000000000E+00 0.  1.
</event>
<event>
 8    1  0.4042158E-011  0.9118800E+02  0.7816164E-02  0.1184000E+00
        -11   -1    0    0    0    0  0.00000000000E+00  0.00000000000E+00  0.45593999997E+02  0.45594000000E+02  0.51100000000E-03 0. -1.
         11   -1    0    0    0    0 -0.00000000000E+00 -0.00000000000E+00 -0.45593999997E+02  0.45594000000E+02  0.51100000000E-03 0.  1.
         23    2    1    2    0    0  0.00000000000E+00  0.88817841970E-15  0.00000000000E+00  0.91188000000E+02  0.91188000000E+02 0.  0.
    9900012    2    3    3    0    0  0.33884083052E+02  0.49108709995E+01  0.26671617103E+02  0.47787275385E+02  0.20000019791E+02 0.  0.
        -12    1    3    3    0    0 -0.33884083052E+02 -0.49108709995E+01 -0.26671617103E+02  0.43400724615E+02  0.00000000000E+00 0.  1.
         11    1    4    4    0    0  0.81951880024E+01  0.25463081356E+00  0.82471030236E+01  0.11629301432E+02  0.51100000000E-03 0. -1.
        -11    1    4    4    0    0  0.17893318067E+02 -0.35666698964E+01  0.56893123588E+01  0.19111782779E+02  0.51100000000E-03 0.  1.
         12    1    4    4    0    0  0.77955769818E+01  0.82229100823E+01  0.12735201720E+02  0.17046191174E+02  0.00000000000E+00 0. -1.
</event>
<event>
 8    1  0.4042158E-011  0.9118800E+02  0.7816164E-02  0.1184000E+00
        -11   -1    0    0    0    0  0.00000000000E+00  0.00000000000E+00  0.45593999997E+02  0.45594000000E+02  0.51100000000E-03 0. -1.
         11   -1    0    0    0    0 -0.00000000000E+00 -0.00000000000E+00 -0.45593999997E+02  0.45594000000E+02  0.51100000000E-03 0.  1.
         23    2    1    2    0    0 -0.44408920985E-15  0.00000000000E+00  0.00000000000E+00  0.91188000000E+02  0.91188000000E+02 0.  0.
    9900012    2    3    3    0    0  0.23174791623E+01 -0.36629469191E+02 -0.23163215365E+02  0.47787271102E+02  0.20000000261E+02 0.  0.
         12    1    3    3    0    0 -0.23174791623E+01  0.36629469191E+02  0.23163215365E+02  0.43400728898E+02  0.00000000000E+00 0. -1.
         11    1    4    4    0    0 -0.18389860566E+01 -0.32621172362E+01  0.20505271716E+01  0.42694192254E+01  0.51100000000E-03 0. -1.
        -11    1    4    4    0    0  0.20993179401E+01 -0.15916214228E+01 -0.54161280474E+01  0.60228596077E+01  0.51100000000E-03 0.  1.
        -12    1    4    4    0    0  0.20571472788E+01 -0.31775730532E+02 -0.19797614489E+02  0.37494992269E+02  0.00000000000E+00 0.  1.
</event>
<event>
 8    1  0.4042158E-011  0.9118800E+02  0.7816164E-02  0.1184000E+00
        -11   -1    0    0    0    0  0.00000000000E+00  0.00000000000E+00  0.45593999997E+02  0.45594000000E+02  0.51100000000E-03 0. -1.
         11   -1    0    0    0    0 -0.00000000000E+00 -0.00000000000E+00 -0.45593999997E+02  0.45594000000E+02  0.51100000000E-03 0.  1.
         23    2    1    2    0    0  0.00000000000E+00  0.88817841970E-15 -0.71054273576E-14  0.91188000000E+02  0.91188000000E+02 0.  0.
    9900012    2    3    3    0    0  0.25054977135E+02  0.23053756094E+01 -0.35363207699E+02  0.47787273108E+02  0.20000009410E+02 0.  0.
         12    1    3    3    0    0 -0.25054977135E+02 -0.23053756094E+01  0.35363207699E+02  0.43400726892E+02  0.00000000000E+00 0. -1.
         11    1    4    4    0    0  0.13385370301E+02  0.39826998225E+01 -0.15263891871E+02  0.20688557980E+02  0.51100000000E-03 0. -1.
        -11    1    4    4    0    0  0.11744930273E+02  0.33474390294E+01 -0.98727767342E+01  0.15704154096E+02  0.51100000000E-03 0.  1.
         12    1    4    4    0    0 -0.75323439592E-01 -0.50247632425E+01 -0.10226539095E+02  0.11394561032E+02  0.00000000000E+00 0. -1.
</event>
<event>
 8    1  0.4042158E-011  0.9118800E+02  0.7816164E-02  0.1184000E+00
        -11   -1    0    0    0    0  0.00000000000E+00  0.00000000000E+00  0.45593999997E+02  0.45594000000E+02  0.51100000000E-03 0. -1.
         11   -1    0    0    0    0 -0.00000000000E+00 -0.00000000000E+00 -0.45593999997E+02  0.45594000000E+02  0.51100000000E-03 0.  1.
         23    2    1    2    0    0  0.00000000000E+00 -0.71054273576E-14  0.00000000000E+00  0.91188000000E+02  0.91188000000E+02 0.  0.
    9900012    2    3    3    0    0  0.63309458103E+01  0.39862812923E+02  0.15953007531E+02  0.47787272146E+02  0.20000005024E+02 0.  0.
        -12    1    3    3    0    0 -0.63309458103E+01 -0.39862812923E+02 -0.15953007531E+02  0.43400727854E+02  0.00000000000E+00 0.  1.
         11    1    4    4    0    0  0.34635986835E+01  0.97951719086E+01  0.99539186624E+01  0.14388273196E+02  0.51100000000E-03 0. -1.
        -11    1    4    4    0    0 -0.17087312684E+01 -0.62747628400E+00  0.39679241965E+00  0.18630441541E+01  0.51100000000E-03 0.  1.
        -12    1    4    4    0    0  0.45760783952E+01  0.30695117298E+02  0.56022964491E+01  0.31535954796E+02  0.00000000000E+00 0.  1.
</event>
<event>
 8    1  0.4042158E-011  0.9118800E+02  0.7816164E-02  0.1184000E+00
        -11   -1    0    0    0    0  0.00000000000E+00  0.00000000000E+00  0.45593999997E+02  0.45594000000E+02  0.51100000000E-03 0. -1.
         11   -1    0    0    0    0 -0.00000000000E+00 -0.00000000000E+00 -0.45593999997E+02  0.45594000000E+02  0.51100000000E-03 0.  1.
         23    2    1    2    0    0  0.00000000000E+00  0.00000000000E+00  0.00000000000E+00  0.91188000000E+02  0.91188000000E+02 0.  0.
    9900012    2    3    3    0    0  0.11580097547E+02 -0.31176806930E+02 -0.27884250181E+02  0.47787270079E+02  0.19999995597E+02 0.  0.
         12    1    3    3    0    0 -0.11580097547E+02  0.31176806930E+02  0.27884250181E+02  0.43400729921E+02  0.00000000000E+00 0. -1.
         11    1    4    4    0    0 -0.12110306175E+01 -0.91011168150E+00 -0.29519220743E+00  0.15433849583E+01  0.51100000000E-03 0. -1.
        -11    1    4    4    0    0  0.10171073060E+02 -0.85152712132E+01 -0.35766648027E+01  0.13738744572E+02  0.51100000000E-03 0.  1.
        -12    1    4    4    0    0  0.26200551043E+01 -0.21751424036E+02 -0.24012393170E+02  0.32505140549E+02  0.00000000000E+00 0.  1.
</event>
<event>
 8    1  0.4042158E-011  0.9118800E+02  0.7816164E-02  0.1184000E+00
        -11   -1    0    0    0    0  0.00000000000E+00  0.00000000000E+00  0.45593999997E+02  0.45594000000E+02  0.51100000000E-03 0. -1.
         11   -1    0    0    0    0 -0.00000000000E+00 -0.00000000000E+00 -0.45593999997E+02  0.45594000000E+02  0.51100000000E-03 0.  1.
         23    2    1    2    0    0  0.44408920985E-15  0.00000000000E+00  0.00000000000E+00  0.91188000000E+02  0.91188000000E+02 0.  0.
    9900012    2    3    3    0    0 -0.29784791715E+01  0.78119934225E+01  0.42587861852E+02  0.47787256267E+02  0.19999932624E+02 0.  0.
        -12    1    3    3    0    0  0.29784791715E+01 -0.78119934225E+01 -0.42587861852E+02  0.43400743733E+02  0.00000000000E+00 0.  1.
         11    1    4    4    0    0  0.41851929158E+01  0.25443768556E+01  0.15144949254E+02  0.15917260489E+02  0.51100000000E-03 0. -1.
        -11    1    4    4    0    0  0.36084386722E+01 -0.72557137008E+00  0.43953741781E+01  0.57329397251E+01  0.51100000000E-03 0.  1.
        -12    1    4    4    0    0 -0.10772110760E+02  0.59931879370E+01  0.23047538420E+02  0.26137056053E+02  0.00000000000E+00 0.  1.
</event>
<event>
 8    1  0.4042158E-011  0.9118800E+02  0.7816164E-02  0.1184000E+00
        -11   -1    0    0    0    0  0.00000000000E+00  0.00000000000E+00  0.45593999997E+02  0.45594000000E+02  0.51100000000E-03 0. -1.
         11   -1    0    0    0    0 -0.00000000000E+00 -0.00000000000E+00 -0.45593999997E+02  0.45594000000E+02  0.51100000000E-03 0.  1.
         23    2    1    2    0    0 -0.71054273576E-14  0.35527136788E-14  0.00000000000E+00  0.91188000000E+02  0.91188000000E+02 0.  0.
    9900012    2    3    3    0    0 -0.35990243862E+02  0.17170671356E+02  0.17131656003E+02  0.47787271372E+02  0.20000001493E+02 0.  0.
        -12    1    3    3    0    0  0.35990243862E+02 -0.17170671356E+02 -0.17131656003E+02  0.43400728628E+02  0.00000000000E+00 0.  1.
         11    1    4    4    0    0 -0.77039335747E+01  0.13624284534E+02  0.78406235584E+01  0.17505630512E+02  0.51100000000E-03 0. -1.
        -11    1    4    4    0    0 -0.23927068939E+02  0.41496681473E+01  0.88990172043E+01  0.25863427484E+02  0.51100000000E-03 0.  1.
         12    1    4    4    0    0 -0.43592413477E+01 -0.60328132514E+00  0.39201524030E+00  0.44182133757E+01  0.00000000000E+00 0. -1.
</event>
<event>
 8    1  0.4042158E-011  0.9118800E+02  0.7816164E-02  0.1184000E+00
        -11   -1    0    0    0    0  0.00000000000E+00  0.00000000000E+00  0.45593999997E+02  0.45594000000E+02  0.51100000000E-03 0. -1.
         11   -1    0    0    0    0 -0.00000000000E+00 -0.00000000000E+00 -0.45593999997E+02  0.45594000000E+02  0.51100000000E-03 0.  1.
         23    2    1    2    0    0  0.00000000000E+00  0.00000000000E+00  0.00000000000E+00  0.91188000000E+02  0.91188000000E+02 0.  0.
    9900012    2    3    3    0    0  0.16168510402E+02  0.31892274510E+02  0.24598486108E+02  0.47787269351E+02  0.19999992280E+02 0.  0.
        -12    1    3    3    0    0 -0.16168510402E+02 -0.31892274510E+02 -0.24598486108E+02  0.43400730649E+02  0.00000000000E+00 0.  1.
         11    1    4    4    0    0  0.60288445925E+01  0.42955061899E+01  0.48128175104E+01  0.88295839765E+01  0.51100000000E-03 0. -1.
        -11    1    4    4    0    0  0.20797081702E+01  0.12272212785E+01 -0.25208565916E+01  0.34908417833E+01  0.51100000000E-03 0.  1.
         12    1    4    4    0    0  0.80599576397E+01  0.26369547041E+02  0.22306525189E+02  0.35466843591E+02  0.00000000000E+00 0. -1.
</event>
<event>
 8    1  0.4042158E-011  0.9118800E+02  0.7816164E-02  0.1184000E+00
        -11   -1    0    0    0    0  0.00000000000E+00  0.00000000000E+00  0.45593999997E+02  0.45594000000E+02  0.51100000000E-03 0. -1.
         11   -1    0    0    0    0 -0.00000000000E+00 -0.00000000000E+00 -0.45593999997E+02  0.45594000000E+02  0.51100000000E-03 0.  1.
         23    2    1    2    0    0  0.00000000000E+00  0.00000000000E+00  0.00000000000E+00  0.91188000000E+02  0.91188000000E+02 0.  0.
    9900012    2    3    3    0    0  0.16603556819E+02 -0.24740861992E+02 -0.31556852952E+02  0.47787270520E+02  0.19999997608E+02 0.  0.
         12    1    3    3    0    0 -0.16603556819E+02  0.24740861992E+02  0.31556852952E+02  0.43400729480E+02  0.00000000000E+00 0. -1.
         11    1    4    4    0    0  0.50911924410E+00 -0.48433020611E+01  0.62056630656E+00  0.49093665642E+01  0.51100000000E-03 0. -1.
        -11    1    4    4    0    0 -0.33524200545E+00 -0.42648958864E+01 -0.11183698363E+02  0.11974006575E+02  0.51100000000E-03 0.  1.
        -12    1    4    4    0    0  0.16429679581E+02 -0.15632664045E+02 -0.20993720896E+02  0.30903897380E+02  0.00000000000E+00 0.  1.
</event>
<event>
 8    1  0.4042158E-011  0.9118800E+02  0.7816164E-02  0.1184000E+00
        -11   -1    0    0    0    0  0.00000000000E+00  0.00000000000E+00  0.45593999997E+02  0.45594000000E+02  0.51100000000E-03 0. -1.
         11   -1    0    0    0    0 -0.00000000000E+00 -0.00000000000E+00 -0.45593999997E+02  0.45594000000E+02  0.51100000000E-03 0.  1.
         23    2    1    2    0    0  0.00000000000E+00  0.35527136788E-14  0.00000000000E+00  0.91188000000E+02  0.91188000000E+02 0.  0.
    9900012    2    3    3    0    0  0.67987686068E+01  0.28564057511E+02 -0.31960829116E+02  0.47787271506E+02  0.20000002104E+02 0.  0.
         12    1    3    3    0    0 -0.67987686068E+01 -0.28564057511E+02  0.31960829116E+02  0.43400728494E+02  0.00000000000E+00 0. -1.
         11    1    4    4    0    0 -0.57498353387E+00 -0.54104309201E+00 -0.17495248426E+00  0.80866700470E+00  0.51100000000E-03 0. -1.
        -11    1    4    4    0    0  0.42463331792E+01  0.10319600920E+02 -0.23880126848E+02  0.26358792977E+02  0.51100000000E-03 0.  1.
         12    1    4    4    0    0  0.31274189615E+01  0.18785499682E+02 -0.79057497830E+01  0.20619811525E+02  0.00000000000E+00 0. -1.
</event>
<event>
 8    1  0.4042158E-011  0.9118800E+02  0.7816164E-02  0.1184000E+00
        -11   -1    0    0    0    0  0.00000000000E+00  0.00000000000E+00  0.45593999997E+02  0.45594000000E+02  0.51100000000E-03 0. -1.
         11   -1    0    0    0    0 -0.00000000000E+00 -0.00000000000E+00 -0.45593999997E+02  0.45594000000E+02  0.51100000000E-03 0.  1.
         23    2    1    2    0    0  0.17763568394E-14  0.00000000000E+00  0.71054273576E-14  0.91188000000E+02  0.91188000000E+02 0.  0.
    9900012    2    3    3    0    0 -0.10167292169E+02  0.80038666442E+01 -0.41426901573E+02  0.47787264001E+02  0.19999967888E+02 0.  0.
         12    1    3    3    0    0  0.10167292169E+02 -0.80038666442E+01  0.41426901573E+02  0.43400735999E+02  0.00000000000E+00 0. -1.
         11    1    4    4    0    0 -0.19245280821E+01 -0.25891878058E+01 -0.76747115486E+00  0.33161293803E+01  0.51100000000E-03 0. -1.
        -11    1    4    4    0    0  0.31052939516E+01  0.14365041558E+01 -0.83435393870E+01  0.90178181662E+01  0.51100000000E-03 0.  1.
        -12    1    4    4    0    0 -0.11348058038E+02  0.91565502942E+01 -0.32315891031E+02  0.35453316455E+02  0.00000000000E+00 0.  1.
</event>
<event>
 8    1  0.4042158E-011  0.9118800E+02  0.7816164E-02  0.1184000E+00
        -11   -1    0    0    0    0  0.00000000000E+00  0.00000000000E+00  0.45593999997E+02  0.45594000000E+02  0.51100000000E-03 0.  1.
         11   -1    0    0    0    0 -0.00000000000E+00 -0.00000000000E+00 -0.45593999997E+02  0.45594000000E+02  0.51100000000E-03 0. -1.
         23    2    1    2    0    0  0.00000000000E+00  0.00000000000E+00  0.17763568394E-14  0.91188000000E+02  0.91188000000E+02 0.  0.
    9900012    2    3    3    0    0 -0.26789089145E+02  0.30211094696E+02 -0.15914071646E+02  0.47787271708E+02  0.20000003025E+02 0.  0.
         12    1    3    3    0    0  0.26789089145E+02 -0.30211094696E+02  0.15914071646E+02  0.43400728292E+02  0.00000000000E+00 0. -1.
         11    1    4    4    0    0 -0.34676162938E+01  0.24450504261E+01  0.18409692762E+01  0.46251272938E+01  0.51100000000E-03 0. -1.
        -11    1    4    4    0    0 -0.16669915761E+02  0.11524923607E+02 -0.35306998203E+01  0.20571237131E+02  0.51100000000E-03 0.  1.
         12    1    4    4    0    0 -0.66515570904E+01  0.16241120663E+02 -0.14224341101E+02  0.22590907283E+02  0.00000000000E+00 0. -1.
</event>
<event>
 8    1  0.4042158E-011  0.9118800E+02  0.7816164E-02  0.1184000E+00
        -11   -1    0    0    0    0  0.00000000000E+00  0.00000000000E+00  0.45593999997E+02  0.45594000000E+02  0.51100000000E-03 0. -1.
         11   -1    0    0    0    0 -0.00000000000E+00 -0.00000000000E+00 -0.45593999997E+02  0.45594000000E+02  0.51100000000E-03 0.  1.
         23    2    1    2    0    0  0.17763568394E-14  0.00000000000E+00  0.00000000000E+00  0.91188000000E+02  0.91188000000E+02 0.  0.
    9900012    2    3    3    0    0 -0.11890217580E+02 -0.19561408586E+02  0.36872719046E+02  0.47787269709E+02  0.19999993911E+02 0.  0.
        -12    1    3    3    0    0  0.11890217580E+02  0.19561408586E+02 -0.36872719046E+02  0.43400730291E+02  0.00000000000E+00 0.  1.
         11    1    4    4    0    0 -0.50807905962E+01 -0.33129742209E+01  0.43447410867E+01  0.74610325453E+01  0.51100000000E-03 0. -1.
        -11    1    4    4    0    0 -0.51682735003E+01 -0.10084236454E+02  0.55749641000E+01  0.12628661878E+02  0.51100000000E-03 0.  1.
         12    1    4    4    0    0 -0.16411534838E+01 -0.61641979108E+01  0.26953013859E+02  0.27697575286E+02  0.00000000000E+00 0. -1.
</event>
<event>
 8    1  0.4042158E-011  0.9118800E+02  0.7816164E-02  0.1184000E+00
        -11   -1    0    0    0    0  0.00000000000E+00  0.00000000000E+00  0.45593999997E+02  0.45594000000E+02  0.51100000000E-03 0. -1.
         11   -1    0    0    0    0 -0.00000000000E+00 -0.00000000000E+00 -0.45593999997E+02  0.45594000000E+02  0.51100000000E-03 0.  1.
         23    2    1    2    0    0 -0.35527136788E-14  0.00000000000E+00 -0.44408920985E-15  0.91188000000E+02  0.91188000000E+02 0.  0.
    9900012    2    3    3    0    0  0.30914602627E+02 -0.30372197354E+02  0.23328770408E+01  0.47787247208E+02  0.19999891318E+02 0.  0.
        -12    1    3    3    0    0 -0.30914602627E+02  0.30372197354E+02 -0.23328770408E+01  0.43400752792E+02  0.00000000000E+00 0.  1.
         11    1    4    4    0    0  0.42092526776E+01 -0.69520509757E+01 -0.31537358672E+01  0.87175037169E+01  0.51100000000E-03 0. -1.
        -11    1    4    4    0    0  0.12470445758E+01 -0.86221414522E+01  0.39981191023E+01  0.95854786012E+01  0.51100000000E-03 0.  1.
         12    1    4    4    0    0  0.25458305373E+02 -0.14798004926E+02  0.14884938057E+01  0.29484264889E+02  0.00000000000E+00 0. -1.
</event>
<event>
 8    1  0.4042158E-011  0.9118800E+02  0.7816164E-02  0.1184000E+00
        -11   -1    0    0    0    0  0.00000000000E+00  0.00000000000E+00  0.45593999997E+02  0.45594000000E+02  0.51100000000E-03 0. -1.
         11   -1    0    0    0    0 -0.00000000000E+00 -0.00000000000E+00 -0.45593999997E+02  0.45594000000E+02  0.51100000000E-03 0.  1.
         23    2    1    2    0    0  0.00000000000E+00  0.35527136788E-14  0.00000000000E+00  0.91188000000E+02  0.91188000000E+02 0.  0.
    9900012    2    3    3    0    0  0.18881601292E+02 -0.29234437986E+02  0.25931761745E+02  0.47787268452E+02  0.19999988181E+02 0.  0.
        -12    1    3    3    0    0 -0.18881601292E+02  0.29234437986E+02 -0.25931761745E+02  0.43400731548E+02  0.00000000000E+00 0.  1.
         11    1    4    4    0    0  0.24976192143E+01 -0.48754396473E+01  0.12621273154E+02  0.13758798995E+02  0.51100000000E-03 0. -1.
        -11    1    4    4    0    0  0.47158303173E+01 -0.15907991539E+02  0.95268086363E+01  0.19132781644E+02  0.51100000000E-03 0.  1.
         12    1    4    4    0    0  0.11668151760E+02 -0.84510067989E+01  0.37836799550E+01  0.14895687813E+02  0.00000000000E+00 0. -1.
</event>
<event>
 8    1  0.4042158E-011  0.9118800E+02  0.7816164E-02  0.1184000E+00
        -11   -1    0    0    0    0  0.00000000000E+00  0.00000000000E+00  0.45593999997E+02  0.45594000000E+02  0.51100000000E-03 0. -1.
         11   -1    0    0    0    0 -0.00000000000E+00 -0.00000000000E+00 -0.45593999997E+02  0.45594000000E+02  0.51100000000E-03 0.  1.
         23    2    1    2    0    0  0.00000000000E+00  0.00000000000E+00  0.00000000000E+00  0.91188000000E+02  0.91188000000E+02 0.  0.
    9900012    2    3    3    0    0  0.28033325574E+02 -0.20187843235E+02 -0.26271795427E+02  0.47787267378E+02  0.19999983282E+02 0.  0.
         12    1    3    3    0    0 -0.28033325574E+02  0.20187843235E+02  0.26271795427E+02  0.43400732622E+02  0.00000000000E+00 0. -1.
         11    1    4    4    0    0  0.70557533417E+00  0.23673520076E+01 -0.28530292683E+00  0.24866825494E+01  0.51100000000E-03 0. -1.
        -11    1    4    4    0    0  0.33601089016E+01 -0.86303582279E+01 -0.81656263655E+01  0.12347099626E+02  0.51100000000E-03 0.  1.
        -12    1    4    4    0    0  0.23967641338E+02 -0.13924837015E+02 -0.17820866134E+02  0.32953485202E+02  0.00000000000E+00 0.  1.
</event>
<event>
 8    1  0.4042158E-011  0.9118800E+02  0.7816164E-02  0.1184000E+00
        -11   -1    0    0    0    0  0.00000000000E+00  0.00000000000E+00  0.45593999997E+02  0.45594000000E+02  0.51100000000E-03 0. -1.
         11   -1    0    0    0    0 -0.00000000000E+00 -0.00000000000E+00 -0.45593999997E+02  0.45594000000E+02  0.51100000000E-03 0.  1.
         23    2    1    2    0    0  0.35527136788E-14  0.00000000000E+00  0.00000000000E+00  0.91188000000E+02  0.91188000000E+02 0.  0.
    9900012    2    3    3    0    0  0.29255906431E+02  0.29423106050E+02  0.12727765171E+02  0.47787271470E+02  0.20000001939E+02 0.  0.
        -12    1    3    3    0    0 -0.29255906431E+02 -0.29423106050E+02 -0.12727765171E+02  0.43400728530E+02  0.00000000000E+00 0.  1.
         11    1    4    4    0    0  0.15006261970E+02  0.17856782434E+02  0.12638139981E+02  0.26528760989E+02  0.51100000000E-03 0. -1.
        -11    1    4    4    0    0  0.67856551514E+01  0.35534634892E+01  0.51141596427E+01  0.92101491689E+01  0.51100000000E-03 0.  1.
        -12    1    4    4    0    0  0.74639893096E+01  0.80128601269E+01 -0.50245344525E+01  0.12048361312E+02  0.00000000000E+00 0.  1.
</event>
<event>
 8    1  0.4042158E-011  0.9118800E+02  0.7816164E-02  0.1184000E+00
        -11   -1    0    0    0    0  0.00000000000E+00  0.00000000000E+00  0.45593999997E+02  0.45594000000E+02  0.51100000000E-03 0. -1.
         11   -1    0    0    0    0 -0.00000000000E+00 -0.00000000000E+00 -0.45593999997E+02  0.45594000000E+02  0.51100000000E-03 0.  1.
         23    2    1    2    0    0  0.00000000000E+00 -0.44408920985E-15  0.00000000000E+00  0.91188000000E+02  0.91188000000E+02 0.  0.
    9900012    2    3    3    0    0  0.30024293512E+02 -0.37536767930E+01 -0.31113908224E+02  0.47787267572E+02  0.19999984168E+02 0.  0.
         12    1    3    3    0    0 -0.30024293512E+02  0.37536767930E+01  0.31113908224E+02  0.43400732428E+02  0.00000000000E+00 0. -1.
         11    1    4    4    0    0  0.11712688955E+02 -0.24842063748E+01 -0.10884677590E+02  0.16181303111E+02  0.51100000000E-03 0.  1.
        -11    1    4    4    0    0  0.14742139477E+02  0.31361946785E+01 -0.58823912677E+01  0.16179274418E+02  0.51100000000E-03 0. -1.
         12    1    4    4    0    0  0.35694650802E+01 -0.44056650967E+01 -0.14346839365E+02  0.15426690043E+02  0.00000000000E+00 0. -1.
</event>
<event>
 8    1  0.4042158E-011  0.9118800E+02  0.7816164E-02  0.1184000E+00
        -11   -1    0    0    0    0  0.00000000000E+00  0.00000000000E+00  0.45593999997E+02  0.45594000000E+02  0.51100000000E-03 0. -1.
         11   -1    0    0    0    0 -0.00000000000E+00 -0.00000000000E+00 -0.45593999997E+02  0.45594000000E+02  0.51100000000E-03 0.  1.
         23    2    1    2    0    0  0.00000000000E+00  0.35527136788E-14  0.00000000000E+00  0.91188000000E+02  0.91188000000E+02 0.  0.
    9900012    2    3    3    0    0 -0.14740682062E+02  0.31218381951E+02 -0.26301103185E+02  0.47787272954E+02  0.20000008708E+02 0.  0.
         12    1    3    3    0    0  0.14740682062E+02 -0.31218381951E+02  0.26301103185E+02  0.43400727046E+02  0.00000000000E+00 0. -1.
         11    1    4    4    0    0 -0.20667093563E+01  0.28718125857E+01 -0.12565455773E+02  0.13054090322E+02  0.51100000000E-03 0. -1.
        -11    1    4    4    0    0 -0.60842975637E+01  0.67343861614E+01 -0.58703120762E+01  0.10808848132E+02  0.51100000000E-03 0.  1.
         12    1    4    4    0    0 -0.65896751424E+01  0.21612183204E+02 -0.78653353363E+01  0.23924334501E+02  0.00000000000E+00 0. -1.
</event>
<event>
 8    1  0.4042158E-011  0.9118800E+02  0.7816164E-02  0.1184000E+00
        -11   -1    0    0    0    0  0.00000000000E+00  0.00000000000E+00  0.45593999997E+02  0.45594000000E+02  0.51100000000E-03 0. -1.
         11   -1    0    0    0    0 -0.00000000000E+00 -0.00000000000E+00 -0.45593999997E+02  0.45594000000E+02  0.51100000000E-03 0.  1.
         23    2    1    2    0    0  0.00000000000E+00  0.00000000000E+00  0.35527136788E-14  0.91188000000E+02  0.91188000000E+02 0.  0.
    9900012    2    3    3    0    0 -0.10833617656E+02  0.32296236670E+02 -0.26892544759E+02  0.47787272608E+02  0.20000007129E+02 0.  0.
         12    1    3    3    0    0  0.10833617656E+02 -0.32296236670E+02  0.26892544759E+02  0.43400727392E+02  0.00000000000E+00 0. -1.
         11    1    4    4    0    0 -0.23889816961E+01  0.13536350668E+02 -0.14322212397E+02  0.19851090427E+02  0.51100000000E-03 0. -1.
        -11    1    4    4    0    0  0.23435327484E+01  0.11277371076E+02 -0.37258695260E+01  0.12105922027E+02  0.51100000000E-03 0.  1.
        -12    1    4    4    0    0 -0.10788168708E+02  0.74825149252E+01 -0.88444628363E+01  0.15830260154E+02  0.00000000000E+00 0.  1.
</event>
<event>
 8    1  0.4042158E-011  0.9118800E+02  0.7816164E-02  0.1184000E+00
        -11   -1    0    0    0    0  0.00000000000E+00  0.00000000000E+00  0.45593999997E+02  0.45594000000E+02  0.51100000000E-03 0. -1.
         11   -1    0    0    0    0 -0.00000000000E+00 -0.00000000000E+00 -0.45593999997E+02  0.45594000000E+02  0.51100000000E-03 0.  1.
         23    2    1    2    0    0 -0.17763568394E-14  0.00000000000E+00  0.00000000000E+00  0.91188000000E+02  0.91188000000E+02 0.  0.
    9900012    2    3    3    0    0  0.14169370862E+02  0.25830865277E+02  0.31868784257E+02  0.47787261739E+02  0.19999957573E+02 0.  0.
        -12    1    3    3    0    0 -0.14169370862E+02 -0.25830865277E+02 -0.31868784257E+02  0.43400738261E+02  0.00000000000E+00 0.  1.
         11    1    4    4    0    0  0.48097581247E+01  0.13112337178E+02  0.19197025994E+02  0.23740113032E+02  0.51100000000E-03 0. -1.
        -11    1    4    4    0    0  0.23587303414E+01  0.12365124911E+02  0.11275577399E+02  0.16899661797E+02  0.51100000000E-03 0.  1.
        -12    1    4    4    0    0  0.70008823957E+01  0.35340318788E+00  0.13961808637E+01  0.71474869105E+01  0.00000000000E+00 0.  1.
</event>
<event>
 8    1  0.4042158E-011  0.9118800E+02  0.7816164E-02  0.1184000E+00
        -11   -1    0    0    0    0  0.00000000000E+00  0.00000000000E+00  0.45593999997E+02  0.45594000000E+02  0.51100000000E-03 0. -1.
         11   -1    0    0    0    0 -0.00000000000E+00 -0.00000000000E+00 -0.45593999997E+02  0.45594000000E+02  0.51100000000E-03 0.  1.
         23    2    1    2    0    0  0.00000000000E+00  0.00000000000E+00 -0.35527136788E-14  0.91188000000E+02  0.91188000000E+02 0.  0.
    9900012    2    3    3    0    0 -0.32050718224E+02  0.16011523877E+02 -0.24495005077E+02  0.47787277549E+02  0.20000029656E+02 0.  0.
         12    1    3    3    0    0  0.32050718224E+02 -0.16011523877E+02  0.24495005077E+02  0.43400722451E+02  0.00000000000E+00 0. -1.
         11    1    4    4    0    0 -0.19605105657E+02  0.38097237298E+01 -0.80025319265E+01  0.21515452127E+02  0.51100000000E-03 0. -1.
        -11    1    4    4    0    0 -0.12422129062E+02  0.52299613793E+01 -0.10893958186E+02  0.17330323473E+02  0.51100000000E-03 0.  1.
        -12    1    4    4    0    0 -0.23483504650E-01  0.69718387682E+01 -0.55985149651E+01  0.89415019487E+01  0.00000000000E+00 0.  1.
</event>
<event>
 8    1  0.4042158E-011  0.9118800E+02  0.7816164E-02  0.1184000E+00
        -11   -1    0    0    0    0  0.00000000000E+00  0.00000000000E+00  0.45593999997E+02  0.45594000000E+02  0.51100000000E-03 0. -1.
         11   -1    0    0    0    0 -0.00000000000E+00 -0.00000000000E+00 -0.45593999997E+02  0.45594000000E+02  0.51100000000E-03 0.  1.
         23    2    1    2    0    0 -0.35527136788E-14 -0.17763568394E-14  0.00000000000E+00  0.91188000000E+02  0.91188000000E+02 0.  0.
    9900012    2    3    3    0    0 -0.21702892057E+02  0.14250033559E+02  0.34778502319E+02  0.47787271854E+02  0.20000003691E+02 0.  0.
        -12    1    3    3    0    0  0.21702892057E+02 -0.14250033559E+02 -0.34778502319E+02  0.43400728146E+02  0.00000000000E+00 0.  1.
         11    1    4    4    0    0 -0.39689122271E+01 -0.31013484547E+00  0.20182869507E+02  0.20571744450E+02  0.51100000000E-03 0.  1.
        -11    1    4    4    0    0 -0.31905297093E+01  0.21325411709E+01  0.26056756458E+01  0.46386159039E+01  0.51100000000E-03 0. -1.
        -12    1    4    4    0    0 -0.14543450120E+02  0.12427627234E+02  0.11989957166E+02  0.22576911501E+02  0.00000000000E+00 0.  1.
</event>
<event>
 8    1  0.4042158E-011  0.9118800E+02  0.7816164E-02  0.1184000E+00
        -11   -1    0    0    0    0  0.00000000000E+00  0.00000000000E+00  0.45593999997E+02  0.45594000000E+02  0.51100000000E-03 0. -1.
         11   -1    0    0    0    0 -0.00000000000E+00 -0.00000000000E+00 -0.45593999997E+02  0.45594000000E+02  0.51100000000E-03 0.  1.
         23    2    1    2    0    0  0.00000000000E+00  0.00000000000E+00 -0.71054273576E-14  0.91188000000E+02  0.91188000000E+02 0.  0.
    9900012    2    3    3    0    0  0.16751727359E+02 -0.10977157963E+02  0.38503325329E+02  0.47787257750E+02  0.19999939386E+02 0.  0.
        -12    1    3    3    0    0 -0.16751727359E+02  0.10977157963E+02 -0.38503325329E+02  0.43400742250E+02  0.00000000000E+00 0.  1.
         11    1    4    4    0    0 -0.11690757678E+01 -0.39381357326E+01  0.11191832374E+02  0.11921944613E+02  0.51100000000E-03 0. -1.
        -11    1    4    4    0    0  0.44066644937E+01 -0.83751066532E+01  0.13585396831E+02  0.16556693834E+02  0.51100000000E-03 0.  1.
        -12    1    4    4    0    0  0.13514138633E+02  0.13360844225E+01  0.13726096124E+02  0.19308619303E+02  0.00000000000E+00 0.  1.
</event>
<event>
 8    1  0.4042158E-011  0.9118800E+02  0.7816164E-02  0.1184000E+00
        -11   -1    0    0    0    0  0.00000000000E+00  0.00000000000E+00  0.45593999997E+02  0.45594000000E+02  0.51100000000E-03 0. -1.
         11   -1    0    0    0    0 -0.00000000000E+00 -0.00000000000E+00 -0.45593999997E+02  0.45594000000E+02  0.51100000000E-03 0.  1.
         23    2    1    2    0    0  0.00000000000E+00  0.00000000000E+00  0.00000000000E+00  0.91188000000E+02  0.91188000000E+02 0.  0.
    9900012    2    3    3    0    0 -0.38213638695E+02  0.27365528086E+01  0.20392456592E+02  0.47787272017E+02  0.20000004434E+02 0.  0.
        -12    1    3    3    0    0  0.38213638695E+02 -0.27365528086E+01 -0.20392456592E+02  0.43400727983E+02  0.00000000000E+00 0.  1.
         11    1    4    4    0    0 -0.41432837399E+01 -0.18136131856E+01 -0.13974463321E+01  0.47337986278E+01  0.51100000000E-03 0. -1.
        -11    1    4    4    0    0 -0.24967035289E+01  0.44217248610E+01  0.80323931896E+00  0.51410478429E+01  0.51100000000E-03 0.  1.
         12    1    4    4    0    0 -0.31573651426E+02  0.12844113319E+00  0.20986663605E+02  0.37912425546E+02  0.00000000000E+00 0. -1.
</event>
<event>
 8    1  0.4042158E-011  0.9118800E+02  0.7816164E-02  0.1184000E+00
        -11   -1    0    0    0    0  0.00000000000E+00  0.00000000000E+00  0.45593999997E+02  0.45594000000E+02  0.51100000000E-03 0. -1.
         11   -1    0    0    0    0 -0.00000000000E+00 -0.00000000000E+00 -0.45593999997E+02  0.45594000000E+02  0.51100000000E-03 0.  1.
         23    2    1    2    0    0 -0.35527136788E-14 -0.44408920985E-15  0.71054273576E-14  0.91188000000E+02  0.91188000000E+02 0.  0.
    9900012    2    3    3    0    0  0.19859907110E+02  0.28151422196E+01 -0.38487433510E+02  0.47787268735E+02  0.19999989471E+02 0.  0.
         12    1    3    3    0    0 -0.19859907110E+02 -0.28151422196E+01  0.38487433510E+02  0.43400731265E+02  0.00000000000E+00 0. -1.
         11    1    4    4    0    0  0.20701583629E+01  0.24145731009E+01 -0.12607126140E+01  0.34212739533E+01  0.51100000000E-03 0. -1.
        -11    1    4    4    0    0  0.55382293071E+01 -0.10102543305E+01 -0.29000030310E+02  0.29541400710E+02  0.51100000000E-03 0.  1.
        -12    1    4    4    0    0  0.12251519439E+02  0.14108234492E+01 -0.82266905860E+01  0.14824594071E+02  0.00000000000E+00 0.  1.
</event>
<event>
 8    1  0.4042158E-011  0.9118800E+02  0.7816164E-02  0.1184000E+00
        -11   -1    0    0    0    0  0.00000000000E+00  0.00000000000E+00  0.45593999997E+02  0.45594000000E+02  0.51100000000E-03 0. -1.
         11   -1    0    0    0    0 -0.00000000000E+00 -0.00000000000E+00 -0.45593999997E+02  0.45594000000E+02  0.51100000000E-03 0.  1.
         23    2    1    2    0    0  0.00000000000E+00 -0.35527136788E-14  0.71054273576E-14  0.91188000000E+02  0.91188000000E+02 0.  0.
    9900012    2    3    3    0    0 -0.52884991471E+01  0.27911244580E+02 -0.32811833167E+02  0.47787283497E+02  0.20000056775E+02 0.  0.
         12    1    3    3    0    0  0.52884991471E+01 -0.27911244580E+02  0.32811833167E+02  0.43400716503E+02  0.00000000000E+00 0. -1.
         11    1    4    4    0    0  0.35019071850E+01  0.38048585663E+01 -0.50547783552E+01  0.72312576446E+01  0.51100000000E-03 0. -1.
        -11    1    4    4    0    0  0.40313291564E+01  0.38263589732E+01 -0.46807121625E+01  0.72664781268E+01  0.51100000000E-03 0.  1.
        -12    1    4    4    0    0 -0.12821735489E+02  0.20280027040E+02 -0.23076342649E+02  0.33289547725E+02  0.00000000000E+00 0.  1.
</event>
<event>
 8    1  0.4042158E-011  0.9118800E+02  0.7816164E-02  0.1184000E+00
        -11   -1    0    0    0    0  0.00000000000E+00  0.00000000000E+00  0.45593999997E+02  0.45594000000E+02  0.51100000000E-03 0. -1.
         11   -1    0    0    0    0 -0.00000000000E+00 -0.00000000000E+00 -0.45593999997E+02  0.45594000000E+02  0.51100000000E-03 0.  1.
         23    2    1    2    0    0  0.00000000000E+00 -0.71054273576E-14  0.22204460493E-15  0.91188000000E+02  0.91188000000E+02 0.  0.
    9900012    2    3    3    0    0  0.62052371237E+01  0.42953101659E+02  0.38658439109E+00  0.47787270082E+02  0.19999995614E+02 0.  0.
         12    1    3    3    0    0 -0.62052371237E+01 -0.42953101659E+02 -0.38658439109E+00  0.43400729918E+02  0.00000000000E+00 0. -1.
         11    1    4    4    0    0  0.55738677319E+01  0.40383372122E+02 -0.87487000944E-01  0.40766314522E+02  0.51100000000E-03 0. -1.
        -11    1    4    4    0    0  0.21982055206E+01  0.30985584922E+01  0.23913292104E+01  0.44890564592E+01  0.51100000000E-03 0.  1.
         12    1    4    4    0    0 -0.15668361288E+01 -0.52882895529E+00 -0.19172578184E+01  0.25318991016E+01  0.00000000000E+00 0. -1.
</event>
<event>
 8    1  0.4042158E-011  0.9118800E+02  0.7816164E-02  0.1184000E+00
        -11   -1    0    0    0    0  0.00000000000E+00  0.00000000000E+00  0.45593999997E+02  0.45594000000E+02  0.51100000000E-03 0. -1.
         11   -1    0    0    0    0 -0.00000000000E+00 -0.00000000000E+00 -0.45593999997E+02  0.45594000000E+02  0.51100000000E-03 0.  1.
         23    2    1    2    0    0  0.00000000000E+00 -0.88817841970E-15  0.00000000000E+00  0.91188000000E+02  0.91188000000E+02 0.  0.
    9900012    2    3    3    0    0  0.15622576137E+02  0.57047671418E+01  0.40087584711E+02  0.47787266121E+02  0.19999977550E+02 0.  0.
        -12    1    3    3    0    0 -0.15622576137E+02 -0.57047671418E+01 -0.40087584711E+02  0.43400733879E+02  0.00000000000E+00 0.  1.
         11    1    4    4    0    0  0.15106616286E+02 -0.16585831538E+01  0.30266258061E+02  0.33867493721E+02  0.51100000000E-03 0. -1.
        -11    1    4    4    0    0 -0.66908121056E+00 -0.93826088976E+00  0.22218741166E+00  0.11736143620E+01  0.51100000000E-03 0.  1.
        -12    1    4    4    0    0  0.11850410615E+01  0.83016111853E+01  0.95991392390E+01  0.12746158038E+02  0.00000000000E+00 0.  1.
</event>
<event>
 8    1  0.4042158E-011  0.9118800E+02  0.7816164E-02  0.1184000E+00
        -11   -1    0    0    0    0  0.00000000000E+00  0.00000000000E+00  0.45593999997E+02  0.45594000000E+02  0.51100000000E-03 0. -1.
         11   -1    0    0    0    0 -0.00000000000E+00 -0.00000000000E+00 -0.45593999997E+02  0.45594000000E+02  0.51100000000E-03 0.  1.
         23    2    1    2    0    0  0.00000000000E+00  0.00000000000E+00  0.00000000000E+00  0.91188000000E+02  0.91188000000E+02 0.  0.
    9900012    2    3    3    0    0  0.14282606980E+02 -0.90972113195E+01 -0.39960868334E+02  0.47787272887E+02  0.20000008402E+02 0.  0.
         12    1    3    3    0    0 -0.14282606980E+02  0.90972113195E+01  0.39960868334E+02  0.43400727113E+02  0.00000000000E+00 0. -1.
         11    1    4    4    0    0  0.44676898192E+01 -0.72855650339E+01 -0.47873189016E+01  0.97958222070E+01  0.51100000000E-03 0. -1.
        -11    1    4    4    0    0  0.81340095152E+01 -0.48210647054E+01 -0.16628990064E+02  0.19129246888E+02  0.51100000000E-03 0.  1.
         12    1    4    4    0    0  0.16809076450E+01  0.30094184198E+01 -0.18544559368E+02  0.18862203792E+02  0.00000000000E+00 0. -1.
</event>
<event>
 8    1  0.5512636E-011  0.9118800E+02  0.7816164E-02  0.1184000E+00
        -11   -1    0    0    0    0  0.00000000000E+00  0.00000000000E+00  0.45593999997E+02  0.45594000000E+02  0.51100000000E-03 0. -1.
         11   -1    0    0    0    0 -0.00000000000E+00 -0.00000000000E+00 -0.45593999997E+02  0.45594000000E+02  0.51100000000E-03 0.  1.
         23    2    1    2    0    0  0.00000000000E+00  0.00000000000E+00 -0.71054273576E-14  0.91188000000E+02  0.91188000000E+02 0.  0.
    9900012    2    3    3    0    0  0.10832637047E+02 -0.10924266675E+01  0.42012901270E+02  0.47787270806E+02  0.19999998914E+02 0.  0.
        -12    1    3    3    0    0 -0.10832637047E+02  0.10924266675E+01 -0.42012901270E+02  0.43400729194E+02  0.00000000000E+00 0.  1.
         11    1    4    4    0    0  0.62202919155E+01  0.12106911035E+01  0.24358590594E+02  0.25169400876E+02  0.51100000000E-03 0.  1.
        -11    1    4    4    0    0  0.71734730558E+01 -0.24376087617E+00  0.17936569745E+02  0.19319385847E+02  0.51100000000E-03 0. -1.
        -12    1    4    4    0    0 -0.25611279241E+01 -0.20593568948E+01 -0.28225906864E+00  0.32984840830E+01  0.00000000000E+00 0.  1.
</event>
<event>
 8    1  0.4042158E-011  0.9118800E+02  0.7816164E-02  0.1184000E+00
        -11   -1    0    0    0    0  0.00000000000E+00  0.00000000000E+00  0.45593999997E+02  0.45594000000E+02  0.51100000000E-03 0. -1.
         11   -1    0    0    0    0 -0.00000000000E+00 -0.00000000000E+00 -0.45593999997E+02  0.45594000000E+02  0.51100000000E-03 0.  1.
         23    2    1    2    0    0  0.00000000000E+00  0.00000000000E+00 -0.35527136788E-14  0.91188000000E+02  0.91188000000E+02 0.  0.
    9900012    2    3    3    0    0  0.15701707867E+02 -0.29021746651E+02 -0.28192519070E+02  0.47787267977E+02  0.19999986013E+02 0.  0.
         12    1    3    3    0    0 -0.15701707867E+02  0.29021746651E+02  0.28192519070E+02  0.43400732023E+02  0.00000000000E+00 0. -1.
         11    1    4    4    0    0 -0.15463145250E+01 -0.27012882202E+01 -0.46539864489E+01  0.55988960328E+01  0.51100000000E-03 0.  1.
        -11    1    4    4    0    0  0.61046625361E+01  0.13013801040E+00 -0.24838813485E+01  0.65919274417E+01  0.51100000000E-03 0. -1.
        -12    1    4    4    0    0  0.11143359856E+02 -0.26450596441E+02 -0.21054651273E+02  0.35596444502E+02  0.00000000000E+00 0.  1.
</event>
<event>
 8    1  0.4042158E-011  0.9118800E+02  0.7816164E-02  0.1184000E+00
        -11   -1    0    0    0    0  0.00000000000E+00  0.00000000000E+00  0.45593999997E+02  0.45594000000E+02  0.51100000000E-03 0. -1.
         11   -1    0    0    0    0 -0.00000000000E+00 -0.00000000000E+00 -0.45593999997E+02  0.45594000000E+02  0.51100000000E-03 0.  1.
         23    2    1    2    0    0 -0.71054273576E-14  0.88817841970E-15 -0.35527136788E-14  0.91188000000E+02  0.91188000000E+02 0.  0.
    9900012    2    3    3    0    0 -0.37524549473E+02  0.65721960228E+01 -0.20792724495E+02  0.47787274596E+02  0.20000016192E+02 0.  0.
         12    1    3    3    0    0  0.37524549473E+02 -0.65721960228E+01  0.20792724495E+02  0.43400725404E+02  0.00000000000E+00 0. -1.
         11    1    4    4    0    0 -0.24901076685E+01 -0.17094685503E+01  0.15226553748E+00  0.30242526317E+01  0.51100000000E-03 0. -1.
        -11    1    4    4    0    0 -0.31492976904E+02  0.40235681418E+01 -0.11411387672E+02  0.33737463801E+02  0.51100000000E-03 0.  1.
         12    1    4    4    0    0 -0.35414649009E+01  0.42580964313E+01 -0.95336023595E+01  0.11025558163E+02  0.00000000000E+00 0. -1.
</event>
<event>
 8    1  0.4042158E-011  0.9118800E+02  0.7816164E-02  0.1184000E+00
        -11   -1    0    0    0    0  0.00000000000E+00  0.00000000000E+00  0.45593999997E+02  0.45594000000E+02  0.51100000000E-03 0. -1.
         11   -1    0    0    0    0 -0.00000000000E+00 -0.00000000000E+00 -0.45593999997E+02  0.45594000000E+02  0.51100000000E-03 0.  1.
         23    2    1    2    0    0  0.00000000000E+00 -0.17763568394E-14  0.00000000000E+00  0.91188000000E+02  0.91188000000E+02 0.  0.
    9900012    2    3    3    0    0  0.20592793942E+02  0.14767120710E+02 -0.35234817339E+02  0.47787269945E+02  0.19999994987E+02 0.  0.
         12    1    3    3    0    0 -0.20592793942E+02 -0.14767120710E+02  0.35234817339E+02  0.43400730055E+02  0.00000000000E+00 0. -1.
         11    1    4    4    0    0  0.20124832111E+01 -0.24305379422E+01 -0.82973305312E+01  0.88771221445E+01  0.51100000000E-03 0. -1.
        -11    1    4    4    0    0  0.12382708309E+02  0.67283398687E+01 -0.21205524408E+02  0.25461270356E+02  0.51100000000E-03 0.  1.
         12    1    4    4    0    0  0.61976024223E+01  0.10469318783E+02 -0.57319623997E+01  0.13448877445E+02  0.00000000000E+00 0. -1.
</event>
<event>
 8    1  0.4042158E-011  0.9118800E+02  0.7816164E-02  0.1184000E+00
        -11   -1    0    0    0    0  0.00000000000E+00  0.00000000000E+00  0.45593999997E+02  0.45594000000E+02  0.51100000000E-03 0. -1.
         11   -1    0    0    0    0 -0.00000000000E+00 -0.00000000000E+00 -0.45593999997E+02  0.45594000000E+02  0.51100000000E-03 0.  1.
         23    2    1    2    0    0  0.00000000000E+00 -0.35527136788E-14  0.71054273576E-14  0.91188000000E+02  0.91188000000E+02 0.  0.
    9900012    2    3    3    0    0  0.67492017513E+01  0.22918459718E+02 -0.36232793159E+02  0.47787276270E+02  0.20000023827E+02 0.  0.
         12    1    3    3    0    0 -0.67492017513E+01 -0.22918459718E+02  0.36232793159E+02  0.43400723730E+02  0.00000000000E+00 0. -1.
         11    1    4    4    0    0  0.65375146209E+01  0.40638673818E+01 -0.11005376225E+02  0.13430280028E+02  0.51100000000E-03 0. -1.
        -11    1    4    4    0    0  0.52424153852E+01  0.15002908064E+02 -0.12794257430E+02  0.20402529080E+02  0.51100000000E-03 0.  1.
         12    1    4    4    0    0 -0.50307282548E+01  0.38516842731E+01 -0.12433159504E+02  0.13954467162E+02  0.00000000000E+00 0. -1.
</event>
<event>
 8    1  0.4042158E-011  0.9118800E+02  0.7816164E-02  0.1184000E+00
        -11   -1    0    0    0    0  0.00000000000E+00  0.00000000000E+00  0.45593999997E+02  0.45594000000E+02  0.51100000000E-03 0. -1.
         11   -1    0    0    0    0 -0.00000000000E+00 -0.00000000000E+00 -0.45593999997E+02  0.45594000000E+02  0.51100000000E-03 0.  1.
         23    2    1    2    0    0  0.00000000000E+00  0.17763568394E-14  0.00000000000E+00  0.91188000000E+02  0.91188000000E+02 0.  0.
    9900012    2    3    3    0    0 -0.37567028415E+02 -0.11856806366E+02 -0.18214224736E+02  0.47787268856E+02  0.19999990021E+02 0.  0.
         12    1    3    3    0    0  0.37567028415E+02  0.11856806366E+02  0.18214224736E+02  0.43400731144E+02  0.00000000000E+00 0. -1.
         11    1    4    4    0    0 -0.10644820082E+02 -0.42274054500E+01 -0.14167436925E+01  0.11540810819E+02  0.51100000000E-03 0. -1.
        -11    1    4    4    0    0 -0.11062820589E+02 -0.71834628241E+01 -0.68705713566E-01  0.13190635248E+02  0.51100000000E-03 0.  1.
        -12    1    4    4    0    0 -0.15859387744E+02 -0.44593809158E+00 -0.16728775330E+02  0.23055822788E+02  0.00000000000E+00 0.  1.
</event>
<event>
 8    1  0.4042158E-011  0.9118800E+02  0.7816164E-02  0.1184000E+00
        -11   -1    0    0    0    0  0.00000000000E+00  0.00000000000E+00  0.45593999997E+02  0.45594000000E+02  0.51100000000E-03 0. -1.
         11   -1    0    0    0    0 -0.00000000000E+00 -0.00000000000E+00 -0.45593999997E+02  0.45594000000E+02  0.51100000000E-03 0.  1.
         23    2    1    2    0    0 -0.88817841970E-15  0.00000000000E+00  0.00000000000E+00  0.91188000000E+02  0.91188000000E+02 0.  0.
    9900012    2    3    3    0    0 -0.60460513329E+01 -0.34215052848E+02 -0.26007655688E+02  0.47787277282E+02  0.20000028439E+02 0.  0.
         12    1    3    3    0    0  0.60460513329E+01  0.34215052848E+02  0.26007655688E+02  0.43400722718E+02  0.00000000000E+00 0. -1.
         11    1    4    4    0    0  0.10347825701E+01 -0.30111707416E+01 -0.27473382238E+00  0.31958415381E+01  0.51100000000E-03 0. -1.
        -11    1    4    4    0    0 -0.54136982592E+01 -0.43815063006E+00 -0.23774086558E+01  0.59289271368E+01  0.51100000000E-03 0.  1.
        -12    1    4    4    0    0 -0.16671356438E+01 -0.30765731476E+02 -0.23355513209E+02  0.38662508607E+02  0.00000000000E+00 0.  1.
</event>
<event>
 8    1  0.4042158E-011  0.9118800E+02  0.7816164E-02  0.1184000E+00
        -11   -1    0    0    0    0  0.00000000000E+00  0.00000000000E+00  0.45593999997E+02  0.45594000000E+02  0.51100000000E-03 0. -1.
         11   -1    0    0    0    0 -0.00000000000E+00 -0.00000000000E+00 -0.45593999997E+02  0.45594000000E+02  0.51100000000E-03 0.  1.
         23    2    1    2    0    0  0.00000000000E+00 -0.88817841970E-15  0.00000000000E+00  0.91188000000E+02  0.91188000000E+02 0.  0.
    9900012    2    3    3    0    0 -0.39108190909E+02  0.10460437644E+01  0.18790378668E+02  0.47787272653E+02  0.20000007335E+02 0.  0.
        -12    1    3    3    0    0  0.39108190909E+02 -0.10460437644E+01 -0.18790378668E+02  0.43400727347E+02  0.00000000000E+00 0.  1.
         11    1    4    4    0    0 -0.13957331084E+02  0.62577982739E+01  0.56422910280E+01  0.16303452963E+02  0.51100000000E-03 0. -1.
        -11    1    4    4    0    0 -0.11309304448E+01  0.18892444310E+00 -0.21937064296E+01  0.24752867060E+01  0.51100000000E-03 0.  1.
         12    1    4    4    0    0 -0.24019929380E+02 -0.54006789526E+01  0.15341794070E+02  0.29008532984E+02  0.00000000000E+00 0. -1.
</event>
<event>
 8    1  0.4042158E-011  0.9118800E+02  0.7816164E-02  0.1184000E+00
        -11   -1    0    0    0    0  0.00000000000E+00  0.00000000000E+00  0.45593999997E+02  0.45594000000E+02  0.51100000000E-03 0. -1.
         11   -1    0    0    0    0 -0.00000000000E+00 -0.00000000000E+00 -0.45593999997E+02  0.45594000000E+02  0.51100000000E-03 0.  1.
         23    2    1    2    0    0  0.35527136788E-14 -0.35527136788E-14  0.00000000000E+00  0.91188000000E+02  0.91188000000E+02 0.  0.
    9900012    2    3    3    0    0  0.19627279359E+02 -0.29443775714E+02 -0.25128811173E+02  0.47787272192E+02  0.20000005232E+02 0.  0.
         12    1    3    3    0    0 -0.19627279359E+02  0.29443775714E+02  0.25128811173E+02  0.43400727808E+02  0.00000000000E+00 0. -1.
         11    1    4    4    0    0 -0.64881400626E+00  0.46455421629E+00  0.84433448786E+00  0.11617535122E+01  0.51100000000E-03 0. -1.
        -11    1    4    4    0    0  0.62822359103E+01 -0.18357857123E+01 -0.11968001152E+01  0.66534899107E+01  0.51100000000E-03 0.  1.
        -12    1    4    4    0    0  0.13993857455E+02 -0.28072544218E+02 -0.24776345546E+02  0.39972028769E+02  0.00000000000E+00 0.  1.
</event>
<event>
 8    1  0.4042158E-011  0.9118800E+02  0.7816164E-02  0.1184000E+00
        -11   -1    0    0    0    0  0.00000000000E+00  0.00000000000E+00  0.45593999997E+02  0.45594000000E+02  0.51100000000E-03 0.  1.
         11   -1    0    0    0    0 -0.00000000000E+00 -0.00000000000E+00 -0.45593999997E+02  0.45594000000E+02  0.51100000000E-03 0. -1.
         23    2    1    2    0    0  0.35527136788E-14 -0.71054273576E-14  0.35527136788E-14  0.91188000000E+02  0.91188000000E+02 0.  0.
    9900012    2    3    3    0    0  0.19110620749E+02 -0.30183319992E+02  0.24644976456E+02  0.47787268489E+02  0.19999988347E+02 0.  0.
        -12    1    3    3    0    0 -0.19110620749E+02  0.30183319992E+02 -0.24644976456E+02  0.43400731511E+02  0.00000000000E+00 0.  1.
         11    1    4    4    0    0  0.71700568895E+01 -0.20760791033E+02  0.11986544288E+02  0.25021938461E+02  0.51100000000E-03 0. -1.
        -11    1    4    4    0    0  0.18475973509E+01 -0.44667603036E+01 -0.11393691905E+01  0.49662587522E+01  0.51100000000E-03 0.  1.
        -12    1    4    4    0    0  0.10092966509E+02 -0.49557686554E+01  0.13797801359E+02  0.17799071275E+02  0.00000000000E+00 0.  1.
</event>
<event>
 8    1  0.4042158E-011  0.9118800E+02  0.7816164E-02  0.1184000E+00
        -11   -1    0    0    0    0  0.00000000000E+00  0.00000000000E+00  0.45593999997E+02  0.45594000000E+02  0.51100000000E-03 0.  1.
         11   -1    0    0    0    0 -0.00000000000E+00 -0.00000000000E+00 -0.45593999997E+02  0.45594000000E+02  0.51100000000E-03 0. -1.
         23    2    1    2    0    0  0.00000000000E+00  0.00000000000E+00  0.00000000000E+00  0.91188000000E+02  0.91188000000E+02 0.  0.
    9900012    2    3    3    0    0 -0.39425920952E+02 -0.55939033237E+01  0.17260594722E+02  0.47787272731E+02  0.20000007689E+02 0.  0.
        -12    1    3    3    0    0  0.39425920952E+02  0.55939033237E+01 -0.17260594722E+02  0.43400727269E+02  0.00000000000E+00 0.  1.
         11    1    4    4    0    0 -0.38998823937E+01  0.59497678957E+00  0.59988213185E+01  0.71797588774E+01  0.51100000000E-03 0.  1.
        -11    1    4    4    0    0 -0.76135988968E+00  0.28071051278E+01 -0.19332899066E+00  0.29149415843E+01  0.51100000000E-03 0. -1.
         12    1    4    4    0    0 -0.34764678669E+02 -0.89959852411E+01  0.11455102394E+02  0.37692572269E+02  0.00000000000E+00 0. -1.
</event>
<event>
 8    1  0.4042158E-011  0.9118800E+02  0.7816164E-02  0.1184000E+00
        -11   -1    0    0    0    0  0.00000000000E+00  0.00000000000E+00  0.45593999997E+02  0.45594000000E+02  0.51100000000E-03 0.  1.
         11   -1    0    0    0    0 -0.00000000000E+00 -0.00000000000E+00 -0.45593999997E+02  0.45594000000E+02  0.51100000000E-03 0. -1.
         23    2    1    2    0    0  0.00000000000E+00  0.00000000000E+00  0.00000000000E+00  0.91188000000E+02  0.91188000000E+02 0.  0.
    9900012    2    3    3    0    0 -0.10332688028E+02 -0.41156223727E+02  0.91118110973E+01  0.47787259282E+02  0.19999946371E+02 0.  0.
         12    1    3    3    0    0  0.10332688028E+02  0.41156223727E+02 -0.91118110973E+01  0.43400740718E+02  0.00000000000E+00 0. -1.
         11    1    4    4    0    0 -0.11344610034E+00 -0.10016132968E+02  0.96060863144E+01  0.13878497188E+02  0.51100000000E-03 0. -1.
        -11    1    4    4    0    0 -0.46046575093E+01 -0.37431518012E+01  0.12760092299E+00  0.59355150106E+01  0.51100000000E-03 0.  1.
         12    1    4    4    0    0 -0.56145844184E+01 -0.27396938958E+02 -0.62187614011E+00  0.27973247084E+02  0.00000000000E+00 0. -1.
</event>
<event>
 8    1  0.4042158E-011  0.9118800E+02  0.7816164E-02  0.1184000E+00
        -11   -1    0    0    0    0  0.00000000000E+00  0.00000000000E+00  0.45593999997E+02  0.45594000000E+02  0.51100000000E-03 0. -1.
         11   -1    0    0    0    0 -0.00000000000E+00 -0.00000000000E+00 -0.45593999997E+02  0.45594000000E+02  0.51100000000E-03 0.  1.
         23    2    1    2    0    0  0.00000000000E+00  0.35527136788E-14  0.00000000000E+00  0.91188000000E+02  0.91188000000E+02 0.  0.
    9900012    2    3    3    0    0 -0.32650600709E+02 -0.25556772347E+02  0.12822323328E+02  0.47787282092E+02  0.20000050369E+02 0.  0.
        -12    1    3    3    0    0  0.32650600709E+02  0.25556772347E+02 -0.12822323328E+02  0.43400717908E+02  0.00000000000E+00 0.  1.
         11    1    4    4    0    0 -0.20780340823E+02 -0.18113383659E+02  0.94125115254E+01  0.29129239705E+02  0.51100000000E-03 0. -1.
        -11    1    4    4    0    0 -0.27409822637E+01 -0.86559492535E+01  0.97228686309E+00  0.91314721296E+01  0.51100000000E-03 0.  1.
        -12    1    4    4    0    0 -0.91292776227E+01  0.12125605662E+01  0.24375249398E+01  0.95265702575E+01  0.00000000000E+00 0.  1.
</event>
<event>
 8    1  0.4042158E-011  0.9118800E+02  0.7816164E-02  0.1184000E+00
        -11   -1    0    0    0    0  0.00000000000E+00  0.00000000000E+00  0.45593999997E+02  0.45594000000E+02  0.51100000000E-03 0. -1.
         11   -1    0    0    0    0 -0.00000000000E+00 -0.00000000000E+00 -0.45593999997E+02  0.45594000000E+02  0.51100000000E-03 0.  1.
         23    2    1    2    0    0  0.00000000000E+00  0.00000000000E+00  0.17763568394E-14  0.91188000000E+02  0.91188000000E+02 0.  0.
    9900012    2    3    3    0    0 -0.19713426466E+02 -0.36610097878E+02 -0.12438029016E+02  0.47787274022E+02  0.20000013575E+02 0.  0.
         12    1    3    3    0    0  0.19713426466E+02  0.36610097878E+02  0.12438029016E+02  0.43400725978E+02  0.00000000000E+00 0. -1.
         11    1    4    4    0    0 -0.64819121239E+01 -0.15438090395E+02 -0.47308474554E+00  0.16750332214E+02  0.51100000000E-03 0. -1.
        -11    1    4    4    0    0 -0.11789661893E+02 -0.11435522121E+02 -0.12268075344E+01  0.16470347620E+02  0.51100000000E-03 0.  1.
        -12    1    4    4    0    0 -0.14418524487E+01 -0.97364853612E+01 -0.10738136736E+02  0.14566594188E+02  0.00000000000E+00 0.  1.
</event>
<event>
 8    1  0.4042158E-011  0.9118800E+02  0.7816164E-02  0.1184000E+00
        -11   -1    0    0    0    0  0.00000000000E+00  0.00000000000E+00  0.45593999997E+02  0.45594000000E+02  0.51100000000E-03 0. -1.
         11   -1    0    0    0    0 -0.00000000000E+00 -0.00000000000E+00 -0.45593999997E+02  0.45594000000E+02  0.51100000000E-03 0.  1.
         23    2    1    2    0    0  0.17763568394E-14  0.00000000000E+00  0.00000000000E+00  0.91188000000E+02  0.91188000000E+02 0.  0.
    9900012    2    3    3    0    0  0.15992574146E+02  0.17919764924E+02 -0.36148876904E+02  0.47787289129E+02  0.20000082453E+02 0.  0.
         12    1    3    3    0    0 -0.15992574146E+02 -0.17919764924E+02  0.36148876904E+02  0.43400710871E+02  0.00000000000E+00 0. -1.
         11    1    4    4    0    0  0.62160346588E+01  0.36326445170E+01 -0.24107812819E+02  0.25159925124E+02  0.51100000000E-03 0. -1.
        -11    1    4    4    0    0  0.77354024532E+01  0.60338744481E+01 -0.97292810982E+01  0.13816765284E+02  0.51100000000E-03 0.  1.
         12    1    4    4    0    0  0.20411370342E+01  0.82532459585E+01 -0.23117829868E+01  0.88105987210E+01  0.00000000000E+00 0. -1.
</event>
<event>
 8    1  0.4042158E-011  0.9118800E+02  0.7816164E-02  0.1184000E+00
        -11   -1    0    0    0    0  0.00000000000E+00  0.00000000000E+00  0.45593999997E+02  0.45594000000E+02  0.51100000000E-03 0. -1.
         11   -1    0    0    0    0 -0.00000000000E+00 -0.00000000000E+00 -0.45593999997E+02  0.45594000000E+02  0.51100000000E-03 0.  1.
         23    2    1    2    0    0  0.00000000000E+00  0.00000000000E+00 -0.44408920985E-15  0.91188000000E+02  0.91188000000E+02 0.  0.
    9900012    2    3    3    0    0  0.24458563544E+02  0.35755291581E+02  0.26383936828E+01  0.47787270422E+02  0.19999997162E+02 0.  0.
         12    1    3    3    0    0 -0.24458563544E+02 -0.35755291581E+02 -0.26383936828E+01  0.43400729578E+02  0.00000000000E+00 0. -1.
         11    1    4    4    0    0  0.52720239697E+01  0.50580659614E+01  0.50413936837E+01  0.88765938592E+01  0.51100000000E-03 0. -1.
        -11    1    4    4    0    0  0.10743065237E+02  0.77493226114E+01  0.36115804176E+01  0.13729856700E+02  0.51100000000E-03 0.  1.
        -12    1    4    4    0    0  0.84434743375E+01  0.22947903008E+02 -0.60145804185E+01  0.25180819863E+02  0.00000000000E+00 0.  1.
</event>
<event>
 8    1  0.4042158E-011  0.9118800E+02  0.7816164E-02  0.1184000E+00
        -11   -1    0    0    0    0  0.00000000000E+00  0.00000000000E+00  0.45593999997E+02  0.45594000000E+02  0.51100000000E-03 0. -1.
         11   -1    0    0    0    0 -0.00000000000E+00 -0.00000000000E+00 -0.45593999997E+02  0.45594000000E+02  0.51100000000E-03 0.  1.
         23    2    1    2    0    0  0.00000000000E+00  0.00000000000E+00  0.00000000000E+00  0.91188000000E+02  0.91188000000E+02 0.  0.
    9900012    2    3    3    0    0 -0.76597051610E+01 -0.27238601574E+02  0.32909130601E+02  0.47787269871E+02  0.19999994648E+02 0.  0.
        -12    1    3    3    0    0  0.76597051610E+01  0.27238601574E+02 -0.32909130601E+02  0.43400730129E+02  0.00000000000E+00 0.  1.
         11    1    4    4    0    0 -0.40120760368E+01 -0.16577194246E+02  0.26150627035E+02  0.31221073297E+02  0.51100000000E-03 0. -1.
        -11    1    4    4    0    0  0.13669751235E+01  0.13953609046E+01  0.22924944711E+00  0.19667761979E+01  0.51100000000E-03 0.  1.
        -12    1    4    4    0    0 -0.50146042477E+01 -0.12056768232E+02  0.65292541184E+01  0.14599420376E+02  0.00000000000E+00 0.  1.
</event>
<event>
 8    1  0.4042158E-011  0.9118800E+02  0.7816164E-02  0.1184000E+00
        -11   -1    0    0    0    0  0.00000000000E+00  0.00000000000E+00  0.45593999997E+02  0.45594000000E+02  0.51100000000E-03 0. -1.
         11   -1    0    0    0    0 -0.00000000000E+00 -0.00000000000E+00 -0.45593999997E+02  0.45594000000E+02  0.51100000000E-03 0.  1.
         23    2    1    2    0    0  0.35527136788E-14 -0.88817841970E-15  0.00000000000E+00  0.91188000000E+02  0.91188000000E+02 0.  0.
    9900012    2    3    3    0    0 -0.31381756924E+02  0.48590240045E+01 -0.29583762475E+02  0.47787265166E+02  0.19999973199E+02 0.  0.
         12    1    3    3    0    0  0.31381756924E+02 -0.48590240045E+01  0.29583762475E+02  0.43400734834E+02  0.00000000000E+00 0. -1.
         11    1    4    4    0    0 -0.16934596441E+01 -0.28500756833E+01 -0.13868530575E+01  0.35936191550E+01  0.51100000000E-03 0. -1.
        -11    1    4    4    0    0 -0.21145402404E+02  0.10089643220E+01 -0.11001184706E+02  0.23857328372E+02  0.51100000000E-03 0.  1.
        -12    1    4    4    0    0 -0.85428948757E+01  0.67001353658E+01 -0.17195724712E+02  0.20336317640E+02  0.00000000000E+00 0.  1.
</event>
<event>
 8    1  0.4042158E-011  0.9118800E+02  0.7816164E-02  0.1184000E+00
        -11   -1    0    0    0    0  0.00000000000E+00  0.00000000000E+00  0.45593999997E+02  0.45594000000E+02  0.51100000000E-03 0. -1.
         11   -1    0    0    0    0 -0.00000000000E+00 -0.00000000000E+00 -0.45593999997E+02  0.45594000000E+02  0.51100000000E-03 0.  1.
         23    2    1    2    0    0  0.35527136788E-14 -0.35527136788E-14  0.00000000000E+00  0.91188000000E+02  0.91188000000E+02 0.  0.
    9900012    2    3    3    0    0  0.31162429574E+02  0.30106206413E+02 -0.24784145279E+01  0.47787271663E+02  0.20000002822E+02 0.  0.
        -12    1    3    3    0    0 -0.31162429574E+02 -0.30106206413E+02  0.24784145279E+01  0.43400728337E+02  0.00000000000E+00 0.  1.
         11    1    4    4    0    0  0.21403708849E+02  0.20204381508E+02  0.74774970323E+01  0.30368548644E+02  0.51100000000E-03 0. -1.
        -11    1    4    4    0    0  0.32288585548E+01  0.46782921826E+01 -0.24790516844E+01  0.62014226455E+01  0.51100000000E-03 0.  1.
         12    1    4    4    0    0  0.65298621706E+01  0.52235327224E+01 -0.74768598757E+01  0.11217300374E+02  0.00000000000E+00 0. -1.
</event>
<event>
 8    1  0.4042158E-011  0.9118800E+02  0.7816164E-02  0.1184000E+00
        -11   -1    0    0    0    0  0.00000000000E+00  0.00000000000E+00  0.45593999997E+02  0.45594000000E+02  0.51100000000E-03 0. -1.
         11   -1    0    0    0    0 -0.00000000000E+00 -0.00000000000E+00 -0.45593999997E+02  0.45594000000E+02  0.51100000000E-03 0.  1.
         23    2    1    2    0    0  0.35527136788E-14  0.22204460493E-15 -0.71054273576E-14  0.91188000000E+02  0.91188000000E+02 0.  0.
    9900012    2    3    3    0    0  0.21893580101E+02  0.10575143167E+01 -0.37458994506E+02  0.47787268951E+02  0.19999990454E+02 0.  0.
         12    1    3    3    0    0 -0.21893580101E+02 -0.10575143167E+01  0.37458994506E+02  0.43400731049E+02  0.00000000000E+00 0. -1.
         11    1    4    4    0    0 -0.16323357194E+01 -0.89133278191E+00 -0.63144225397E+00  0.19641063133E+01  0.51100000000E-03 0. -1.
        -11    1    4    4    0    0  0.20081867006E+01 -0.42038100783E+00  0.96684701842E+00  0.22681109837E+01  0.51100000000E-03 0.  1.
        -12    1    4    4    0    0  0.21517729120E+02  0.23692281064E+01 -0.37794399271E+02  0.43555051654E+02  0.00000000000E+00 0.  1.
</event>
<event>
 8    1  0.4042158E-011  0.9118800E+02  0.7816164E-02  0.1184000E+00
        -11   -1    0    0    0    0  0.00000000000E+00  0.00000000000E+00  0.45593999997E+02  0.45594000000E+02  0.51100000000E-03 0. -1.
         11   -1    0    0    0    0 -0.00000000000E+00 -0.00000000000E+00 -0.45593999997E+02  0.45594000000E+02  0.51100000000E-03 0.  1.
         23    2    1    2    0    0  0.00000000000E+00  0.00000000000E+00 -0.35527136788E-14  0.91188000000E+02  0.91188000000E+02 0.  0.
    9900012    2    3    3    0    0 -0.16792747043E+02  0.35522178206E+02 -0.18433690153E+02  0.47787280762E+02  0.20000044305E+02 0.  0.
         12    1    3    3    0    0  0.16792747043E+02 -0.35522178206E+02  0.18433690153E+02  0.43400719238E+02  0.00000000000E+00 0. -1.
         11    1    4    4    0    0 -0.18633635677E+02  0.33009693223E+02 -0.17880993717E+02  0.41911599370E+02  0.51100000000E-03 0.  1.
        -11    1    4    4    0    0 -0.13858725953E+01 -0.27628624917E-03 -0.10733723575E+01  0.17529322307E+01  0.51100000000E-03 0. -1.
        -12    1    4    4    0    0  0.32267612292E+01  0.25127612696E+01  0.52067592141E+00  0.41227491609E+01  0.00000000000E+00 0.  1.
</event>
<event>
 8    1  0.4042158E-011  0.9118800E+02  0.7816164E-02  0.1184000E+00
        -11   -1    0    0    0    0  0.00000000000E+00  0.00000000000E+00  0.45593999997E+02  0.45594000000E+02  0.51100000000E-03 0. -1.
         11   -1    0    0    0    0 -0.00000000000E+00 -0.00000000000E+00 -0.45593999997E+02  0.45594000000E+02  0.51100000000E-03 0.  1.
         23    2    1    2    0    0  0.13322676296E-14  0.00000000000E+00  0.71054273576E-14  0.91188000000E+02  0.91188000000E+02 0.  0.
    9900012    2    3    3    0    0 -0.27577894118E+01 -0.89583834718E+01  0.42376467140E+02  0.47787274152E+02  0.20000014170E+02 0.  0.
        -12    1    3    3    0    0  0.27577894118E+01  0.89583834718E+01 -0.42376467140E+02  0.43400725848E+02  0.00000000000E+00 0.  1.
         11    1    4    4    0    0  0.79015281745E+00 -0.52030318761E+01  0.51036726858E+01  0.73309861085E+01  0.51100000000E-03 0. -1.
        -11    1    4    4    0    0  0.35694561349E+01  0.28712958685E+01  0.51444842617E+01  0.68884741157E+01  0.51100000000E-03 0.  1.
         12    1    4    4    0    0 -0.71173983641E+01 -0.66266474642E+01  0.32128310192E+02  0.33567813928E+02  0.00000000000E+00 0. -1.
</event>
<event>
 8    1  0.4042158E-011  0.9118800E+02  0.7816164E-02  0.1184000E+00
        -11   -1    0    0    0    0  0.00000000000E+00  0.00000000000E+00  0.45593999997E+02  0.45594000000E+02  0.51100000000E-03 0. -1.
         11   -1    0    0    0    0 -0.00000000000E+00 -0.00000000000E+00 -0.45593999997E+02  0.45594000000E+02  0.51100000000E-03 0.  1.
         23    2    1    2    0    0  0.17763568394E-14  0.00000000000E+00  0.00000000000E+00  0.91188000000E+02  0.91188000000E+02 0.  0.
    9900012    2    3    3    0    0  0.14136992742E+02 -0.26198164813E+02 -0.31582039578E+02  0.47787266973E+02  0.19999981438E+02 0.  0.
         12    1    3    3    0    0 -0.14136992742E+02  0.26198164813E+02  0.31582039578E+02  0.43400733027E+02  0.00000000000E+00 0. -1.
         11    1    4    4    0    0 -0.83689166396E+00 -0.96691940876E+01 -0.70273286787E+01  0.11982364148E+02  0.51100000000E-03 0.  1.
        -11    1    4    4    0    0  0.27209131311E+01 -0.85963270384E+00  0.13397888801E+01  0.31523596174E+01  0.51100000000E-03 0. -1.
         12    1    4    4    0    0  0.12252971275E+02 -0.15669338021E+02 -0.25894499780E+02  0.32652543208E+02  0.00000000000E+00 0. -1.
</event>
<event>
 8    1  0.4042158E-011  0.9118800E+02  0.7816164E-02  0.1184000E+00
        -11   -1    0    0    0    0  0.00000000000E+00  0.00000000000E+00  0.45593999997E+02  0.45594000000E+02  0.51100000000E-03 0. -1.
         11   -1    0    0    0    0 -0.00000000000E+00 -0.00000000000E+00 -0.45593999997E+02  0.45594000000E+02  0.51100000000E-03 0.  1.
         23    2    1    2    0    0 -0.35527136788E-14  0.00000000000E+00  0.00000000000E+00  0.91188000000E+02  0.91188000000E+02 0.  0.
    9900012    2    3    3    0    0  0.21558685762E+02  0.36572055919E+02 -0.90183771060E+01  0.47787270380E+02  0.19999996971E+02 0.  0.
         12    1    3    3    0    0 -0.21558685762E+02 -0.36572055919E+02  0.90183771060E+01  0.43400729620E+02  0.00000000000E+00 0. -1.
         11    1    4    4    0    0 -0.81703118667E-01 -0.27078189591E+00 -0.24383059698E+01  0.24546556781E+01  0.51100000000E-03 0. -1.
        -11    1    4    4    0    0  0.27603402059E+01  0.53769712269E+00 -0.32182764212E+01  0.42738623787E+01  0.51100000000E-03 0.  1.
        -12    1    4    4    0    0  0.18880048674E+02  0.36305140692E+02 -0.33617947151E+01  0.41058752323E+02  0.00000000000E+00 0.  1.
</event>
<event>
 8    1  0.4042158E-011  0.9118800E+02  0.7816164E-02  0.1184000E+00
        -11   -1    0    0    0    0  0.00000000000E+00  0.00000000000E+00  0.45593999997E+02  0.45594000000E+02  0.51100000000E-03 0. -1.
         11   -1    0    0    0    0 -0.00000000000E+00 -0.00000000000E+00 -0.45593999997E+02  0.45594000000E+02  0.51100000000E-03 0.  1.
         23    2    1    2    0    0  0.00000000000E+00  0.00000000000E+00  0.00000000000E+00  0.91188000000E+02  0.91188000000E+02 0.  0.
    9900012    2    3    3    0    0  0.21050604221E+02 -0.30941392372E+02 -0.21980120331E+02  0.47787269709E+02  0.19999993913E+02 0.  0.
         12    1    3    3    0    0 -0.21050604221E+02  0.30941392372E+02  0.21980120331E+02  0.43400730291E+02  0.00000000000E+00 0. -1.
         11    1    4    4    0    0  0.56284623885E+00  0.10382680198E+01 -0.25296725517E+01  0.27917807667E+01  0.51100000000E-03 0. -1.
        -11    1    4    4    0    0  0.14439863026E+02 -0.19175998281E+02 -0.19353737114E+02  0.30834975188E+02  0.51100000000E-03 0.  1.
        -12    1    4    4    0    0  0.60478949554E+01 -0.12803662111E+02 -0.96710665096E-01  0.14160513755E+02  0.00000000000E+00 0.  1.
</event>
<event>
 8    1  0.4042158E-011  0.9118800E+02  0.7816164E-02  0.1184000E+00
        -11   -1    0    0    0    0  0.00000000000E+00  0.00000000000E+00  0.45593999997E+02  0.45594000000E+02  0.51100000000E-03 0. -1.
         11   -1    0    0    0    0 -0.00000000000E+00 -0.00000000000E+00 -0.45593999997E+02  0.45594000000E+02  0.51100000000E-03 0.  1.
         23    2    1    2    0    0  0.00000000000E+00  0.00000000000E+00  0.71054273576E-14  0.91188000000E+02  0.91188000000E+02 0.  0.
    9900012    2    3    3    0    0 -0.10195383323E+02  0.12841956515E+02 -0.40184097239E+02  0.47787270062E+02  0.19999995519E+02 0.  0.
         12    1    3    3    0    0  0.10195383323E+02 -0.12841956515E+02  0.40184097239E+02  0.43400729938E+02  0.00000000000E+00 0. -1.
         11    1    4    4    0    0 -0.65389122021E+01  0.78288076663E+01 -0.26041809434E+02  0.27968257742E+02  0.51100000000E-03 0. -1.
        -11    1    4    4    0    0 -0.44656710758E+01  0.42888583594E+01 -0.16281970642E+02  0.17419503220E+02  0.51100000000E-03 0.  1.
         12    1    4    4    0    0  0.80919995446E+00  0.72429048968E+00  0.21396828366E+01  0.23995091000E+01  0.00000000000E+00 0. -1.
</event>
<event>
 8    1  0.4042158E-011  0.9118800E+02  0.7816164E-02  0.1184000E+00
        -11   -1    0    0    0    0  0.00000000000E+00  0.00000000000E+00  0.45593999997E+02  0.45594000000E+02  0.51100000000E-03 0. -1.
         11   -1    0    0    0    0 -0.00000000000E+00 -0.00000000000E+00 -0.45593999997E+02  0.45594000000E+02  0.51100000000E-03 0.  1.
         23    2    1    2    0    0  0.35527136788E-14 -0.88817841970E-15  0.00000000000E+00  0.91188000000E+02  0.91188000000E+02 0.  0.
    9900012    2    3    3    0    0  0.26325421729E+02  0.48204374074E+01 -0.34166634596E+02  0.47787269987E+02  0.19999995181E+02 0.  0.
         12    1    3    3    0    0 -0.26325421729E+02 -0.48204374074E+01  0.34166634596E+02  0.43400730013E+02  0.00000000000E+00 0. -1.
         11    1    4    4    0    0  0.12979900477E+02  0.68011754272E+01 -0.18113242919E+02  0.23298570190E+02  0.51100000000E-03 0. -1.
        -11    1    4    4    0    0  0.22262868491E+01 -0.46835395530E+01 -0.10625912871E+02  0.11823786216E+02  0.51100000000E-03 0.  1.
         12    1    4    4    0    0  0.11119234403E+02  0.27028015332E+01 -0.54274788053E+01  0.12664913581E+02  0.00000000000E+00 0. -1.
</event>
<event>
 8    1  0.4042158E-011  0.9118800E+02  0.7816164E-02  0.1184000E+00
        -11   -1    0    0    0    0  0.00000000000E+00  0.00000000000E+00  0.45593999997E+02  0.45594000000E+02  0.51100000000E-03 0. -1.
         11   -1    0    0    0    0 -0.00000000000E+00 -0.00000000000E+00 -0.45593999997E+02  0.45594000000E+02  0.51100000000E-03 0.  1.
         23    2    1    2    0    0  0.00000000000E+00  0.00000000000E+00  0.00000000000E+00  0.91188000000E+02  0.91188000000E+02 0.  0.
    9900012    2    3    3    0    0  0.23537621676E+02 -0.10778526880E+02  0.34834329877E+02  0.47787230262E+02  0.19999814056E+02 0.  0.
        -12    1    3    3    0    0 -0.23537621676E+02  0.10778526880E+02 -0.34834329877E+02  0.43400769738E+02  0.00000000000E+00 0.  1.
         11    1    4    4    0    0  0.32621992575E+01 -0.61431642266E+01  0.17984782788E+01  0.71843534915E+01  0.51100000000E-03 0. -1.
        -11    1    4    4    0    0 -0.69188009175E+00 -0.18261564436E+01  0.57781662066E+01  0.60992417882E+01  0.51100000000E-03 0.  1.
         12    1    4    4    0    0  0.20967302510E+02 -0.28092062098E+01  0.27257685392E+02  0.34503634982E+02  0.00000000000E+00 0. -1.
</event>
<event>
 8    1  0.4042158E-011  0.9118800E+02  0.7816164E-02  0.1184000E+00
        -11   -1    0    0    0    0  0.00000000000E+00  0.00000000000E+00  0.45593999997E+02  0.45594000000E+02  0.51100000000E-03 0. -1.
         11   -1    0    0    0    0 -0.00000000000E+00 -0.00000000000E+00 -0.45593999997E+02  0.45594000000E+02  0.51100000000E-03 0.  1.
         23    2    1    2    0    0  0.71054273576E-14  0.88817841970E-15  0.00000000000E+00  0.91188000000E+02  0.91188000000E+02 0.  0.
    9900012    2    3    3    0    0 -0.39795271428E+02  0.77941834861E+01 -0.15466430054E+02  0.47787269789E+02  0.19999994274E+02 0.  0.
         12    1    3    3    0    0  0.39795271428E+02 -0.77941834861E+01  0.15466430054E+02  0.43400730211E+02  0.00000000000E+00 0. -1.
         11    1    4    4    0    0 -0.81009070803E+01 -0.15582143434E+00 -0.23896401622E+00  0.81059286886E+01  0.51100000000E-03 0. -1.
        -11    1    4    4    0    0 -0.24061137818E+01  0.12962830909E+01 -0.84644927865E+01  0.88947946450E+01  0.51100000000E-03 0.  1.
        -12    1    4    4    0    0 -0.29288250566E+02  0.66537218295E+01 -0.67629732511E+01  0.30786546455E+02  0.00000000000E+00 0.  1.
</event>
<event>
 8    1  0.4042158E-011  0.9118800E+02  0.7816164E-02  0.1184000E+00
        -11   -1    0    0    0    0  0.00000000000E+00  0.00000000000E+00  0.45593999997E+02  0.45594000000E+02  0.51100000000E-03 0. -1.
         11   -1    0    0    0    0 -0.00000000000E+00 -0.00000000000E+00 -0.45593999997E+02  0.45594000000E+02  0.51100000000E-03 0.  1.
         23    2    1    2    0    0  0.00000000000E+00  0.00000000000E+00  0.00000000000E+00  0.91188000000E+02  0.91188000000E+02 0.  0.
    9900012    2    3    3    0    0  0.37171923705E+02  0.12779280852E+02 -0.18400031590E+02  0.47787273122E+02  0.20000009473E+02 0.  0.
         12    1    3    3    0    0 -0.37171923705E+02 -0.12779280852E+02  0.18400031590E+02  0.43400726878E+02  0.00000000000E+00 0. -1.
         11    1    4    4    0    0  0.21222832931E+01  0.36426427495E+01 -0.58666728606E+01  0.72243188808E+01  0.51100000000E-03 0. -1.
        -11    1    4    4    0    0  0.11475444558E+02 -0.30976474070E+01 -0.54424467275E+01  0.13072929049E+02  0.51100000000E-03 0.  1.
         12    1    4    4    0    0  0.23574195853E+02  0.12234285510E+02 -0.70909120022E+01  0.27490025192E+02  0.00000000000E+00 0. -1.
</event>
<event>
 8    1  0.4042158E-011  0.9118800E+02  0.7816164E-02  0.1184000E+00
        -11   -1    0    0    0    0  0.00000000000E+00  0.00000000000E+00  0.45593999997E+02  0.45594000000E+02  0.51100000000E-03 0. -1.
         11   -1    0    0    0    0 -0.00000000000E+00 -0.00000000000E+00 -0.45593999997E+02  0.45594000000E+02  0.51100000000E-03 0.  1.
         23    2    1    2    0    0  0.00000000000E+00  0.17763568394E-14  0.00000000000E+00  0.91188000000E+02  0.91188000000E+02 0.  0.
    9900012    2    3    3    0    0  0.21803737580E+02 -0.14966483738E+02  0.34412565745E+02  0.47787270869E+02  0.19999999201E+02 0.  0.
        -12    1    3    3    0    0 -0.21803737580E+02  0.14966483738E+02 -0.34412565745E+02  0.43400729131E+02  0.00000000000E+00 0.  1.
         11    1    4    4    0    0  0.90864897851E+01 -0.54177443807E+01  0.13486371102E+02  0.17140550065E+02  0.51100000000E-03 0. -1.
        -11    1    4    4    0    0  0.58058608746E+01 -0.11568780187E+02  0.64129826065E+01  0.14445450553E+02  0.51100000000E-03 0.  1.
         12    1    4    4    0    0  0.69113869207E+01  0.20200408297E+01  0.14513212037E+02  0.16201270251E+02  0.00000000000E+00 0. -1.
</event>
<event>
 8    1  0.4042158E-011  0.9118800E+02  0.7816164E-02  0.1184000E+00
        -11   -1    0    0    0    0  0.00000000000E+00  0.00000000000E+00  0.45593999997E+02  0.45594000000E+02  0.51100000000E-03 0. -1.
         11   -1    0    0    0    0 -0.00000000000E+00 -0.00000000000E+00 -0.45593999997E+02  0.45594000000E+02  0.51100000000E-03 0.  1.
         23    2    1    2    0    0  0.00000000000E+00 -0.22204460493E-15  0.00000000000E+00  0.91188000000E+02  0.91188000000E+02 0.  0.
    9900012    2    3    3    0    0  0.19192948851E+02 -0.11275996441E+01 -0.38909932447E+02  0.47787267177E+02  0.19999982367E+02 0.  0.
         12    1    3    3    0    0 -0.19192948851E+02  0.11275996441E+01  0.38909932447E+02  0.43400732823E+02  0.00000000000E+00 0. -1.
         11    1    4    4    0    0  0.43318541148E+01  0.46178873241E+01 -0.74650477714E+01  0.97886046963E+01  0.51100000000E-03 0. -1.
        -11    1    4    4    0    0  0.14654278420E+02 -0.15039621514E+01 -0.15038143904E+02  0.21051260069E+02  0.51100000000E-03 0.  1.
         12    1    4    4    0    0  0.20681631611E+00 -0.42415248168E+01 -0.16406740772E+02  0.16947402412E+02  0.00000000000E+00 0. -1.
</event>
<event>
 8    1  0.4042158E-011  0.9118800E+02  0.7816164E-02  0.1184000E+00
        -11   -1    0    0    0    0  0.00000000000E+00  0.00000000000E+00  0.45593999997E+02  0.45594000000E+02  0.51100000000E-03 0. -1.
         11   -1    0    0    0    0 -0.00000000000E+00 -0.00000000000E+00 -0.45593999997E+02  0.45594000000E+02  0.51100000000E-03 0.  1.
         23    2    1    2    0    0  0.66613381478E-15  0.00000000000E+00 -0.35527136788E-14  0.91188000000E+02  0.91188000000E+02 0.  0.
    9900012    2    3    3    0    0  0.18405451949E+01 -0.33199512297E+02 -0.27893156445E+02  0.47787269593E+02  0.19999993384E+02 0.  0.
         12    1    3    3    0    0 -0.18405451949E+01  0.33199512297E+02  0.27893156445E+02  0.43400730407E+02  0.00000000000E+00 0. -1.
         11    1    4    4    0    0 -0.46201201478E+01 -0.15668627584E+02 -0.17215264992E+02  0.23732188048E+02  0.51100000000E-03 0. -1.
        -11    1    4    4    0    0  0.11610837986E+01 -0.15991693231E+02 -0.81154177410E+01  0.17970597468E+02  0.51100000000E-03 0.  1.
        -12    1    4    4    0    0  0.52995815441E+01 -0.15391914816E+01 -0.25624737119E+01  0.60844840770E+01  0.00000000000E+00 0.  1.
</event>
<event>
 8    1  0.4042158E-011  0.9118800E+02  0.7816164E-02  0.1184000E+00
        -11   -1    0    0    0    0  0.00000000000E+00  0.00000000000E+00  0.45593999997E+02  0.45594000000E+02  0.51100000000E-03 0. -1.
         11   -1    0    0    0    0 -0.00000000000E+00 -0.00000000000E+00 -0.45593999997E+02  0.45594000000E+02  0.51100000000E-03 0.  1.
         23    2    1    2    0    0 -0.88817841970E-15 -0.22204460493E-15  0.00000000000E+00  0.91188000000E+02  0.91188000000E+02 0.  0.
    9900012    2    3    3    0    0  0.78151473149E+01 -0.11284607046E+01 -0.42676420464E+02  0.47787230252E+02  0.19999814011E+02 0.  0.
         12    1    3    3    0    0 -0.78151473149E+01  0.11284607046E+01  0.42676420464E+02  0.43400769748E+02  0.00000000000E+00 0. -1.
         11    1    4    4    0    0  0.29934856051E+01  0.30337856085E+00 -0.10882597515E+02  0.11290877891E+02  0.51100000000E-03 0. -1.
        -11    1    4    4    0    0 -0.28095535509E+01  0.13638562800E+01  0.52888260993E+00  0.31675561849E+01  0.51100000000E-03 0.  1.
        -12    1    4    4    0    0  0.76312152607E+01 -0.27956955454E+01 -0.32322705559E+02  0.33328796176E+02  0.00000000000E+00 0.  1.
</event>
<event>
 8    1  0.4042158E-011  0.9118800E+02  0.7816164E-02  0.1184000E+00
        -11   -1    0    0    0    0  0.00000000000E+00  0.00000000000E+00  0.45593999997E+02  0.45594000000E+02  0.51100000000E-03 0.  1.
         11   -1    0    0    0    0 -0.00000000000E+00 -0.00000000000E+00 -0.45593999997E+02  0.45594000000E+02  0.51100000000E-03 0. -1.
         23    2    1    2    0    0  0.00000000000E+00  0.00000000000E+00 -0.88817841970E-15  0.91188000000E+02  0.91188000000E+02 0.  0.
    9900012    2    3    3    0    0  0.23032142653E+02  0.35941745740E+02  0.78316501744E+01  0.47787269287E+02  0.19999991985E+02 0.  0.
        -12    1    3    3    0    0 -0.23032142653E+02 -0.35941745740E+02 -0.78316501744E+01  0.43400730713E+02  0.00000000000E+00 0.  1.
         11    1    4    4    0    0  0.43666108950E+01  0.10779001804E+02 -0.16373572386E+01  0.11744577881E+02  0.51100000000E-03 0. -1.
        -11    1    4    4    0    0 -0.15461748185E+01  0.82523096917E+01  0.29088002528E+01  0.88855157975E+01  0.51100000000E-03 0.  1.
        -12    1    4    4    0    0  0.20211706577E+02  0.16910434244E+02  0.65602071602E+01  0.27157175608E+02  0.00000000000E+00 0.  1.
</event>
<event>
 8    1  0.4042158E-011  0.9118800E+02  0.7816164E-02  0.1184000E+00
        -11   -1    0    0    0    0  0.00000000000E+00  0.00000000000E+00  0.45593999997E+02  0.45594000000E+02  0.51100000000E-03 0. -1.
         11   -1    0    0    0    0 -0.00000000000E+00 -0.00000000000E+00 -0.45593999997E+02  0.45594000000E+02  0.51100000000E-03 0.  1.
         23    2    1    2    0    0  0.00000000000E+00  0.17763568394E-14  0.00000000000E+00  0.91188000000E+02  0.91188000000E+02 0.  0.
    9900012    2    3    3    0    0  0.84481708463E+01  0.12003284212E+02 -0.40843274165E+02  0.47787268819E+02  0.19999989855E+02 0.  0.
         12    1    3    3    0    0 -0.84481708463E+01 -0.12003284212E+02  0.40843274165E+02  0.43400731181E+02  0.00000000000E+00 0. -1.
         11    1    4    4    0    0 -0.15124894239E+01  0.57746876024E+01 -0.37449002676E+01  0.70469085021E+01  0.51100000000E-03 0. -1.
        -11    1    4    4    0    0 -0.19032429311E+01  0.37794354649E+01 -0.14435707029E+02  0.15043141420E+02  0.51100000000E-03 0.  1.
        -12    1    4    4    0    0  0.11863903201E+02  0.24491611443E+01 -0.22662666868E+02  0.25697218897E+02  0.00000000000E+00 0.  1.
</event>
<event>
 8    1  0.4042158E-011  0.9118800E+02  0.7816164E-02  0.1184000E+00
        -11   -1    0    0    0    0  0.00000000000E+00  0.00000000000E+00  0.45593999997E+02  0.45594000000E+02  0.51100000000E-03 0. -1.
         11   -1    0    0    0    0 -0.00000000000E+00 -0.00000000000E+00 -0.45593999997E+02  0.45594000000E+02  0.51100000000E-03 0.  1.
         23    2    1    2    0    0  0.00000000000E+00  0.35527136788E-14  0.13322676296E-14  0.91188000000E+02  0.91188000000E+02 0.  0.
    9900012    2    3    3    0    0 -0.30741510534E+02  0.30428946852E+02  0.35583583311E+01  0.47787272005E+02  0.20000004381E+02 0.  0.
        -12    1    3    3    0    0  0.30741510534E+02 -0.30428946852E+02 -0.35583583311E+01  0.43400727995E+02  0.00000000000E+00 0.  1.
         11    1    4    4    0    0 -0.95776497173E+01  0.25410332637E+01  0.22334763782E+01  0.10157590322E+02  0.51100000000E-03 0. -1.
        -11    1    4    4    0    0 -0.42976590746E+01  0.11303343569E+02  0.60289679544E+01  0.13512361164E+02  0.51100000000E-03 0.  1.
         12    1    4    4    0    0 -0.16866201742E+02  0.16584570019E+02 -0.47040860015E+01  0.24117320520E+02  0.00000000000E+00 0. -1.
</event>
<event>
 8    1  0.4042158E-011  0.9118800E+02  0.7816164E-02  0.1184000E+00
        -11   -1    0    0    0    0  0.00000000000E+00  0.00000000000E+00  0.45593999997E+02  0.45594000000E+02  0.51100000000E-03 0. -1.
         11   -1    0    0    0    0 -0.00000000000E+00 -0.00000000000E+00 -0.45593999997E+02  0.45594000000E+02  0.51100000000E-03 0.  1.
         23    2    1    2    0    0  0.00000000000E+00  0.00000000000E+00  0.00000000000E+00  0.91188000000E+02  0.91188000000E+02 0.  0.
    9900012    2    3    3    0    0  0.21123832020E+02 -0.17380643972E+02  0.33694514021E+02  0.47787270292E+02  0.19999996570E+02 0.  0.
        -12    1    3    3    0    0 -0.21123832020E+02  0.17380643972E+02 -0.33694514021E+02  0.43400729708E+02  0.00000000000E+00 0.  1.
         11    1    4    4    0    0  0.82341218863E+01 -0.43847259884E+01  0.18182137322E+02  0.20435672318E+02  0.51100000000E-03 0. -1.
        -11    1    4    4    0    0 -0.23850726274E+01 -0.25903913045E+01  0.49167675233E+01  0.60475864350E+01  0.51100000000E-03 0.  1.
        -12    1    4    4    0    0  0.15274782761E+02 -0.10405526680E+02  0.10595609176E+02  0.21304011539E+02  0.00000000000E+00 0.  1.
</event>
<event>
 8    1  0.4042158E-011  0.9118800E+02  0.7816164E-02  0.1184000E+00
        -11   -1    0    0    0    0  0.00000000000E+00  0.00000000000E+00  0.45593999997E+02  0.45594000000E+02  0.51100000000E-03 0. -1.
         11   -1    0    0    0    0 -0.00000000000E+00 -0.00000000000E+00 -0.45593999997E+02  0.45594000000E+02  0.51100000000E-03 0.  1.
         23    2    1    2    0    0 -0.22204460493E-15 -0.22204460493E-15  0.00000000000E+00  0.91188000000E+02  0.91188000000E+02 0.  0.
    9900012    2    3    3    0    0  0.19157829705E+01  0.17774307777E+01 -0.43321978288E+02  0.47787270889E+02  0.19999999292E+02 0.  0.
         12    1    3    3    0    0 -0.19157829705E+01 -0.17774307777E+01  0.43321978288E+02  0.43400729111E+02  0.00000000000E+00 0. -1.
         11    1    4    4    0    0  0.12010335607E+01  0.35438993561E+01 -0.89697321861E+01  0.97189402721E+01  0.51100000000E-03 0. -1.
        -11    1    4    4    0    0  0.75131298520E+01  0.28440887279E+01 -0.14360383346E+02  0.16454682342E+02  0.51100000000E-03 0.  1.
         12    1    4    4    0    0 -0.67983804422E+01 -0.46105573062E+01 -0.19991862756E+02  0.21613648275E+02  0.00000000000E+00 0. -1.
</event>
<event>
 8    1  0.4042158E-011  0.9118800E+02  0.7816164E-02  0.1184000E+00
        -11   -1    0    0    0    0  0.00000000000E+00  0.00000000000E+00  0.45593999997E+02  0.45594000000E+02  0.51100000000E-03 0. -1.
         11   -1    0    0    0    0 -0.00000000000E+00 -0.00000000000E+00 -0.45593999997E+02  0.45594000000E+02  0.51100000000E-03 0.  1.
         23    2    1    2    0    0  0.00000000000E+00  0.00000000000E+00  0.00000000000E+00  0.91188000000E+02  0.91188000000E+02 0.  0.
    9900012    2    3    3    0    0  0.26212839507E+02  0.91401471954E+01 -0.33361174196E+02  0.47787272016E+02  0.20000004431E+02 0.  0.
         12    1    3    3    0    0 -0.26212839507E+02 -0.91401471954E+01  0.33361174196E+02  0.43400727984E+02  0.00000000000E+00 0. -1.
         11    1    4    4    0    0  0.52347482536E+01 -0.26932531308E+01 -0.13548853985E+02  0.14772530124E+02  0.51100000000E-03 0. -1.
        -11    1    4    4    0    0  0.87283388505E+01  0.17751002352E+01 -0.13009382529E+02  0.15766385571E+02  0.51100000000E-03 0.  1.
        -12    1    4    4    0    0  0.12249752403E+02  0.10058300091E+02 -0.68029376821E+01  0.17248356321E+02  0.00000000000E+00 0.  1.
</event>
<event>
 8    1  0.4042158E-011  0.9118800E+02  0.7816164E-02  0.1184000E+00
        -11   -1    0    0    0    0  0.00000000000E+00  0.00000000000E+00  0.45593999997E+02  0.45594000000E+02  0.51100000000E-03 0.  1.
         11   -1    0    0    0    0 -0.00000000000E+00 -0.00000000000E+00 -0.45593999997E+02  0.45594000000E+02  0.51100000000E-03 0. -1.
         23    2    1    2    0    0  0.17763568394E-14  0.00000000000E+00  0.17763568394E-14  0.91188000000E+02  0.91188000000E+02 0.  0.
    9900012    2    3    3    0    0 -0.13382330155E+02 -0.39033633172E+02  0.13450348294E+02  0.47787272492E+02  0.20000006599E+02 0.  0.
        -12    1    3    3    0    0  0.13382330155E+02  0.39033633172E+02 -0.13450348294E+02  0.43400727508E+02  0.00000000000E+00 0.  1.
         11    1    4    4    0    0 -0.10617910893E+02 -0.23155214745E+02  0.19330548904E+01  0.25546833524E+02  0.51100000000E-03 0.  1.
        -11    1    4    4    0    0 -0.11034332786E+01 -0.37753412654E+01 -0.16619772974E+01  0.42700041533E+01  0.51100000000E-03 0. -1.
        -12    1    4    4    0    0 -0.16609859835E+01 -0.12103077162E+02  0.13179270701E+02  0.17970434815E+02  0.00000000000E+00 0.  1.
</event>
<event>
 8    1  0.4042158E-011  0.9118800E+02  0.7816164E-02  0.1184000E+00
        -11   -1    0    0    0    0  0.00000000000E+00  0.00000000000E+00  0.45593999997E+02  0.45594000000E+02  0.51100000000E-03 0.  1.
         11   -1    0    0    0    0 -0.00000000000E+00 -0.00000000000E+00 -0.45593999997E+02  0.45594000000E+02  0.51100000000E-03 0. -1.
         23    2    1    2    0    0  0.71054273576E-14  0.00000000000E+00  0.00000000000E+00  0.91188000000E+02  0.91188000000E+02 0.  0.
    9900012    2    3    3    0    0 -0.41886296949E+02  0.98785749178E+01 -0.56191751894E+01  0.47787271385E+02  0.20000001552E+02 0.  0.
         12    1    3    3    0    0  0.41886296949E+02 -0.98785749178E+01  0.56191751894E+01  0.43400728615E+02  0.00000000000E+00 0. -1.
         11    1    4    4    0    0  0.56742235123E+00  0.14684152893E+01 -0.17573513581E+01  0.23593422057E+01  0.51100000000E-03 0. -1.
        -11    1    4    4    0    0 -0.18887330238E+02  0.99257487883E+01 -0.44924128878E+01  0.21804437767E+02  0.51100000000E-03 0.  1.
        -12    1    4    4    0    0 -0.23566389063E+02 -0.15155891598E+01  0.63058905642E+00  0.23623491412E+02  0.00000000000E+00 0.  1.
</event>
<event>
 8    1  0.4042158E-011  0.9118800E+02  0.7816164E-02  0.1184000E+00
        -11   -1    0    0    0    0  0.00000000000E+00  0.00000000000E+00  0.45593999997E+02  0.45594000000E+02  0.51100000000E-03 0. -1.
         11   -1    0    0    0    0 -0.00000000000E+00 -0.00000000000E+00 -0.45593999997E+02  0.45594000000E+02  0.51100000000E-03 0.  1.
         23    2    1    2    0    0  0.00000000000E+00  0.00000000000E+00 -0.35527136788E-14  0.91188000000E+02  0.91188000000E+02 0.  0.
    9900012    2    3    3    0    0 -0.34124484816E+02  0.16009319551E+02 -0.21513814289E+02  0.47787274410E+02  0.20000015347E+02 0.  0.
         12    1    3    3    0    0  0.34124484816E+02 -0.16009319551E+02  0.21513814289E+02  0.43400725590E+02  0.00000000000E+00 0. -1.
         11    1    4    4    0    0  0.14471790858E+01  0.19570873775E+00 -0.36010550457E+01  0.38859010435E+01  0.51100000000E-03 0. -1.
        -11    1    4    4    0    0 -0.22780622318E+01 -0.12654881623E+01 -0.17631370560E+01  0.31463757500E+01  0.51100000000E-03 0.  1.
        -12    1    4    4    0    0 -0.33293601670E+02  0.17079098976E+02 -0.16149622187E+02  0.40754997617E+02  0.00000000000E+00 0.  1.
</event>
<event>
 8    1  0.4042158E-011  0.9118800E+02  0.7816164E-02  0.1184000E+00
        -11   -1    0    0    0    0  0.00000000000E+00  0.00000000000E+00  0.45593999997E+02  0.45594000000E+02  0.51100000000E-03 0. -1.
         11   -1    0    0    0    0 -0.00000000000E+00 -0.00000000000E+00 -0.45593999997E+02  0.45594000000E+02  0.51100000000E-03 0.  1.
         23    2    1    2    0    0  0.00000000000E+00  0.00000000000E+00  0.00000000000E+00  0.91188000000E+02  0.91188000000E+02 0.  0.
    9900012    2    3    3    0    0 -0.40194950577E+02  0.20352823440E+01  0.16243361747E+02  0.47787271585E+02  0.20000002467E+02 0.  0.
        -12    1    3    3    0    0  0.40194950577E+02 -0.20352823440E+01 -0.16243361747E+02  0.43400728415E+02  0.00000000000E+00 0.  1.
         11    1    4    4    0    0 -0.84443353297E+01 -0.56590130593E+00 -0.40071009757E+01  0.93639682795E+01  0.51100000000E-03 0. -1.
        -11    1    4    4    0    0 -0.81073205342E+01 -0.24260660344E+01  0.58372835777E+01  0.10280482599E+02  0.51100000000E-03 0.  1.
         12    1    4    4    0    0 -0.23643294713E+02  0.50272496843E+01  0.14413179145E+02  0.28142820707E+02  0.00000000000E+00 0. -1.
</event>
<event>
 8    1  0.4042158E-011  0.9118800E+02  0.7816164E-02  0.1184000E+00
        -11   -1    0    0    0    0  0.00000000000E+00  0.00000000000E+00  0.45593999997E+02  0.45594000000E+02  0.51100000000E-03 0. -1.
         11   -1    0    0    0    0 -0.00000000000E+00 -0.00000000000E+00 -0.45593999997E+02  0.45594000000E+02  0.51100000000E-03 0.  1.
         23    2    1    2    0    0  0.00000000000E+00  0.00000000000E+00  0.00000000000E+00  0.91188000000E+02  0.91188000000E+02 0.  0.
    9900012    2    3    3    0    0  0.94287210904E+01  0.81000130979E+01 -0.41582598936E+02  0.47787268119E+02  0.19999986660E+02 0.  0.
         12    1    3    3    0    0 -0.94287210904E+01 -0.81000130979E+01  0.41582598936E+02  0.43400731881E+02  0.00000000000E+00 0. -1.
         11    1    4    4    0    0  0.15922071691E+01  0.11591614754E+01  0.57299692799E+00  0.20511227988E+01  0.51100000000E-03 0. -1.
        -11    1    4    4    0    0  0.11041825214E+01 -0.40632083177E+01 -0.16381518538E+02  0.16913989203E+02  0.51100000000E-03 0.  1.
         12    1    4    4    0    0  0.67323314000E+01  0.11004059940E+02 -0.25774077326E+02  0.28822156117E+02  0.00000000000E+00 0. -1.
</event>
<event>
 8    1  0.4042158E-011  0.9118800E+02  0.7816164E-02  0.1184000E+00
        -11   -1    0    0    0    0  0.00000000000E+00  0.00000000000E+00  0.45593999997E+02  0.45594000000E+02  0.51100000000E-03 0. -1.
         11   -1    0    0    0    0 -0.00000000000E+00 -0.00000000000E+00 -0.45593999997E+02  0.45594000000E+02  0.51100000000E-03 0.  1.
         23    2    1    2    0    0 -0.11102230246E-15 -0.17763568394E-14  0.00000000000E+00  0.91188000000E+02  0.91188000000E+02 0.  0.
    9900012    2    3    3    0    0 -0.49725222786E+00  0.14170500201E+02 -0.41019178227E+02  0.47787270534E+02  0.19999997673E+02 0.  0.
         12    1    3    3    0    0  0.49725222786E+00 -0.14170500201E+02  0.41019178227E+02  0.43400729466E+02  0.00000000000E+00 0. -1.
         11    1    4    4    0    0  0.23232673129E+01  0.44306844224E+01 -0.17133206180E+02  0.17848677535E+02  0.51100000000E-03 0. -1.
        -11    1    4    4    0    0  0.39627687290E+01 -0.79333549876E+00 -0.12026164556E+02  0.12687062363E+02  0.51100000000E-03 0.  1.
         12    1    4    4    0    0 -0.67832882697E+01  0.10533151277E+02 -0.11859807491E+02  0.17251530637E+02  0.00000000000E+00 0. -1.
</event>
<event>
 8    1  0.5380193E-011  0.9118800E+02  0.7816164E-02  0.1184000E+00
        -11   -1    0    0    0    0  0.00000000000E+00  0.00000000000E+00  0.45593999997E+02  0.45594000000E+02  0.51100000000E-03 0. -1.
         11   -1    0    0    0    0 -0.00000000000E+00 -0.00000000000E+00 -0.45593999997E+02  0.45594000000E+02  0.51100000000E-03 0.  1.
         23    2    1    2    0    0  0.00000000000E+00  0.00000000000E+00  0.00000000000E+00  0.91188000000E+02  0.91188000000E+02 0.  0.
    9900012    2    3    3    0    0  0.10776773465E+02 -0.97441912235E+01  0.40896643147E+02  0.47787268098E+02  0.19999986566E+02 0.  0.
        -12    1    3    3    0    0 -0.10776773465E+02  0.97441912235E+01 -0.40896643147E+02  0.43400731902E+02  0.00000000000E+00 0.  1.
         11    1    4    4    0    0  0.82423066413E+01 -0.26864271621E+00  0.17928660210E+02  0.19734351899E+02  0.51100000000E-03 0. -1.
        -11    1    4    4    0    0  0.62727649860E+01 -0.65826625197E+01  0.21089927686E+02  0.22966586086E+02  0.51100000000E-03 0.  1.
        -12    1    4    4    0    0 -0.37382981624E+01 -0.28928859875E+01  0.18780552513E+01  0.50863301127E+01  0.00000000000E+00 0.  1.
</event>
<event>
 8    1  0.4042158E-011  0.9118800E+02  0.7816164E-02  0.1184000E+00
        -11   -1    0    0    0    0  0.00000000000E+00  0.00000000000E+00  0.45593999997E+02  0.45594000000E+02  0.51100000000E-03 0. -1.
         11   -1    0    0    0    0 -0.00000000000E+00 -0.00000000000E+00 -0.45593999997E+02  0.45594000000E+02  0.51100000000E-03 0.  1.
         23    2    1    2    0    0  0.00000000000E+00  0.17763568394E-14  0.00000000000E+00  0.91188000000E+02  0.91188000000E+02 0.  0.
    9900012    2    3    3    0    0 -0.13635379411E+02 -0.10329235161E+02  0.39887423323E+02  0.47787271780E+02  0.20000003355E+02 0.  0.
        -12    1    3    3    0    0  0.13635379411E+02  0.10329235161E+02 -0.39887423323E+02  0.43400728220E+02  0.00000000000E+00 0.  1.
         11    1    4    4    0    0 -0.20044859441E+01 -0.83423263343E+01  0.19595452004E+02  0.21391449509E+02  0.51100000000E-03 0. -1.
        -11    1    4    4    0    0 -0.41475192853E+01 -0.62602100640E+01  0.13402178019E+02  0.15362633960E+02  0.51100000000E-03 0.  1.
        -12    1    4    4    0    0 -0.74833741821E+01  0.42733012378E+01  0.68897932989E+01  0.11033188312E+02  0.00000000000E+00 0.  1.
</event>
<event>
 8    1  0.4042158E-011  0.9118800E+02  0.7816164E-02  0.1184000E+00
        -11   -1    0    0    0    0  0.00000000000E+00  0.00000000000E+00  0.45593999997E+02  0.45594000000E+02  0.51100000000E-03 0. -1.
         11   -1    0    0    0    0 -0.00000000000E+00 -0.00000000000E+00 -0.45593999997E+02  0.45594000000E+02  0.51100000000E-03 0.  1.
         23    2    1    2    0    0  0.00000000000E+00  0.00000000000E+00 -0.35527136788E-14  0.91188000000E+02  0.91188000000E+02 0.  0.
    9900012    2    3    3    0    0 -0.19073557848E+02  0.23071757290E+02 -0.31424778343E+02  0.47787270890E+02  0.19999999295E+02 0.  0.
         12    1    3    3    0    0  0.19073557848E+02 -0.23071757290E+02  0.31424778343E+02  0.43400729110E+02  0.00000000000E+00 0. -1.
         11    1    4    4    0    0 -0.11037546007E+02  0.97343743696E+01 -0.28051973541E+02  0.31678047384E+02  0.51100000000E-03 0. -1.
        -11    1    4    4    0    0 -0.34170138905E+01  0.43551363455E+01 -0.21362097936E+01  0.59335140565E+01  0.51100000000E-03 0.  1.
         12    1    4    4    0    0 -0.46189979504E+01  0.89822465744E+01 -0.12365950082E+01  0.10175709450E+02  0.00000000000E+00 0. -1.
</event>
<event>
 8    1  0.4042158E-011  0.9118800E+02  0.7816164E-02  0.1184000E+00
        -11   -1    0    0    0    0  0.00000000000E+00  0.00000000000E+00  0.45593999997E+02  0.45594000000E+02  0.51100000000E-03 0. -1.
         11   -1    0    0    0    0 -0.00000000000E+00 -0.00000000000E+00 -0.45593999997E+02  0.45594000000E+02  0.51100000000E-03 0.  1.
         23    2    1    2    0    0  0.00000000000E+00  0.00000000000E+00  0.00000000000E+00  0.91188000000E+02  0.91188000000E+02 0.  0.
    9900012    2    3    3    0    0 -0.18808184807E+02 -0.17624272018E+02 -0.34917911103E+02  0.47787270793E+02  0.19999998854E+02 0.  0.
         12    1    3    3    0    0  0.18808184807E+02  0.17624272018E+02  0.34917911103E+02  0.43400729207E+02  0.00000000000E+00 0. -1.
         11    1    4    4    0    0 -0.15162790763E+02 -0.13302281587E+02 -0.19927693097E+02  0.28354433014E+02  0.51100000000E-03 0. -1.
        -11    1    4    4    0    0 -0.62326082735E+01 -0.64487408200E+01 -0.10118272927E+02  0.13520765930E+02  0.51100000000E-03 0.  1.
         12    1    4    4    0    0  0.25872142294E+01  0.21267503892E+01 -0.48719450797E+01  0.59120718489E+01  0.00000000000E+00 0. -1.
</event>
<event>
 8    1  0.4042158E-011  0.9118800E+02  0.7816164E-02  0.1184000E+00
        -11   -1    0    0    0    0  0.00000000000E+00  0.00000000000E+00  0.45593999997E+02  0.45594000000E+02  0.51100000000E-03 0.  1.
         11   -1    0    0    0    0 -0.00000000000E+00 -0.00000000000E+00 -0.45593999997E+02  0.45594000000E+02  0.51100000000E-03 0. -1.
         23    2    1    2    0    0 -0.71054273576E-14  0.00000000000E+00  0.00000000000E+00  0.91188000000E+02  0.91188000000E+02 0.  0.
    9900012    2    3    3    0    0 -0.34487452945E+02 -0.15084444810E+02 -0.21603207110E+02  0.47787269093E+02  0.19999991103E+02 0.  0.
         12    1    3    3    0    0  0.34487452945E+02  0.15084444810E+02  0.21603207110E+02  0.43400730907E+02  0.00000000000E+00 0. -1.
         11    1    4    4    0    0  0.13048734925E+01  0.70050924957E+00 -0.80149325465E+00  0.16839832952E+01  0.51100000000E-03 0. -1.
        -11    1    4    4    0    0 -0.13970334463E+02 -0.10648227194E+02 -0.14604821849E+02  0.22844163563E+02  0.51100000000E-03 0.  1.
        -12    1    4    4    0    0 -0.21821991974E+02 -0.51367268648E+01 -0.61968920066E+01  0.23259122235E+02  0.00000000000E+00 0.  1.
</event>
<event>
 8    1  0.4042158E-011  0.9118800E+02  0.7816164E-02  0.1184000E+00
        -11   -1    0    0    0    0  0.00000000000E+00  0.00000000000E+00  0.45593999997E+02  0.45594000000E+02  0.51100000000E-03 0. -1.
         11   -1    0    0    0    0 -0.00000000000E+00 -0.00000000000E+00 -0.45593999997E+02  0.45594000000E+02  0.51100000000E-03 0.  1.
         23    2    1    2    0    0  0.17763568394E-14  0.00000000000E+00  0.00000000000E+00  0.91188000000E+02  0.91188000000E+02 0.  0.
    9900012    2    3    3    0    0 -0.13519032804E+02  0.35160144168E+02  0.21555154855E+02  0.47787254768E+02  0.19999925790E+02 0.  0.
        -12    1    3    3    0    0  0.13519032804E+02 -0.35160144168E+02 -0.21555154855E+02  0.43400745232E+02  0.00000000000E+00 0.  1.
         11    1    4    4    0    0  0.57656179740E+00  0.11427179655E+02  0.11539006918E+02  0.16249970440E+02  0.51100000000E-03 0. -1.
        -11    1    4    4    0    0  0.11547338763E+01  0.48996594466E+01 -0.62077275034E+00  0.50720244564E+01  0.51100000000E-03 0.  1.
        -12    1    4    4    0    0 -0.15250328478E+02  0.18833305066E+02  0.10636920688E+02  0.26465259872E+02  0.00000000000E+00 0.  1.
</event>
<event>
 8    1  0.4042158E-011  0.9118800E+02  0.7816164E-02  0.1184000E+00
        -11   -1    0    0    0    0  0.00000000000E+00  0.00000000000E+00  0.45593999997E+02  0.45594000000E+02  0.51100000000E-03 0. -1.
         11   -1    0    0    0    0 -0.00000000000E+00 -0.00000000000E+00 -0.45593999997E+02  0.45594000000E+02  0.51100000000E-03 0.  1.
         23    2    1    2    0    0  0.00000000000E+00  0.00000000000E+00  0.00000000000E+00  0.91188000000E+02  0.91188000000E+02 0.  0.
    9900012    2    3    3    0    0  0.18007191274E+02 -0.18341838061E+01 -0.39446165444E+02  0.47787272632E+02  0.20000007237E+02 0.  0.
         12    1    3    3    0    0 -0.18007191274E+02  0.18341838061E+01  0.39446165444E+02  0.43400727368E+02  0.00000000000E+00 0. -1.
         11    1    4    4    0    0  0.14341653945E+01  0.32359240592E+01 -0.10104241880E+02  0.10706247668E+02  0.51100000000E-03 0. -1.
        -11    1    4    4    0    0  0.75482643597E+01 -0.35302806876E+01 -0.26052666791E+02  0.27352890592E+02  0.51100000000E-03 0.  1.
         12    1    4    4    0    0  0.90247615202E+01 -0.15398271777E+01 -0.32892567739E+01  0.97281343720E+01  0.00000000000E+00 0. -1.
</event>
<event>
 8    1  0.4042158E-011  0.9118800E+02  0.7816164E-02  0.1184000E+00
        -11   -1    0    0    0    0  0.00000000000E+00  0.00000000000E+00  0.45593999997E+02  0.45594000000E+02  0.51100000000E-03 0. -1.
         11   -1    0    0    0    0 -0.00000000000E+00 -0.00000000000E+00 -0.45593999997E+02  0.45594000000E+02  0.51100000000E-03 0.  1.
         23    2    1    2    0    0  0.00000000000E+00  0.88817841970E-15  0.00000000000E+00  0.91188000000E+02  0.91188000000E+02 0.  0.
    9900012    2    3    3    0    0  0.36234693662E+02 -0.95691010479E+00 -0.23869533147E+02  0.47787270578E+02  0.19999997873E+02 0.  0.
         12    1    3    3    0    0 -0.36234693662E+02  0.95691010479E+00  0.23869533147E+02  0.43400729422E+02  0.00000000000E+00 0. -1.
         11    1    4    4    0    0 -0.11395732170E+01  0.19610583805E+01 -0.15012321634E+01  0.27199403225E+01  0.51100000000E-03 0. -1.
        -11    1    4    4    0    0  0.11512043854E+02  0.17572590628E+01 -0.19973325002E+01  0.11815432725E+02  0.51100000000E-03 0.  1.
        -12    1    4    4    0    0  0.25862223025E+02 -0.46752275481E+01 -0.20370968484E+02  0.33251897531E+02  0.00000000000E+00 0.  1.
</event>
<event>
 8    1  0.4042158E-011  0.9118800E+02  0.7816164E-02  0.1184000E+00
        -11   -1    0    0    0    0  0.00000000000E+00  0.00000000000E+00  0.45593999997E+02  0.45594000000E+02  0.51100000000E-03 0.  1.
         11   -1    0    0    0    0 -0.00000000000E+00 -0.00000000000E+00 -0.45593999997E+02  0.45594000000E+02  0.51100000000E-03 0. -1.
         23    2    1    2    0    0  0.00000000000E+00  0.00000000000E+00  0.00000000000E+00  0.91188000000E+02  0.91188000000E+02 0.  0.
    9900012    2    3    3    0    0 -0.25612392283E+02 -0.34167535560E+02 -0.77595177009E+01  0.47787248398E+02  0.19999896746E+02 0.  0.
        -12    1    3    3    0    0  0.25612392283E+02  0.34167535560E+02  0.77595177009E+01  0.43400751602E+02  0.00000000000E+00 0.  1.
         11    1    4    4    0    0 -0.11085161030E+02 -0.46015656437E+01 -0.52362328099E+01  0.13094782768E+02  0.51100000000E-03 0. -1.
        -11    1    4    4    0    0 -0.88979022531E+01 -0.11041945197E+02  0.31325686323E+01  0.14522747837E+02  0.51100000000E-03 0.  1.
        -12    1    4    4    0    0 -0.56293289993E+01 -0.18524024720E+02 -0.56558535233E+01  0.20169717793E+02  0.00000000000E+00 0.  1.
</event>
<event>
 8    1  0.4042158E-011  0.9118800E+02  0.7816164E-02  0.1184000E+00
        -11   -1    0    0    0    0  0.00000000000E+00  0.00000000000E+00  0.45593999997E+02  0.45594000000E+02  0.51100000000E-03 0. -1.
         11   -1    0    0    0    0 -0.00000000000E+00 -0.00000000000E+00 -0.45593999997E+02  0.45594000000E+02  0.51100000000E-03 0.  1.
         23    2    1    2    0    0  0.00000000000E+00  0.00000000000E+00  0.00000000000E+00  0.91188000000E+02  0.91188000000E+02 0.  0.
    9900012    2    3    3    0    0 -0.20840539713E+02 -0.20745770361E+02 -0.31920344868E+02  0.47787268440E+02  0.19999988127E+02 0.  0.
         12    1    3    3    0    0  0.20840539713E+02  0.20745770361E+02  0.31920344868E+02  0.43400731560E+02  0.00000000000E+00 0. -1.
         11    1    4    4    0    0 -0.87319967256E+01 -0.11580703362E+02 -0.17652584016E+02  0.22846754252E+02  0.51100000000E-03 0. -1.
        -11    1    4    4    0    0 -0.59660113151E+01 -0.10783263199E+02 -0.13902007561E+02  0.18577886605E+02  0.51100000000E-03 0.  1.
         12    1    4    4    0    0 -0.61425316727E+01  0.16181961998E+01 -0.36575329178E+00  0.63626275832E+01  0.00000000000E+00 0. -1.
</event>
<event>
 8    1  0.4042158E-011  0.9118800E+02  0.7816164E-02  0.1184000E+00
        -11   -1    0    0    0    0  0.00000000000E+00  0.00000000000E+00  0.45593999997E+02  0.45594000000E+02  0.51100000000E-03 0.  1.
         11   -1    0    0    0    0 -0.00000000000E+00 -0.00000000000E+00 -0.45593999997E+02  0.45594000000E+02  0.51100000000E-03 0. -1.
         23    2    1    2    0    0 -0.35527136788E-14  0.00000000000E+00 -0.33306690739E-15  0.91188000000E+02  0.91188000000E+02 0.  0.
    9900012    2    3    3    0    0 -0.29787859703E+02  0.31562628437E+02 -0.32744527222E+00  0.47787270513E+02  0.19999997579E+02 0.  0.
         12    1    3    3    0    0  0.29787859703E+02 -0.31562628437E+02  0.32744527222E+00  0.43400729487E+02  0.00000000000E+00 0. -1.
         11    1    4    4    0    0 -0.93441443745E+01  0.10361117243E+02 -0.28113739642E+01  0.14232695052E+02  0.51100000000E-03 0. -1.
        -11    1    4    4    0    0 -0.18495403571E+02  0.22250878336E+02 -0.15262682070E+01  0.28974316815E+02  0.51100000000E-03 0.  1.
         12    1    4    4    0    0 -0.19483117572E+01 -0.10493671415E+01  0.40101968990E+01  0.45802586466E+01  0.00000000000E+00 0. -1.
</event>
<event>
 8    1  0.4042158E-011  0.9118800E+02  0.7816164E-02  0.1184000E+00
        -11   -1    0    0    0    0  0.00000000000E+00  0.00000000000E+00  0.45593999997E+02  0.45594000000E+02  0.51100000000E-03 0. -1.
         11   -1    0    0    0    0 -0.00000000000E+00 -0.00000000000E+00 -0.45593999997E+02  0.45594000000E+02  0.51100000000E-03 0.  1.
         23    2    1    2    0    0 -0.35527136788E-14  0.00000000000E+00  0.35527136788E-14  0.91188000000E+02  0.91188000000E+02 0.  0.
    9900012    2    3    3    0    0 -0.23518058419E+02 -0.17747391579E+02  0.31867762302E+02  0.47787271276E+02  0.20000001055E+02 0.  0.
        -12    1    3    3    0    0  0.23518058419E+02  0.17747391579E+02 -0.31867762302E+02  0.43400728724E+02  0.00000000000E+00 0.  1.
         11    1    4    4    0    0 -0.55676398520E+01 -0.12149853108E+02  0.12091197556E+02  0.18022613647E+02  0.51100000000E-03 0.  1.
        -11    1    4    4    0    0 -0.97825955984E+01 -0.72045478830E+01  0.17185566218E+02  0.21046338716E+02  0.51100000000E-03 0. -1.
        -12    1    4    4    0    0 -0.81678229687E+01  0.16070094122E+01  0.25909985275E+01  0.87183189130E+01  0.00000000000E+00 0.  1.
</event>
<event>
 8    1  0.4042158E-011  0.9118800E+02  0.7816164E-02  0.1184000E+00
        -11   -1    0    0    0    0  0.00000000000E+00  0.00000000000E+00  0.45593999997E+02  0.45594000000E+02  0.51100000000E-03 0. -1.
         11   -1    0    0    0    0 -0.00000000000E+00 -0.00000000000E+00 -0.45593999997E+02  0.45594000000E+02  0.51100000000E-03 0.  1.
         23    2    1    2    0    0 -0.17763568394E-14  0.00000000000E+00  0.00000000000E+00  0.91188000000E+02  0.91188000000E+02 0.  0.
    9900012    2    3    3    0    0  0.85885496872E+01 -0.94826812651E+01 -0.41472146945E+02  0.47787269569E+02  0.19999993273E+02 0.  0.
         12    1    3    3    0    0 -0.85885496872E+01  0.94826812651E+01  0.41472146945E+02  0.43400730431E+02  0.00000000000E+00 0. -1.
         11    1    4    4    0    0  0.84777064637E+01 -0.83237503035E+01 -0.24883741536E+02  0.27574570152E+02  0.51100000000E-03 0.  1.
        -11    1    4    4    0    0  0.49723985697E+01  0.13940876733E+01 -0.41809353519E+01  0.66444298969E+01  0.51100000000E-03 0. -1.
         12    1    4    4    0    0 -0.48615553462E+01 -0.25530186349E+01 -0.12407470058E+02  0.13568269520E+02  0.00000000000E+00 0. -1.
</event>
<event>
 8    1  0.4042158E-011  0.9118800E+02  0.7816164E-02  0.1184000E+00
        -11   -1    0    0    0    0  0.00000000000E+00  0.00000000000E+00  0.45593999997E+02  0.45594000000E+02  0.51100000000E-03 0. -1.
         11   -1    0    0    0    0 -0.00000000000E+00 -0.00000000000E+00 -0.45593999997E+02  0.45594000000E+02  0.51100000000E-03 0.  1.
         23    2    1    2    0    0  0.00000000000E+00  0.00000000000E+00  0.00000000000E+00  0.91188000000E+02  0.91188000000E+02 0.  0.
    9900012    2    3    3    0    0  0.25013463325E+01  0.25252374014E+02 -0.35209150735E+02  0.47787269335E+02  0.19999992205E+02 0.  0.
         12    1    3    3    0    0 -0.25013463325E+01 -0.25252374014E+02  0.35209150735E+02  0.43400730665E+02  0.00000000000E+00 0. -1.
         11    1    4    4    0    0 -0.28025024748E+01  0.24622982201E+00 -0.28814632218E+01  0.40270932204E+01  0.51100000000E-03 0. -1.
        -11    1    4    4    0    0  0.39707869058E-01  0.81049614236E+01 -0.15456925257E+01  0.82511297431E+01  0.51100000000E-03 0.  1.
        -12    1    4    4    0    0  0.52641409383E+01  0.16901182768E+02 -0.30781994988E+02  0.35509046371E+02  0.00000000000E+00 0.  1.
</event>
<event>
 8    1  0.4042158E-011  0.9118800E+02  0.7816164E-02  0.1184000E+00
        -11   -1    0    0    0    0  0.00000000000E+00  0.00000000000E+00  0.45593999997E+02  0.45594000000E+02  0.51100000000E-03 0. -1.
         11   -1    0    0    0    0 -0.00000000000E+00 -0.00000000000E+00 -0.45593999997E+02  0.45594000000E+02  0.51100000000E-03 0.  1.
         23    2    1    2    0    0 -0.71054273576E-14  0.00000000000E+00  0.71054273576E-14  0.91188000000E+02  0.91188000000E+02 0.  0.
    9900012    2    3    3    0    0  0.27499271680E+02 -0.22488582495E+01 -0.33501580385E+02  0.47787271957E+02  0.20000004163E+02 0.  0.
         12    1    3    3    0    0 -0.27499271680E+02  0.22488582495E+01  0.33501580385E+02  0.43400728043E+02  0.00000000000E+00 0. -1.
         11    1    4    4    0    0  0.30164795717E+01 -0.91086834668E-01  0.73993770258E+00  0.31072421668E+01  0.51100000000E-03 0. -1.
        -11    1    4    4    0    0  0.19568143812E+02  0.48323719870E+01 -0.23844581630E+02  0.31222237982E+02  0.51100000000E-03 0.  1.
        -12    1    4    4    0    0  0.49146482959E+01 -0.69901434018E+01 -0.10396936458E+02  0.13457791808E+02  0.00000000000E+00 0.  1.
</event>
<event>
 8    1  0.4042158E-011  0.9118800E+02  0.7816164E-02  0.1184000E+00
        -11   -1    0    0    0    0  0.00000000000E+00  0.00000000000E+00  0.45593999997E+02  0.45594000000E+02  0.51100000000E-03 0.  1.
         11   -1    0    0    0    0 -0.00000000000E+00 -0.00000000000E+00 -0.45593999997E+02  0.45594000000E+02  0.51100000000E-03 0. -1.
         23    2    1    2    0    0  0.88817841970E-15  0.71054273576E-14  0.00000000000E+00  0.91188000000E+02  0.91188000000E+02 0.  0.
    9900012    2    3    3    0    0 -0.22147714529E+01 -0.34685953156E+02  0.25992358895E+02  0.47787270976E+02  0.19999999686E+02 0.  0.
        -12    1    3    3    0    0  0.22147714529E+01  0.34685953156E+02 -0.25992358895E+02  0.43400729024E+02  0.00000000000E+00 0.  1.
         11    1    4    4    0    0 -0.83955552804E+01 -0.17321377198E+02  0.10843407197E+02  0.22092870714E+02  0.51100000000E-03 0. -1.
        -11    1    4    4    0    0  0.10071168088E+01 -0.16950232097E+00 -0.10831113305E+01  0.14886724686E+01  0.51100000000E-03 0.  1.
        -12    1    4    4    0    0  0.51736670186E+01 -0.17195073637E+02  0.16232063029E+02  0.24205727793E+02  0.00000000000E+00 0.  1.
</event>
<event>
 8    1  0.4042158E-011  0.9118800E+02  0.7816164E-02  0.1184000E+00
        -11   -1    0    0    0    0  0.00000000000E+00  0.00000000000E+00  0.45593999997E+02  0.45594000000E+02  0.51100000000E-03 0. -1.
         11   -1    0    0    0    0 -0.00000000000E+00 -0.00000000000E+00 -0.45593999997E+02  0.45594000000E+02  0.51100000000E-03 0.  1.
         23    2    1    2    0    0 -0.35527136788E-14  0.00000000000E+00  0.00000000000E+00  0.91188000000E+02  0.91188000000E+02 0.  0.
    9900012    2    3    3    0    0 -0.30135953947E+02  0.11387091498E+02  0.29082277644E+02  0.47787303623E+02  0.20000148537E+02 0.  0.
        -12    1    3    3    0    0  0.30135953947E+02 -0.11387091498E+02 -0.29082277644E+02  0.43400696377E+02  0.00000000000E+00 0.  1.
         11    1    4    4    0    0 -0.15975392507E+02  0.93871988934E+01  0.18589711643E+02  0.26247095993E+02  0.51100000000E-03 0. -1.
        -11    1    4    4    0    0 -0.91372023257E+01  0.52489440319E+01  0.11360357087E+02  0.15495082872E+02  0.51100000000E-03 0.  1.
        -12    1    4    4    0    0 -0.50233591147E+01 -0.32490514272E+01 -0.86779108721E+00  0.60451247583E+01  0.00000000000E+00 0.  1.
</event>
<event>
 8    1  0.4042158E-011  0.9118800E+02  0.7816164E-02  0.1184000E+00
        -11   -1    0    0    0    0  0.00000000000E+00  0.00000000000E+00  0.45593999997E+02  0.45594000000E+02  0.51100000000E-03 0. -1.
         11   -1    0    0    0    0 -0.00000000000E+00 -0.00000000000E+00 -0.45593999997E+02  0.45594000000E+02  0.51100000000E-03 0.  1.
         23    2    1    2    0    0  0.00000000000E+00  0.00000000000E+00  0.00000000000E+00  0.91188000000E+02  0.91188000000E+02 0.  0.
    9900012    2    3    3    0    0 -0.28297703359E+02 -0.18643560573E+02  0.27116061711E+02  0.47787272253E+02  0.20000005511E+02 0.  0.
        -12    1    3    3    0    0  0.28297703359E+02  0.18643560573E+02 -0.27116061711E+02  0.43400727747E+02  0.00000000000E+00 0.  1.
         11    1    4    4    0    0 -0.24590884829E+01 -0.73058969629E+01  0.78637677861E+01  0.11011906767E+02  0.51100000000E-03 0. -1.
        -11    1    4    4    0    0 -0.15387874696E+02 -0.43211046121E+01  0.30725048703E+01  0.16275715627E+02  0.51100000000E-03 0.  1.
         12    1    4    4    0    0 -0.10450740181E+02 -0.70165589983E+01  0.16179789054E+02  0.20499649859E+02  0.00000000000E+00 0. -1.
</event>
<event>
 8    1  0.4042158E-011  0.9118800E+02  0.7816164E-02  0.1184000E+00
        -11   -1    0    0    0    0  0.00000000000E+00  0.00000000000E+00  0.45593999997E+02  0.45594000000E+02  0.51100000000E-03 0. -1.
         11   -1    0    0    0    0 -0.00000000000E+00 -0.00000000000E+00 -0.45593999997E+02  0.45594000000E+02  0.51100000000E-03 0.  1.
         23    2    1    2    0    0 -0.17763568394E-14  0.35527136788E-14  0.00000000000E+00  0.91188000000E+02  0.91188000000E+02 0.  0.
    9900012    2    3    3    0    0 -0.14187350420E+02 -0.18249246253E+02 -0.36732930215E+02  0.47787261954E+02  0.19999958553E+02 0.  0.
         12    1    3    3    0    0  0.14187350420E+02  0.18249246253E+02  0.36732930215E+02  0.43400738046E+02  0.00000000000E+00 0. -1.
         11    1    4    4    0    0 -0.21013418008E+01  0.15472742143E+01 -0.91212270108E+01  0.94871743582E+01  0.51100000000E-03 0. -1.
        -11    1    4    4    0    0 -0.71867169439E+01 -0.13584549565E+01 -0.58967816178E+01  0.93950164454E+01  0.51100000000E-03 0.  1.
        -12    1    4    4    0    0 -0.48992916749E+01 -0.18438065511E+02 -0.21714921587E+02  0.28905071150E+02  0.00000000000E+00 0.  1.
</event>
<event>
 8    1  0.4042158E-011  0.9118800E+02  0.7816164E-02  0.1184000E+00
        -11   -1    0    0    0    0  0.00000000000E+00  0.00000000000E+00  0.45593999997E+02  0.45594000000E+02  0.51100000000E-03 0.  1.
         11   -1    0    0    0    0 -0.00000000000E+00 -0.00000000000E+00 -0.45593999997E+02  0.45594000000E+02  0.51100000000E-03 0. -1.
         23    2    1    2    0    0  0.00000000000E+00  0.71054273576E-14  0.17763568394E-14  0.91188000000E+02  0.91188000000E+02 0.  0.
    9900012    2    3    3    0    0 -0.83076116427E+00 -0.42302406577E+02 -0.96664230738E+01  0.47787268424E+02  0.19999988050E+02 0.  0.
        -12    1    3    3    0    0  0.83076116427E+00  0.42302406577E+02  0.96664230738E+01  0.43400731576E+02  0.00000000000E+00 0.  1.
         11    1    4    4    0    0  0.16106246580E+01 -0.21258250080E+02 -0.99954372188E+01  0.23546041572E+02  0.51100000000E-03 0. -1.
        -11    1    4    4    0    0 -0.13690193172E+01 -0.11248667675E+02 -0.57047734438E+01  0.12686653565E+02  0.51100000000E-03 0.  1.
        -12    1    4    4    0    0 -0.10723665051E+01 -0.97954888218E+01  0.60337875888E+01  0.11554573287E+02  0.00000000000E+00 0.  1.
</event>
<event>
 8    1  0.4042158E-011  0.9118800E+02  0.7816164E-02  0.1184000E+00
        -11   -1    0    0    0    0  0.00000000000E+00  0.00000000000E+00  0.45593999997E+02  0.45594000000E+02  0.51100000000E-03 0. -1.
         11   -1    0    0    0    0 -0.00000000000E+00 -0.00000000000E+00 -0.45593999997E+02  0.45594000000E+02  0.51100000000E-03 0.  1.
         23    2    1    2    0    0  0.00000000000E+00  0.00000000000E+00  0.00000000000E+00  0.91188000000E+02  0.91188000000E+02 0.  0.
    9900012    2    3    3    0    0 -0.34253694693E+01  0.36594236762E+02 -0.23081397834E+02  0.47787282884E+02  0.20000053981E+02 0.  0.
         12    1    3    3    0    0  0.34253694693E+01 -0.36594236762E+02  0.23081397834E+02  0.43400717116E+02  0.00000000000E+00 0. -1.
         11    1    4    4    0    0  0.68695516099E+01  0.19077001464E+02 -0.60279199737E+01  0.21153215918E+02  0.51100000000E-03 0. -1.
        -11    1    4    4    0    0 -0.24451999976E+01  0.62305722348E+01 -0.61039077335E+01  0.90585166159E+01  0.51100000000E-03 0.  1.
         12    1    4    4    0    0 -0.78497210816E+01  0.11286663063E+02 -0.10949570127E+02  0.17575550351E+02  0.00000000000E+00 0. -1.
</event>
<event>
 8    1  0.4042158E-011  0.9118800E+02  0.7816164E-02  0.1184000E+00
        -11   -1    0    0    0    0  0.00000000000E+00  0.00000000000E+00  0.45593999997E+02  0.45594000000E+02  0.51100000000E-03 0. -1.
         11   -1    0    0    0    0 -0.00000000000E+00 -0.00000000000E+00 -0.45593999997E+02  0.45594000000E+02  0.51100000000E-03 0.  1.
         23    2    1    2    0    0  0.00000000000E+00  0.00000000000E+00  0.00000000000E+00  0.91188000000E+02  0.91188000000E+02 0.  0.
    9900012    2    3    3    0    0 -0.38980548434E+02  0.88646415114E+01  0.16898468160E+02  0.47787271303E+02  0.20000001178E+02 0.  0.
        -12    1    3    3    0    0  0.38980548434E+02 -0.88646415114E+01 -0.16898468160E+02  0.43400728697E+02  0.00000000000E+00 0.  1.
         11    1    4    4    0    0 -0.16425778050E+02  0.36862366410E+00  0.14675124799E+02  0.22029556420E+02  0.51100000000E-03 0. -1.
        -11    1    4    4    0    0  0.33425405139E-02  0.13258990397E+01 -0.12641461513E+01  0.18319621145E+01  0.51100000000E-03 0.  1.
         12    1    4    4    0    0 -0.22558112924E+02  0.71701188077E+01  0.34874895122E+01  0.23925752768E+02  0.00000000000E+00 0. -1.
</event>
<event>
 8    1  0.4042158E-011  0.9118800E+02  0.7816164E-02  0.1184000E+00
        -11   -1    0    0    0    0  0.00000000000E+00  0.00000000000E+00  0.45593999997E+02  0.45594000000E+02  0.51100000000E-03 0. -1.
         11   -1    0    0    0    0 -0.00000000000E+00 -0.00000000000E+00 -0.45593999997E+02  0.45594000000E+02  0.51100000000E-03 0.  1.
         23    2    1    2    0    0  0.55511151231E-16  0.00000000000E+00  0.00000000000E+00  0.91188000000E+02  0.91188000000E+02 0.  0.
    9900012    2    3    3    0    0 -0.43793131982E+00 -0.25131011737E+02  0.35381690665E+02  0.47787267644E+02  0.19999984495E+02 0.  0.
        -12    1    3    3    0    0  0.43793131982E+00  0.25131011737E+02 -0.35381690665E+02  0.43400732356E+02  0.00000000000E+00 0.  1.
         11    1    4    4    0    0  0.35646554924E+01 -0.10646404483E+02  0.11351207102E+02  0.15965669423E+02  0.51100000000E-03 0. -1.
        -11    1    4    4    0    0 -0.84775731348E+01 -0.11457001421E+02  0.11992267981E+02  0.18626503145E+02  0.51100000000E-03 0.  1.
        -12    1    4    4    0    0  0.44749863225E+01 -0.30276058332E+01  0.12038215582E+02  0.13195095076E+02  0.00000000000E+00 0.  1.
</event>
<event>
 8    1  0.4042158E-011  0.9118800E+02  0.7816164E-02  0.1184000E+00
        -11   -1    0    0    0    0  0.00000000000E+00  0.00000000000E+00  0.45593999997E+02  0.45594000000E+02  0.51100000000E-03 0. -1.
         11   -1    0    0    0    0 -0.00000000000E+00 -0.00000000000E+00 -0.45593999997E+02  0.45594000000E+02  0.51100000000E-03 0.  1.
         23    2    1    2    0    0  0.00000000000E+00  0.00000000000E+00  0.00000000000E+00  0.91188000000E+02  0.91188000000E+02 0.  0.
    9900012    2    3    3    0    0 -0.25071617460E+02  0.28357981757E+02 -0.21233510857E+02  0.47787272878E+02  0.20000008362E+02 0.  0.
         12    1    3    3    0    0  0.25071617460E+02 -0.28357981757E+02  0.21233510857E+02  0.43400727122E+02  0.00000000000E+00 0. -1.
         11    1    4    4    0    0 -0.10073881913E+02  0.23839794916E+01 -0.45308330905E+01  0.11300216979E+02  0.51100000000E-03 0. -1.
        -11    1    4    4    0    0 -0.20918552742E+01  0.21758938556E+01  0.19658005451E+01  0.36020472794E+01  0.51100000000E-03 0.  1.
         12    1    4    4    0    0 -0.12905880273E+02  0.23798108410E+02 -0.18668478312E+02  0.32885008620E+02  0.00000000000E+00 0. -1.
</event>
<event>
 8    1  0.4042158E-011  0.9118800E+02  0.7816164E-02  0.1184000E+00
        -11   -1    0    0    0    0  0.00000000000E+00  0.00000000000E+00  0.45593999997E+02  0.45594000000E+02  0.51100000000E-03 0. -1.
         11   -1    0    0    0    0 -0.00000000000E+00 -0.00000000000E+00 -0.45593999997E+02  0.45594000000E+02  0.51100000000E-03 0.  1.
         23    2    1    2    0    0 -0.88817841970E-15  0.17763568394E-14  0.71054273576E-14  0.91188000000E+02  0.91188000000E+02 0.  0.
    9900012    2    3    3    0    0 -0.35022568081E+01  0.57954020455E+01  0.42869229752E+02  0.47787270201E+02  0.19999996153E+02 0.  0.
        -12    1    3    3    0    0  0.35022568081E+01 -0.57954020455E+01 -0.42869229752E+02  0.43400729799E+02  0.00000000000E+00 0.  1.
         11    1    4    4    0    0  0.50068547150E+00  0.42253136306E+01  0.82890717418E+01  0.93173317972E+01  0.51100000000E-03 0. -1.
        -11    1    4    4    0    0 -0.51501541830E+01 -0.16839592569E+01  0.34597811175E+02  0.35019542334E+02  0.51100000000E-03 0.  1.
        -12    1    4    4    0    0  0.11472119034E+01  0.32540476718E+01 -0.17653165655E-01  0.34503960694E+01  0.00000000000E+00 0.  1.
</event>
<event>
 8    1  0.4042158E-011  0.9118800E+02  0.7816164E-02  0.1184000E+00
        -11   -1    0    0    0    0  0.00000000000E+00  0.00000000000E+00  0.45593999997E+02  0.45594000000E+02  0.51100000000E-03 0. -1.
         11   -1    0    0    0    0 -0.00000000000E+00 -0.00000000000E+00 -0.45593999997E+02  0.45594000000E+02  0.51100000000E-03 0.  1.
         23    2    1    2    0    0 -0.88817841970E-15 -0.35527136788E-14  0.35527136788E-14  0.91188000000E+02  0.91188000000E+02 0.  0.
    9900012    2    3    3    0    0 -0.75284419285E+01 -0.31144790899E+02  0.29273669899E+02  0.47787272041E+02  0.20000004545E+02 0.  0.
        -12    1    3    3    0    0  0.75284419285E+01  0.31144790899E+02 -0.29273669899E+02  0.43400727959E+02  0.00000000000E+00 0.  1.
         11    1    4    4    0    0  0.76231712969E+00 -0.70329446325E+01  0.78001878417E+01  0.10530259647E+02  0.51100000000E-03 0. -1.
        -11    1    4    4    0    0 -0.30309218285E+01 -0.90483216995E+01 -0.11089256835E+01  0.96066814843E+01  0.51100000000E-03 0.  1.
        -12    1    4    4    0    0 -0.52598372297E+01 -0.15063524567E+02  0.22582407741E+02  0.27650330910E+02  0.00000000000E+00 0.  1.
</event>
<event>
 8    1  0.4042158E-011  0.9118800E+02  0.7816164E-02  0.1184000E+00
        -11   -1    0    0    0    0  0.00000000000E+00  0.00000000000E+00  0.45593999997E+02  0.45594000000E+02  0.51100000000E-03 0. -1.
         11   -1    0    0    0    0 -0.00000000000E+00 -0.00000000000E+00 -0.45593999997E+02  0.45594000000E+02  0.51100000000E-03 0.  1.
         23    2    1    2    0    0  0.22204460493E-15  0.00000000000E+00  0.44408920985E-15  0.91188000000E+02  0.91188000000E+02 0.  0.
    9900012    2    3    3    0    0  0.82204254309E+00 -0.43384567325E+02 -0.85263055513E+00  0.47787269421E+02  0.19999992597E+02 0.  0.
         12    1    3    3    0    0 -0.82204254309E+00  0.43384567325E+02  0.85263055513E+00  0.43400730579E+02  0.00000000000E+00 0. -1.
         11    1    4    4    0    0  0.49202192098E+01 -0.25970155926E+01 -0.12035371049E-01  0.55635593078E+01  0.51100000000E-03 0. -1.
        -11    1    4    4    0    0  0.31918272493E+00 -0.11602265373E+02  0.40715664233E+01  0.12300085073E+02  0.51100000000E-03 0.  1.
        -12    1    4    4    0    0 -0.44173593916E+01 -0.29185286360E+02 -0.49121616074E+01  0.29923625040E+02  0.00000000000E+00 0.  1.
</event>
<event>
 8    1  0.4042158E-011  0.9118800E+02  0.7816164E-02  0.1184000E+00
        -11   -1    0    0    0    0  0.00000000000E+00  0.00000000000E+00  0.45593999997E+02  0.45594000000E+02  0.51100000000E-03 0. -1.
         11   -1    0    0    0    0 -0.00000000000E+00 -0.00000000000E+00 -0.45593999997E+02  0.45594000000E+02  0.51100000000E-03 0.  1.
         23    2    1    2    0    0  0.00000000000E+00  0.00000000000E+00  0.00000000000E+00  0.91188000000E+02  0.91188000000E+02 0.  0.
    9900012    2    3    3    0    0  0.19717958870E+02 -0.35086642557E+02  0.16240467581E+02  0.47787272181E+02  0.20000005183E+02 0.  0.
        -12    1    3    3    0    0 -0.19717958870E+02  0.35086642557E+02 -0.16240467581E+02  0.43400727819E+02  0.00000000000E+00 0.  1.
         11    1    4    4    0    0  0.63362630892E+01 -0.21148468054E+02  0.10762581242E+02  0.24560926005E+02  0.51100000000E-03 0. -1.
        -11    1    4    4    0    0  0.39354758114E+01 -0.12387127804E+02  0.32704915611E+01  0.13402425915E+02  0.51100000000E-03 0.  1.
         12    1    4    4    0    0  0.94462199698E+01 -0.15510466985E+01  0.22073947779E+01  0.98239202605E+01  0.00000000000E+00 0. -1.
</event>
<event>
 8    1  0.4042158E-011  0.9118800E+02  0.7816164E-02  0.1184000E+00
        -11   -1    0    0    0    0  0.00000000000E+00  0.00000000000E+00  0.45593999997E+02  0.45594000000E+02  0.51100000000E-03 0. -1.
         11   -1    0    0    0    0 -0.00000000000E+00 -0.00000000000E+00 -0.45593999997E+02  0.45594000000E+02  0.51100000000E-03 0.  1.
         23    2    1    2    0    0  0.00000000000E+00  0.00000000000E+00 -0.35527136788E-14  0.91188000000E+02  0.91188000000E+02 0.  0.
    9900012    2    3    3    0    0  0.30865405666E+02 -0.25487167893E+02  0.16773590985E+02  0.47787281703E+02  0.20000048597E+02 0.  0.
        -12    1    3    3    0    0 -0.30865405666E+02  0.25487167893E+02 -0.16773590985E+02  0.43400718297E+02  0.00000000000E+00 0.  1.
         11    1    4    4    0    0  0.76037070585E+01 -0.23518036341E+01  0.94501293484E+01  0.12355253390E+02  0.51100000000E-03 0. -1.
        -11    1    4    4    0    0  0.13261071336E+01 -0.35674230658E-01  0.30055946993E+01  0.32853359856E+01  0.51100000000E-03 0.  1.
         12    1    4    4    0    0  0.21935591474E+02 -0.23099690029E+02  0.43178669371E+01  0.32146692328E+02  0.00000000000E+00 0. -1.
</event>
<event>
 8    1  0.4042158E-011  0.9118800E+02  0.7816164E-02  0.1184000E+00
        -11   -1    0    0    0    0  0.00000000000E+00  0.00000000000E+00  0.45593999997E+02  0.45594000000E+02  0.51100000000E-03 0. -1.
         11   -1    0    0    0    0 -0.00000000000E+00 -0.00000000000E+00 -0.45593999997E+02  0.45594000000E+02  0.51100000000E-03 0.  1.
         23    2    1    2    0    0  0.00000000000E+00 -0.17763568394E-14 -0.71054273576E-14  0.91188000000E+02  0.91188000000E+02 0.  0.
    9900012    2    3    3    0    0  0.26987275285E+02  0.12375620238E+02  0.31656826413E+02  0.47787266571E+02  0.19999979605E+02 0.  0.
        -12    1    3    3    0    0 -0.26987275285E+02 -0.12375620238E+02 -0.31656826413E+02  0.43400733429E+02  0.00000000000E+00 0.  1.
         11    1    4    4    0    0  0.19235970428E+02  0.56642725279E+00  0.24186778336E+02  0.30908633821E+02  0.51100000000E-03 0. -1.
        -11    1    4    4    0    0  0.37189786662E+01  0.38872512856E+01  0.18044467420E+00  0.53827581609E+01  0.51100000000E-03 0.  1.
         12    1    4    4    0    0  0.40323261909E+01  0.79219416996E+01  0.72896034033E+01  0.11495874590E+02  0.00000000000E+00 0. -1.
</event>
<event>
 8    1  0.4042158E-011  0.9118800E+02  0.7816164E-02  0.1184000E+00
        -11   -1    0    0    0    0  0.00000000000E+00  0.00000000000E+00  0.45593999997E+02  0.45594000000E+02  0.51100000000E-03 0. -1.
         11   -1    0    0    0    0 -0.00000000000E+00 -0.00000000000E+00 -0.45593999997E+02  0.45594000000E+02  0.51100000000E-03 0.  1.
         23    2    1    2    0    0  0.88817841970E-15  0.71054273576E-14 -0.35527136788E-14  0.91188000000E+02  0.91188000000E+02 0.  0.
    9900012    2    3    3    0    0 -0.69718069281E+01 -0.38776229900E+02  0.18204979380E+02  0.47787269921E+02  0.19999994880E+02 0.  0.
        -12    1    3    3    0    0  0.69718069281E+01  0.38776229900E+02 -0.18204979380E+02  0.43400730079E+02  0.00000000000E+00 0.  1.
         11    1    4    4    0    0 -0.55761739683E+01 -0.15414842379E+02  0.12840862303E+02  0.20823035962E+02  0.51100000000E-03 0. -1.
        -11    1    4    4    0    0 -0.95391172150E+00  0.12862902874E+01  0.11093539288E+01  0.19481161865E+01  0.51100000000E-03 0.  1.
        -12    1    4    4    0    0 -0.44172123833E+00 -0.24647677808E+02  0.42547631479E+01  0.25016117773E+02  0.00000000000E+00 0.  1.
</event>
<event>
 8    1  0.4042158E-011  0.9118800E+02  0.7816164E-02  0.1184000E+00
        -11   -1    0    0    0    0  0.00000000000E+00  0.00000000000E+00  0.45593999997E+02  0.45594000000E+02  0.51100000000E-03 0. -1.
         11   -1    0    0    0    0 -0.00000000000E+00 -0.00000000000E+00 -0.45593999997E+02  0.45594000000E+02  0.51100000000E-03 0.  1.
         23    2    1    2    0    0  0.00000000000E+00 -0.35527136788E-14  0.35527136788E-14  0.91188000000E+02  0.91188000000E+02 0.  0.
    9900012    2    3    3    0    0 -0.20847694208E+02  0.27916418351E+02 -0.25877994177E+02  0.47787270168E+02  0.19999996002E+02 0.  0.
         12    1    3    3    0    0  0.20847694208E+02 -0.27916418351E+02  0.25877994177E+02  0.43400729832E+02  0.00000000000E+00 0. -1.
         11    1    4    4    0    0 -0.60435741637E+01  0.13760427611E+02 -0.22071133366E+02  0.26702229964E+02  0.51100000000E-03 0.  1.
        -11    1    4    4    0    0 -0.57523856772E+01  0.34458508165E+01 -0.92354689786E+00  0.67688084596E+01  0.51100000000E-03 0. -1.
        -12    1    4    4    0    0 -0.90517343667E+01  0.10710139924E+02 -0.28833139136E+01  0.14316231744E+02  0.00000000000E+00 0.  1.
</event>
<event>
 8    1  0.4042158E-011  0.9118800E+02  0.7816164E-02  0.1184000E+00
        -11   -1    0    0    0    0  0.00000000000E+00  0.00000000000E+00  0.45593999997E+02  0.45594000000E+02  0.51100000000E-03 0. -1.
         11   -1    0    0    0    0 -0.00000000000E+00 -0.00000000000E+00 -0.45593999997E+02  0.45594000000E+02  0.51100000000E-03 0.  1.
         23    2    1    2    0    0  0.00000000000E+00 -0.88817841970E-15  0.00000000000E+00  0.91188000000E+02  0.91188000000E+02 0.  0.
    9900012    2    3    3    0    0 -0.24769289635E+02  0.74597064826E+01  0.34849080443E+02  0.47787270311E+02  0.19999996655E+02 0.  0.
        -12    1    3    3    0    0  0.24769289635E+02 -0.74597064826E+01 -0.34849080443E+02  0.43400729689E+02  0.00000000000E+00 0.  1.
         11    1    4    4    0    0 -0.88078220920E+01 -0.11540443694E+00  0.14275494515E+02  0.16774408845E+02  0.51100000000E-03 0.  1.
        -11    1    4    4    0    0 -0.17329863073E+02  0.21668531225E+01  0.13944676913E+02  0.22348902010E+02  0.51100000000E-03 0. -1.
        -12    1    4    4    0    0  0.13683955298E+01  0.54082577970E+01  0.66289090153E+01  0.86639594562E+01  0.00000000000E+00 0.  1.
</event>
<event>
 8    1  0.5777959E-011  0.9118800E+02  0.7816164E-02  0.1184000E+00
        -11   -1    0    0    0    0  0.00000000000E+00  0.00000000000E+00  0.45593999997E+02  0.45594000000E+02  0.51100000000E-03 0. -1.
         11   -1    0    0    0    0 -0.00000000000E+00 -0.00000000000E+00 -0.45593999997E+02  0.45594000000E+02  0.51100000000E-03 0.  1.
         23    2    1    2    0    0 -0.17763568394E-14  0.00000000000E+00  0.00000000000E+00  0.91188000000E+02  0.91188000000E+02 0.  0.
    9900012    2    3    3    0    0 -0.10545181337E+02 -0.26401154964E+02  0.32793313862E+02  0.47787271124E+02  0.20000000363E+02 0.  0.
        -12    1    3    3    0    0  0.10545181337E+02  0.26401154964E+02 -0.32793313862E+02  0.43400728876E+02  0.00000000000E+00 0.  1.
         11    1    4    4    0    0 -0.46105825612E+01 -0.11335722771E+02  0.13735144454E+02  0.18395930956E+02  0.51100000000E-03 0. -1.
        -11    1    4    4    0    0 -0.62603905267E+01 -0.11726980752E+02  0.21475382040E+02  0.25256812965E+02  0.51100000000E-03 0.  1.
        -12    1    4    4    0    0  0.32579175040E+00 -0.33384514406E+01 -0.24172126319E+01  0.41345272032E+01  0.00000000000E+00 0.  1.
</event>
<event>
 8    1  0.4042158E-011  0.9118800E+02  0.7816164E-02  0.1184000E+00
        -11   -1    0    0    0    0  0.00000000000E+00  0.00000000000E+00  0.45593999997E+02  0.45594000000E+02  0.51100000000E-03 0. -1.
         11   -1    0    0    0    0 -0.00000000000E+00 -0.00000000000E+00 -0.45593999997E+02  0.45594000000E+02  0.51100000000E-03 0.  1.
         23    2    1    2    0    0  0.00000000000E+00  0.00000000000E+00  0.00000000000E+00  0.91188000000E+02  0.91188000000E+02 0.  0.
    9900012    2    3    3    0    0 -0.25074646894E+02  0.88765252477E+01  0.34294210457E+02  0.47787268575E+02  0.19999988743E+02 0.  0.
        -12    1    3    3    0    0  0.25074646894E+02 -0.88765252477E+01 -0.34294210457E+02  0.43400731425E+02  0.00000000000E+00 0.  1.
         11    1    4    4    0    0 -0.16563122147E+02  0.15632643924E+01  0.19138206626E+02  0.25358465331E+02  0.51100000000E-03 0.  1.
        -11    1    4    4    0    0 -0.11428726138E+02  0.72082479865E+01  0.13358682466E+02  0.19000763607E+02  0.51100000000E-03 0. -1.
        -12    1    4    4    0    0  0.29172013919E+01  0.10501286878E+00  0.17973213649E+01  0.34280396369E+01  0.00000000000E+00 0.  1.
</event>
<event>
 8    1  0.4042158E-011  0.9118800E+02  0.7816164E-02  0.1184000E+00
        -11   -1    0    0    0    0  0.00000000000E+00  0.00000000000E+00  0.45593999997E+02  0.45594000000E+02  0.51100000000E-03 0.  1.
         11   -1    0    0    0    0 -0.00000000000E+00 -0.00000000000E+00 -0.45593999997E+02  0.45594000000E+02  0.51100000000E-03 0. -1.
         23    2    1    2    0    0  0.00000000000E+00  0.00000000000E+00  0.00000000000E+00  0.91188000000E+02  0.91188000000E+02 0.  0.
    9900012    2    3    3    0    0  0.25058550464E+02  0.29029062029E+02  0.20322557278E+02  0.47787265813E+02  0.19999976150E+02 0.  0.
         12    1    3    3    0    0 -0.25058550464E+02 -0.29029062029E+02 -0.20322557278E+02  0.43400734187E+02  0.00000000000E+00 0. -1.
         11    1    4    4    0    0  0.10744463495E+02  0.66478242678E+01  0.30653053382E+01  0.13001275337E+02  0.51100000000E-03 0. -1.
        -11    1    4    4    0    0  0.53531959058E+01 -0.64756744664E+00  0.20382348875E+01  0.57645859974E+01  0.51100000000E-03 0.  1.
        -12    1    4    4    0    0  0.89608910625E+01  0.23028805208E+02  0.15219017052E+02  0.29021404480E+02  0.00000000000E+00 0.  1.
</event>
<event>
 8    1  0.4042158E-011  0.9118800E+02  0.7816164E-02  0.1184000E+00
        -11   -1    0    0    0    0  0.00000000000E+00  0.00000000000E+00  0.45593999997E+02  0.45594000000E+02  0.51100000000E-03 0. -1.
         11   -1    0    0    0    0 -0.00000000000E+00 -0.00000000000E+00 -0.45593999997E+02  0.45594000000E+02  0.51100000000E-03 0.  1.
         23    2    1    2    0    0  0.00000000000E+00  0.17763568394E-14  0.00000000000E+00  0.91188000000E+02  0.91188000000E+02 0.  0.
    9900012    2    3    3    0    0 -0.11745538243E+02 -0.11912381438E+02  0.40046982386E+02  0.47787270762E+02  0.19999998714E+02 0.  0.
        -12    1    3    3    0    0  0.11745538243E+02  0.11912381438E+02 -0.40046982386E+02  0.43400729238E+02  0.00000000000E+00 0.  1.
         11    1    4    4    0    0  0.80293956136E+00  0.64733624744E+00  0.11573844771E+02  0.11619709084E+02  0.51100000000E-03 0. -1.
        -11    1    4    4    0    0  0.26039623192E+01 -0.72066086572E+00  0.16565679655E+01  0.31692569363E+01  0.51100000000E-03 0.  1.
         12    1    4    4    0    0 -0.15152440123E+02 -0.11839056820E+02  0.26816569649E+02  0.32998304742E+02  0.00000000000E+00 0. -1.
</event>
<event>
 8    1  0.4042158E-011  0.9118800E+02  0.7816164E-02  0.1184000E+00
        -11   -1    0    0    0    0  0.00000000000E+00  0.00000000000E+00  0.45593999997E+02  0.45594000000E+02  0.51100000000E-03 0.  1.
         11   -1    0    0    0    0 -0.00000000000E+00 -0.00000000000E+00 -0.45593999997E+02  0.45594000000E+02  0.51100000000E-03 0. -1.
         23    2    1    2    0    0 -0.71054273576E-14 -0.22204460493E-15  0.00000000000E+00  0.91188000000E+02  0.91188000000E+02 0.  0.
    9900012    2    3    3    0    0 -0.43215170137E+02  0.12360356749E+01 -0.38137203526E+01  0.47787272160E+02  0.20000005086E+02 0.  0.
         12    1    3    3    0    0  0.43215170137E+02 -0.12360356749E+01  0.38137203526E+01  0.43400727840E+02  0.00000000000E+00 0. -1.
         11    1    4    4    0    0 -0.26974478310E+01  0.17513963380E+01 -0.36238961856E+01  0.48452283495E+01  0.51100000000E-03 0. -1.
        -11    1    4    4    0    0 -0.84883679273E+01 -0.58801029926E+01  0.14380696652E+01  0.10425739585E+02  0.51100000000E-03 0.  1.
        -12    1    4    4    0    0 -0.32029354378E+02  0.53647423294E+01 -0.16278938322E+01  0.32516304225E+02  0.00000000000E+00 0.  1.
</event>
<event>
 8    1  0.4042158E-011  0.9118800E+02  0.7816164E-02  0.1184000E+00
        -11   -1    0    0    0    0  0.00000000000E+00  0.00000000000E+00  0.45593999997E+02  0.45594000000E+02  0.51100000000E-03 0.  1.
         11   -1    0    0    0    0 -0.00000000000E+00 -0.00000000000E+00 -0.45593999997E+02  0.45594000000E+02  0.51100000000E-03 0. -1.
         23    2    1    2    0    0  0.66613381478E-15  0.00000000000E+00  0.00000000000E+00  0.91188000000E+02  0.91188000000E+02 0.  0.
    9900012    2    3    3    0    0 -0.12058046272E+01  0.42887942399E+02  0.65416951064E+01  0.47787270249E+02  0.19999996373E+02 0.  0.
         12    1    3    3    0    0  0.12058046272E+01 -0.42887942399E+02 -0.65416951064E+01  0.43400729751E+02  0.00000000000E+00 0. -1.
         11    1    4    4    0    0 -0.24508177722E+01  0.17697574051E+01 -0.31347870091E+01  0.43549327066E+01  0.51100000000E-03 0. -1.
        -11    1    4    4    0    0 -0.24274566526E+01  0.11350393941E+02  0.64156027388E+01  0.13262124535E+02  0.51100000000E-03 0.  1.
         12    1    4    4    0    0  0.36724697976E+01  0.29767791053E+02  0.32608793767E+01  0.30170213008E+02  0.00000000000E+00 0. -1.
</event>
<event>
 8    1  0.4042158E-011  0.9118800E+02  0.7816164E-02  0.1184000E+00
        -11   -1    0    0    0    0  0.00000000000E+00  0.00000000000E+00  0.45593999997E+02  0.45594000000E+02  0.51100000000E-03 0. -1.
         11   -1    0    0    0    0 -0.00000000000E+00 -0.00000000000E+00 -0.45593999997E+02  0.45594000000E+02  0.51100000000E-03 0.  1.
         23    2    1    2    0    0  0.00000000000E+00  0.00000000000E+00  0.00000000000E+00  0.91188000000E+02  0.91188000000E+02 0.  0.
    9900012    2    3    3    0    0  0.38426977248E+02 -0.18631762947E+02 -0.77361779030E+01  0.47787267063E+02  0.19999981848E+02 0.  0.
         12    1    3    3    0    0 -0.38426977248E+02  0.18631762947E+02  0.77361779030E+01  0.43400732937E+02  0.00000000000E+00 0. -1.
         11    1    4    4    0    0  0.11445829860E+02 -0.74512428636E+01  0.11160339805E+01  0.13703049789E+02  0.51100000000E-03 0.  1.
        -11    1    4    4    0    0 -0.70696370652E-01  0.18726224775E+01  0.14077410734E+01  0.23438105962E+01  0.51100000000E-03 0. -1.
        -12    1    4    4    0    0  0.27051843758E+02 -0.13053142561E+02 -0.10259952957E+02  0.31740406678E+02  0.00000000000E+00 0.  1.
</event>
<event>
 8    1  0.4042158E-011  0.9118800E+02  0.7816164E-02  0.1184000E+00
        -11   -1    0    0    0    0  0.00000000000E+00  0.00000000000E+00  0.45593999997E+02  0.45594000000E+02  0.51100000000E-03 0. -1.
         11   -1    0    0    0    0 -0.00000000000E+00 -0.00000000000E+00 -0.45593999997E+02  0.45594000000E+02  0.51100000000E-03 0.  1.
         23    2    1    2    0    0  0.88817841970E-15  0.00000000000E+00  0.00000000000E+00  0.91188000000E+02  0.91188000000E+02 0.  0.
    9900012    2    3    3    0    0 -0.76048387156E+01 -0.34119716053E+02 -0.25722253460E+02  0.47787275139E+02  0.20000018668E+02 0.  0.
         12    1    3    3    0    0  0.76048387156E+01  0.34119716053E+02  0.25722253460E+02  0.43400724861E+02  0.00000000000E+00 0. -1.
         11    1    4    4    0    0 -0.25365189983E+01 -0.11441665663E+01 -0.24149909360E+00  0.27930928795E+01  0.51100000000E-03 0. -1.
        -11    1    4    4    0    0  0.41100112867E+01 -0.16579758964E+01 -0.34995459735E+01  0.56469371461E+01  0.51100000000E-03 0.  1.
        -12    1    4    4    0    0 -0.91783310040E+01 -0.31317573590E+02 -0.21981208393E+02  0.39347245113E+02  0.00000000000E+00 0.  1.
</event>
<event>
 8    1  0.4042158E-011  0.9118800E+02  0.7816164E-02  0.1184000E+00
        -11   -1    0    0    0    0  0.00000000000E+00  0.00000000000E+00  0.45593999997E+02  0.45594000000E+02  0.51100000000E-03 0. -1.
         11   -1    0    0    0    0 -0.00000000000E+00 -0.00000000000E+00 -0.45593999997E+02  0.45594000000E+02  0.51100000000E-03 0.  1.
         23    2    1    2    0    0  0.35527136788E-14  0.00000000000E+00  0.17763568394E-14  0.91188000000E+02  0.91188000000E+02 0.  0.
    9900012    2    3    3    0    0  0.23175997990E+02 -0.33151366603E+02 -0.15731601150E+02  0.47787271145E+02  0.20000000457E+02 0.  0.
         12    1    3    3    0    0 -0.23175997990E+02  0.33151366603E+02  0.15731601150E+02  0.43400728855E+02  0.00000000000E+00 0. -1.
         11    1    4    4    0    0  0.63811618569E+01 -0.20068898335E+02 -0.35993704127E+01  0.21364348215E+02  0.51100000000E-03 0. -1.
        -11    1    4    4    0    0  0.50911477205E+00 -0.27261048586E+01 -0.52415564123E+01  0.59299881481E+01  0.51100000000E-03 0.  1.
         12    1    4    4    0    0  0.16285721361E+02 -0.10356363409E+02 -0.68906743248E+01  0.20492934781E+02  0.00000000000E+00 0. -1.
</event>
<event>
 8    1  0.4042158E-011  0.9118800E+02  0.7816164E-02  0.1184000E+00
        -11   -1    0    0    0    0  0.00000000000E+00  0.00000000000E+00  0.45593999997E+02  0.45594000000E+02  0.51100000000E-03 0.  1.
         11   -1    0    0    0    0 -0.00000000000E+00 -0.00000000000E+00 -0.45593999997E+02  0.45594000000E+02  0.51100000000E-03 0. -1.
         23    2    1    2    0    0  0.22204460493E-15  0.00000000000E+00 -0.17763568394E-14  0.91188000000E+02  0.91188000000E+02 0.  0.
    9900012    2    3    3    0    0 -0.86153332945E+00 -0.41708405855E+02 -0.11970391186E+02  0.47787267013E+02  0.19999981620E+02 0.  0.
        -12    1    3    3    0    0  0.86153332945E+00  0.41708405855E+02  0.11970391186E+02  0.43400732987E+02  0.00000000000E+00 0.  1.
         11    1    4    4    0    0 -0.15406869200E+01 -0.63625120657E+01 -0.24074197596E+01  0.69750230201E+01  0.51100000000E-03 0. -1.
        -11    1    4    4    0    0  0.54126657765E+01 -0.99779283209E+01 -0.98132886272E+01  0.15005220369E+02  0.51100000000E-03 0.  1.
         12    1    4    4    0    0 -0.47335121859E+01 -0.25367965468E+02  0.25031720125E+00  0.25807023624E+02  0.00000000000E+00 0. -1.
</event>
<event>
 8    1  0.4042158E-011  0.9118800E+02  0.7816164E-02  0.1184000E+00
        -11   -1    0    0    0    0  0.00000000000E+00  0.00000000000E+00  0.45593999997E+02  0.45594000000E+02  0.51100000000E-03 0. -1.
         11   -1    0    0    0    0 -0.00000000000E+00 -0.00000000000E+00 -0.45593999997E+02  0.45594000000E+02  0.51100000000E-03 0.  1.
         23    2    1    2    0    0  0.00000000000E+00  0.00000000000E+00  0.00000000000E+00  0.91188000000E+02  0.91188000000E+02 0.  0.
    9900012    2    3    3    0    0  0.19921545836E+02 -0.17132008025E+02  0.34543445126E+02  0.47787270874E+02  0.19999999224E+02 0.  0.
        -12    1    3    3    0    0 -0.19921545836E+02  0.17132008025E+02 -0.34543445126E+02  0.43400729126E+02  0.00000000000E+00 0.  1.
         11    1    4    4    0    0  0.10575479676E+02 -0.12326263319E+02  0.16336286294E+02  0.23035880447E+02  0.51100000000E-03 0. -1.
        -11    1    4    4    0    0  0.51274080856E+01 -0.89787370124E+01  0.85497382647E+01  0.13416633582E+02  0.51100000000E-03 0.  1.
        -12    1    4    4    0    0  0.42186580744E+01  0.41729923066E+01  0.96574205672E+01  0.11334756846E+02  0.00000000000E+00 0.  1.
</event>
<event>
 8    1  0.4042158E-011  0.9118800E+02  0.7816164E-02  0.1184000E+00
        -11   -1    0    0    0    0  0.00000000000E+00  0.00000000000E+00  0.45593999997E+02  0.45594000000E+02  0.51100000000E-03 0.  1.
         11   -1    0    0    0    0 -0.00000000000E+00 -0.00000000000E+00 -0.45593999997E+02  0.45594000000E+02  0.51100000000E-03 0. -1.
         23    2    1    2    0    0  0.00000000000E+00  0.00000000000E+00  0.00000000000E+00  0.91188000000E+02  0.91188000000E+02 0.  0.
    9900012    2    3    3    0    0 -0.22577843075E+02 -0.31641766810E+02  0.19304477018E+02  0.47787271461E+02  0.20000001899E+02 0.  0.
         12    1    3    3    0    0  0.22577843075E+02  0.31641766810E+02 -0.19304477018E+02  0.43400728539E+02  0.00000000000E+00 0. -1.
         11    1    4    4    0    0 -0.72591131024E+01 -0.83383116583E+01 -0.93399349871E+00  0.11094796459E+02  0.51100000000E-03 0. -1.
        -11    1    4    4    0    0 -0.20862874057E+01 -0.44184417868E+01 -0.13868750158E+01  0.50792367077E+01  0.51100000000E-03 0.  1.
        -12    1    4    4    0    0 -0.13232442567E+02 -0.18885013365E+02  0.21625345532E+02  0.31613238295E+02  0.00000000000E+00 0.  1.
</event>
<event>
 8    1  0.4042158E-011  0.9118800E+02  0.7816164E-02  0.1184000E+00
        -11   -1    0    0    0    0  0.00000000000E+00  0.00000000000E+00  0.45593999997E+02  0.45594000000E+02  0.51100000000E-03 0. -1.
         11   -1    0    0    0    0 -0.00000000000E+00 -0.00000000000E+00 -0.45593999997E+02  0.45594000000E+02  0.51100000000E-03 0.  1.
         23    2    1    2    0    0  0.00000000000E+00 -0.71054273576E-14  0.00000000000E+00  0.91188000000E+02  0.91188000000E+02 0.  0.
    9900012    2    3    3    0    0  0.19441991582E+02 -0.32517141472E+02  0.21172340965E+02  0.47787267884E+02  0.19999985593E+02 0.  0.
        -12    1    3    3    0    0 -0.19441991582E+02  0.32517141472E+02 -0.21172340965E+02  0.43400732116E+02  0.00000000000E+00 0.  1.
         11    1    4    4    0    0 -0.66508637366E+00 -0.51920072678E+01  0.62294596094E+00  0.52713699628E+01  0.51100000000E-03 0. -1.
        -11    1    4    4    0    0  0.21681573551E+01 -0.56033734683E+01  0.11416326857E+02  0.12900822443E+02  0.51100000000E-03 0.  1.
         12    1    4    4    0    0  0.17938920601E+02 -0.21721760736E+02  0.91330681467E+01  0.29615075478E+02  0.00000000000E+00 0. -1.
</event>
<event>
 8    1  0.4042158E-011  0.9118800E+02  0.7816164E-02  0.1184000E+00
        -11   -1    0    0    0    0  0.00000000000E+00  0.00000000000E+00  0.45593999997E+02  0.45594000000E+02  0.51100000000E-03 0.  1.
         11   -1    0    0    0    0 -0.00000000000E+00 -0.00000000000E+00 -0.45593999997E+02  0.45594000000E+02  0.51100000000E-03 0. -1.
         23    2    1    2    0    0 -0.71054273576E-14  0.00000000000E+00  0.00000000000E+00  0.91188000000E+02  0.91188000000E+02 0.  0.
    9900012    2    3    3    0    0  0.38611916551E+02 -0.17937769090E+02 -0.84249239415E+01  0.47787274164E+02  0.20000014223E+02 0.  0.
        -12    1    3    3    0    0 -0.38611916551E+02  0.17937769090E+02  0.84249239415E+01  0.43400725836E+02  0.00000000000E+00 0.  1.
         11    1    4    4    0    0  0.11201401822E+02 -0.26403270634E+01 -0.98239122284E+00  0.11550230411E+02  0.51100000000E-03 0. -1.
        -11    1    4    4    0    0  0.80408925705E+01 -0.12235389561E+02  0.14346427674E+01  0.14711183201E+02  0.51100000000E-03 0.  1.
        -12    1    4    4    0    0  0.19369622159E+02 -0.30620524653E+01 -0.88771754861E+01  0.21525860552E+02  0.00000000000E+00 0.  1.
</event>
<event>
 8    1  0.4042158E-011  0.9118800E+02  0.7816164E-02  0.1184000E+00
        -11   -1    0    0    0    0  0.00000000000E+00  0.00000000000E+00  0.45593999997E+02  0.45594000000E+02  0.51100000000E-03 0. -1.
         11   -1    0    0    0    0 -0.00000000000E+00 -0.00000000000E+00 -0.45593999997E+02  0.45594000000E+02  0.51100000000E-03 0.  1.
         23    2    1    2    0    0 -0.35527136788E-14  0.22204460493E-15  0.00000000000E+00  0.91188000000E+02  0.91188000000E+02 0.  0.
    9900012    2    3    3    0    0 -0.27774495843E+02  0.19902312403E+01 -0.33290237559E+02  0.47787267789E+02  0.19999985158E+02 0.  0.
         12    1    3    3    0    0  0.27774495843E+02 -0.19902312403E+01  0.33290237559E+02  0.43400732211E+02  0.00000000000E+00 0. -1.
         11    1    4    4    0    0  0.15125470701E+01  0.38547935232E+01 -0.74493778268E+01  0.85229374052E+01  0.51100000000E-03 0. -1.
        -11    1    4    4    0    0 -0.58785271534E+01  0.10380180505E+01 -0.55167556279E+01  0.81282935408E+01  0.51100000000E-03 0.  1.
         12    1    4    4    0    0 -0.23408515760E+02 -0.29025803334E+01 -0.20324104104E+02  0.31136036843E+02  0.00000000000E+00 0. -1.
</event>
<event>
 8    1  0.4042158E-011  0.9118800E+02  0.7816164E-02  0.1184000E+00
        -11   -1    0    0    0    0  0.00000000000E+00  0.00000000000E+00  0.45593999997E+02  0.45594000000E+02  0.51100000000E-03 0. -1.
         11   -1    0    0    0    0 -0.00000000000E+00 -0.00000000000E+00 -0.45593999997E+02  0.45594000000E+02  0.51100000000E-03 0.  1.
         23    2    1    2    0    0 -0.17763568394E-14  0.17763568394E-14  0.00000000000E+00  0.91188000000E+02  0.91188000000E+02 0.  0.
    9900012    2    3    3    0    0 -0.12928206075E+02 -0.93075114007E+01  0.40371459685E+02  0.47787273763E+02  0.20000012397E+02 0.  0.
        -12    1    3    3    0    0  0.12928206075E+02  0.93075114007E+01 -0.40371459685E+02  0.43400726237E+02  0.00000000000E+00 0.  1.
         11    1    4    4    0    0  0.12891911454E+01 -0.53695998707E+01  0.14443108869E+02  0.15462794400E+02  0.51100000000E-03 0. -1.
        -11    1    4    4    0    0  0.20615580132E+01 -0.11041192862E+01  0.13265977073E+01  0.26886730143E+01  0.51100000000E-03 0.  1.
         12    1    4    4    0    0 -0.16278955234E+02 -0.28337922438E+01  0.24601753108E+02  0.29635806350E+02  0.00000000000E+00 0. -1.
</event>
<event>
 8    1  0.4042158E-011  0.9118800E+02  0.7816164E-02  0.1184000E+00
        -11   -1    0    0    0    0  0.00000000000E+00  0.00000000000E+00  0.45593999997E+02  0.45594000000E+02  0.51100000000E-03 0. -1.
         11   -1    0    0    0    0 -0.00000000000E+00 -0.00000000000E+00 -0.45593999997E+02  0.45594000000E+02  0.51100000000E-03 0.  1.
         23    2    1    2    0    0  0.00000000000E+00  0.00000000000E+00  0.00000000000E+00  0.91188000000E+02  0.91188000000E+02 0.  0.
    9900012    2    3    3    0    0 -0.27559829718E+02 -0.37369950594E+01  0.33318363864E+02  0.47787277463E+02  0.20000029266E+02 0.  0.
        -12    1    3    3    0    0  0.27559829718E+02  0.37369950594E+01 -0.33318363864E+02  0.43400722537E+02  0.00000000000E+00 0.  1.
         11    1    4    4    0    0 -0.92186306412E+01  0.57747969891E+01  0.78868970288E+01  0.13436315573E+02  0.51100000000E-03 0. -1.
        -11    1    4    4    0    0  0.94212901953E+00 -0.15218175999E+01  0.54738083864E+00  0.18716735667E+01  0.51100000000E-03 0.  1.
         12    1    4    4    0    0 -0.19283328096E+02 -0.79899744486E+01  0.24884085996E+02  0.32479288324E+02  0.00000000000E+00 0. -1.
</event>
<event>
 8    1  0.4042158E-011  0.9118800E+02  0.7816164E-02  0.1184000E+00
        -11   -1    0    0    0    0  0.00000000000E+00  0.00000000000E+00  0.45593999997E+02  0.45594000000E+02  0.51100000000E-03 0. -1.
         11   -1    0    0    0    0 -0.00000000000E+00 -0.00000000000E+00 -0.45593999997E+02  0.45594000000E+02  0.51100000000E-03 0.  1.
         23    2    1    2    0    0 -0.35527136788E-14  0.00000000000E+00  0.00000000000E+00  0.91188000000E+02  0.91188000000E+02 0.  0.
    9900012    2    3    3    0    0  0.20768606834E+02 -0.33166529424E+02 -0.18768846078E+02  0.47787270893E+02  0.19999999312E+02 0.  0.
         12    1    3    3    0    0 -0.20768606834E+02  0.33166529424E+02  0.18768846078E+02  0.43400729107E+02  0.00000000000E+00 0. -1.
         11    1    4    4    0    0  0.88648057282E+00 -0.10705401268E+01  0.83326644345E+00  0.16205669366E+01  0.51100000000E-03 0. -1.
        -11    1    4    4    0    0  0.92254954682E+01 -0.21881936909E+02 -0.20509341650E+02  0.31377731351E+02  0.51100000000E-03 0.  1.
        -12    1    4    4    0    0  0.10656630793E+02 -0.10214052388E+02  0.90722912879E+00  0.14788972606E+02  0.00000000000E+00 0.  1.
</event>
<event>
 8    1  0.4042158E-011  0.9118800E+02  0.7816164E-02  0.1184000E+00
        -11   -1    0    0    0    0  0.00000000000E+00  0.00000000000E+00  0.45593999997E+02  0.45594000000E+02  0.51100000000E-03 0. -1.
         11   -1    0    0    0    0 -0.00000000000E+00 -0.00000000000E+00 -0.45593999997E+02  0.45594000000E+02  0.51100000000E-03 0.  1.
         23    2    1    2    0    0 -0.88817841970E-15  0.35527136788E-14  0.00000000000E+00  0.91188000000E+02  0.91188000000E+02 0.  0.
    9900012    2    3    3    0    0 -0.75291736817E+01  0.23586871639E+02 -0.35645407161E+02  0.47787262429E+02  0.19999960718E+02 0.  0.
         12    1    3    3    0    0  0.75291736817E+01 -0.23586871639E+02  0.35645407161E+02  0.43400737571E+02  0.00000000000E+00 0. -1.
         11    1    4    4    0    0 -0.10952026743E+02  0.14483900672E+02 -0.14807334217E+02  0.23430480476E+02  0.51100000000E-03 0. -1.
        -11    1    4    4    0    0 -0.79947668061E+00  0.12345377149E+01  0.21665844233E+00  0.14866699278E+01  0.51100000000E-03 0.  1.
        -12    1    4    4    0    0  0.42223297422E+01  0.78684332522E+01 -0.21054731386E+02  0.22870112025E+02  0.00000000000E+00 0.  1.
</event>
<event>
 8    1  0.4042158E-011  0.9118800E+02  0.7816164E-02  0.1184000E+00
        -11   -1    0    0    0    0  0.00000000000E+00  0.00000000000E+00  0.45593999997E+02  0.45594000000E+02  0.51100000000E-03 0. -1.
         11   -1    0    0    0    0 -0.00000000000E+00 -0.00000000000E+00 -0.45593999997E+02  0.45594000000E+02  0.51100000000E-03 0.  1.
         23    2    1    2    0    0 -0.35527136788E-14  0.00000000000E+00  0.17763568394E-14  0.91188000000E+02  0.91188000000E+02 0.  0.
    9900012    2    3    3    0    0 -0.28946613042E+02 -0.28359351757E+02 -0.15539118145E+02  0.47787269230E+02  0.19999991726E+02 0.  0.
         12    1    3    3    0    0  0.28946613042E+02  0.28359351757E+02  0.15539118145E+02  0.43400730770E+02  0.00000000000E+00 0. -1.
         11    1    4    4    0    0 -0.90089327462E+01 -0.97412006758E+01  0.26349328984E+01  0.13527554527E+02  0.51100000000E-03 0. -1.
        -11    1    4    4    0    0 -0.15305682272E+01 -0.54922638195E+01 -0.82195320531E+00  0.57604868105E+01  0.51100000000E-03 0.  1.
        -12    1    4    4    0    0 -0.18407112069E+02 -0.13125887262E+02 -0.17352097838E+02  0.28499227893E+02  0.00000000000E+00 0.  1.
</event>
<event>
 8    1  0.4042158E-011  0.9118800E+02  0.7816164E-02  0.1184000E+00
        -11   -1    0    0    0    0  0.00000000000E+00  0.00000000000E+00  0.45593999997E+02  0.45594000000E+02  0.51100000000E-03 0. -1.
         11   -1    0    0    0    0 -0.00000000000E+00 -0.00000000000E+00 -0.45593999997E+02  0.45594000000E+02  0.51100000000E-03 0.  1.
         23    2    1    2    0    0  0.17763568394E-14 -0.44408920985E-15  0.00000000000E+00  0.91188000000E+02  0.91188000000E+02 0.  0.
    9900012    2    3    3    0    0 -0.11845153208E+02  0.14796539643E+00 -0.41752768544E+02  0.47787271557E+02  0.20000002338E+02 0.  0.
         12    1    3    3    0    0  0.11845153208E+02 -0.14796539643E+00  0.41752768544E+02  0.43400728443E+02  0.00000000000E+00 0. -1.
         11    1    4    4    0    0  0.17159298089E+01  0.37749739423E+01 -0.24401643324E+01  0.48113662929E+01  0.51100000000E-03 0. -1.
        -11    1    4    4    0    0 -0.46693684017E+00 -0.13978845268E+01 -0.16594288637E+02  0.16659607643E+02  0.51100000000E-03 0.  1.
        -12    1    4    4    0    0 -0.13094146177E+02 -0.22291240191E+01 -0.22718315574E+02  0.26316297622E+02  0.00000000000E+00 0.  1.
</event>
<event>
 8    1  0.4042158E-011  0.9118800E+02  0.7816164E-02  0.1184000E+00
        -11   -1    0    0    0    0  0.00000000000E+00  0.00000000000E+00  0.45593999997E+02  0.45594000000E+02  0.51100000000E-03 0. -1.
         11   -1    0    0    0    0 -0.00000000000E+00 -0.00000000000E+00 -0.45593999997E+02  0.45594000000E+02  0.51100000000E-03 0.  1.
         23    2    1    2    0    0  0.35527136788E-14 -0.35527136788E-14  0.00000000000E+00  0.91188000000E+02  0.91188000000E+02 0.  0.
    9900012    2    3    3    0    0  0.23192372816E+02 -0.18847641465E+02 -0.31472263629E+02  0.47787272776E+02  0.20000007896E+02 0.  0.
         12    1    3    3    0    0 -0.23192372816E+02  0.18847641465E+02  0.31472263629E+02  0.43400727224E+02  0.00000000000E+00 0. -1.
         11    1    4    4    0    0  0.67619434808E+01  0.60081472925E+00 -0.12466910045E+02  0.14195376159E+02  0.51100000000E-03 0.  1.
        -11    1    4    4    0    0  0.32812085855E+01  0.57668231960E+00 -0.60824540877E+00  0.33865698011E+01  0.51100000000E-03 0. -1.
        -12    1    4    4    0    0  0.13149220749E+02 -0.20025138514E+02 -0.18397108175E+02  0.30205326816E+02  0.00000000000E+00 0.  1.
</event>
<event>
 8    1  0.4042158E-011  0.9118800E+02  0.7816164E-02  0.1184000E+00
        -11   -1    0    0    0    0  0.00000000000E+00  0.00000000000E+00  0.45593999997E+02  0.45594000000E+02  0.51100000000E-03 0. -1.
         11   -1    0    0    0    0 -0.00000000000E+00 -0.00000000000E+00 -0.45593999997E+02  0.45594000000E+02  0.51100000000E-03 0.  1.
         23    2    1    2    0    0  0.17763568394E-14  0.35527136788E-14 -0.35527136788E-14  0.91188000000E+02  0.91188000000E+02 0.  0.
    9900012    2    3    3    0    0  0.14660925933E+02  0.29265532652E+02 -0.28499281774E+02  0.47787271754E+02  0.20000003237E+02 0.  0.
         12    1    3    3    0    0 -0.14660925933E+02 -0.29265532652E+02  0.28499281774E+02  0.43400728246E+02  0.00000000000E+00 0. -1.
         11    1    4    4    0    0  0.10633275905E+02  0.54361895211E+01 -0.66292680463E+01  0.13658913137E+02  0.51100000000E-03 0.  1.
        -11    1    4    4    0    0  0.48200234254E+01  0.96515214556E+01 -0.14663313912E+02  0.18204320020E+02  0.51100000000E-03 0. -1.
         12    1    4    4    0    0 -0.79237339707E+00  0.14177821675E+02 -0.72066998156E+01  0.15924038598E+02  0.00000000000E+00 0. -1.
</event>
<event>
 8    1  0.4042158E-011  0.9118800E+02  0.7816164E-02  0.1184000E+00
        -11   -1    0    0    0    0  0.00000000000E+00  0.00000000000E+00  0.45593999997E+02  0.45594000000E+02  0.51100000000E-03 0.  1.
         11   -1    0    0    0    0 -0.00000000000E+00 -0.00000000000E+00 -0.45593999997E+02  0.45594000000E+02  0.51100000000E-03 0. -1.
         23    2    1    2    0    0  0.71054273576E-14 -0.88817841970E-15  0.17763568394E-14  0.91188000000E+02  0.91188000000E+02 0.  0.
    9900012    2    3    3    0    0  0.41695315465E+02 -0.63072025760E+01  0.10263671745E+02  0.47787273120E+02  0.20000009463E+02 0.  0.
        -12    1    3    3    0    0 -0.41695315465E+02  0.63072025760E+01 -0.10263671745E+02  0.43400726880E+02  0.00000000000E+00 0.  1.
         11    1    4    4    0    0  0.40558889836E+02 -0.57154301776E+01  0.62977822647E+01  0.41440942901E+02  0.51100000000E-03 0. -1.
        -11    1    4    4    0    0  0.12373823912E+01 -0.21075717035E+01  0.40813790646E+00  0.24778116311E+01  0.51100000000E-03 0.  1.
        -12    1    4    4    0    0 -0.10095676228E+00  0.15157993051E+01  0.35577515741E+01  0.38685185878E+01  0.00000000000E+00 0.  1.
</event>
<event>
 8    1  0.4042158E-011  0.9118800E+02  0.7816164E-02  0.1184000E+00
        -11   -1    0    0    0    0  0.00000000000E+00  0.00000000000E+00  0.45593999997E+02  0.45594000000E+02  0.51100000000E-03 0. -1.
         11   -1    0    0    0    0 -0.00000000000E+00 -0.00000000000E+00 -0.45593999997E+02  0.45594000000E+02  0.51100000000E-03 0.  1.
         23    2    1    2    0    0  0.00000000000E+00  0.00000000000E+00  0.00000000000E+00  0.91188000000E+02  0.91188000000E+02 0.  0.
    9900012    2    3    3    0    0 -0.47316831290E+01 -0.24175027574E+02 -0.35732382595E+02  0.47787263263E+02  0.19999964521E+02 0.  0.
         12    1    3    3    0    0  0.47316831290E+01  0.24175027574E+02  0.35732382595E+02  0.43400736737E+02  0.00000000000E+00 0. -1.
         11    1    4    4    0    0 -0.17981917243E+01 -0.65359354465E+01 -0.91640579576E+01  0.11398767659E+02  0.51100000000E-03 0. -1.
        -11    1    4    4    0    0  0.44822569212E+01 -0.12487946141E+00 -0.10760473907E+02  0.11657359090E+02  0.51100000000E-03 0.  1.
         12    1    4    4    0    0 -0.74157483259E+01 -0.17514212666E+02 -0.15807850730E+02  0.24731136513E+02  0.00000000000E+00 0. -1.
</event>
<event>
 8    1  0.4042158E-011  0.9118800E+02  0.7816164E-02  0.1184000E+00
        -11   -1    0    0    0    0  0.00000000000E+00  0.00000000000E+00  0.45593999997E+02  0.45594000000E+02  0.51100000000E-03 0. -1.
         11   -1    0    0    0    0 -0.00000000000E+00 -0.00000000000E+00 -0.45593999997E+02  0.45594000000E+02  0.51100000000E-03 0.  1.
         23    2    1    2    0    0  0.00000000000E+00  0.00000000000E+00  0.00000000000E+00  0.91188000000E+02  0.91188000000E+02 0.  0.
    9900012    2    3    3    0    0 -0.34001671832E+02  0.17009685705E+02  0.20932784361E+02  0.47787256271E+02  0.19999932640E+02 0.  0.
        -12    1    3    3    0    0  0.34001671832E+02 -0.17009685705E+02 -0.20932784361E+02  0.43400743729E+02  0.00000000000E+00 0.  1.
         11    1    4    4    0    0 -0.26864792048E+01  0.16750146501E+01  0.88690889918E+01  0.94171962070E+01  0.51100000000E-03 0. -1.
        -11    1    4    4    0    0 -0.46273361805E-01  0.19540593426E+01  0.22301425802E+01  0.29654721930E+01  0.51100000000E-03 0.  1.
        -12    1    4    4    0    0 -0.31268919265E+02  0.13380611712E+02  0.98335527895E+01  0.35404587871E+02  0.00000000000E+00 0.  1.
</event>
<event>
 8    1  0.4042158E-011  0.9118800E+02  0.7816164E-02  0.1184000E+00
        -11   -1    0    0    0    0  0.00000000000E+00  0.00000000000E+00  0.45593999997E+02  0.45594000000E+02  0.51100000000E-03 0. -1.
         11   -1    0    0    0    0 -0.00000000000E+00 -0.00000000000E+00 -0.45593999997E+02  0.45594000000E+02  0.51100000000E-03 0.  1.
         23    2    1    2    0    0  0.00000000000E+00  0.00000000000E+00  0.00000000000E+00  0.91188000000E+02  0.91188000000E+02 0.  0.
    9900012    2    3    3    0    0  0.28542142828E+01 -0.38329064998E+02  0.20158366804E+02  0.47787268266E+02  0.19999987333E+02 0.  0.
        -12    1    3    3    0    0 -0.28542142828E+01  0.38329064998E+02 -0.20158366804E+02  0.43400731734E+02  0.00000000000E+00 0.  1.
         11    1    4    4    0    0  0.17948199115E+01 -0.53967399104E+01  0.73121663861E+01  0.92635823359E+01  0.51100000000E-03 0. -1.
        -11    1    4    4    0    0  0.47678098258E+01 -0.20094271109E+01  0.17756824081E+01  0.54701788019E+01  0.51100000000E-03 0.  1.
         12    1    4    4    0    0 -0.37084154545E+01 -0.30922897977E+02  0.11070518010E+02  0.33053507128E+02  0.00000000000E+00 0. -1.
</event>
<event>
 8    1  0.4042158E-011  0.9118800E+02  0.7816164E-02  0.1184000E+00
        -11   -1    0    0    0    0  0.00000000000E+00  0.00000000000E+00  0.45593999997E+02  0.45594000000E+02  0.51100000000E-03 0. -1.
         11   -1    0    0    0    0 -0.00000000000E+00 -0.00000000000E+00 -0.45593999997E+02  0.45594000000E+02  0.51100000000E-03 0.  1.
         23    2    1    2    0    0  0.00000000000E+00  0.00000000000E+00  0.00000000000E+00  0.91188000000E+02  0.91188000000E+02 0.  0.
    9900012    2    3    3    0    0 -0.27878377296E+02  0.14964852796E+02 -0.29706441587E+02  0.47787269458E+02  0.19999992765E+02 0.  0.
         12    1    3    3    0    0  0.27878377296E+02 -0.14964852796E+02  0.29706441587E+02  0.43400730542E+02  0.00000000000E+00 0. -1.
         11    1    4    4    0    0 -0.40009966799E+00 -0.13208149876E+00  0.12695006689E+01  0.13375939130E+01  0.51100000000E-03 0. -1.
        -11    1    4    4    0    0 -0.11456117442E+02  0.78541013697E+01 -0.43748422845E+01  0.14562581517E+02  0.51100000000E-03 0.  1.
        -12    1    4    4    0    0 -0.16022160185E+02  0.72428329249E+01 -0.26601099972E+02  0.31887094027E+02  0.00000000000E+00 0.  1.
</event>
<event>
 8    1  0.4042158E-011  0.9118800E+02  0.7816164E-02  0.1184000E+00
        -11   -1    0    0    0    0  0.00000000000E+00  0.00000000000E+00  0.45593999997E+02  0.45594000000E+02  0.51100000000E-03 0. -1.
         11   -1    0    0    0    0 -0.00000000000E+00 -0.00000000000E+00 -0.45593999997E+02  0.45594000000E+02  0.51100000000E-03 0.  1.
         23    2    1    2    0    0  0.00000000000E+00  0.00000000000E+00  0.00000000000E+00  0.91188000000E+02  0.91188000000E+02 0.  0.
    9900012    2    3    3    0    0  0.67591199363E+01  0.58224479914E+01 -0.42473954222E+02  0.47787269705E+02  0.19999993892E+02 0.  0.
         12    1    3    3    0    0 -0.67591199363E+01 -0.58224479914E+01  0.42473954222E+02  0.43400730295E+02  0.00000000000E+00 0. -1.
         11    1    4    4    0    0 -0.14482577956E+01  0.17668032524E+01 -0.63097651317E+01  0.67106021081E+01  0.51100000000E-03 0.  1.
        -11    1    4    4    0    0  0.37816775877E+01 -0.67862863258E+01 -0.14471189925E+02  0.16424679771E+02  0.51100000000E-03 0. -1.
         12    1    4    4    0    0  0.44257001443E+01  0.10841931065E+02 -0.21692999166E+02  0.24651987826E+02  0.00000000000E+00 0. -1.
</event>
<event>
 8    1  0.4042158E-011  0.9118800E+02  0.7816164E-02  0.1184000E+00
        -11   -1    0    0    0    0  0.00000000000E+00  0.00000000000E+00  0.45593999997E+02  0.45594000000E+02  0.51100000000E-03 0.  1.
         11   -1    0    0    0    0 -0.00000000000E+00 -0.00000000000E+00 -0.45593999997E+02  0.45594000000E+02  0.51100000000E-03 0. -1.
         23    2    1    2    0    0  0.00000000000E+00  0.00000000000E+00  0.17763568394E-14  0.91188000000E+02  0.91188000000E+02 0.  0.
    9900012    2    3    3    0    0  0.36033649469E+02  0.20543239835E+02 -0.12773986266E+02  0.47787270489E+02  0.19999997466E+02 0.  0.
        -12    1    3    3    0    0 -0.36033649469E+02 -0.20543239835E+02  0.12773986266E+02  0.43400729511E+02  0.00000000000E+00 0.  1.
         11    1    4    4    0    0  0.12250614173E+02  0.68474722730E+01 -0.29764612008E+01  0.14346593522E+02  0.51100000000E-03 0. -1.
        -11    1    4    4    0    0  0.20232793003E+02  0.90001791185E+01 -0.15681612736E+00  0.22144835254E+02  0.51100000000E-03 0.  1.
         12    1    4    4    0    0  0.35502422933E+01  0.46955884435E+01 -0.96407089381E+01  0.11295841713E+02  0.00000000000E+00 0. -1.
</event>
<event>
 8    1  0.4042158E-011  0.9118800E+02  0.7816164E-02  0.1184000E+00
        -11   -1    0    0    0    0  0.00000000000E+00  0.00000000000E+00  0.45593999997E+02  0.45594000000E+02  0.51100000000E-03 0. -1.
         11   -1    0    0    0    0 -0.00000000000E+00 -0.00000000000E+00 -0.45593999997E+02  0.45594000000E+02  0.51100000000E-03 0.  1.
         23    2    1    2    0    0  0.00000000000E+00  0.00000000000E+00 -0.71054273576E-14  0.91188000000E+02  0.91188000000E+02 0.  0.
    9900012    2    3    3    0    0  0.13840310819E+02 -0.51247262269E+01  0.40814290813E+02  0.47787270086E+02  0.19999995632E+02 0.  0.
        -12    1    3    3    0    0 -0.13840310819E+02  0.51247262269E+01 -0.40814290813E+02  0.43400729914E+02  0.00000000000E+00 0.  1.
         11    1    4    4    0    0  0.72887552502E+01  0.25197849843E+01  0.21661678178E+02  0.22993554993E+02  0.51100000000E-03 0. -1.
        -11    1    4    4    0    0  0.21840913155E+01  0.28387670024E+01  0.16836349146E+01  0.39577114290E+01  0.51100000000E-03 0.  1.
         12    1    4    4    0    0  0.43674642532E+01 -0.10483278214E+02  0.17468977720E+02  0.20836003664E+02  0.00000000000E+00 0. -1.
</event>
<event>
 8    1  0.4042158E-011  0.9118800E+02  0.7816164E-02  0.1184000E+00
        -11   -1    0    0    0    0  0.00000000000E+00  0.00000000000E+00  0.45593999997E+02  0.45594000000E+02  0.51100000000E-03 0. -1.
         11   -1    0    0    0    0 -0.00000000000E+00 -0.00000000000E+00 -0.45593999997E+02  0.45594000000E+02  0.51100000000E-03 0.  1.
         23    2    1    2    0    0  0.00000000000E+00  0.17763568394E-14  0.00000000000E+00  0.91188000000E+02  0.91188000000E+02 0.  0.
    9900012    2    3    3    0    0  0.16932070920E+02  0.14511811807E+02  0.37233527439E+02  0.47787271053E+02  0.20000000039E+02 0.  0.
        -12    1    3    3    0    0 -0.16932070920E+02 -0.14511811807E+02 -0.37233527439E+02  0.43400728947E+02  0.00000000000E+00 0.  1.
         11    1    4    4    0    0  0.68113784200E+01  0.91411324228E+01  0.20937652842E+02  0.23839892716E+02  0.51100000000E-03 0. -1.
        -11    1    4    4    0    0  0.26581684113E+01  0.83791582556E+01  0.51091520837E+01  0.10167575308E+02  0.51100000000E-03 0.  1.
         12    1    4    4    0    0  0.74625240889E+01 -0.30084788715E+01  0.11186722514E+02  0.13779803028E+02  0.00000000000E+00 0. -1.
</event>
<event>
 8    1  0.4042158E-011  0.9118800E+02  0.7816164E-02  0.1184000E+00
        -11   -1    0    0    0    0  0.00000000000E+00  0.00000000000E+00  0.45593999997E+02  0.45594000000E+02  0.51100000000E-03 0. -1.
         11   -1    0    0    0    0 -0.00000000000E+00 -0.00000000000E+00 -0.45593999997E+02  0.45594000000E+02  0.51100000000E-03 0.  1.
         23    2    1    2    0    0 -0.88817841970E-15  0.00000000000E+00  0.00000000000E+00  0.91188000000E+02  0.91188000000E+02 0.  0.
    9900012    2    3    3    0    0  0.54366190490E+01  0.35325970523E+02  0.24619955115E+02  0.47787271781E+02  0.20000003358E+02 0.  0.
        -12    1    3    3    0    0 -0.54366190490E+01 -0.35325970523E+02 -0.24619955115E+02  0.43400728219E+02  0.00000000000E+00 0.  1.
         11    1    4    4    0    0  0.59152846337E+01  0.70534809389E+01  0.84890049368E+01  0.12522195923E+02  0.51100000000E-03 0.  1.
        -11    1    4    4    0    0 -0.28327442975E+01  0.10717827293E+02  0.13323108892E+02  0.17332094303E+02  0.51100000000E-03 0. -1.
        -12    1    4    4    0    0  0.23540787128E+01  0.17554662292E+02  0.28078412862E+01  0.17932981555E+02  0.00000000000E+00 0.  1.
</event>
<event>
 8    1  0.4042158E-011  0.9118800E+02  0.7816164E-02  0.1184000E+00
        -11   -1    0    0    0    0  0.00000000000E+00  0.00000000000E+00  0.45593999997E+02  0.45594000000E+02  0.51100000000E-03 0.  1.
         11   -1    0    0    0    0 -0.00000000000E+00 -0.00000000000E+00 -0.45593999997E+02  0.45594000000E+02  0.51100000000E-03 0. -1.
         23    2    1    2    0    0  0.00000000000E+00  0.00000000000E+00  0.00000000000E+00  0.91188000000E+02  0.91188000000E+02 0.  0.
    9900012    2    3    3    0    0  0.15964247513E+02  0.20711250229E+02 -0.34638278207E+02  0.47787269570E+02  0.19999993280E+02 0.  0.
         12    1    3    3    0    0 -0.15964247513E+02 -0.20711250229E+02  0.34638278207E+02  0.43400730430E+02  0.00000000000E+00 0. -1.
         11    1    4    4    0    0  0.29421804035E+01 -0.14969976346E+01 -0.88229145176E+01  0.94202573367E+01  0.51100000000E-03 0. -1.
        -11    1    4    4    0    0  0.97664635925E+01  0.10323458819E+02 -0.69146353619E+01  0.15804106920E+02  0.51100000000E-03 0.  1.
        -12    1    4    4    0    0  0.32556035166E+01  0.11884789044E+02 -0.18900728327E+02  0.22562905314E+02  0.00000000000E+00 0.  1.
</event>
<event>
 8    1  0.4042158E-011  0.9118800E+02  0.7816164E-02  0.1184000E+00
        -11   -1    0    0    0    0  0.00000000000E+00  0.00000000000E+00  0.45593999997E+02  0.45594000000E+02  0.51100000000E-03 0.  1.
         11   -1    0    0    0    0 -0.00000000000E+00 -0.00000000000E+00 -0.45593999997E+02  0.45594000000E+02  0.51100000000E-03 0. -1.
         23    2    1    2    0    0 -0.35527136788E-14  0.00000000000E+00  0.35527136788E-14  0.91188000000E+02  0.91188000000E+02 0.  0.
    9900012    2    3    3    0    0  0.24137869890E+02  0.19361000913E+02 -0.30432544062E+02  0.47787252803E+02  0.19999916831E+02 0.  0.
         12    1    3    3    0    0 -0.24137869890E+02 -0.19361000913E+02  0.30432544062E+02  0.43400747197E+02  0.00000000000E+00 0. -1.
         11    1    4    4    0    0  0.22548281679E+00  0.59486058459E+01 -0.25655237050E+01  0.64821806634E+01  0.51100000000E-03 0. -1.
        -11    1    4    4    0    0  0.49391318553E+01  0.40414739738E+01 -0.15577375328E+02  0.16833988171E+02  0.51100000000E-03 0.  1.
        -12    1    4    4    0    0  0.18973255218E+02  0.93709210929E+01 -0.12289645029E+02  0.24471083969E+02  0.00000000000E+00 0.  1.
</event>
<event>
 8    1  0.4042158E-011  0.9118800E+02  0.7816164E-02  0.1184000E+00
        -11   -1    0    0    0    0  0.00000000000E+00  0.00000000000E+00  0.45593999997E+02  0.45594000000E+02  0.51100000000E-03 0. -1.
         11   -1    0    0    0    0 -0.00000000000E+00 -0.00000000000E+00 -0.45593999997E+02  0.45594000000E+02  0.51100000000E-03 0.  1.
         23    2    1    2    0    0  0.00000000000E+00  0.00000000000E+00  0.00000000000E+00  0.91188000000E+02  0.91188000000E+02 0.  0.
    9900012    2    3    3    0    0  0.37712277645E+02 -0.15772151946E+02 -0.14582408365E+02  0.47787270790E+02  0.19999998841E+02 0.  0.
         12    1    3    3    0    0 -0.37712277645E+02  0.15772151946E+02  0.14582408365E+02  0.43400729210E+02  0.00000000000E+00 0. -1.
         11    1    4    4    0    0  0.18314767508E+02 -0.39778732961E+01 -0.54628301525E+01  0.19521698143E+02  0.51100000000E-03 0.  1.
        -11    1    4    4    0    0  0.47553635256E+01 -0.90025009048E+01  0.10285054447E+01  0.10233099653E+02  0.51100000000E-03 0. -1.
         12    1    4    4    0    0  0.14642146612E+02 -0.27917777447E+01 -0.10148083657E+02  0.18032472994E+02  0.00000000000E+00 0. -1.
</event>
<event>
 8    1  0.4042158E-011  0.9118800E+02  0.7816164E-02  0.1184000E+00
        -11   -1    0    0    0    0  0.00000000000E+00  0.00000000000E+00  0.45593999997E+02  0.45594000000E+02  0.51100000000E-03 0. -1.
         11   -1    0    0    0    0 -0.00000000000E+00 -0.00000000000E+00 -0.45593999997E+02  0.45594000000E+02  0.51100000000E-03 0.  1.
         23    2    1    2    0    0  0.88817841970E-15 -0.71054273576E-14  0.35527136788E-14  0.91188000000E+02  0.91188000000E+02 0.  0.
    9900012    2    3    3    0    0 -0.13047611206E+01  0.33344255582E+02 -0.27750336440E+02  0.47787274725E+02  0.20000016780E+02 0.  0.
         12    1    3    3    0    0  0.13047611206E+01 -0.33344255582E+02  0.27750336440E+02  0.43400725275E+02  0.00000000000E+00 0. -1.
         11    1    4    4    0    0 -0.59330322160E+01  0.17893630824E+02 -0.23892902708E+02  0.30434416298E+02  0.51100000000E-03 0. -1.
        -11    1    4    4    0    0  0.32182368617E+01  0.12512612212E+02 -0.50653748176E+01  0.13877338908E+02  0.51100000000E-03 0.  1.
        -12    1    4    4    0    0  0.14100342338E+01  0.29380125453E+01  0.12079410851E+01  0.34755195183E+01  0.00000000000E+00 0.  1.
</event>
<event>
 8    1  0.4042158E-011  0.9118800E+02  0.7816164E-02  0.1184000E+00
        -11   -1    0    0    0    0  0.00000000000E+00  0.00000000000E+00  0.45593999997E+02  0.45594000000E+02  0.51100000000E-03 0.  1.
         11   -1    0    0    0    0 -0.00000000000E+00 -0.00000000000E+00 -0.45593999997E+02  0.45594000000E+02  0.51100000000E-03 0. -1.
         23    2    1    2    0    0  0.00000000000E+00  0.71054273576E-14  0.00000000000E+00  0.91188000000E+02  0.91188000000E+02 0.  0.
    9900012    2    3    3    0    0  0.27274710494E+02 -0.33376964724E+02 -0.50686871880E+01  0.47787271935E+02  0.20000004063E+02 0.  0.
        -12    1    3    3    0    0 -0.27274710494E+02  0.33376964724E+02  0.50686871880E+01  0.43400728065E+02  0.00000000000E+00 0.  1.
         11    1    4    4    0    0  0.19488831289E+02 -0.22760133329E+02  0.23048418126E+00  0.29964835014E+02  0.51100000000E-03 0. -1.
        -11    1    4    4    0    0  0.17116121054E+01 -0.94753039669E+01  0.79754184677E-01  0.96289855258E+01  0.51100000000E-03 0.  1.
        -12    1    4    4    0    0  0.60742670992E+01 -0.11415274280E+01 -0.53789255540E+01  0.81934513958E+01  0.00000000000E+00 0.  1.
</event>
<event>
 8    1  0.4042158E-011  0.9118800E+02  0.7816164E-02  0.1184000E+00
        -11   -1    0    0    0    0  0.00000000000E+00  0.00000000000E+00  0.45593999997E+02  0.45594000000E+02  0.51100000000E-03 0. -1.
         11   -1    0    0    0    0 -0.00000000000E+00 -0.00000000000E+00 -0.45593999997E+02  0.45594000000E+02  0.51100000000E-03 0.  1.
         23    2    1    2    0    0  0.00000000000E+00  0.00000000000E+00  0.00000000000E+00  0.91188000000E+02  0.91188000000E+02 0.  0.
    9900012    2    3    3    0    0  0.11990560577E+02  0.13777384783E+02  0.39370457386E+02  0.47787276628E+02  0.20000025457E+02 0.  0.
        -12    1    3    3    0    0 -0.11990560577E+02 -0.13777384783E+02 -0.39370457386E+02  0.43400723372E+02  0.00000000000E+00 0.  1.
         11    1    4    4    0    0  0.79612425015E+01  0.34079049745E+01  0.56843525983E+01  0.10358912260E+02  0.51100000000E-03 0. -1.
        -11    1    4    4    0    0  0.17309447841E+01  0.12223591318E+00 -0.38331030190E+00  0.17770870864E+01  0.51100000000E-03 0.  1.
         12    1    4    4    0    0  0.22983732918E+01  0.10247243895E+02  0.34069415090E+02  0.35651277282E+02  0.00000000000E+00 0. -1.
</event>
<event>
 8    1  0.4042158E-011  0.9118800E+02  0.7816164E-02  0.1184000E+00
        -11   -1    0    0    0    0  0.00000000000E+00  0.00000000000E+00  0.45593999997E+02  0.45594000000E+02  0.51100000000E-03 0.  1.
         11   -1    0    0    0    0 -0.00000000000E+00 -0.00000000000E+00 -0.45593999997E+02  0.45594000000E+02  0.51100000000E-03 0. -1.
         23    2    1    2    0    0  0.00000000000E+00 -0.35527136788E-14  0.00000000000E+00  0.91188000000E+02  0.91188000000E+02 0.  0.
    9900012    2    3    3    0    0 -0.28823112888E+02 -0.27336826107E+02 -0.17479973731E+02  0.47787269824E+02  0.19999994437E+02 0.  0.
         12    1    3    3    0    0  0.28823112888E+02  0.27336826107E+02  0.17479973731E+02  0.43400730176E+02  0.00000000000E+00 0. -1.
         11    1    4    4    0    0 -0.12881364292E+02 -0.62355294643E+01 -0.84690285011E+01  0.16629366126E+02  0.51100000000E-03 0. -1.
        -11    1    4    4    0    0 -0.58120957707E+01 -0.33063704464E+01  0.30977815410E+01  0.73694500143E+01  0.51100000000E-03 0.  1.
         12    1    4    4    0    0 -0.10129652825E+02 -0.17794926196E+02 -0.12108726771E+02  0.23788453684E+02  0.00000000000E+00 0. -1.
</event>
<event>
 8    1  0.4042158E-011  0.9118800E+02  0.7816164E-02  0.1184000E+00
        -11   -1    0    0    0    0  0.00000000000E+00  0.00000000000E+00  0.45593999997E+02  0.45594000000E+02  0.51100000000E-03 0. -1.
         11   -1    0    0    0    0 -0.00000000000E+00 -0.00000000000E+00 -0.45593999997E+02  0.45594000000E+02  0.51100000000E-03 0.  1.
         23    2    1    2    0    0 -0.35527136788E-14  0.00000000000E+00 -0.71054273576E-14  0.91188000000E+02  0.91188000000E+02 0.  0.
    9900012    2    3    3    0    0  0.19770242703E+02  0.92186673050E+01  0.37520350453E+02  0.47787273951E+02  0.20000013254E+02 0.  0.
        -12    1    3    3    0    0 -0.19770242703E+02 -0.92186673050E+01 -0.37520350453E+02  0.43400726049E+02  0.00000000000E+00 0.  1.
         11    1    4    4    0    0  0.95982079830E+01  0.69071143971E+01  0.98864791113E+01  0.15413510154E+02  0.51100000000E-03 0. -1.
        -11    1    4    4    0    0  0.53518906037E+01  0.17354746014E+01  0.15414193994E+01  0.58335734461E+01  0.51100000000E-03 0.  1.
        -12    1    4    4    0    0  0.48201441163E+01  0.57607830658E+00  0.26092451943E+02  0.26540190352E+02  0.00000000000E+00 0.  1.
</event>
<event>
 8    1  0.4042158E-011  0.9118800E+02  0.7816164E-02  0.1184000E+00
        -11   -1    0    0    0    0  0.00000000000E+00  0.00000000000E+00  0.45593999997E+02  0.45594000000E+02  0.51100000000E-03 0. -1.
         11   -1    0    0    0    0 -0.00000000000E+00 -0.00000000000E+00 -0.45593999997E+02  0.45594000000E+02  0.51100000000E-03 0.  1.
         23    2    1    2    0    0  0.00000000000E+00 -0.44408920985E-15 -0.35527136788E-14  0.91188000000E+02  0.91188000000E+02 0.  0.
    9900012    2    3    3    0    0 -0.31352935687E+02  0.29455804716E+01  0.29865350204E+02  0.47787283839E+02  0.20000058335E+02 0.  0.
        -12    1    3    3    0    0  0.31352935687E+02 -0.29455804716E+01 -0.29865350204E+02  0.43400716161E+02  0.00000000000E+00 0.  1.
         11    1    4    4    0    0 -0.89646312782E+00  0.43743902986E+00  0.32737714772E+01  0.34223645321E+01  0.51100000000E-03 0. -1.
        -11    1    4    4    0    0 -0.32795892188E+02  0.31632289934E+01  0.23690589354E+02  0.40581037274E+02  0.51100000000E-03 0.  1.
        -12    1    4    4    0    0  0.23394196284E+01 -0.65508755172E+00  0.29009893727E+01  0.37838820328E+01  0.00000000000E+00 0.  1.
</event>
<event>
 8    1  0.4042158E-011  0.9118800E+02  0.7816164E-02  0.1184000E+00
        -11   -1    0    0    0    0  0.00000000000E+00  0.00000000000E+00  0.45593999997E+02  0.45594000000E+02  0.51100000000E-03 0. -1.
         11   -1    0    0    0    0 -0.00000000000E+00 -0.00000000000E+00 -0.45593999997E+02  0.45594000000E+02  0.51100000000E-03 0.  1.
         23    2    1    2    0    0  0.00000000000E+00 -0.88817841970E-15  0.00000000000E+00  0.91188000000E+02  0.91188000000E+02 0.  0.
    9900012    2    3    3    0    0 -0.13188261212E+02  0.75453777160E+01 -0.40654154844E+02  0.47787271149E+02  0.20000000479E+02 0.  0.
         12    1    3    3    0    0  0.13188261212E+02 -0.75453777160E+01  0.40654154844E+02  0.43400728851E+02  0.00000000000E+00 0. -1.
         11    1    4    4    0    0 -0.65981612933E+01  0.20681171815E+01 -0.43558716174E+01  0.81722982653E+01  0.51100000000E-03 0. -1.
        -11    1    4    4    0    0 -0.84268989247E+00 -0.43369272268E+01 -0.84882738979E+01  0.95692140771E+01  0.51100000000E-03 0.  1.
         12    1    4    4    0    0 -0.57474100266E+01  0.98141877613E+01 -0.27810009329E+02  0.30045758807E+02  0.00000000000E+00 0. -1.
</event>
<event>
 8    1  0.4042158E-011  0.9118800E+02  0.7816164E-02  0.1184000E+00
        -11   -1    0    0    0    0  0.00000000000E+00  0.00000000000E+00  0.45593999997E+02  0.45594000000E+02  0.51100000000E-03 0. -1.
         11   -1    0    0    0    0 -0.00000000000E+00 -0.00000000000E+00 -0.45593999997E+02  0.45594000000E+02  0.51100000000E-03 0.  1.
         23    2    1    2    0    0  0.00000000000E+00  0.00000000000E+00  0.00000000000E+00  0.91188000000E+02  0.91188000000E+02 0.  0.
    9900012    2    3    3    0    0 -0.47394027516E+01  0.63351262491E+01 -0.42673505063E+02  0.47787265013E+02  0.19999972499E+02 0.  0.
         12    1    3    3    0    0  0.47394027516E+01 -0.63351262491E+01  0.42673505063E+02  0.43400734987E+02  0.00000000000E+00 0. -1.
         11    1    4    4    0    0  0.10991219503E+01  0.10054124238E+01 -0.92223410187E+01  0.93418679786E+01  0.51100000000E-03 0. -1.
        -11    1    4    4    0    0 -0.10600093197E+01 -0.62839148771E+01 -0.10476738467E+02  0.12262677322E+02  0.51100000000E-03 0.  1.
         12    1    4    4    0    0 -0.47785153821E+01  0.11613628702E+02 -0.22974425577E+02  0.26182719712E+02  0.00000000000E+00 0. -1.
</event>
<event>
 8    1  0.4042158E-011  0.9118800E+02  0.7816164E-02  0.1184000E+00
        -11   -1    0    0    0    0  0.00000000000E+00  0.00000000000E+00  0.45593999997E+02  0.45594000000E+02  0.51100000000E-03 0. -1.
         11   -1    0    0    0    0 -0.00000000000E+00 -0.00000000000E+00 -0.45593999997E+02  0.45594000000E+02  0.51100000000E-03 0.  1.
         23    2    1    2    0    0  0.00000000000E+00  0.00000000000E+00  0.00000000000E+00  0.91188000000E+02  0.91188000000E+02 0.  0.
    9900012    2    3    3    0    0 -0.36289132416E+02  0.63986418941E+01  0.22929885477E+02  0.47787269619E+02  0.19999993503E+02 0.  0.
        -12    1    3    3    0    0  0.36289132416E+02 -0.63986418941E+01 -0.22929885477E+02  0.43400730381E+02  0.00000000000E+00 0.  1.
         11    1    4    4    0    0 -0.12540880935E+01  0.44679982769E+01 -0.83804544847E+00  0.47157253932E+01  0.51100000000E-03 0. -1.
        -11    1    4    4    0    0 -0.12850537611E+02  0.93399407493E+00  0.44293337679E+01  0.13624524201E+02  0.51100000000E-03 0.  1.
        -12    1    4    4    0    0 -0.22184506711E+02  0.99664954227E+00  0.19338597157E+02  0.29447020025E+02  0.00000000000E+00 0.  1.
</event>
<event>
 8    1  0.4042158E-011  0.9118800E+02  0.7816164E-02  0.1184000E+00
        -11   -1    0    0    0    0  0.00000000000E+00  0.00000000000E+00  0.45593999997E+02  0.45594000000E+02  0.51100000000E-03 0.  1.
         11   -1    0    0    0    0 -0.00000000000E+00 -0.00000000000E+00 -0.45593999997E+02  0.45594000000E+02  0.51100000000E-03 0. -1.
         23    2    1    2    0    0  0.71054273576E-14  0.00000000000E+00 -0.35527136788E-14  0.91188000000E+02  0.91188000000E+02 0.  0.
    9900012    2    3    3    0    0  0.28093023244E+02  0.23598246665E+02 -0.23184645457E+02  0.47787274365E+02  0.20000015139E+02 0.  0.
        -12    1    3    3    0    0 -0.28093023244E+02 -0.23598246665E+02  0.23184645457E+02  0.43400725635E+02  0.00000000000E+00 0.  1.
         11    1    4    4    0    0  0.38878217534E+01 -0.36497677194E+00 -0.25858940417E+01  0.46835044877E+01  0.51100000000E-03 0.  1.
        -11    1    4    4    0    0  0.55405924949E+01  0.70705659682E+00 -0.10004299566E+02  0.11457927574E+02  0.51100000000E-03 0. -1.
         12    1    4    4    0    0  0.18664608996E+02  0.23256166840E+02 -0.10594451850E+02  0.31645842303E+02  0.00000000000E+00 0. -1.
</event>
<event>
 8    1  0.4042158E-011  0.9118800E+02  0.7816164E-02  0.1184000E+00
        -11   -1    0    0    0    0  0.00000000000E+00  0.00000000000E+00  0.45593999997E+02  0.45594000000E+02  0.51100000000E-03 0. -1.
         11   -1    0    0    0    0 -0.00000000000E+00 -0.00000000000E+00 -0.45593999997E+02  0.45594000000E+02  0.51100000000E-03 0.  1.
         23    2    1    2    0    0 -0.88817841970E-15  0.00000000000E+00 -0.35527136788E-14  0.91188000000E+02  0.91188000000E+02 0.  0.
    9900012    2    3    3    0    0 -0.61625256487E+01  0.33247999503E+02 -0.27206918130E+02  0.47787278952E+02  0.20000036055E+02 0.  0.
         12    1    3    3    0    0  0.61625256487E+01 -0.33247999503E+02  0.27206918130E+02  0.43400721048E+02  0.00000000000E+00 0. -1.
         11    1    4    4    0    0 -0.27467767093E-02  0.24170123447E+02 -0.16757377452E+02  0.29410960105E+02  0.51100000000E-03 0. -1.
        -11    1    4    4    0    0 -0.16712602975E+01  0.58806119300E+01 -0.11253771223E+02  0.12807110317E+02  0.51100000000E-03 0.  1.
         12    1    4    4    0    0 -0.44885185745E+01  0.31972641262E+01  0.80423054541E+00  0.55692085306E+01  0.00000000000E+00 0. -1.
</event>
<event>
 8    1  0.4042158E-011  0.9118800E+02  0.7816164E-02  0.1184000E+00
        -11   -1    0    0    0    0  0.00000000000E+00  0.00000000000E+00  0.45593999997E+02  0.45594000000E+02  0.51100000000E-03 0. -1.
         11   -1    0    0    0    0 -0.00000000000E+00 -0.00000000000E+00 -0.45593999997E+02  0.45594000000E+02  0.51100000000E-03 0.  1.
         23    2    1    2    0    0  0.00000000000E+00  0.00000000000E+00  0.00000000000E+00  0.91188000000E+02  0.91188000000E+02 0.  0.
    9900012    2    3    3    0    0 -0.48221856093E+01 -0.14703767706E+02  0.40548353676E+02  0.47787271381E+02  0.20000001535E+02 0.  0.
        -12    1    3    3    0    0  0.48221856093E+01  0.14703767706E+02 -0.40548353676E+02  0.43400728619E+02  0.00000000000E+00 0.  1.
         11    1    4    4    0    0 -0.87676682747E+01 -0.13951527319E+02  0.35679980553E+02  0.39301121282E+02  0.51100000000E-03 0. -1.
        -11    1    4    4    0    0  0.16217271971E+01 -0.32526871164E-01  0.56914053554E+01  0.59180361844E+01  0.51100000000E-03 0.  1.
        -12    1    4    4    0    0  0.23237554683E+01 -0.71971351645E+00 -0.82303223265E+00  0.25681139146E+01  0.00000000000E+00 0.  1.
</event>
<event>
 8    1  0.4042158E-011  0.9118800E+02  0.7816164E-02  0.1184000E+00
        -11   -1    0    0    0    0  0.00000000000E+00  0.00000000000E+00  0.45593999997E+02  0.45594000000E+02  0.51100000000E-03 0.  1.
         11   -1    0    0    0    0 -0.00000000000E+00 -0.00000000000E+00 -0.45593999997E+02  0.45594000000E+02  0.51100000000E-03 0. -1.
         23    2    1    2    0    0 -0.71054273576E-14  0.00000000000E+00  0.00000000000E+00  0.91188000000E+02  0.91188000000E+02 0.  0.
    9900012    2    3    3    0    0  0.42347136429E+02 -0.65845550475E+01 -0.68547149303E+01  0.47787269065E+02  0.19999990974E+02 0.  0.
         12    1    3    3    0    0 -0.42347136429E+02  0.65845550475E+01  0.68547149303E+01  0.43400730935E+02  0.00000000000E+00 0. -1.
         11    1    4    4    0    0  0.12497421745E+01 -0.28622448485E+01 -0.20752612451E+00  0.31300748281E+01  0.51100000000E-03 0. -1.
        -11    1    4    4    0    0  0.42789775498E+01 -0.53228676811E+01  0.13117725696E+01  0.69543739300E+01  0.51100000000E-03 0.  1.
         12    1    4    4    0    0  0.36818416705E+02  0.16005574821E+01 -0.79589613754E+01  0.37702820307E+02  0.00000000000E+00 0. -1.
</event>
<event>
 8    1  0.4042158E-011  0.9118800E+02  0.7816164E-02  0.1184000E+00
        -11   -1    0    0    0    0  0.00000000000E+00  0.00000000000E+00  0.45593999997E+02  0.45594000000E+02  0.51100000000E-03 0. -1.
         11   -1    0    0    0    0 -0.00000000000E+00 -0.00000000000E+00 -0.45593999997E+02  0.45594000000E+02  0.51100000000E-03 0.  1.
         23    2    1    2    0    0  0.00000000000E+00  0.00000000000E+00  0.00000000000E+00  0.91188000000E+02  0.91188000000E+02 0.  0.
    9900012    2    3    3    0    0 -0.76950001776E+01 -0.23278228167E+02 -0.35812526634E+02  0.47787239659E+02  0.19999856899E+02 0.  0.
         12    1    3    3    0    0  0.76950001776E+01  0.23278228167E+02  0.35812526634E+02  0.43400760341E+02  0.00000000000E+00 0. -1.
         11    1    4    4    0    0  0.26973794592E+01 -0.24464100915E+01 -0.42695149182E+01  0.56115538116E+01  0.51100000000E-03 0.  1.
        -11    1    4    4    0    0 -0.27756279339E+01 -0.56813633064E+01  0.45635215959E-01  0.63232967889E+01  0.51100000000E-03 0. -1.
        -12    1    4    4    0    0 -0.76167517029E+01 -0.15150454769E+02 -0.31588646931E+02  0.35852389058E+02  0.00000000000E+00 0.  1.
</event>
<event>
 8    1  0.4042158E-011  0.9118800E+02  0.7816164E-02  0.1184000E+00
        -11   -1    0    0    0    0  0.00000000000E+00  0.00000000000E+00  0.45593999997E+02  0.45594000000E+02  0.51100000000E-03 0. -1.
         11   -1    0    0    0    0 -0.00000000000E+00 -0.00000000000E+00 -0.45593999997E+02  0.45594000000E+02  0.51100000000E-03 0.  1.
         23    2    1    2    0    0  0.00000000000E+00  0.00000000000E+00  0.71054273576E-14  0.91188000000E+02  0.91188000000E+02 0.  0.
    9900012    2    3    3    0    0 -0.57720490981E+01  0.61926891973E+01  0.42567091397E+02  0.47787271661E+02  0.20000002813E+02 0.  0.
        -12    1    3    3    0    0  0.57720490981E+01 -0.61926891973E+01 -0.42567091397E+02  0.43400728339E+02  0.00000000000E+00 0.  1.
         11    1    4    4    0    0 -0.52751853584E+01 -0.37714327226E+00  0.25593268727E+02  0.26133985957E+02  0.51100000000E-03 0. -1.
        -11    1    4    4    0    0  0.12047066994E+01  0.17253400204E+00  0.14554535002E+02  0.14605326960E+02  0.51100000000E-03 0.  1.
        -12    1    4    4    0    0 -0.17015704390E+01  0.63972984675E+01  0.24192876682E+01  0.70479587444E+01  0.00000000000E+00 0.  1.
</event>
<event>
 8    1  0.4351871E-011  0.9118800E+02  0.7816164E-02  0.1184000E+00
        -11   -1    0    0    0    0  0.00000000000E+00  0.00000000000E+00  0.45593999997E+02  0.45594000000E+02  0.51100000000E-03 0. -1.
         11   -1    0    0    0    0 -0.00000000000E+00 -0.00000000000E+00 -0.45593999997E+02  0.45594000000E+02  0.51100000000E-03 0.  1.
         23    2    1    2    0    0  0.00000000000E+00  0.00000000000E+00  0.00000000000E+00  0.91188000000E+02  0.91188000000E+02 0.  0.
    9900012    2    3    3    0    0  0.36596192002E+02  0.51386385341E+01  0.22758219631E+02  0.47787269178E+02  0.19999991491E+02 0.  0.
        -12    1    3    3    0    0 -0.36596192002E+02 -0.51386385341E+01 -0.22758219631E+02  0.43400730822E+02  0.00000000000E+00 0.  1.
         11    1    4    4    0    0  0.95317942688E+01  0.32650532901E+01  0.72144420522E+01  0.12392088176E+02  0.51100000000E-03 0. -1.
        -11    1    4    4    0    0  0.57469922361E+01 -0.63252448230E+01  0.68655924504E+01  0.10962344721E+02  0.51100000000E-03 0.  1.
        -12    1    4    4    0    0  0.21317405498E+02  0.81988300670E+01  0.86781851289E+01  0.24432836281E+02  0.00000000000E+00 0.  1.
</event>
<event>
 8    1  0.4042158E-011  0.9118800E+02  0.7816164E-02  0.1184000E+00
        -11   -1    0    0    0    0  0.00000000000E+00  0.00000000000E+00  0.45593999997E+02  0.45594000000E+02  0.51100000000E-03 0. -1.
         11   -1    0    0    0    0 -0.00000000000E+00 -0.00000000000E+00 -0.45593999997E+02  0.45594000000E+02  0.51100000000E-03 0.  1.
         23    2    1    2    0    0  0.00000000000E+00  0.17763568394E-14  0.00000000000E+00  0.91188000000E+02  0.91188000000E+02 0.  0.
    9900012    2    3    3    0    0 -0.38209362029E+02 -0.92918612628E+01  0.18366501827E+02  0.47787280861E+02  0.20000044760E+02 0.  0.
        -12    1    3    3    0    0  0.38209362029E+02  0.92918612628E+01 -0.18366501827E+02  0.43400719139E+02  0.00000000000E+00 0.  1.
         11    1    4    4    0    0 -0.12168980616E+02 -0.67454195341E+01  0.72915024684E+01  0.15708302977E+02  0.51100000000E-03 0. -1.
        -11    1    4    4    0    0  0.76973222069E+00 -0.30982858297E+01  0.40378131236E+00  0.32179034142E+01  0.51100000000E-03 0.  1.
         12    1    4    4    0    0 -0.26810113634E+02  0.55184410090E+00  0.10671218046E+02  0.28861074470E+02  0.00000000000E+00 0. -1.
</event>
<event>
 8    1  0.4042158E-011  0.9118800E+02  0.7816164E-02  0.1184000E+00
        -11   -1    0    0    0    0  0.00000000000E+00  0.00000000000E+00  0.45593999997E+02  0.45594000000E+02  0.51100000000E-03 0. -1.
         11   -1    0    0    0    0 -0.00000000000E+00 -0.00000000000E+00 -0.45593999997E+02  0.45594000000E+02  0.51100000000E-03 0.  1.
         23    2    1    2    0    0  0.17763568394E-14  0.35527136788E-14  0.00000000000E+00  0.91188000000E+02  0.91188000000E+02 0.  0.
    9900012    2    3    3    0    0 -0.12256772724E+02 -0.28715075720E+02 -0.30146966003E+02  0.47787267168E+02  0.19999982324E+02 0.  0.
         12    1    3    3    0    0  0.12256772724E+02  0.28715075720E+02  0.30146966003E+02  0.43400732832E+02  0.00000000000E+00 0. -1.
         11    1    4    4    0    0 -0.42484251651E+01 -0.44570946200E+01 -0.57422699004E+00  0.61842174713E+01  0.51100000000E-03 0. -1.
        -11    1    4    4    0    0 -0.25524956358E+01 -0.16756929222E+02 -0.93578823866E+01  0.19361814841E+02  0.51100000000E-03 0.  1.
         12    1    4    4    0    0 -0.54558519229E+01 -0.75010518788E+01 -0.20214856626E+02  0.22241234856E+02  0.00000000000E+00 0. -1.
</event>
<event>
 8    1  0.4042158E-011  0.9118800E+02  0.7816164E-02  0.1184000E+00
        -11   -1    0    0    0    0  0.00000000000E+00  0.00000000000E+00  0.45593999997E+02  0.45594000000E+02  0.51100000000E-03 0. -1.
         11   -1    0    0    0    0 -0.00000000000E+00 -0.00000000000E+00 -0.45593999997E+02  0.45594000000E+02  0.51100000000E-03 0.  1.
         23    2    1    2    0    0  0.35527136788E-14  0.00000000000E+00  0.00000000000E+00  0.91188000000E+02  0.91188000000E+02 0.  0.
    9900012    2    3    3    0    0  0.26995146602E+02  0.60820146504E+01 -0.33434931057E+02  0.47787268934E+02  0.19999990376E+02 0.  0.
         12    1    3    3    0    0 -0.26995146602E+02 -0.60820146504E+01  0.33434931057E+02  0.43400731066E+02  0.00000000000E+00 0. -1.
         11    1    4    4    0    0  0.10044132022E+02 -0.74543237641E+00 -0.18024175533E+02  0.20647303974E+02  0.51100000000E-03 0. -1.
        -11    1    4    4    0    0  0.17031733202E+02  0.17828277256E+01 -0.10433659297E+02  0.20052921412E+02  0.51100000000E-03 0.  1.
         12    1    4    4    0    0 -0.80718621405E-01  0.50446193012E+01 -0.49770962270E+01  0.70870435474E+01  0.00000000000E+00 0. -1.
</event>
<event>
 8    1  0.4042158E-011  0.9118800E+02  0.7816164E-02  0.1184000E+00
        -11   -1    0    0    0    0  0.00000000000E+00  0.00000000000E+00  0.45593999997E+02  0.45594000000E+02  0.51100000000E-03 0. -1.
         11   -1    0    0    0    0 -0.00000000000E+00 -0.00000000000E+00 -0.45593999997E+02  0.45594000000E+02  0.51100000000E-03 0.  1.
         23    2    1    2    0    0 -0.17763568394E-14  0.17763568394E-14  0.71054273576E-14  0.91188000000E+02  0.91188000000E+02 0.  0.
    9900012    2    3    3    0    0  0.13210297497E+02 -0.10393596105E+02 -0.40013541603E+02  0.47787282131E+02  0.20000050546E+02 0.  0.
         12    1    3    3    0    0 -0.13210297497E+02  0.10393596105E+02  0.40013541603E+02  0.43400717869E+02  0.00000000000E+00 0. -1.
         11    1    4    4    0    0  0.27917651159E+01  0.36799981835E+01 -0.75484110097E+01  0.88495676802E+01  0.51100000000E-03 0. -1.
        -11    1    4    4    0    0  0.90436368071E+00 -0.22817391529E+01  0.63445967776E+00  0.25351028722E+01  0.51100000000E-03 0.  1.
        -12    1    4    4    0    0  0.95141687002E+01 -0.11791855135E+02 -0.33099590271E+02  0.36402611578E+02  0.00000000000E+00 0.  1.
</event>
<event>
 8    1  0.4042158E-011  0.9118800E+02  0.7816164E-02  0.1184000E+00
        -11   -1    0    0    0    0  0.00000000000E+00  0.00000000000E+00  0.45593999997E+02  0.45594000000E+02  0.51100000000E-03 0. -1.
         11   -1    0    0    0    0 -0.00000000000E+00 -0.00000000000E+00 -0.45593999997E+02  0.45594000000E+02  0.51100000000E-03 0.  1.
         23    2    1    2    0    0  0.00000000000E+00  0.00000000000E+00  0.00000000000E+00  0.91188000000E+02  0.91188000000E+02 0.  0.
    9900012    2    3    3    0    0 -0.16049046295E+02  0.10537576512E+02  0.38923139814E+02  0.47787271680E+02  0.20000002899E+02 0.  0.
        -12    1    3    3    0    0  0.16049046295E+02 -0.10537576512E+02 -0.38923139814E+02  0.43400728320E+02  0.00000000000E+00 0.  1.
         11    1    4    4    0    0 -0.13848663545E+02  0.13073974069E+02  0.26131396674E+02  0.32335184743E+02  0.51100000000E-03 0. -1.
        -11    1    4    4    0    0 -0.36712725857E+01 -0.67953416812E+00  0.16862502302E+01  0.40967608161E+01  0.51100000000E-03 0.  1.
         12    1    4    4    0    0  0.14708898357E+01 -0.18568633894E+01  0.11105492910E+02  0.11355326121E+02  0.00000000000E+00 0. -1.
</event>
<event>
 8    1  0.4042158E-011  0.9118800E+02  0.7816164E-02  0.1184000E+00
        -11   -1    0    0    0    0  0.00000000000E+00  0.00000000000E+00  0.45593999997E+02  0.45594000000E+02  0.51100000000E-03 0.  1.
         11   -1    0    0    0    0 -0.00000000000E+00 -0.00000000000E+00 -0.45593999997E+02  0.45594000000E+02  0.51100000000E-03 0. -1.
         23    2    1    2    0    0  0.00000000000E+00  0.00000000000E+00 -0.17763568394E-14  0.91188000000E+02  0.91188000000E+02 0.  0.
    9900012    2    3    3    0    0  0.39820904633E+01 -0.42218617551E+02  0.92387603630E+01  0.47787269529E+02  0.19999993089E+02 0.  0.
        -12    1    3    3    0    0 -0.39820904633E+01  0.42218617551E+02 -0.92387603630E+01  0.43400730471E+02  0.00000000000E+00 0.  1.
         11    1    4    4    0    0  0.15715600387E+01 -0.12905014629E+02  0.12291177576E+02  0.17890842630E+02  0.51100000000E-03 0. -1.
        -11    1    4    4    0    0  0.40078314595E+00 -0.15988895723E+01 -0.12159532673E+01  0.20483206790E+01  0.51100000000E-03 0.  1.
         12    1    4    4    0    0  0.20097472786E+01 -0.27714713350E+02 -0.18364639463E+01  0.27848106220E+02  0.00000000000E+00 0. -1.
</event>
<event>
 8    1  0.4042158E-011  0.9118800E+02  0.7816164E-02  0.1184000E+00
        -11   -1    0    0    0    0  0.00000000000E+00  0.00000000000E+00  0.45593999997E+02  0.45594000000E+02  0.51100000000E-03 0. -1.
         11   -1    0    0    0    0 -0.00000000000E+00 -0.00000000000E+00 -0.45593999997E+02  0.45594000000E+02  0.51100000000E-03 0.  1.
         23    2    1    2    0    0  0.17763568394E-14  0.17763568394E-14  0.00000000000E+00  0.91188000000E+02  0.91188000000E+02 0.  0.
    9900012    2    3    3    0    0  0.13732108756E+02 -0.14394154349E+02  0.38572799969E+02  0.47787269733E+02  0.19999994019E+02 0.  0.
        -12    1    3    3    0    0 -0.13732108756E+02  0.14394154349E+02 -0.38572799969E+02  0.43400730267E+02  0.00000000000E+00 0.  1.
         11    1    4    4    0    0  0.13173741714E+01 -0.10066338423E+00  0.68642305988E+01  0.69902267344E+01  0.51100000000E-03 0. -1.
        -11    1    4    4    0    0 -0.16952906309E+01 -0.11066875450E+02  0.13772486465E+02  0.17749116210E+02  0.51100000000E-03 0.  1.
         12    1    4    4    0    0  0.14110025215E+02 -0.32266155144E+01  0.17936082905E+02  0.23047926788E+02  0.00000000000E+00 0. -1.
</event>
<event>
 8    1  0.4042158E-011  0.9118800E+02  0.7816164E-02  0.1184000E+00
        -11   -1    0    0    0    0  0.00000000000E+00  0.00000000000E+00  0.45593999997E+02  0.45594000000E+02  0.51100000000E-03 0. -1.
         11   -1    0    0    0    0 -0.00000000000E+00 -0.00000000000E+00 -0.45593999997E+02  0.45594000000E+02  0.51100000000E-03 0.  1.
         23    2    1    2    0    0  0.00000000000E+00  0.35527136788E-14 -0.35527136788E-14  0.91188000000E+02  0.91188000000E+02 0.  0.
    9900012    2    3    3    0    0 -0.19823765282E+02 -0.24589574612E+02  0.29765656697E+02  0.47787272262E+02  0.20000005552E+02 0.  0.
        -12    1    3    3    0    0  0.19823765282E+02  0.24589574612E+02 -0.29765656697E+02  0.43400727738E+02  0.00000000000E+00 0.  1.
         11    1    4    4    0    0 -0.27341841193E+01 -0.63855220099E+01  0.46118604836E+01  0.83378601282E+01  0.51100000000E-03 0.  1.
        -11    1    4    4    0    0 -0.65910526015E+01 -0.16243797452E+02  0.80615789903E+01  0.19294869425E+02  0.51100000000E-03 0. -1.
         12    1    4    4    0    0 -0.10498528561E+02 -0.19602551506E+01  0.17092217223E+02  0.20154542709E+02  0.00000000000E+00 0. -1.
</event>
<event>
 8    1  0.4042158E-011  0.9118800E+02  0.7816164E-02  0.1184000E+00
        -11   -1    0    0    0    0  0.00000000000E+00  0.00000000000E+00  0.45593999997E+02  0.45594000000E+02  0.51100000000E-03 0. -1.
         11   -1    0    0    0    0 -0.00000000000E+00 -0.00000000000E+00 -0.45593999997E+02  0.45594000000E+02  0.51100000000E-03 0.  1.
         23    2    1    2    0    0  0.44408920985E-15  0.00000000000E+00  0.71054273576E-14  0.91188000000E+02  0.91188000000E+02 0.  0.
    9900012    2    3    3    0    0 -0.37862741997E+01 -0.21326437625E+02 -0.37609445399E+02  0.47787271926E+02  0.20000004020E+02 0.  0.
         12    1    3    3    0    0  0.37862741997E+01  0.21326437625E+02  0.37609445399E+02  0.43400728074E+02  0.00000000000E+00 0. -1.
         11    1    4    4    0    0  0.45402340058E+01 -0.10561728762E+02 -0.10888651689E+02  0.15834347954E+02  0.51100000000E-03 0.  1.
        -11    1    4    4    0    0  0.28703170331E+00 -0.24041854090E+01 -0.14936516026E+02  0.15131490539E+02  0.51100000000E-03 0. -1.
        -12    1    4    4    0    0 -0.86135399089E+01 -0.83605234544E+01 -0.11784277684E+02  0.16821433432E+02  0.00000000000E+00 0.  1.
</event>
<event>
 8    1  0.4042158E-011  0.9118800E+02  0.7816164E-02  0.1184000E+00
        -11   -1    0    0    0    0  0.00000000000E+00  0.00000000000E+00  0.45593999997E+02  0.45594000000E+02  0.51100000000E-03 0. -1.
         11   -1    0    0    0    0 -0.00000000000E+00 -0.00000000000E+00 -0.45593999997E+02  0.45594000000E+02  0.51100000000E-03 0.  1.
         23    2    1    2    0    0  0.00000000000E+00  0.00000000000E+00  0.71054273576E-14  0.91188000000E+02  0.91188000000E+02 0.  0.
    9900012    2    3    3    0    0 -0.66406515679E+01 -0.58489663318E+01  0.42488992224E+02  0.47787272810E+02  0.20000008052E+02 0.  0.
        -12    1    3    3    0    0  0.66406515679E+01  0.58489663318E+01 -0.42488992224E+02  0.43400727190E+02  0.00000000000E+00 0.  1.
         11    1    4    4    0    0 -0.28004193683E+01 -0.20744759914E+01  0.51773124734E+01  0.62410226714E+01  0.51100000000E-03 0. -1.
        -11    1    4    4    0    0 -0.59474887326E+01  0.54107602532E+00  0.26162002407E+01  0.65199608473E+01  0.51100000000E-03 0.  1.
         12    1    4    4    0    0  0.21072565329E+01 -0.43155663657E+01  0.34695479510E+02  0.35026289292E+02  0.00000000000E+00 0. -1.
</event>
<event>
 8    1  0.4042158E-011  0.9118800E+02  0.7816164E-02  0.1184000E+00
        -11   -1    0    0    0    0  0.00000000000E+00  0.00000000000E+00  0.45593999997E+02  0.45594000000E+02  0.51100000000E-03 0. -1.
         11   -1    0    0    0    0 -0.00000000000E+00 -0.00000000000E+00 -0.45593999997E+02  0.45594000000E+02  0.51100000000E-03 0.  1.
         23    2    1    2    0    0  0.88817841970E-15  0.00000000000E+00  0.00000000000E+00  0.91188000000E+02  0.91188000000E+02 0.  0.
    9900012    2    3    3    0    0  0.40262788464E+01  0.39674618606E+02 -0.17127087826E+02  0.47787269358E+02  0.19999992310E+02 0.  0.
         12    1    3    3    0    0 -0.40262788464E+01 -0.39674618606E+02  0.17127087826E+02  0.43400730642E+02  0.00000000000E+00 0. -1.
         11    1    4    4    0    0  0.16499228217E+01  0.37608640868E+01 -0.44339687995E+01  0.60437094216E+01  0.51100000000E-03 0. -1.
        -11    1    4    4    0    0  0.80852657814E+01  0.21460972243E+02 -0.22992636322E+01  0.23048459078E+02  0.51100000000E-03 0.  1.
         12    1    4    4    0    0 -0.57089097567E+01  0.14452782276E+02 -0.10393855394E+02  0.18695100858E+02  0.00000000000E+00 0. -1.
</event>
<event>
 8    1  0.4042158E-011  0.9118800E+02  0.7816164E-02  0.1184000E+00
        -11   -1    0    0    0    0  0.00000000000E+00  0.00000000000E+00  0.45593999997E+02  0.45594000000E+02  0.51100000000E-03 0. -1.
         11   -1    0    0    0    0 -0.00000000000E+00 -0.00000000000E+00 -0.45593999997E+02  0.45594000000E+02  0.51100000000E-03 0.  1.
         23    2    1    2    0    0  0.00000000000E+00  0.00000000000E+00 -0.33306690739E-15  0.91188000000E+02  0.91188000000E+02 0.  0.
    9900012    2    3    3    0    0  0.64959914228E+01  0.42907027289E+02  0.64214978894E+00  0.47787271300E+02  0.20000001165E+02 0.  0.
         12    1    3    3    0    0 -0.64959914228E+01 -0.42907027289E+02 -0.64214978894E+00  0.43400728700E+02  0.00000000000E+00 0. -1.
         11    1    4    4    0    0  0.23293726898E+01 -0.21886340536E+00 -0.93864875145E+00  0.25209006442E+01  0.51100000000E-03 0. -1.
        -11    1    4    4    0    0  0.41095331781E+01  0.21014308608E+02 -0.53929502173E+01  0.22081062962E+02  0.51100000000E-03 0.  1.
         12    1    4    4    0    0  0.57085554899E-01  0.22111582087E+02  0.69737487577E+01  0.23185307694E+02  0.00000000000E+00 0. -1.
</event>
<event>
 8    1  0.4042158E-011  0.9118800E+02  0.7816164E-02  0.1184000E+00
        -11   -1    0    0    0    0  0.00000000000E+00  0.00000000000E+00  0.45593999997E+02  0.45594000000E+02  0.51100000000E-03 0. -1.
         11   -1    0    0    0    0 -0.00000000000E+00 -0.00000000000E+00 -0.45593999997E+02  0.45594000000E+02  0.51100000000E-03 0.  1.
         23    2    1    2    0    0  0.00000000000E+00  0.15543122345E-14  0.00000000000E+00  0.91188000000E+02  0.91188000000E+02 0.  0.
    9900012    2    3    3    0    0  0.17575606991E+02 -0.14127503027E+01  0.39657602289E+02  0.47787271390E+02  0.20000001577E+02 0.  0.
        -12    1    3    3    0    0 -0.17575606991E+02  0.14127503027E+01 -0.39657602289E+02  0.43400728610E+02  0.00000000000E+00 0.  1.
         11    1    4    4    0    0  0.91519048647E+01  0.54828096965E+01  0.94474723655E+01  0.14250378914E+02  0.51100000000E-03 0. -1.
        -11    1    4    4    0    0 -0.44828290049E+00  0.12713840047E+01  0.93134393108E+01  0.94105008848E+01  0.51100000000E-03 0.  1.
        -12    1    4    4    0    0  0.88719850270E+01 -0.81669440039E+01  0.20896690613E+02  0.24126391592E+02  0.00000000000E+00 0.  1.
</event>
<event>
 8    1  0.4042158E-011  0.9118800E+02  0.7816164E-02  0.1184000E+00
        -11   -1    0    0    0    0  0.00000000000E+00  0.00000000000E+00  0.45593999997E+02  0.45594000000E+02  0.51100000000E-03 0. -1.
         11   -1    0    0    0    0 -0.00000000000E+00 -0.00000000000E+00 -0.45593999997E+02  0.45594000000E+02  0.51100000000E-03 0.  1.
         23    2    1    2    0    0  0.00000000000E+00  0.00000000000E+00  0.71054273576E-14  0.91188000000E+02  0.91188000000E+02 0.  0.
    9900012    2    3    3    0    0  0.20292019866E+02  0.11636788694E+02 -0.36557384131E+02  0.47787271252E+02  0.20000000946E+02 0.  0.
         12    1    3    3    0    0 -0.20292019866E+02 -0.11636788694E+02  0.36557384131E+02  0.43400728748E+02  0.00000000000E+00 0. -1.
         11    1    4    4    0    0  0.79091630965E+01  0.98779987617E-01 -0.16788498246E+02  0.18558509962E+02  0.51100000000E-03 0. -1.
        -11    1    4    4    0    0  0.14077621368E+02  0.53050027260E+01 -0.13162593735E+02  0.19989405979E+02  0.51100000000E-03 0.  1.
         12    1    4    4    0    0 -0.16947645981E+01  0.62330059807E+01 -0.66062921496E+01  0.92393553111E+01  0.00000000000E+00 0. -1.
</event>
<event>
 8    1  0.4042158E-011  0.9118800E+02  0.7816164E-02  0.1184000E+00
        -11   -1    0    0    0    0  0.00000000000E+00  0.00000000000E+00  0.45593999997E+02  0.45594000000E+02  0.51100000000E-03 0. -1.
         11   -1    0    0    0    0 -0.00000000000E+00 -0.00000000000E+00 -0.45593999997E+02  0.45594000000E+02  0.51100000000E-03 0.  1.
         23    2    1    2    0    0  0.35527136788E-14  0.00000000000E+00 -0.35527136788E-14  0.91188000000E+02  0.91188000000E+02 0.  0.
    9900012    2    3    3    0    0  0.26478275095E+02  0.16036532811E+02 -0.30419636355E+02  0.47787265991E+02  0.19999976959E+02 0.  0.
         12    1    3    3    0    0 -0.26478275095E+02 -0.16036532811E+02  0.30419636355E+02  0.43400734009E+02  0.00000000000E+00 0. -1.
         11    1    4    4    0    0 -0.13221575341E+01  0.74751899476E+00  0.21834172641E+00  0.15344570907E+01  0.51100000000E-03 0. -1.
        -11    1    4    4    0    0  0.14318086152E+02  0.30101280580E+01 -0.65235017546E+01  0.16019504905E+02  0.51100000000E-03 0.  1.
         12    1    4    4    0    0  0.13482346476E+02  0.12278885758E+02 -0.24114476326E+02  0.30233303995E+02  0.00000000000E+00 0. -1.
</event>
<event>
 8    1  0.4042158E-011  0.9118800E+02  0.7816164E-02  0.1184000E+00
        -11   -1    0    0    0    0  0.00000000000E+00  0.00000000000E+00  0.45593999997E+02  0.45594000000E+02  0.51100000000E-03 0. -1.
         11   -1    0    0    0    0 -0.00000000000E+00 -0.00000000000E+00 -0.45593999997E+02  0.45594000000E+02  0.51100000000E-03 0.  1.
         23    2    1    2    0    0  0.35527136788E-14  0.00000000000E+00  0.71054273576E-14  0.91188000000E+02  0.91188000000E+02 0.  0.
    9900012    2    3    3    0    0 -0.17956924407E+02  0.21578095768E+02 -0.33099223468E+02  0.47787263308E+02  0.19999964729E+02 0.  0.
         12    1    3    3    0    0  0.17956924407E+02 -0.21578095768E+02  0.33099223468E+02  0.43400736692E+02  0.00000000000E+00 0. -1.
         11    1    4    4    0    0  0.13326734774E+01  0.11445104945E+01 -0.44307420108E+01  0.47662771528E+01  0.51100000000E-03 0. -1.
        -11    1    4    4    0    0 -0.13443719241E+02  0.21786172046E+02 -0.20039314146E+02  0.32510690414E+02  0.51100000000E-03 0.  1.
        -12    1    4    4    0    0 -0.58458786443E+01 -0.13525867726E+01 -0.86291673111E+01  0.10510295742E+02  0.00000000000E+00 0.  1.
</event>
<event>
 8    1  0.4042158E-011  0.9118800E+02  0.7816164E-02  0.1184000E+00
        -11   -1    0    0    0    0  0.00000000000E+00  0.00000000000E+00  0.45593999997E+02  0.45594000000E+02  0.51100000000E-03 0. -1.
         11   -1    0    0    0    0 -0.00000000000E+00 -0.00000000000E+00 -0.45593999997E+02  0.45594000000E+02  0.51100000000E-03 0.  1.
         23    2    1    2    0    0  0.00000000000E+00  0.00000000000E+00  0.00000000000E+00  0.91188000000E+02  0.91188000000E+02 0.  0.
    9900012    2    3    3    0    0  0.29612101642E+02  0.11485173235E+02 -0.29577649026E+02  0.47787273165E+02  0.20000009668E+02 0.  0.
         12    1    3    3    0    0 -0.29612101642E+02 -0.11485173235E+02  0.29577649026E+02  0.43400726835E+02  0.00000000000E+00 0. -1.
         11    1    4    4    0    0 -0.73303579103E-01 -0.10095964927E+01  0.10483756410E+01  0.14573092460E+01  0.51100000000E-03 0. -1.
        -11    1    4    4    0    0  0.11828488191E+02  0.35755317008E+00 -0.17290754130E+02  0.20952593057E+02  0.51100000000E-03 0.  1.
         12    1    4    4    0    0  0.17856917030E+02  0.12137216558E+02 -0.13335270537E+02  0.25377370862E+02  0.00000000000E+00 0. -1.
</event>
<event>
 8    1  0.4042158E-011  0.9118800E+02  0.7816164E-02  0.1184000E+00
        -11   -1    0    0    0    0  0.00000000000E+00  0.00000000000E+00  0.45593999997E+02  0.45594000000E+02  0.51100000000E-03 0. -1.
         11   -1    0    0    0    0 -0.00000000000E+00 -0.00000000000E+00 -0.45593999997E+02  0.45594000000E+02  0.51100000000E-03 0.  1.
         23    2    1    2    0    0  0.00000000000E+00  0.00000000000E+00 -0.35527136788E-14  0.91188000000E+02  0.91188000000E+02 0.  0.
    9900012    2    3    3    0    0  0.30679350246E+02 -0.16307859004E+02 -0.26008740125E+02  0.47787270055E+02  0.19999995489E+02 0.  0.
         12    1    3    3    0    0 -0.30679350246E+02  0.16307859004E+02  0.26008740125E+02  0.43400729945E+02  0.00000000000E+00 0. -1.
         11    1    4    4    0    0  0.59475293021E+00  0.67122618542E+00  0.92192480249E+00  0.12861653247E+01  0.51100000000E-03 0. -1.
        -11    1    4    4    0    0  0.76229339762E+00  0.22433209566E+01 -0.38635881761E+01  0.45322063054E+01  0.51100000000E-03 0.  1.
        -12    1    4    4    0    0  0.29322303919E+02 -0.19222406146E+02 -0.23067076751E+02  0.41968898425E+02  0.00000000000E+00 0.  1.
</event>
<event>
 8    1  0.4042158E-011  0.9118800E+02  0.7816164E-02  0.1184000E+00
        -11   -1    0    0    0    0  0.00000000000E+00  0.00000000000E+00  0.45593999997E+02  0.45594000000E+02  0.51100000000E-03 0. -1.
         11   -1    0    0    0    0 -0.00000000000E+00 -0.00000000000E+00 -0.45593999997E+02  0.45594000000E+02  0.51100000000E-03 0.  1.
         23    2    1    2    0    0  0.17763568394E-14  0.17763568394E-14  0.00000000000E+00  0.91188000000E+02  0.91188000000E+02 0.  0.
    9900012    2    3    3    0    0  0.11885903347E+02  0.13546104794E+02 -0.39482235777E+02  0.47787324943E+02  0.20000245742E+02 0.  0.
         12    1    3    3    0    0 -0.11885903347E+02 -0.13546104794E+02  0.39482235777E+02  0.43400675057E+02  0.00000000000E+00 0. -1.
         11    1    4    4    0    0  0.35265156246E+01  0.10978729198E+02 -0.25045390390E+02  0.27572457041E+02  0.51100000000E-03 0. -1.
        -11    1    4    4    0    0 -0.70165677448E+00  0.32671255960E+01 -0.90571580007E+01  0.96539392581E+01  0.51100000000E-03 0.  1.
         12    1    4    4    0    0  0.90610444965E+01 -0.69974999987E+00 -0.53796873872E+01  0.10560928644E+02  0.00000000000E+00 0. -1.
</event>
<event>
 8    1  0.4042158E-011  0.9118800E+02  0.7816164E-02  0.1184000E+00
        -11   -1    0    0    0    0  0.00000000000E+00  0.00000000000E+00  0.45593999997E+02  0.45594000000E+02  0.51100000000E-03 0. -1.
         11   -1    0    0    0    0 -0.00000000000E+00 -0.00000000000E+00 -0.45593999997E+02  0.45594000000E+02  0.51100000000E-03 0.  1.
         23    2    1    2    0    0  0.00000000000E+00 -0.17763568394E-14  0.71054273576E-14  0.91188000000E+02  0.91188000000E+02 0.  0.
    9900012    2    3    3    0    0 -0.20489672209E+02 -0.14504063500E+02 -0.35403801988E+02  0.47787265899E+02  0.19999976542E+02 0.  0.
         12    1    3    3    0    0  0.20489672209E+02  0.14504063500E+02  0.35403801988E+02  0.43400734101E+02  0.00000000000E+00 0. -1.
         11    1    4    4    0    0 -0.54623159744E+01 -0.17631907039E+01 -0.61563034898E+01  0.84169953179E+01  0.51100000000E-03 0. -1.
        -11    1    4    4    0    0 -0.78651575680E+00 -0.12043450006E+02 -0.14319259831E+02  0.18727105955E+02  0.51100000000E-03 0.  1.
        -12    1    4    4    0    0 -0.14240840478E+02 -0.69742278951E+00 -0.14928238667E+02  0.20643164626E+02  0.00000000000E+00 0.  1.
</event>
<event>
 8    1  0.4653054E-011  0.9118800E+02  0.7816164E-02  0.1184000E+00
        -11   -1    0    0    0    0  0.00000000000E+00  0.00000000000E+00  0.45593999997E+02  0.45594000000E+02  0.51100000000E-03 0.  1.
         11   -1    0    0    0    0 -0.00000000000E+00 -0.00000000000E+00 -0.45593999997E+02  0.45594000000E+02  0.51100000000E-03 0. -1.
         23    2    1    2    0    0  0.00000000000E+00 -0.35527136788E-14  0.00000000000E+00  0.91188000000E+02  0.91188000000E+02 0.  0.
    9900012    2    3    3    0    0  0.34581663068E+02 -0.21944801361E+02  0.14358183490E+02  0.47787272351E+02  0.20000005957E+02 0.  0.
        -12    1    3    3    0    0 -0.34581663068E+02  0.21944801361E+02 -0.14358183490E+02  0.43400727649E+02  0.00000000000E+00 0.  1.
         11    1    4    4    0    0  0.21687993118E+02 -0.10987440736E+02  0.12800454505E+02  0.27476254024E+02  0.51100000000E-03 0. -1.
        -11    1    4    4    0    0  0.29597957835E+00 -0.29388770312E+01  0.42113771635E+01  0.51439576193E+01  0.51100000000E-03 0.  1.
        -12    1    4    4    0    0  0.12597690372E+02 -0.80184835942E+01 -0.26536481782E+01  0.15167060707E+02  0.00000000000E+00 0.  1.
</event>
<event>
 8    1  0.5767509E-011  0.9118800E+02  0.7816164E-02  0.1184000E+00
        -11   -1    0    0    0    0  0.00000000000E+00  0.00000000000E+00  0.45593999997E+02  0.45594000000E+02  0.51100000000E-03 0. -1.
         11   -1    0    0    0    0 -0.00000000000E+00 -0.00000000000E+00 -0.45593999997E+02  0.45594000000E+02  0.51100000000E-03 0.  1.
         23    2    1    2    0    0  0.35527136788E-14 -0.22204460493E-15  0.00000000000E+00  0.91188000000E+02  0.91188000000E+02 0.  0.
    9900012    2    3    3    0    0  0.29773046565E+02 -0.13626062198E+01  0.31548887435E+02  0.47787270791E+02  0.19999998845E+02 0.  0.
        -12    1    3    3    0    0 -0.29773046565E+02  0.13626062198E+01 -0.31548887435E+02  0.43400729209E+02  0.00000000000E+00 0.  1.
         11    1    4    4    0    0  0.18361825558E+02 -0.44497378784E+01  0.18714621300E+02  0.26593116697E+02  0.51100000000E-03 0. -1.
        -11    1    4    4    0    0  0.53372851077E+01 -0.46051406637E+01  0.49194564901E+01  0.85962192430E+01  0.51100000000E-03 0.  1.
        -12    1    4    4    0    0  0.60739358994E+01  0.76922723223E+01  0.79148096447E+01  0.12597934851E+02  0.00000000000E+00 0.  1.
</event>
<event>
 8    1  0.4042158E-011  0.9118800E+02  0.7816164E-02  0.1184000E+00
        -11   -1    0    0    0    0  0.00000000000E+00  0.00000000000E+00  0.45593999997E+02  0.45594000000E+02  0.51100000000E-03 0. -1.
         11   -1    0    0    0    0 -0.00000000000E+00 -0.00000000000E+00 -0.45593999997E+02  0.45594000000E+02  0.51100000000E-03 0.  1.
         23    2    1    2    0    0  0.00000000000E+00  0.88817841970E-15  0.00000000000E+00  0.91188000000E+02  0.91188000000E+02 0.  0.
    9900012    2    3    3    0    0  0.25456777605E+02 -0.44273464551E+01 -0.34870824502E+02  0.47787270465E+02  0.19999997360E+02 0.  0.
         12    1    3    3    0    0 -0.25456777605E+02  0.44273464551E+01  0.34870824502E+02  0.43400729535E+02  0.00000000000E+00 0. -1.
         11    1    4    4    0    0  0.57326475063E+01 -0.73573353240E+01 -0.47349395620E+01  0.10460080469E+02  0.51100000000E-03 0. -1.
        -11    1    4    4    0    0  0.20366691824E+01 -0.18363536734E+01 -0.10155409232E+01  0.29243015919E+01  0.51100000000E-03 0.  1.
        -12    1    4    4    0    0  0.17687460916E+02  0.47663425423E+01 -0.29120344017E+02  0.34402888404E+02  0.00000000000E+00 0.  1.
</event>
<event>
 8    1  0.4042158E-011  0.9118800E+02  0.7816164E-02  0.1184000E+00
        -11   -1    0    0    0    0  0.00000000000E+00  0.00000000000E+00  0.45593999997E+02  0.45594000000E+02  0.51100000000E-03 0. -1.
         11   -1    0    0    0    0 -0.00000000000E+00 -0.00000000000E+00 -0.45593999997E+02  0.45594000000E+02  0.51100000000E-03 0.  1.
         23    2    1    2    0    0  0.35527136788E-14  0.00000000000E+00  0.00000000000E+00  0.91188000000E+02  0.91188000000E+02 0.  0.
    9900012    2    3    3    0    0  0.20157926457E+02 -0.46117792764E+01  0.38157735141E+02  0.47787271224E+02  0.20000000819E+02 0.  0.
        -12    1    3    3    0    0 -0.20157926457E+02  0.46117792764E+01 -0.38157735141E+02  0.43400728776E+02  0.00000000000E+00 0.  1.
         11    1    4    4    0    0  0.10385529564E+02 -0.96549692371E+00  0.27388227500E+02  0.29307105188E+02  0.51100000000E-03 0. -1.
        -11    1    4    4    0    0  0.26275223243E+00  0.23088580971E+01  0.57237133461E+01  0.61774395325E+01  0.51100000000E-03 0.  1.
         12    1    4    4    0    0  0.95096446606E+01 -0.59551404497E+01  0.50457942949E+01  0.12302726503E+02  0.00000000000E+00 0. -1.
</event>
<event>
 8    1  0.4042158E-011  0.9118800E+02  0.7816164E-02  0.1184000E+00
        -11   -1    0    0    0    0  0.00000000000E+00  0.00000000000E+00  0.45593999997E+02  0.45594000000E+02  0.51100000000E-03 0. -1.
         11   -1    0    0    0    0 -0.00000000000E+00 -0.00000000000E+00 -0.45593999997E+02  0.45594000000E+02  0.51100000000E-03 0.  1.
         23    2    1    2    0    0 -0.71054273576E-14 -0.44408920985E-15  0.00000000000E+00  0.91188000000E+02  0.91188000000E+02 0.  0.
    9900012    2    3    3    0    0  0.36913322115E+02 -0.20166778477E+01  0.22736818246E+02  0.47787271399E+02  0.20000001617E+02 0.  0.
        -12    1    3    3    0    0 -0.36913322115E+02  0.20166778477E+01 -0.22736818246E+02  0.43400728601E+02  0.00000000000E+00 0.  1.
         11    1    4    4    0    0  0.25448762955E+02 -0.73901618235E+01  0.14810850174E+02  0.30358117710E+02  0.51100000000E-03 0. -1.
        -11    1    4    4    0    0 -0.34289132535E+00 -0.92284095903E+00  0.30207201849E+01  0.31770993993E+01  0.51100000000E-03 0.  1.
        -12    1    4    4    0    0  0.11807450485E+02  0.62963249348E+01  0.49052478874E+01  0.14252054290E+02  0.00000000000E+00 0.  1.
</event>
<event>
 8    1  0.4345275E-011  0.9118800E+02  0.7816164E-02  0.1184000E+00
        -11   -1    0    0    0    0  0.00000000000E+00  0.00000000000E+00  0.45593999997E+02  0.45594000000E+02  0.51100000000E-03 0. -1.
         11   -1    0    0    0    0 -0.00000000000E+00 -0.00000000000E+00 -0.45593999997E+02  0.45594000000E+02  0.51100000000E-03 0.  1.
         23    2    1    2    0    0 -0.35527136788E-14  0.17763568394E-14  0.00000000000E+00  0.91188000000E+02  0.91188000000E+02 0.  0.
    9900012    2    3    3    0    0 -0.27363896731E+02  0.15399588664E+02  0.29961524850E+02  0.47787272510E+02  0.20000006682E+02 0.  0.
        -12    1    3    3    0    0  0.27363896731E+02 -0.15399588664E+02 -0.29961524850E+02  0.43400727490E+02  0.00000000000E+00 0.  1.
         11    1    4    4    0    0 -0.21561289777E+02  0.15378744347E+02  0.18934520337E+02  0.32556275204E+02  0.51100000000E-03 0. -1.
        -11    1    4    4    0    0 -0.41253388111E+01  0.39516970240E+01  0.85755193705E+01  0.10304070187E+02  0.51100000000E-03 0.  1.
        -12    1    4    4    0    0 -0.16772681429E+01 -0.39308527072E+01  0.24514851428E+01  0.49269271189E+01  0.00000000000E+00 0.  1.
</event>
<event>
 8    1  0.4042158E-011  0.9118800E+02  0.7816164E-02  0.1184000E+00
        -11   -1    0    0    0    0  0.00000000000E+00  0.00000000000E+00  0.45593999997E+02  0.45594000000E+02  0.51100000000E-03 0. -1.
         11   -1    0    0    0    0 -0.00000000000E+00 -0.00000000000E+00 -0.45593999997E+02  0.45594000000E+02  0.51100000000E-03 0.  1.
         23    2    1    2    0    0  0.66613381478E-15 -0.44408920985E-15  0.00000000000E+00  0.91188000000E+02  0.91188000000E+02 0.  0.
    9900012    2    3    3    0    0  0.99124822165E+00  0.21681016386E+01 -0.43335205621E+02  0.47787270928E+02  0.19999999468E+02 0.  0.
         12    1    3    3    0    0 -0.99124822165E+00 -0.21681016386E+01  0.43335205621E+02  0.43400729072E+02  0.00000000000E+00 0. -1.
         11    1    4    4    0    0 -0.47953218477E+01  0.41631640682E+01 -0.53223393912E+01  0.82857916664E+01  0.51100000000E-03 0. -1.
        -11    1    4    4    0    0 -0.13756425654E+01 -0.27196576168E+01 -0.65323511592E+01  0.72083661081E+01  0.51100000000E-03 0.  1.
        -12    1    4    4    0    0  0.71622126348E+01  0.72459518717E+00 -0.31480515071E+02  0.32293113153E+02  0.00000000000E+00 0.  1.
</event>
<event>
 8    1  0.4042158E-011  0.9118800E+02  0.7816164E-02  0.1184000E+00
        -11   -1    0    0    0    0  0.00000000000E+00  0.00000000000E+00  0.45593999997E+02  0.45594000000E+02  0.51100000000E-03 0. -1.
         11   -1    0    0    0    0 -0.00000000000E+00 -0.00000000000E+00 -0.45593999997E+02  0.45594000000E+02  0.51100000000E-03 0.  1.
         23    2    1    2    0    0  0.00000000000E+00 -0.71054273576E-14  0.00000000000E+00  0.91188000000E+02  0.91188000000E+02 0.  0.
    9900012    2    3    3    0    0 -0.22515319543E+02 -0.35042715415E+02  0.12193911852E+02  0.47787274153E+02  0.20000014173E+02 0.  0.
        -12    1    3    3    0    0  0.22515319543E+02  0.35042715415E+02 -0.12193911852E+02  0.43400725847E+02  0.00000000000E+00 0.  1.
         11    1    4    4    0    0 -0.20127557628E+01  0.15524943355E+01  0.12953606557E+01  0.28529605521E+01  0.51100000000E-03 0.  1.
        -11    1    4    4    0    0 -0.19745323879E+01 -0.97291297608E+01  0.68213336928E+01  0.12045137511E+02  0.51100000000E-03 0. -1.
         12    1    4    4    0    0 -0.18528031392E+02 -0.26866079990E+02  0.40772175035E+01  0.32889176090E+02  0.00000000000E+00 0. -1.
</event>
<event>
 8    1  0.4042158E-011  0.9118800E+02  0.7816164E-02  0.1184000E+00
        -11   -1    0    0    0    0  0.00000000000E+00  0.00000000000E+00  0.45593999997E+02  0.45594000000E+02  0.51100000000E-03 0.  1.
         11   -1    0    0    0    0 -0.00000000000E+00 -0.00000000000E+00 -0.45593999997E+02  0.45594000000E+02  0.51100000000E-03 0. -1.
         23    2    1    2    0    0  0.35527136788E-14  0.71054273576E-14  0.88817841970E-15  0.91188000000E+02  0.91188000000E+02 0.  0.
    9900012    2    3    3    0    0  0.24016700819E+02  0.36002217838E+02 -0.32651527055E+01  0.47787276162E+02  0.20000023332E+02 0.  0.
         12    1    3    3    0    0 -0.24016700819E+02 -0.36002217838E+02  0.32651527055E+01  0.43400723838E+02  0.00000000000E+00 0. -1.
         11    1    4    4    0    0  0.11631209707E+02  0.19428344680E+02 -0.22640729287E+00  0.22645018807E+02  0.51100000000E-03 0. -1.
        -11    1    4    4    0    0  0.64720911046E+01  0.95983566508E+01  0.53314535919E+01  0.12745227002E+02  0.51100000000E-03 0.  1.
         12    1    4    4    0    0  0.59134000079E+01  0.69755165068E+01 -0.83701990045E+01  0.12397030353E+02  0.00000000000E+00 0. -1.
</event>
<event>
 8    1  0.4042158E-011  0.9118800E+02  0.7816164E-02  0.1184000E+00
        -11   -1    0    0    0    0  0.00000000000E+00  0.00000000000E+00  0.45593999997E+02  0.45594000000E+02  0.51100000000E-03 0.  1.
         11   -1    0    0    0    0 -0.00000000000E+00 -0.00000000000E+00 -0.45593999997E+02  0.45594000000E+02  0.51100000000E-03 0. -1.
         23    2    1    2    0    0  0.35527136788E-14  0.35527136788E-14  0.17763568394E-14  0.91188000000E+02  0.91188000000E+02 0.  0.
    9900012    2    3    3    0    0 -0.27029583972E+02 -0.31305676901E+02 -0.13152148400E+02  0.47787276233E+02  0.20000023659E+02 0.  0.
        -12    1    3    3    0    0  0.27029583972E+02  0.31305676901E+02  0.13152148400E+02  0.43400723767E+02  0.00000000000E+00 0.  1.
         11    1    4    4    0    0 -0.59778544980E+00 -0.13574818945E+01 -0.37038923410E+01  0.39898525378E+01  0.51100000000E-03 0. -1.
        -11    1    4    4    0    0 -0.12249099322E+02 -0.13058708440E+02 -0.12062071328E+02  0.21588512346E+02  0.51100000000E-03 0.  1.
         12    1    4    4    0    0 -0.14182699200E+02 -0.16889486567E+02  0.26138152691E+01  0.22208911350E+02  0.00000000000E+00 0. -1.
</event>
<event>
 8    1  0.4042158E-011  0.9118800E+02  0.7816164E-02  0.1184000E+00
        -11   -1    0    0    0    0  0.00000000000E+00  0.00000000000E+00  0.45593999997E+02  0.45594000000E+02  0.51100000000E-03 0. -1.
         11   -1    0    0    0    0 -0.00000000000E+00 -0.00000000000E+00 -0.45593999997E+02  0.45594000000E+02  0.51100000000E-03 0.  1.
         23    2    1    2    0    0  0.00000000000E+00  0.00000000000E+00 -0.35527136788E-14  0.91188000000E+02  0.91188000000E+02 0.  0.
    9900012    2    3    3    0    0 -0.40474282851E+01 -0.40199831360E+02 -0.15849758431E+02  0.47787274667E+02  0.20000016517E+02 0.  0.
         12    1    3    3    0    0  0.40474282851E+01  0.40199831360E+02  0.15849758431E+02  0.43400725333E+02  0.00000000000E+00 0. -1.
         11    1    4    4    0    0  0.26385114994E+00  0.43818399092E+00 -0.13698277269E+01  0.14622075440E+01  0.51100000000E-03 0. -1.
        -11    1    4    4    0    0  0.16759661133E+01 -0.35209050763E+02 -0.14815646609E+02  0.38235971320E+02  0.51100000000E-03 0.  1.
        -12    1    4    4    0    0 -0.59872455483E+01 -0.54289645877E+01  0.33571590435E+00  0.80890958035E+01  0.00000000000E+00 0.  1.
</event>
<event>
 8    1  0.4042158E-011  0.9118800E+02  0.7816164E-02  0.1184000E+00
        -11   -1    0    0    0    0  0.00000000000E+00  0.00000000000E+00  0.45593999997E+02  0.45594000000E+02  0.51100000000E-03 0. -1.
         11   -1    0    0    0    0 -0.00000000000E+00 -0.00000000000E+00 -0.45593999997E+02  0.45594000000E+02  0.51100000000E-03 0.  1.
         23    2    1    2    0    0  0.00000000000E+00 -0.44408920985E-15 -0.71054273576E-14  0.91188000000E+02  0.91188000000E+02 0.  0.
    9900012    2    3    3    0    0  0.20767707476E+02 -0.26314044678E+01 -0.38018439653E+02  0.47787265940E+02  0.19999976728E+02 0.  0.
         12    1    3    3    0    0 -0.20767707476E+02  0.26314044678E+01  0.38018439653E+02  0.43400734060E+02  0.00000000000E+00 0. -1.
         11    1    4    4    0    0  0.11479340977E+01  0.53508832255E+01 -0.50830052667E+01  0.74690459088E+01  0.51100000000E-03 0. -1.
        -11    1    4    4    0    0  0.10418713218E+02 -0.13884332255E+00 -0.10272691915E+02  0.14632055974E+02  0.51100000000E-03 0.  1.
        -12    1    4    4    0    0  0.92010601598E+01 -0.78434443708E+01 -0.22662742471E+02  0.25686164057E+02  0.00000000000E+00 0.  1.
</event>
<event>
 8    1  0.4042158E-011  0.9118800E+02  0.7816164E-02  0.1184000E+00
        -11   -1    0    0    0    0  0.00000000000E+00  0.00000000000E+00  0.45593999997E+02  0.45594000000E+02  0.51100000000E-03 0. -1.
         11   -1    0    0    0    0 -0.00000000000E+00 -0.00000000000E+00 -0.45593999997E+02  0.45594000000E+02  0.51100000000E-03 0.  1.
         23    2    1    2    0    0  0.00000000000E+00  0.35527136788E-14  0.00000000000E+00  0.91188000000E+02  0.91188000000E+02 0.  0.
    9900012    2    3    3    0    0  0.12963977148E+02  0.18136314744E+02 -0.37237519469E+02  0.47787268760E+02  0.19999989585E+02 0.  0.
         12    1    3    3    0    0 -0.12963977148E+02 -0.18136314744E+02  0.37237519469E+02  0.43400731240E+02  0.00000000000E+00 0. -1.
         11    1    4    4    0    0 -0.11565499112E+01  0.47213982085E+01 -0.21679046745E+02  0.22217341802E+02  0.51100000000E-03 0. -1.
        -11    1    4    4    0    0  0.47966556090E+01  0.14550880479E+01 -0.50829702776E+01  0.71387515269E+01  0.51100000000E-03 0.  1.
         12    1    4    4    0    0  0.93238714498E+01  0.11959828487E+02 -0.10475502447E+02  0.18431175431E+02  0.00000000000E+00 0. -1.
</event>
<event>
 8    1  0.4042158E-011  0.9118800E+02  0.7816164E-02  0.1184000E+00
        -11   -1    0    0    0    0  0.00000000000E+00  0.00000000000E+00  0.45593999997E+02  0.45594000000E+02  0.51100000000E-03 0. -1.
         11   -1    0    0    0    0 -0.00000000000E+00 -0.00000000000E+00 -0.45593999997E+02  0.45594000000E+02  0.51100000000E-03 0.  1.
         23    2    1    2    0    0  0.00000000000E+00  0.35527136788E-14  0.00000000000E+00  0.91188000000E+02  0.91188000000E+02 0.  0.
    9900012    2    3    3    0    0  0.12450301734E+02 -0.21657579364E+02 -0.35490316399E+02  0.47787270568E+02  0.19999997826E+02 0.  0.
         12    1    3    3    0    0 -0.12450301734E+02  0.21657579364E+02  0.35490316399E+02  0.43400729432E+02  0.00000000000E+00 0. -1.
         11    1    4    4    0    0 -0.10091307498E+01 -0.83470288147E+01 -0.21834240523E+02  0.23397121498E+02  0.51100000000E-03 0. -1.
        -11    1    4    4    0    0  0.48603117962E+01 -0.92418986563E+01 -0.90618463686E+01  0.13825786827E+02  0.51100000000E-03 0.  1.
         12    1    4    4    0    0  0.85991206874E+01 -0.40686518928E+01 -0.45942295072E+01  0.10564362242E+02  0.00000000000E+00 0. -1.
</event>
<event>
 8    1  0.4042158E-011  0.9118800E+02  0.7816164E-02  0.1184000E+00
        -11   -1    0    0    0    0  0.00000000000E+00  0.00000000000E+00  0.45593999997E+02  0.45594000000E+02  0.51100000000E-03 0. -1.
         11   -1    0    0    0    0 -0.00000000000E+00 -0.00000000000E+00 -0.45593999997E+02  0.45594000000E+02  0.51100000000E-03 0.  1.
         23    2    1    2    0    0 -0.35527136788E-14  0.00000000000E+00  0.00000000000E+00  0.91188000000E+02  0.91188000000E+02 0.  0.
    9900012    2    3    3    0    0 -0.31931704335E+02 -0.89243272116E+01 -0.28006182984E+02  0.47787266789E+02  0.19999980598E+02 0.  0.
         12    1    3    3    0    0  0.31931704335E+02  0.89243272116E+01  0.28006182984E+02  0.43400733211E+02  0.00000000000E+00 0. -1.
         11    1    4    4    0    0 -0.46791933603E-01 -0.11819867034E+01  0.13665122956E+01  0.18073843441E+01  0.51100000000E-03 0. -1.
        -11    1    4    4    0    0 -0.31153402626E+02 -0.43118711880E+01 -0.23991833051E+02  0.39556728654E+02  0.51100000000E-03 0.  1.
        -12    1    4    4    0    0 -0.73150977466E+00 -0.34304693202E+01 -0.53808622284E+01  0.64231537914E+01  0.00000000000E+00 0.  1.
</event>
<event>
 8    1  0.4042158E-011  0.9118800E+02  0.7816164E-02  0.1184000E+00
        -11   -1    0    0    0    0  0.00000000000E+00  0.00000000000E+00  0.45593999997E+02  0.45594000000E+02  0.51100000000E-03 0.  1.
         11   -1    0    0    0    0 -0.00000000000E+00 -0.00000000000E+00 -0.45593999997E+02  0.45594000000E+02  0.51100000000E-03 0. -1.
         23    2    1    2    0    0  0.00000000000E+00  0.00000000000E+00 -0.17763568394E-14  0.91188000000E+02  0.91188000000E+02 0.  0.
    9900012    2    3    3    0    0  0.24344189036E+02  0.33090092926E+02  0.14001054545E+02  0.47787270536E+02  0.19999997680E+02 0.  0.
         12    1    3    3    0    0 -0.24344189036E+02 -0.33090092926E+02 -0.14001054545E+02  0.43400729464E+02  0.00000000000E+00 0. -1.
         11    1    4    4    0    0  0.68000213477E+01  0.46716481554E+01  0.94150547017E+01  0.12518300289E+02  0.51100000000E-03 0. -1.
        -11    1    4    4    0    0  0.12667775427E+02  0.18058331771E+02  0.77653521449E+01  0.23385392338E+02  0.51100000000E-03 0.  1.
         12    1    4    4    0    0  0.48763922609E+01  0.10360113000E+02 -0.31793523020E+01  0.11883577909E+02  0.00000000000E+00 0. -1.
</event>
<event>
 8    1  0.4042158E-011  0.9118800E+02  0.7816164E-02  0.1184000E+00
        -11   -1    0    0    0    0  0.00000000000E+00  0.00000000000E+00  0.45593999997E+02  0.45594000000E+02  0.51100000000E-03 0. -1.
         11   -1    0    0    0    0 -0.00000000000E+00 -0.00000000000E+00 -0.45593999997E+02  0.45594000000E+02  0.51100000000E-03 0.  1.
         23    2    1    2    0    0  0.00000000000E+00  0.00000000000E+00  0.00000000000E+00  0.91188000000E+02  0.91188000000E+02 0.  0.
    9900012    2    3    3    0    0  0.25396366554E+02  0.31483744357E+02 -0.15729634735E+02  0.47787274179E+02  0.20000014291E+02 0.  0.
         12    1    3    3    0    0 -0.25396366554E+02 -0.31483744357E+02  0.15729634735E+02  0.43400725821E+02  0.00000000000E+00 0. -1.
         11    1    4    4    0    0  0.72454447254E+00  0.17689918508E+01 -0.48214422212E+01  0.51865790473E+01  0.51100000000E-03 0. -1.
        -11    1    4    4    0    0  0.10626990530E+01  0.97892817957E+01 -0.53657352522E+01  0.11213852256E+02  0.51100000000E-03 0.  1.
        -12    1    4    4    0    0  0.23609123029E+02  0.19925470710E+02 -0.55424572617E+01  0.31386842876E+02  0.00000000000E+00 0.  1.
</event>
<event>
 8    1  0.4042158E-011  0.9118800E+02  0.7816164E-02  0.1184000E+00
        -11   -1    0    0    0    0  0.00000000000E+00  0.00000000000E+00  0.45593999997E+02  0.45594000000E+02  0.51100000000E-03 0. -1.
         11   -1    0    0    0    0 -0.00000000000E+00 -0.00000000000E+00 -0.45593999997E+02  0.45594000000E+02  0.51100000000E-03 0.  1.
         23    2    1    2    0    0  0.71054273576E-14  0.35527136788E-14 -0.71054273576E-14  0.91188000000E+02  0.91188000000E+02 0.  0.
    9900012    2    3    3    0    0  0.32540201152E+02  0.18720692161E+02 -0.21778295826E+02  0.47787272183E+02  0.20000005190E+02 0.  0.
         12    1    3    3    0    0 -0.32540201152E+02 -0.18720692161E+02  0.21778295826E+02  0.43400727817E+02  0.00000000000E+00 0. -1.
         11    1    4    4    0    0  0.21592512298E+01 -0.19309323025E+01 -0.12709385776E+01  0.31632499995E+01  0.51100000000E-03 0. -1.
        -11    1    4    4    0    0  0.26036205551E+02  0.18211018471E+02 -0.22831414112E+02  0.39125422220E+02  0.51100000000E-03 0.  1.
         12    1    4    4    0    0  0.43447443708E+01  0.24406059925E+01  0.23240568633E+01  0.54985999638E+01  0.00000000000E+00 0. -1.
</event>
<event>
 8    1  0.4042158E-011  0.9118800E+02  0.7816164E-02  0.1184000E+00
        -11   -1    0    0    0    0  0.00000000000E+00  0.00000000000E+00  0.45593999997E+02  0.45594000000E+02  0.51100000000E-03 0. -1.
         11   -1    0    0    0    0 -0.00000000000E+00 -0.00000000000E+00 -0.45593999997E+02  0.45594000000E+02  0.51100000000E-03 0.  1.
         23    2    1    2    0    0  0.00000000000E+00 -0.17763568394E-14  0.00000000000E+00  0.91188000000E+02  0.91188000000E+02 0.  0.
    9900012    2    3    3    0    0 -0.26515401879E+02  0.11544986113E+02  0.32361554215E+02  0.47787269218E+02  0.19999991673E+02 0.  0.
        -12    1    3    3    0    0  0.26515401879E+02 -0.11544986113E+02 -0.32361554215E+02  0.43400730782E+02  0.00000000000E+00 0.  1.
         11    1    4    4    0    0 -0.11469908227E+02  0.42931657313E+01  0.13219042569E+02  0.18020353865E+02  0.51100000000E-03 0. -1.
        -11    1    4    4    0    0 -0.15882760487E+02  0.45618595358E+01  0.20747805257E+02  0.26524405108E+02  0.51100000000E-03 0.  1.
        -12    1    4    4    0    0  0.83726683419E+00  0.26899608463E+01 -0.16052936112E+01  0.32425102443E+01  0.00000000000E+00 0.  1.
</event>
<event>
 8    1  0.4042158E-011  0.9118800E+02  0.7816164E-02  0.1184000E+00
        -11   -1    0    0    0    0  0.00000000000E+00  0.00000000000E+00  0.45593999997E+02  0.45594000000E+02  0.51100000000E-03 0. -1.
         11   -1    0    0    0    0 -0.00000000000E+00 -0.00000000000E+00 -0.45593999997E+02  0.45594000000E+02  0.51100000000E-03 0.  1.
         23    2    1    2    0    0  0.00000000000E+00 -0.44408920985E-15  0.71054273576E-14  0.91188000000E+02  0.91188000000E+02 0.  0.
    9900012    2    3    3    0    0 -0.27800188603E+02  0.28507632606E+01 -0.33206114739E+02  0.47787269665E+02  0.19999993710E+02 0.  0.
         12    1    3    3    0    0  0.27800188603E+02 -0.28507632606E+01  0.33206114739E+02  0.43400730335E+02  0.00000000000E+00 0. -1.
         11    1    4    4    0    0 -0.12341096539E+02  0.82261774651E+00 -0.76217280101E+01  0.14528251852E+02  0.51100000000E-03 0. -1.
        -11    1    4    4    0    0 -0.10108787805E+02 -0.44665401803E+01 -0.76271122041E+01  0.13427971288E+02  0.51100000000E-03 0.  1.
        -12    1    4    4    0    0 -0.53503042591E+01  0.64946856944E+01 -0.17957274525E+02  0.19831046526E+02  0.00000000000E+00 0.  1.
</event>
<event>
 8    1  0.4042158E-011  0.9118800E+02  0.7816164E-02  0.1184000E+00
        -11   -1    0    0    0    0  0.00000000000E+00  0.00000000000E+00  0.45593999997E+02  0.45594000000E+02  0.51100000000E-03 0. -1.
         11   -1    0    0    0    0 -0.00000000000E+00 -0.00000000000E+00 -0.45593999997E+02  0.45594000000E+02  0.51100000000E-03 0.  1.
         23    2    1    2    0    0  0.88817841970E-15  0.00000000000E+00  0.00000000000E+00  0.91188000000E+02  0.91188000000E+02 0.  0.
    9900012    2    3    3    0    0  0.49690923730E+01  0.16306782622E+02  0.39912688140E+02  0.47787242944E+02  0.19999871877E+02 0.  0.
        -12    1    3    3    0    0 -0.49690923730E+01 -0.16306782622E+02 -0.39912688140E+02  0.43400757056E+02  0.00000000000E+00 0.  1.
         11    1    4    4    0    0  0.24057168406E+01  0.18229052296E+01  0.85243046919E+00  0.31364143475E+01  0.51100000000E-03 0.  1.
        -11    1    4    4    0    0  0.43129382682E+01  0.91548374540E+01  0.75002318771E+01  0.12596267851E+02  0.51100000000E-03 0. -1.
        -12    1    4    4    0    0 -0.17495627358E+01  0.53290399388E+01  0.31560025794E+02  0.32054560745E+02  0.00000000000E+00 0.  1.
</event>
<event>
 8    1  0.4042158E-011  0.9118800E+02  0.7816164E-02  0.1184000E+00
        -11   -1    0    0    0    0  0.00000000000E+00  0.00000000000E+00  0.45593999997E+02  0.45594000000E+02  0.51100000000E-03 0. -1.
         11   -1    0    0    0    0 -0.00000000000E+00 -0.00000000000E+00 -0.45593999997E+02  0.45594000000E+02  0.51100000000E-03 0.  1.
         23    2    1    2    0    0  0.00000000000E+00 -0.88817841970E-15  0.00000000000E+00  0.91188000000E+02  0.91188000000E+02 0.  0.
    9900012    2    3    3    0    0  0.41514834857E+02 -0.77242079760E+01 -0.10023964850E+02  0.47787253770E+02  0.19999921238E+02 0.  0.
         12    1    3    3    0    0 -0.41514834857E+02  0.77242079760E+01  0.10023964850E+02  0.43400746230E+02  0.00000000000E+00 0. -1.
         11    1    4    4    0    0 -0.23596580485E+00  0.15060819169E+01  0.83299218552E+00  0.17371928056E+01  0.51100000000E-03 0. -1.
        -11    1    4    4    0    0  0.97322266829E+01  0.29580498634E+01 -0.48443479834E+01  0.11266499139E+02  0.51100000000E-03 0.  1.
        -12    1    4    4    0    0  0.32018573979E+02 -0.12188339756E+02 -0.60126090518E+01  0.34783561825E+02  0.00000000000E+00 0.  1.
</event>
<event>
 8    1  0.4042158E-011  0.9118800E+02  0.7816164E-02  0.1184000E+00
        -11   -1    0    0    0    0  0.00000000000E+00  0.00000000000E+00  0.45593999997E+02  0.45594000000E+02  0.51100000000E-03 0. -1.
         11   -1    0    0    0    0 -0.00000000000E+00 -0.00000000000E+00 -0.45593999997E+02  0.45594000000E+02  0.51100000000E-03 0.  1.
         23    2    1    2    0    0  0.88817841970E-15 -0.88817841970E-15  0.00000000000E+00  0.91188000000E+02  0.91188000000E+02 0.  0.
    9900012    2    3    3    0    0  0.47513323366E+01 -0.52584033573E+01  0.42818189067E+02  0.47787270976E+02  0.19999999689E+02 0.  0.
        -12    1    3    3    0    0 -0.47513323366E+01  0.52584033573E+01 -0.42818189067E+02  0.43400729024E+02  0.00000000000E+00 0.  1.
         11    1    4    4    0    0  0.68997236702E+01  0.14575282226E+01  0.19387826373E+02  0.20630520764E+02  0.51100000000E-03 0. -1.
        -11    1    4    4    0    0  0.36918997115E+01  0.79686093896E+00  0.10061753513E+02  0.10747278486E+02  0.51100000000E-03 0.  1.
         12    1    4    4    0    0 -0.58402910451E+01 -0.75127925189E+01  0.13368609181E+02  0.16409471727E+02  0.00000000000E+00 0. -1.
</event>
<event>
 8    1  0.4042158E-011  0.9118800E+02  0.7816164E-02  0.1184000E+00
        -11   -1    0    0    0    0  0.00000000000E+00  0.00000000000E+00  0.45593999997E+02  0.45594000000E+02  0.51100000000E-03 0. -1.
         11   -1    0    0    0    0 -0.00000000000E+00 -0.00000000000E+00 -0.45593999997E+02  0.45594000000E+02  0.51100000000E-03 0.  1.
         23    2    1    2    0    0  0.88817841970E-15  0.00000000000E+00  0.17763568394E-14  0.91188000000E+02  0.91188000000E+02 0.  0.
    9900012    2    3    3    0    0  0.54343846256E+01  0.42823187028E+02  0.45016881750E+01  0.47787273279E+02  0.20000010190E+02 0.  0.
         12    1    3    3    0    0 -0.54343846256E+01 -0.42823187028E+02 -0.45016881750E+01  0.43400726721E+02  0.00000000000E+00 0. -1.
         11    1    4    4    0    0  0.28747500145E+01  0.24976510007E+01 -0.36252247249E+00  0.38254242865E+01  0.51100000000E-03 0. -1.
        -11    1    4    4    0    0  0.34477075043E+01  0.23995155912E+02  0.10833260643E+02  0.26552094657E+02  0.51100000000E-03 0.  1.
        -12    1    4    4    0    0 -0.88807289320E+00  0.16330380115E+02 -0.59690499960E+01  0.17409754336E+02  0.00000000000E+00 0.  1.
</event>
<event>
 8    1  0.4042158E-011  0.9118800E+02  0.7816164E-02  0.1184000E+00
        -11   -1    0    0    0    0  0.00000000000E+00  0.00000000000E+00  0.45593999997E+02  0.45594000000E+02  0.51100000000E-03 0. -1.
         11   -1    0    0    0    0 -0.00000000000E+00 -0.00000000000E+00 -0.45593999997E+02  0.45594000000E+02  0.51100000000E-03 0.  1.
         23    2    1    2    0    0 -0.88817841970E-15  0.00000000000E+00  0.00000000000E+00  0.91188000000E+02  0.91188000000E+02 0.  0.
    9900012    2    3    3    0    0  0.77828146979E+01  0.68052122978E+01 -0.42151406561E+02  0.47787260443E+02  0.19999951664E+02 0.  0.
         12    1    3    3    0    0 -0.77828146979E+01 -0.68052122978E+01  0.42151406561E+02  0.43400739557E+02  0.00000000000E+00 0. -1.
         11    1    4    4    0    0  0.15670848041E+01  0.40786748242E+01  0.29623656873E+00  0.43793948750E+01  0.51100000000E-03 0. -1.
        -11    1    4    4    0    0 -0.11863810283E+01  0.24993254006E-01 -0.48073020166E+01  0.49515934351E+01  0.51100000000E-03 0.  1.
        -12    1    4    4    0    0  0.74021109221E+01  0.27015442195E+01 -0.37640341113E+02  0.38456272133E+02  0.00000000000E+00 0.  1.
</event>
<event>
 8    1  0.4042158E-011  0.9118800E+02  0.7816164E-02  0.1184000E+00
        -11   -1    0    0    0    0  0.00000000000E+00  0.00000000000E+00  0.45593999997E+02  0.45594000000E+02  0.51100000000E-03 0. -1.
         11   -1    0    0    0    0 -0.00000000000E+00 -0.00000000000E+00 -0.45593999997E+02  0.45594000000E+02  0.51100000000E-03 0.  1.
         23    2    1    2    0    0  0.00000000000E+00  0.88817841970E-15  0.00000000000E+00  0.91188000000E+02  0.91188000000E+02 0.  0.
    9900012    2    3    3    0    0 -0.40498084352E+02 -0.65798720593E+01  0.14150415622E+02  0.47787264813E+02  0.19999971589E+02 0.  0.
        -12    1    3    3    0    0  0.40498084352E+02  0.65798720593E+01 -0.14150415622E+02  0.43400735187E+02  0.00000000000E+00 0.  1.
         11    1    4    4    0    0 -0.73910339706E+01 -0.11055503570E+01  0.11456606616E+02  0.13678576686E+02  0.51100000000E-03 0. -1.
        -11    1    4    4    0    0 -0.69725645674E+01  0.10845371418E+01  0.46440258125E+00  0.70716721839E+01  0.51100000000E-03 0.  1.
         12    1    4    4    0    0 -0.26134485814E+02 -0.65588588440E+01  0.22294064247E+01  0.27037015943E+02  0.00000000000E+00 0. -1.
</event>
<event>
 8    1  0.4042158E-011  0.9118800E+02  0.7816164E-02  0.1184000E+00
        -11   -1    0    0    0    0  0.00000000000E+00  0.00000000000E+00  0.45593999997E+02  0.45594000000E+02  0.51100000000E-03 0.  1.
         11   -1    0    0    0    0 -0.00000000000E+00 -0.00000000000E+00 -0.45593999997E+02  0.45594000000E+02  0.51100000000E-03 0. -1.
         23    2    1    2    0    0  0.88817841970E-15  0.00000000000E+00  0.35527136788E-14  0.91188000000E+02  0.91188000000E+02 0.  0.
    9900012    2    3    3    0    0 -0.74902619600E+01 -0.35454952357E+02 -0.23884407572E+02  0.47787278854E+02  0.20000035609E+02 0.  0.
         12    1    3    3    0    0  0.74902619600E+01  0.35454952357E+02  0.23884407572E+02  0.43400721146E+02  0.00000000000E+00 0. -1.
         11    1    4    4    0    0  0.33111409875E+00 -0.98607474845E+01 -0.89159304884E+01  0.13298037232E+02  0.51100000000E-03 0. -1.
        -11    1    4    4    0    0 -0.90760454301E+01 -0.26515625277E+02 -0.16316837034E+02  0.32429803508E+02  0.51100000000E-03 0.  1.
         12    1    4    4    0    0  0.12546693713E+01  0.92142040469E+00  0.13483599496E+01  0.20594381144E+01  0.00000000000E+00 0. -1.
</event>
<event>
 8    1  0.4042158E-011  0.9118800E+02  0.7816164E-02  0.1184000E+00
        -11   -1    0    0    0    0  0.00000000000E+00  0.00000000000E+00  0.45593999997E+02  0.45594000000E+02  0.51100000000E-03 0. -1.
         11   -1    0    0    0    0 -0.00000000000E+00 -0.00000000000E+00 -0.45593999997E+02  0.45594000000E+02  0.51100000000E-03 0.  1.
         23    2    1    2    0    0  0.00000000000E+00  0.00000000000E+00  0.00000000000E+00  0.91188000000E+02  0.91188000000E+02 0.  0.
    9900012    2    3    3    0    0  0.10798029160E+02 -0.15873316989E+02  0.38923806091E+02  0.47787282189E+02  0.20000050811E+02 0.  0.
        -12    1    3    3    0    0 -0.10798029160E+02  0.15873316989E+02 -0.38923806091E+02  0.43400717811E+02  0.00000000000E+00 0.  1.
         11    1    4    4    0    0  0.86788860932E+00 -0.95127612361E+01  0.19116500685E+02  0.21370223576E+02  0.51100000000E-03 0. -1.
        -11    1    4    4    0    0 -0.21242216767E+01 -0.33530450834E+01  0.94230110669E+01  0.10224889578E+02  0.51100000000E-03 0.  1.
         12    1    4    4    0    0  0.12054362227E+02 -0.30075106691E+01  0.10384294338E+02  0.16192169034E+02  0.00000000000E+00 0. -1.
</event>
<event>
 8    1  0.4042158E-011  0.9118800E+02  0.7816164E-02  0.1184000E+00
        -11   -1    0    0    0    0  0.00000000000E+00  0.00000000000E+00  0.45593999997E+02  0.45594000000E+02  0.51100000000E-03 0. -1.
         11   -1    0    0    0    0 -0.00000000000E+00 -0.00000000000E+00 -0.45593999997E+02  0.45594000000E+02  0.51100000000E-03 0.  1.
         23    2    1    2    0    0  0.00000000000E+00 -0.71054273576E-14  0.00000000000E+00  0.91188000000E+02  0.91188000000E+02 0.  0.
    9900012    2    3    3    0    0  0.10152716042E+02  0.34312106324E+02  0.24560662299E+02  0.47787257887E+02  0.19999940009E+02 0.  0.
        -12    1    3    3    0    0 -0.10152716042E+02 -0.34312106324E+02 -0.24560662299E+02  0.43400742113E+02  0.00000000000E+00 0.  1.
         11    1    4    4    0    0  0.10005722859E+01  0.33858653030E+01  0.58096118230E+01  0.67982952675E+01  0.51100000000E-03 0. -1.
        -11    1    4    4    0    0  0.28538728027E+01 -0.13129936054E+01  0.37074186125E+01  0.48593718948E+01  0.51100000000E-03 0.  1.
         12    1    4    4    0    0  0.62982709535E+01  0.32239234626E+02  0.15043631864E+02  0.36129590725E+02  0.00000000000E+00 0. -1.
</event>
<event>
 8    1  0.4042158E-011  0.9118800E+02  0.7816164E-02  0.1184000E+00
        -11   -1    0    0    0    0  0.00000000000E+00  0.00000000000E+00  0.45593999997E+02  0.45594000000E+02  0.51100000000E-03 0. -1.
         11   -1    0    0    0    0 -0.00000000000E+00 -0.00000000000E+00 -0.45593999997E+02  0.45594000000E+02  0.51100000000E-03 0.  1.
         23    2    1    2    0    0 -0.35527136788E-14  0.00000000000E+00  0.00000000000E+00  0.91188000000E+02  0.91188000000E+02 0.  0.
    9900012    2    3    3    0    0 -0.30936068511E+02  0.15244744678E+02 -0.26347311580E+02  0.47787269560E+02  0.19999993232E+02 0.  0.
         12    1    3    3    0    0  0.30936068511E+02 -0.15244744678E+02  0.26347311580E+02  0.43400730440E+02  0.00000000000E+00 0. -1.
         11    1    4    4    0    0 -0.10992475205E+02  0.94771005946E+00 -0.35854835056E+01  0.11601222251E+02  0.51100000000E-03 0. -1.
        -11    1    4    4    0    0 -0.12640978104E+01 -0.11738921669E+01 -0.71184710247E+01  0.73245201948E+01  0.51100000000E-03 0.  1.
        -12    1    4    4    0    0 -0.18679495495E+02  0.15470926786E+02 -0.15643357050E+02  0.28861527114E+02  0.00000000000E+00 0.  1.
</event>
<event>
 8    1  0.4042158E-011  0.9118800E+02  0.7816164E-02  0.1184000E+00
        -11   -1    0    0    0    0  0.00000000000E+00  0.00000000000E+00  0.45593999997E+02  0.45594000000E+02  0.51100000000E-03 0. -1.
         11   -1    0    0    0    0 -0.00000000000E+00 -0.00000000000E+00 -0.45593999997E+02  0.45594000000E+02  0.51100000000E-03 0.  1.
         23    2    1    2    0    0  0.00000000000E+00  0.13322676296E-14  0.00000000000E+00  0.91188000000E+02  0.91188000000E+02 0.  0.
    9900012    2    3    3    0    0 -0.89643186039E+01 -0.32882228752E+01 -0.42337357540E+02  0.47787271190E+02  0.20000000665E+02 0.  0.
         12    1    3    3    0    0  0.89643186039E+01  0.32882228752E+01  0.42337357540E+02  0.43400728810E+02  0.00000000000E+00 0. -1.
         11    1    4    4    0    0 -0.11011022209E+02 -0.85154331821E+01 -0.21752569911E+02  0.25824978419E+02  0.51100000000E-03 0. -1.
        -11    1    4    4    0    0 -0.98827595816E-01 -0.88312082117E+00 -0.10161868852E+01  0.13499278963E+01  0.51100000000E-03 0.  1.
         12    1    4    4    0    0  0.21455312014E+01  0.61103311281E+01 -0.19568600744E+02  0.20612364875E+02  0.00000000000E+00 0. -1.
</event>
<event>
 8    1  0.4042158E-011  0.9118800E+02  0.7816164E-02  0.1184000E+00
        -11   -1    0    0    0    0  0.00000000000E+00  0.00000000000E+00  0.45593999997E+02  0.45594000000E+02  0.51100000000E-03 0. -1.
         11   -1    0    0    0    0 -0.00000000000E+00 -0.00000000000E+00 -0.45593999997E+02  0.45594000000E+02  0.51100000000E-03 0.  1.
         23    2    1    2    0    0  0.00000000000E+00  0.11102230246E-15  0.00000000000E+00  0.91188000000E+02  0.91188000000E+02 0.  0.
    9900012    2    3    3    0    0  0.26188175541E+02  0.52628257313E+00 -0.34605286680E+02  0.47787269848E+02  0.19999994543E+02 0.  0.
         12    1    3    3    0    0 -0.26188175541E+02 -0.52628257313E+00  0.34605286680E+02  0.43400730152E+02  0.00000000000E+00 0. -1.
         11    1    4    4    0    0  0.34899801810E+00 -0.34446100573E+01 -0.68149982253E+01  0.76440394515E+01  0.51100000000E-03 0. -1.
        -11    1    4    4    0    0  0.10195444507E+02 -0.39731914551E+01 -0.14327459348E+02  0.18028017935E+02  0.51100000000E-03 0.  1.
        -12    1    4    4    0    0  0.15643733016E+02  0.79440840856E+01 -0.13462829107E+02  0.22115212461E+02  0.00000000000E+00 0.  1.
</event>
<event>
 8    1  0.4042158E-011  0.9118800E+02  0.7816164E-02  0.1184000E+00
        -11   -1    0    0    0    0  0.00000000000E+00  0.00000000000E+00  0.45593999997E+02  0.45594000000E+02  0.51100000000E-03 0. -1.
         11   -1    0    0    0    0 -0.00000000000E+00 -0.00000000000E+00 -0.45593999997E+02  0.45594000000E+02  0.51100000000E-03 0.  1.
         23    2    1    2    0    0  0.00000000000E+00  0.00000000000E+00 -0.13322676296E-14  0.91188000000E+02  0.91188000000E+02 0.  0.
    9900012    2    3    3    0    0 -0.21246605013E+02  0.37786383281E+02 -0.20962913520E+01  0.47787269321E+02  0.19999992142E+02 0.  0.
         12    1    3    3    0    0  0.21246605013E+02 -0.37786383281E+02  0.20962913520E+01  0.43400730679E+02  0.00000000000E+00 0. -1.
         11    1    4    4    0    0 -0.11388788947E+02  0.21629551974E+02  0.83832064085E+01  0.25842217053E+02  0.51100000000E-03 0. -1.
        -11    1    4    4    0    0  0.11975703938E+00  0.11881569594E+01 -0.12408850283E+01  0.17221656782E+01  0.51100000000E-03 0.  1.
        -12    1    4    4    0    0 -0.99775731054E+01  0.14968674348E+02 -0.92386127322E+01  0.20222886590E+02  0.00000000000E+00 0.  1.
</event>
<event>
 8    1  0.4042158E-011  0.9118800E+02  0.7816164E-02  0.1184000E+00
        -11   -1    0    0    0    0  0.00000000000E+00  0.00000000000E+00  0.45593999997E+02  0.45594000000E+02  0.51100000000E-03 0. -1.
         11   -1    0    0    0    0 -0.00000000000E+00 -0.00000000000E+00 -0.45593999997E+02  0.45594000000E+02  0.51100000000E-03 0.  1.
         23    2    1    2    0    0  0.00000000000E+00  0.00000000000E+00  0.35527136788E-14  0.91188000000E+02  0.91188000000E+02 0.  0.
    9900012    2    3    3    0    0 -0.35658662820E+02 -0.13253250149E+02  0.20890998603E+02  0.47787277699E+02  0.20000030339E+02 0.  0.
        -12    1    3    3    0    0  0.35658662820E+02  0.13253250149E+02 -0.20890998603E+02  0.43400722301E+02  0.00000000000E+00 0.  1.
         11    1    4    4    0    0 -0.13555937498E+02 -0.97728896653E+01  0.64654970873E+01  0.17918578814E+02  0.51100000000E-03 0. -1.
        -11    1    4    4    0    0 -0.26524630322E+01 -0.28512727508E+01 -0.20227373081E+01  0.43882551106E+01  0.51100000000E-03 0.  1.
         12    1    4    4    0    0 -0.19450262290E+02 -0.62908773301E+00  0.16448238824E+02  0.25480443775E+02  0.00000000000E+00 0. -1.
</event>
<event>
 8    1  0.4042158E-011  0.9118800E+02  0.7816164E-02  0.1184000E+00
        -11   -1    0    0    0    0  0.00000000000E+00  0.00000000000E+00  0.45593999997E+02  0.45594000000E+02  0.51100000000E-03 0. -1.
         11   -1    0    0    0    0 -0.00000000000E+00 -0.00000000000E+00 -0.45593999997E+02  0.45594000000E+02  0.51100000000E-03 0.  1.
         23    2    1    2    0    0 -0.71054273576E-14  0.22204460493E-15  0.00000000000E+00  0.91188000000E+02  0.91188000000E+02 0.  0.
    9900012    2    3    3    0    0 -0.33016608786E+02 -0.14982927786E+01 -0.28129732901E+02  0.47787271780E+02  0.20000003352E+02 0.  0.
         12    1    3    3    0    0  0.33016608786E+02  0.14982927786E+01  0.28129732901E+02  0.43400728220E+02  0.00000000000E+00 0. -1.
         11    1    4    4    0    0 -0.85632145338E+01  0.38604373997E+01 -0.37853543476E+01  0.10127217183E+02  0.51100000000E-03 0. -1.
        -11    1    4    4    0    0 -0.10383759868E+02 -0.17486098193E+01 -0.15678787577E+01  0.10646048532E+02  0.51100000000E-03 0.  1.
         12    1    4    4    0    0 -0.14069634385E+02 -0.36101203590E+01 -0.22776499795E+02  0.27014006064E+02  0.00000000000E+00 0. -1.
</event>
<event>
 8    1  0.4042158E-011  0.9118800E+02  0.7816164E-02  0.1184000E+00
        -11   -1    0    0    0    0  0.00000000000E+00  0.00000000000E+00  0.45593999997E+02  0.45594000000E+02  0.51100000000E-03 0. -1.
         11   -1    0    0    0    0 -0.00000000000E+00 -0.00000000000E+00 -0.45593999997E+02  0.45594000000E+02  0.51100000000E-03 0.  1.
         23    2    1    2    0    0  0.00000000000E+00  0.00000000000E+00  0.00000000000E+00  0.91188000000E+02  0.91188000000E+02 0.  0.
    9900012    2    3    3    0    0  0.15148203892E+01  0.26147887902E+02 -0.34606594676E+02  0.47787272845E+02  0.20000008207E+02 0.  0.
         12    1    3    3    0    0 -0.15148203892E+01 -0.26147887902E+02  0.34606594676E+02  0.43400727155E+02  0.00000000000E+00 0. -1.
         11    1    4    4    0    0 -0.56193708697E+01  0.40286691148E+01 -0.47676108831E+01  0.83986676087E+01  0.51100000000E-03 0. -1.
        -11    1    4    4    0    0 -0.99817414119E+00  0.23813490660E+01 -0.97105144501E+01  0.10047948355E+02  0.51100000000E-03 0.  1.
        -12    1    4    4    0    0  0.81323654001E+01  0.19737869721E+02 -0.20128469343E+02  0.29340656881E+02  0.00000000000E+00 0.  1.
</event>
<event>
 8    1  0.4042158E-011  0.9118800E+02  0.7816164E-02  0.1184000E+00
        -11   -1    0    0    0    0  0.00000000000E+00  0.00000000000E+00  0.45593999997E+02  0.45594000000E+02  0.51100000000E-03 0. -1.
         11   -1    0    0    0    0 -0.00000000000E+00 -0.00000000000E+00 -0.45593999997E+02  0.45594000000E+02  0.51100000000E-03 0.  1.
         23    2    1    2    0    0  0.94368957093E-15  0.35527136788E-14 -0.71054273576E-14  0.91188000000E+02  0.91188000000E+02 0.  0.
    9900012    2    3    3    0    0  0.10283848185E+00 -0.31086435534E+02  0.30286078570E+02  0.47787267228E+02  0.19999982600E+02 0.  0.
        -12    1    3    3    0    0 -0.10283848185E+00  0.31086435534E+02 -0.30286078570E+02  0.43400732772E+02  0.00000000000E+00 0.  1.
         11    1    4    4    0    0  0.28141137628E+01 -0.98813097454E+01  0.14685646934E+02  0.17922827474E+02  0.51100000000E-03 0. -1.
        -11    1    4    4    0    0  0.28284013466E+01 -0.14875142571E+00 -0.37824972054E+00  0.28574559097E+01  0.51100000000E-03 0.  1.
        -12    1    4    4    0    0 -0.55396766275E+01 -0.21056374363E+02  0.15978681357E+02  0.27006983844E+02  0.00000000000E+00 0.  1.
</event>
<event>
 8    1  0.4042158E-011  0.9118800E+02  0.7816164E-02  0.1184000E+00
        -11   -1    0    0    0    0  0.00000000000E+00  0.00000000000E+00  0.45593999997E+02  0.45594000000E+02  0.51100000000E-03 0. -1.
         11   -1    0    0    0    0 -0.00000000000E+00 -0.00000000000E+00 -0.45593999997E+02  0.45594000000E+02  0.51100000000E-03 0.  1.
         23    2    1    2    0    0  0.35527136788E-14  0.35527136788E-14  0.00000000000E+00  0.91188000000E+02  0.91188000000E+02 0.  0.
    9900012    2    3    3    0    0 -0.25195001393E+02 -0.22592206001E+02  0.27174022562E+02  0.47787269944E+02  0.19999994982E+02 0.  0.
        -12    1    3    3    0    0  0.25195001393E+02  0.22592206001E+02 -0.27174022562E+02  0.43400730056E+02  0.00000000000E+00 0.  1.
         11    1    4    4    0    0 -0.36148711007E+01  0.16693355691E+01  0.38601030597E+01  0.55456622877E+01  0.51100000000E-03 0. -1.
        -11    1    4    4    0    0 -0.11112329318E+02 -0.56863687021E+01  0.14598017779E+02  0.19207310463E+02  0.51100000000E-03 0.  1.
         12    1    4    4    0    0 -0.10467800974E+02 -0.18575172868E+02  0.87159017232E+01  0.23034297193E+02  0.00000000000E+00 0. -1.
</event>
<event>
 8    1  0.4042158E-011  0.9118800E+02  0.7816164E-02  0.1184000E+00
        -11   -1    0    0    0    0  0.00000000000E+00  0.00000000000E+00  0.45593999997E+02  0.45594000000E+02  0.51100000000E-03 0. -1.
         11   -1    0    0    0    0 -0.00000000000E+00 -0.00000000000E+00 -0.45593999997E+02  0.45594000000E+02  0.51100000000E-03 0.  1.
         23    2    1    2    0    0  0.00000000000E+00  0.00000000000E+00  0.00000000000E+00  0.91188000000E+02  0.91188000000E+02 0.  0.
    9900012    2    3    3    0    0 -0.42719161153E+02 -0.31684662479E+01 -0.69754871035E+01  0.47787270418E+02  0.19999997142E+02 0.  0.
         12    1    3    3    0    0  0.42719161153E+02  0.31684662479E+01  0.69754871035E+01  0.43400729582E+02  0.00000000000E+00 0. -1.
         11    1    4    4    0    0  0.15295696593E+00  0.47687349360E+00 -0.45272111723E-01  0.50284588847E+00  0.51100000000E-03 0. -1.
        -11    1    4    4    0    0 -0.13031572867E+02 -0.96824809814E+01 -0.98887460397E+00  0.16264999311E+02  0.51100000000E-03 0.  1.
        -12    1    4    4    0    0 -0.29840545251E+02  0.60371412400E+01 -0.59413403878E+01  0.31019425218E+02  0.00000000000E+00 0.  1.
</event>
<event>
 8    1  0.4042158E-011  0.9118800E+02  0.7816164E-02  0.1184000E+00
        -11   -1    0    0    0    0  0.00000000000E+00  0.00000000000E+00  0.45593999997E+02  0.45594000000E+02  0.51100000000E-03 0.  1.
         11   -1    0    0    0    0 -0.00000000000E+00 -0.00000000000E+00 -0.45593999997E+02  0.45594000000E+02  0.51100000000E-03 0. -1.
         23    2    1    2    0    0  0.00000000000E+00  0.00000000000E+00  0.00000000000E+00  0.91188000000E+02  0.91188000000E+02 0.  0.
    9900012    2    3    3    0    0  0.17324823286E+02  0.39347075191E+02 -0.59398204055E+01  0.47787270807E+02  0.19999998920E+02 0.  0.
         12    1    3    3    0    0 -0.17324823286E+02 -0.39347075191E+02  0.59398204055E+01  0.43400729193E+02  0.00000000000E+00 0. -1.
         11    1    4    4    0    0  0.29690526628E+01  0.71884523314E+01  0.27562682919E+01  0.82514323480E+01  0.51100000000E-03 0. -1.
        -11    1    4    4    0    0 -0.18278308540E+01  0.62224591411E+01 -0.60184187960E+01  0.88476736184E+01  0.51100000000E-03 0.  1.
        -12    1    4    4    0    0  0.16183601477E+02  0.25936163719E+02 -0.26776699014E+01  0.30688164841E+02  0.00000000000E+00 0.  1.
</event>
<event>
 8    1  0.4042158E-011  0.9118800E+02  0.7816164E-02  0.1184000E+00
        -11   -1    0    0    0    0  0.00000000000E+00  0.00000000000E+00  0.45593999997E+02  0.45594000000E+02  0.51100000000E-03 0. -1.
         11   -1    0    0    0    0 -0.00000000000E+00 -0.00000000000E+00 -0.45593999997E+02  0.45594000000E+02  0.51100000000E-03 0.  1.
         23    2    1    2    0    0 -0.49960036108E-15  0.00000000000E+00  0.00000000000E+00  0.91188000000E+02  0.91188000000E+02 0.  0.
    9900012    2    3    3    0    0  0.39902825105E+00 -0.37588684567E+02  0.21692274735E+02  0.47787271732E+02  0.20000003134E+02 0.  0.
        -12    1    3    3    0    0 -0.39902825105E+00  0.37588684567E+02 -0.21692274735E+02  0.43400728268E+02  0.00000000000E+00 0.  1.
         11    1    4    4    0    0 -0.75699879138E+00 -0.99252017623E+01  0.54204080362E+00  0.99687755360E+01  0.51100000000E-03 0. -1.
        -11    1    4    4    0    0 -0.52119866594E+01 -0.16450252402E+02  0.68589046263E+01  0.18569334451E+02  0.51100000000E-03 0.  1.
        -12    1    4    4    0    0  0.63680137018E+01 -0.11213230403E+02  0.14291329305E+02  0.19249161745E+02  0.00000000000E+00 0.  1.
</event>
<event>
 8    1  0.4042158E-011  0.9118800E+02  0.7816164E-02  0.1184000E+00
        -11   -1    0    0    0    0  0.00000000000E+00  0.00000000000E+00  0.45593999997E+02  0.45594000000E+02  0.51100000000E-03 0. -1.
         11   -1    0    0    0    0 -0.00000000000E+00 -0.00000000000E+00 -0.45593999997E+02  0.45594000000E+02  0.51100000000E-03 0.  1.
         23    2    1    2    0    0 -0.71054273576E-14 -0.17763568394E-14 -0.35527136788E-14  0.91188000000E+02  0.91188000000E+02 0.  0.
    9900012    2    3    3    0    0 -0.32754681181E+02  0.15755524208E+02  0.23717462682E+02  0.47787265923E+02  0.19999976649E+02 0.  0.
        -12    1    3    3    0    0  0.32754681181E+02 -0.15755524208E+02 -0.23717462682E+02  0.43400734077E+02  0.00000000000E+00 0.  1.
         11    1    4    4    0    0 -0.31652854835E+00 -0.77311331834E+00  0.19443493407E+01  0.21162204858E+01  0.51100000000E-03 0.  1.
        -11    1    4    4    0    0 -0.16797060400E+02  0.16043038825E+02  0.72793380913E+01  0.24341509733E+02  0.51100000000E-03 0. -1.
         12    1    4    4    0    0 -0.15641092233E+02  0.48559870210E+00  0.14493775250E+02  0.21329535704E+02  0.00000000000E+00 0. -1.
</event>
<event>
 8    1  0.4042158E-011  0.9118800E+02  0.7816164E-02  0.1184000E+00
        -11   -1    0    0    0    0  0.00000000000E+00  0.00000000000E+00  0.45593999997E+02  0.45594000000E+02  0.51100000000E-03 0.  1.
         11   -1    0    0    0    0 -0.00000000000E+00 -0.00000000000E+00 -0.45593999997E+02  0.45594000000E+02  0.51100000000E-03 0. -1.
         23    2    1    2    0    0 -0.35527136788E-14 -0.71054273576E-14  0.00000000000E+00  0.91188000000E+02  0.91188000000E+02 0.  0.
    9900012    2    3    3    0    0  0.21864528431E+02  0.34542602333E+02  0.14573071447E+02  0.47787269697E+02  0.19999993854E+02 0.  0.
         12    1    3    3    0    0 -0.21864528431E+02 -0.34542602333E+02 -0.14573071447E+02  0.43400730303E+02  0.00000000000E+00 0. -1.
         11    1    4    4    0    0  0.47665291542E+01  0.63150361920E+01  0.61709810128E+01  0.10033966773E+02  0.51100000000E-03 0. -1.
        -11    1    4    4    0    0  0.90876238145E+01  0.27174851429E+02  0.75308987458E+01  0.29627215410E+02  0.51100000000E-03 0.  1.
         12    1    4    4    0    0  0.80103754626E+01  0.10527147125E+01  0.87119168860E+00  0.81260875134E+01  0.00000000000E+00 0. -1.
</event>
<event>
 8    1  0.4042158E-011  0.9118800E+02  0.7816164E-02  0.1184000E+00
        -11   -1    0    0    0    0  0.00000000000E+00  0.00000000000E+00  0.45593999997E+02  0.45594000000E+02  0.51100000000E-03 0. -1.
         11   -1    0    0    0    0 -0.00000000000E+00 -0.00000000000E+00 -0.45593999997E+02  0.45594000000E+02  0.51100000000E-03 0.  1.
         23    2    1    2    0    0  0.00000000000E+00  0.00000000000E+00  0.00000000000E+00  0.91188000000E+02  0.91188000000E+02 0.  0.
    9900012    2    3    3    0    0 -0.31360068450E+02 -0.23210736190E+02 -0.19011348123E+02  0.47787268150E+02  0.19999986803E+02 0.  0.
         12    1    3    3    0    0  0.31360068450E+02  0.23210736190E+02  0.19011348123E+02  0.43400731850E+02  0.00000000000E+00 0. -1.
         11    1    4    4    0    0 -0.82019033659E+01 -0.12969364665E+02 -0.65494820124E+01  0.16684464437E+02  0.51100000000E-03 0. -1.
        -11    1    4    4    0    0 -0.17730720561E+01 -0.44765122668E+01 -0.66399055490E+01  0.82019078605E+01  0.51100000000E-03 0.  1.
        -12    1    4    4    0    0 -0.21385093028E+02 -0.57648592580E+01 -0.58219605613E+01  0.22900895853E+02  0.00000000000E+00 0.  1.
</event>
<event>
 8    1  0.4042158E-011  0.9118800E+02  0.7816164E-02  0.1184000E+00
        -11   -1    0    0    0    0  0.00000000000E+00  0.00000000000E+00  0.45593999997E+02  0.45594000000E+02  0.51100000000E-03 0. -1.
         11   -1    0    0    0    0 -0.00000000000E+00 -0.00000000000E+00 -0.45593999997E+02  0.45594000000E+02  0.51100000000E-03 0.  1.
         23    2    1    2    0    0 -0.71054273576E-14  0.00000000000E+00  0.00000000000E+00  0.91188000000E+02  0.91188000000E+02 0.  0.
    9900012    2    3    3    0    0 -0.32186068716E+02  0.11993497662E+02 -0.26529912018E+02  0.47787271466E+02  0.20000001922E+02 0.  0.
         12    1    3    3    0    0  0.32186068716E+02 -0.11993497662E+02  0.26529912018E+02  0.43400728534E+02  0.00000000000E+00 0. -1.
         11    1    4    4    0    0 -0.94522150375E+01 -0.15781642350E+01 -0.58752386654E+01  0.11240702874E+02  0.51100000000E-03 0. -1.
        -11    1    4    4    0    0 -0.11611350801E+02 -0.11247616325E+01 -0.90766655064E+01  0.14780879985E+02  0.51100000000E-03 0.  1.
         12    1    4    4    0    0 -0.11122502878E+02  0.14696423530E+02 -0.11578007847E+02  0.21765688607E+02  0.00000000000E+00 0. -1.
</event>
<event>
 8    1  0.4042158E-011  0.9118800E+02  0.7816164E-02  0.1184000E+00
        -11   -1    0    0    0    0  0.00000000000E+00  0.00000000000E+00  0.45593999997E+02  0.45594000000E+02  0.51100000000E-03 0. -1.
         11   -1    0    0    0    0 -0.00000000000E+00 -0.00000000000E+00 -0.45593999997E+02  0.45594000000E+02  0.51100000000E-03 0.  1.
         23    2    1    2    0    0  0.35527136788E-14 -0.17763568394E-14  0.71054273576E-14  0.91188000000E+02  0.91188000000E+02 0.  0.
    9900012    2    3    3    0    0 -0.28911232483E+02 -0.15398367204E+02 -0.28471994083E+02  0.47787268171E+02  0.19999986897E+02 0.  0.
         12    1    3    3    0    0  0.28911232483E+02  0.15398367204E+02  0.28471994083E+02  0.43400731829E+02  0.00000000000E+00 0. -1.
         11    1    4    4    0    0 -0.28194263191E+01  0.17955585423E+01 -0.14674974460E+01  0.36505813595E+01  0.51100000000E-03 0. -1.
        -11    1    4    4    0    0  0.19279863636E+01 -0.28155672327E+00 -0.28834974052E+01  0.34800809119E+01  0.51100000000E-03 0.  1.
        -12    1    4    4    0    0 -0.28019792528E+02 -0.16912369023E+02 -0.24120999232E+02  0.40656605899E+02  0.00000000000E+00 0.  1.
</event>
<event>
 8    1  0.4042158E-011  0.9118800E+02  0.7816164E-02  0.1184000E+00
        -11   -1    0    0    0    0  0.00000000000E+00  0.00000000000E+00  0.45593999997E+02  0.45594000000E+02  0.51100000000E-03 0. -1.
         11   -1    0    0    0    0 -0.00000000000E+00 -0.00000000000E+00 -0.45593999997E+02  0.45594000000E+02  0.51100000000E-03 0.  1.
         23    2    1    2    0    0  0.00000000000E+00  0.17763568394E-14  0.00000000000E+00  0.91188000000E+02  0.91188000000E+02 0.  0.
    9900012    2    3    3    0    0 -0.13874512880E+02  0.98988076599E+01 -0.39914094725E+02  0.47787268918E+02  0.19999990305E+02 0.  0.
         12    1    3    3    0    0  0.13874512880E+02 -0.98988076599E+01  0.39914094725E+02  0.43400731082E+02  0.00000000000E+00 0. -1.
         11    1    4    4    0    0 -0.66059902888E+01 -0.36485250316E+01 -0.95792643555E+01  0.12194800058E+02  0.51100000000E-03 0. -1.
        -11    1    4    4    0    0 -0.90625794869E+01  0.91943393922E+01 -0.26655057083E+02  0.29616858243E+02  0.51100000000E-03 0.  1.
        -12    1    4    4    0    0  0.17940568961E+01  0.43529932992E+01 -0.36797732865E+01  0.59756106173E+01  0.00000000000E+00 0.  1.
</event>
<event>
 8    1  0.4042158E-011  0.9118800E+02  0.7816164E-02  0.1184000E+00
        -11   -1    0    0    0    0  0.00000000000E+00  0.00000000000E+00  0.45593999997E+02  0.45594000000E+02  0.51100000000E-03 0.  1.
         11   -1    0    0    0    0 -0.00000000000E+00 -0.00000000000E+00 -0.45593999997E+02  0.45594000000E+02  0.51100000000E-03 0. -1.
         23    2    1    2    0    0 -0.35527136788E-14  0.17763568394E-14  0.71054273576E-14  0.91188000000E+02  0.91188000000E+02 0.  0.
    9900012    2    3    3    0    0  0.19420149591E+02 -0.14268763185E+02 -0.36095484900E+02  0.47787264486E+02  0.19999970099E+02 0.  0.
         12    1    3    3    0    0 -0.19420149591E+02  0.14268763185E+02  0.36095484900E+02  0.43400735514E+02  0.00000000000E+00 0. -1.
         11    1    4    4    0    0  0.94120013633E+01 -0.41847781368E+01 -0.20412072321E+02  0.22863744978E+02  0.51100000000E-03 0.  1.
        -11    1    4    4    0    0 -0.15458611055E+01  0.17073792116E+01 -0.42768546493E+01  0.48576039652E+01  0.51100000000E-03 0. -1.
        -12    1    4    4    0    0  0.11554009333E+02 -0.11791364260E+02 -0.11406557929E+02  0.20065915543E+02  0.00000000000E+00 0.  1.
</event>
<event>
 8    1  0.4042158E-011  0.9118800E+02  0.7816164E-02  0.1184000E+00
        -11   -1    0    0    0    0  0.00000000000E+00  0.00000000000E+00  0.45593999997E+02  0.45594000000E+02  0.51100000000E-03 0. -1.
         11   -1    0    0    0    0 -0.00000000000E+00 -0.00000000000E+00 -0.45593999997E+02  0.45594000000E+02  0.51100000000E-03 0.  1.
         23    2    1    2    0    0  0.00000000000E+00  0.17763568394E-14  0.00000000000E+00  0.91188000000E+02  0.91188000000E+02 0.  0.
    9900012    2    3    3    0    0  0.17698745183E+02 -0.10228780962E+02 -0.38285110875E+02  0.47787271254E+02  0.20000000954E+02 0.  0.
         12    1    3    3    0    0 -0.17698745183E+02  0.10228780962E+02  0.38285110875E+02  0.43400728746E+02  0.00000000000E+00 0. -1.
         11    1    4    4    0    0  0.60801983721E+00  0.27359819418E+01 -0.21264534076E+01  0.35181088192E+01  0.51100000000E-03 0. -1.
        -11    1    4    4    0    0  0.63857780067E+01  0.16928595222E+01 -0.15011128597E+02  0.16400546215E+02  0.51100000000E-03 0.  1.
         12    1    4    4    0    0  0.10704947339E+02 -0.14657622426E+02 -0.21147528870E+02  0.27868616220E+02  0.00000000000E+00 0. -1.
</event>
<event>
 8    1  0.4042158E-011  0.9118800E+02  0.7816164E-02  0.1184000E+00
        -11   -1    0    0    0    0  0.00000000000E+00  0.00000000000E+00  0.45593999997E+02  0.45594000000E+02  0.51100000000E-03 0. -1.
         11   -1    0    0    0    0 -0.00000000000E+00 -0.00000000000E+00 -0.45593999997E+02  0.45594000000E+02  0.51100000000E-03 0.  1.
         23    2    1    2    0    0  0.00000000000E+00  0.00000000000E+00  0.00000000000E+00  0.91188000000E+02  0.91188000000E+02 0.  0.
    9900012    2    3    3    0    0 -0.15837773245E+02 -0.14973085951E+02 -0.37531255221E+02  0.47787268639E+02  0.19999989031E+02 0.  0.
         12    1    3    3    0    0  0.15837773245E+02  0.14973085951E+02  0.37531255221E+02  0.43400731361E+02  0.00000000000E+00 0. -1.
         11    1    4    4    0    0  0.10008039842E+01  0.69427233068E+00 -0.27601400719E+01  0.30169514682E+01  0.51100000000E-03 0. -1.
        -11    1    4    4    0    0 -0.55486301196E+01 -0.15534567110E+02 -0.24309528207E+02  0.29377937868E+02  0.51100000000E-03 0.  1.
        -12    1    4    4    0    0 -0.11289947110E+02 -0.13279117231E+00 -0.10461586942E+02  0.15392379302E+02  0.00000000000E+00 0.  1.
</event>
<event>
 8    1  0.4042158E-011  0.9118800E+02  0.7816164E-02  0.1184000E+00
        -11   -1    0    0    0    0  0.00000000000E+00  0.00000000000E+00  0.45593999997E+02  0.45594000000E+02  0.51100000000E-03 0.  1.
         11   -1    0    0    0    0 -0.00000000000E+00 -0.00000000000E+00 -0.45593999997E+02  0.45594000000E+02  0.51100000000E-03 0. -1.
         23    2    1    2    0    0  0.35527136788E-14  0.00000000000E+00 -0.22204460493E-15  0.91188000000E+02  0.91188000000E+02 0.  0.
    9900012    2    3    3    0    0 -0.28702950228E+02  0.32549581586E+02  0.53727796278E+00  0.47787270964E+02  0.19999999634E+02 0.  0.
        -12    1    3    3    0    0  0.28702950228E+02 -0.32549581586E+02 -0.53727796278E+00  0.43400729036E+02  0.00000000000E+00 0.  1.
         11    1    4    4    0    0  0.52907502825E+00  0.20600547248E+01 -0.19037739735E+01  0.28544879502E+01  0.51100000000E-03 0. -1.
        -11    1    4    4    0    0 -0.82833225649E+01  0.17856296216E+02  0.50763997155E+01  0.20328073731E+02  0.51100000000E-03 0.  1.
         12    1    4    4    0    0 -0.20948702691E+02  0.12633230646E+02 -0.26353477791E+01  0.24604709283E+02  0.00000000000E+00 0. -1.
</event>
<event>
 8    1  0.4042158E-011  0.9118800E+02  0.7816164E-02  0.1184000E+00
        -11   -1    0    0    0    0  0.00000000000E+00  0.00000000000E+00  0.45593999997E+02  0.45594000000E+02  0.51100000000E-03 0. -1.
         11   -1    0    0    0    0 -0.00000000000E+00 -0.00000000000E+00 -0.45593999997E+02  0.45594000000E+02  0.51100000000E-03 0.  1.
         23    2    1    2    0    0  0.00000000000E+00  0.00000000000E+00 -0.35527136788E-14  0.91188000000E+02  0.91188000000E+02 0.  0.
    9900012    2    3    3    0    0 -0.28256452640E+02 -0.18270081408E+02  0.27411681973E+02  0.47787270754E+02  0.19999998677E+02 0.  0.
        -12    1    3    3    0    0  0.28256452640E+02  0.18270081408E+02 -0.27411681973E+02  0.43400729246E+02  0.00000000000E+00 0.  1.
         11    1    4    4    0    0 -0.70798094747E+01 -0.11828864901E+02  0.78251776383E+01  0.15851787040E+02  0.51100000000E-03 0. -1.
        -11    1    4    4    0    0  0.80154124798E+00 -0.26054333393E+00 -0.91979287881E+00  0.12475457515E+01  0.51100000000E-03 0.  1.
         12    1    4    4    0    0 -0.21978184413E+02 -0.61806731735E+01  0.20506297214E+02  0.30687937962E+02  0.00000000000E+00 0. -1.
</event>
<event>
 8    1  0.4042158E-011  0.9118800E+02  0.7816164E-02  0.1184000E+00
        -11   -1    0    0    0    0  0.00000000000E+00  0.00000000000E+00  0.45593999997E+02  0.45594000000E+02  0.51100000000E-03 0. -1.
         11   -1    0    0    0    0 -0.00000000000E+00 -0.00000000000E+00 -0.45593999997E+02  0.45594000000E+02  0.51100000000E-03 0.  1.
         23    2    1    2    0    0  0.00000000000E+00  0.82399365109E-16  0.71054273576E-14  0.91188000000E+02  0.91188000000E+02 0.  0.
    9900012    2    3    3    0    0  0.61032639001E+01  0.76943818038E-02  0.42969444187E+02  0.47787273933E+02  0.20000013169E+02 0.  0.
        -12    1    3    3    0    0 -0.61032639001E+01 -0.76943818038E-02 -0.42969444187E+02  0.43400726067E+02  0.00000000000E+00 0.  1.
         11    1    4    4    0    0  0.31936035674E+01 -0.81844574963E+00  0.47899054311E+01  0.58148217076E+01  0.51100000000E-03 0. -1.
        -11    1    4    4    0    0 -0.39766553264E+01  0.56072380454E+01  0.27763192759E+02  0.28601569511E+02  0.51100000000E-03 0.  1.
        -12    1    4    4    0    0  0.68863156591E+01 -0.47810979140E+01  0.10416345997E+02  0.13370882714E+02  0.00000000000E+00 0.  1.
</event>
<event>
 8    1  0.4042158E-011  0.9118800E+02  0.7816164E-02  0.1184000E+00
        -11   -1    0    0    0    0  0.00000000000E+00  0.00000000000E+00  0.45593999997E+02  0.45594000000E+02  0.51100000000E-03 0.  1.
         11   -1    0    0    0    0 -0.00000000000E+00 -0.00000000000E+00 -0.45593999997E+02  0.45594000000E+02  0.51100000000E-03 0. -1.
         23    2    1    2    0    0  0.88817841970E-15  0.00000000000E+00  0.88817841970E-15  0.91188000000E+02  0.91188000000E+02 0.  0.
    9900012    2    3    3    0    0 -0.47401897314E+01  0.42884086440E+02  0.47017876845E+01  0.47787296366E+02  0.20000115452E+02 0.  0.
        -12    1    3    3    0    0  0.47401897314E+01 -0.42884086440E+02 -0.47017876845E+01  0.43400703634E+02  0.00000000000E+00 0.  1.
         11    1    4    4    0    0 -0.41052746184E+01  0.10552347109E+02  0.42485329980E+01  0.12093607489E+02  0.51100000000E-03 0. -1.
        -11    1    4    4    0    0  0.56879446363E+01  0.12703113321E+02  0.46003512970E+01  0.14658957485E+02  0.51100000000E-03 0.  1.
         12    1    4    4    0    0 -0.63228597493E+01  0.19628626011E+02 -0.41470966105E+01  0.21034731393E+02  0.00000000000E+00 0. -1.
</event>
<event>
 8    1  0.4042158E-011  0.9118800E+02  0.7816164E-02  0.1184000E+00
        -11   -1    0    0    0    0  0.00000000000E+00  0.00000000000E+00  0.45593999997E+02  0.45594000000E+02  0.51100000000E-03 0. -1.
         11   -1    0    0    0    0 -0.00000000000E+00 -0.00000000000E+00 -0.45593999997E+02  0.45594000000E+02  0.51100000000E-03 0.  1.
         23    2    1    2    0    0  0.00000000000E+00  0.00000000000E+00  0.35527136788E-14  0.91188000000E+02  0.91188000000E+02 0.  0.
    9900012    2    3    3    0    0 -0.23379166941E+02  0.19010727950E+02  0.31235077382E+02  0.47787270938E+02  0.19999999517E+02 0.  0.
        -12    1    3    3    0    0  0.23379166941E+02 -0.19010727950E+02 -0.31235077382E+02  0.43400729062E+02  0.00000000000E+00 0.  1.
         11    1    4    4    0    0 -0.51750113380E+01  0.94031568351E+01  0.12455042721E+02  0.16441660204E+02  0.51100000000E-03 0. -1.
        -11    1    4    4    0    0 -0.75413856830E+01  0.11570567562E+02  0.13394975651E+02  0.19239955943E+02  0.51100000000E-03 0.  1.
        -12    1    4    4    0    0 -0.10662769920E+02 -0.19629964466E+01  0.53850590098E+01  0.12105654792E+02  0.00000000000E+00 0.  1.
</event>
<event>
 8    1  0.4042158E-011  0.9118800E+02  0.7816164E-02  0.1184000E+00
        -11   -1    0    0    0    0  0.00000000000E+00  0.00000000000E+00  0.45593999997E+02  0.45594000000E+02  0.51100000000E-03 0.  1.
         11   -1    0    0    0    0 -0.00000000000E+00 -0.00000000000E+00 -0.45593999997E+02  0.45594000000E+02  0.51100000000E-03 0. -1.
         23    2    1    2    0    0 -0.88817841970E-15  0.00000000000E+00  0.44408920985E-15  0.91188000000E+02  0.91188000000E+02 0.  0.
    9900012    2    3    3    0    0  0.29712186941E+01 -0.43236119435E+02 -0.23307900491E+01  0.47787277120E+02  0.20000027699E+02 0.  0.
         12    1    3    3    0    0 -0.29712186941E+01  0.43236119435E+02  0.23307900491E+01  0.43400722880E+02  0.00000000000E+00 0. -1.
         11    1    4    4    0    0  0.16043072513E+00  0.12646455073E+01  0.11871994045E+01  0.17419842032E+01  0.51100000000E-03 0. -1.
        -11    1    4    4    0    0 -0.18030110527E+01 -0.23804903979E+01  0.15612553348E+01  0.33697332049E+01  0.51100000000E-03 0.  1.
        -12    1    4    4    0    0  0.46137990217E+01 -0.42120274544E+02 -0.50792447885E+01  0.42675559712E+02  0.00000000000E+00 0.  1.
</event>
<event>
 8    1  0.4042158E-011  0.9118800E+02  0.7816164E-02  0.1184000E+00
        -11   -1    0    0    0    0  0.00000000000E+00  0.00000000000E+00  0.45593999997E+02  0.45594000000E+02  0.51100000000E-03 0.  1.
         11   -1    0    0    0    0 -0.00000000000E+00 -0.00000000000E+00 -0.45593999997E+02  0.45594000000E+02  0.51100000000E-03 0. -1.
         23    2    1    2    0    0 -0.17763568394E-14 -0.71054273576E-14  0.00000000000E+00  0.91188000000E+02  0.91188000000E+02 0.  0.
    9900012    2    3    3    0    0 -0.12032114542E+02 -0.35589364936E+02  0.21731281513E+02  0.47787271053E+02  0.20000000040E+02 0.  0.
        -12    1    3    3    0    0  0.12032114542E+02  0.35589364936E+02 -0.21731281513E+02  0.43400728947E+02  0.00000000000E+00 0.  1.
         11    1    4    4    0    0  0.43216719794E+01 -0.14941274280E+02  0.85502946038E+01  0.17748973600E+02  0.51100000000E-03 0. -1.
        -11    1    4    4    0    0 -0.57948392880E+01 -0.98511845074E+01  0.84470002518E+01  0.14211889814E+02  0.51100000000E-03 0.  1.
         12    1    4    4    0    0 -0.10558947234E+02 -0.10796906149E+02  0.47339866574E+01  0.15826407639E+02  0.00000000000E+00 0. -1.
</event>
<event>
 8    1  0.4042158E-011  0.9118800E+02  0.7816164E-02  0.1184000E+00
        -11   -1    0    0    0    0  0.00000000000E+00  0.00000000000E+00  0.45593999997E+02  0.45594000000E+02  0.51100000000E-03 0. -1.
         11   -1    0    0    0    0 -0.00000000000E+00 -0.00000000000E+00 -0.45593999997E+02  0.45594000000E+02  0.51100000000E-03 0.  1.
         23    2    1    2    0    0  0.00000000000E+00  0.00000000000E+00  0.00000000000E+00  0.91188000000E+02  0.91188000000E+02 0.  0.
    9900012    2    3    3    0    0  0.39438147977E+01 -0.19362862507E+02  0.38641327340E+02  0.47787236202E+02  0.19999841139E+02 0.  0.
        -12    1    3    3    0    0 -0.39438147977E+01  0.19362862507E+02 -0.38641327340E+02  0.43400763798E+02  0.00000000000E+00 0.  1.
         11    1    4    4    0    0 -0.41024876437E+01 -0.27055452799E+01  0.21042079960E+02  0.21608320375E+02  0.51100000000E-03 0. -1.
        -11    1    4    4    0    0  0.33344813390E+01 -0.39580736962E+01  0.81831257583E+01  0.96823892001E+01  0.51100000000E-03 0.  1.
         12    1    4    4    0    0  0.47118211023E+01 -0.12699243531E+02  0.94161216224E+01  0.16496526627E+02  0.00000000000E+00 0. -1.
</event>
<event>
 8    1  0.4042158E-011  0.9118800E+02  0.7816164E-02  0.1184000E+00
        -11   -1    0    0    0    0  0.00000000000E+00  0.00000000000E+00  0.45593999997E+02  0.45594000000E+02  0.51100000000E-03 0. -1.
         11   -1    0    0    0    0 -0.00000000000E+00 -0.00000000000E+00 -0.45593999997E+02  0.45594000000E+02  0.51100000000E-03 0.  1.
         23    2    1    2    0    0  0.00000000000E+00  0.00000000000E+00  0.00000000000E+00  0.91188000000E+02  0.91188000000E+02 0.  0.
    9900012    2    3    3    0    0  0.27944760232E+02  0.17349488757E+02 -0.28314470468E+02  0.47787267029E+02  0.19999981693E+02 0.  0.
         12    1    3    3    0    0 -0.27944760232E+02 -0.17349488757E+02  0.28314470468E+02  0.43400732971E+02  0.00000000000E+00 0. -1.
         11    1    4    4    0    0  0.62835250970E+00  0.41124216270E+01 -0.33784436971E+01  0.53591716328E+01  0.51100000000E-03 0. -1.
        -11    1    4    4    0    0  0.12168249574E+02 -0.84476737580E-01 -0.28141754494E+01  0.12489716480E+02  0.51100000000E-03 0.  1.
        -12    1    4    4    0    0  0.15148158148E+02  0.13321543868E+02 -0.22121851321E+02  0.29938378917E+02  0.00000000000E+00 0.  1.
</event>
<event>
 8    1  0.4042158E-011  0.9118800E+02  0.7816164E-02  0.1184000E+00
        -11   -1    0    0    0    0  0.00000000000E+00  0.00000000000E+00  0.45593999997E+02  0.45594000000E+02  0.51100000000E-03 0. -1.
         11   -1    0    0    0    0 -0.00000000000E+00 -0.00000000000E+00 -0.45593999997E+02  0.45594000000E+02  0.51100000000E-03 0.  1.
         23    2    1    2    0    0  0.00000000000E+00  0.35527136788E-14  0.00000000000E+00  0.91188000000E+02  0.91188000000E+02 0.  0.
    9900012    2    3    3    0    0 -0.27861751343E+02 -0.27199850684E+02  0.19170658591E+02  0.47787271712E+02  0.20000003043E+02 0.  0.
        -12    1    3    3    0    0  0.27861751343E+02  0.27199850684E+02 -0.19170658591E+02  0.43400728288E+02  0.00000000000E+00 0.  1.
         11    1    4    4    0    0 -0.10206528729E+00 -0.19444735070E+01  0.42505840269E+00  0.19930051302E+01  0.51100000000E-03 0. -1.
        -11    1    4    4    0    0 -0.92959949401E+01 -0.19948304622E+02  0.62554308417E+01  0.22879702675E+02  0.51100000000E-03 0.  1.
         12    1    4    4    0    0 -0.18463691116E+02 -0.53070725549E+01  0.12490169346E+02  0.22914563906E+02  0.00000000000E+00 0. -1.
</event>
<event>
 8    1  0.4042158E-011  0.9118800E+02  0.7816164E-02  0.1184000E+00
        -11   -1    0    0    0    0  0.00000000000E+00  0.00000000000E+00  0.45593999997E+02  0.45594000000E+02  0.51100000000E-03 0. -1.
         11   -1    0    0    0    0 -0.00000000000E+00 -0.00000000000E+00 -0.45593999997E+02  0.45594000000E+02  0.51100000000E-03 0.  1.
         23    2    1    2    0    0  0.00000000000E+00  0.00000000000E+00  0.00000000000E+00  0.91188000000E+02  0.91188000000E+02 0.  0.
    9900012    2    3    3    0    0  0.30357480013E+02  0.23388644469E+02 -0.20371991070E+02  0.47787270710E+02  0.19999998474E+02 0.  0.
         12    1    3    3    0    0 -0.30357480013E+02 -0.23388644469E+02  0.20371991070E+02  0.43400729290E+02  0.00000000000E+00 0. -1.
         11    1    4    4    0    0  0.16759256211E+01  0.31571093569E+01  0.36769789860E+00  0.35932253178E+01  0.51100000000E-03 0. -1.
        -11    1    4    4    0    0  0.14372757736E+02  0.45585677947E+01 -0.16862038599E+02  0.22620456478E+02  0.51100000000E-03 0.  1.
         12    1    4    4    0    0  0.14308796656E+02  0.15672967317E+02 -0.38776503689E+01  0.21573588914E+02  0.00000000000E+00 0. -1.
</event>
<event>
 8    1  0.5746205E-011  0.9118800E+02  0.7816164E-02  0.1184000E+00
        -11   -1    0    0    0    0  0.00000000000E+00  0.00000000000E+00  0.45593999997E+02  0.45594000000E+02  0.51100000000E-03 0. -1.
         11   -1    0    0    0    0 -0.00000000000E+00 -0.00000000000E+00 -0.45593999997E+02  0.45594000000E+02  0.51100000000E-03 0.  1.
         23    2    1    2    0    0 -0.35527136788E-14  0.35527136788E-14  0.00000000000E+00  0.91188000000E+02  0.91188000000E+02 0.  0.
    9900012    2    3    3    0    0  0.10754046942E+02 -0.11728083479E+02  0.40378540919E+02  0.47787262282E+02  0.19999960049E+02 0.  0.
        -12    1    3    3    0    0 -0.10754046942E+02  0.11728083479E+02 -0.40378540919E+02  0.43400737718E+02  0.00000000000E+00 0.  1.
         11    1    4    4    0    0  0.70973174135E+01 -0.84438328107E+01  0.22356340208E+02  0.24929423875E+02  0.51100000000E-03 0. -1.
        -11    1    4    4    0    0  0.67813981208E+01 -0.60966813175E+01  0.85750163244E+01  0.12517499302E+02  0.51100000000E-03 0.  1.
        -12    1    4    4    0    0 -0.31246685923E+01  0.28124306487E+01  0.94471843867E+01  0.10340339105E+02  0.00000000000E+00 0.  1.
</event>
<event>
 8    1  0.4042158E-011  0.9118800E+02  0.7816164E-02  0.1184000E+00
        -11   -1    0    0    0    0  0.00000000000E+00  0.00000000000E+00  0.45593999997E+02  0.45594000000E+02  0.51100000000E-03 0. -1.
         11   -1    0    0    0    0 -0.00000000000E+00 -0.00000000000E+00 -0.45593999997E+02  0.45594000000E+02  0.51100000000E-03 0.  1.
         23    2    1    2    0    0  0.00000000000E+00  0.00000000000E+00  0.35527136788E-14  0.91188000000E+02  0.91188000000E+02 0.  0.
    9900012    2    3    3    0    0  0.16251365378E+02  0.24938477465E+02  0.31584609187E+02  0.47787284886E+02  0.20000063109E+02 0.  0.
        -12    1    3    3    0    0 -0.16251365378E+02 -0.24938477465E+02 -0.31584609187E+02  0.43400715114E+02  0.00000000000E+00 0.  1.
         11    1    4    4    0    0 -0.13206715041E+01  0.18891941820E+01 -0.14273669896E+01  0.27111998567E+01  0.51100000000E-03 0. -1.
        -11    1    4    4    0    0  0.30538254704E+01  0.12399762004E+01  0.88192159069E+01  0.94149859509E+01  0.51100000000E-03 0.  1.
         12    1    4    4    0    0  0.14518211412E+02  0.21809307082E+02  0.24192760270E+02  0.35661099078E+02  0.00000000000E+00 0. -1.
</event>
<event>
 8    1  0.4042158E-011  0.9118800E+02  0.7816164E-02  0.1184000E+00
        -11   -1    0    0    0    0  0.00000000000E+00  0.00000000000E+00  0.45593999997E+02  0.45594000000E+02  0.51100000000E-03 0. -1.
         11   -1    0    0    0    0 -0.00000000000E+00 -0.00000000000E+00 -0.45593999997E+02  0.45594000000E+02  0.51100000000E-03 0.  1.
         23    2    1    2    0    0  0.00000000000E+00  0.00000000000E+00  0.00000000000E+00  0.91188000000E+02  0.91188000000E+02 0.  0.
    9900012    2    3    3    0    0  0.26334961735E+02  0.25817312162E+02  0.22881422379E+02  0.47787270663E+02  0.19999998261E+02 0.  0.
        -12    1    3    3    0    0 -0.26334961735E+02 -0.25817312162E+02 -0.22881422379E+02  0.43400729337E+02  0.00000000000E+00 0.  1.
         11    1    4    4    0    0  0.14089176916E+02  0.14041316228E+02  0.14022206894E+02  0.24336921622E+02  0.51100000000E-03 0. -1.
        -11    1    4    4    0    0  0.69268373771E+01  0.10801465739E+01  0.91187381417E+01  0.11502137985E+02  0.51100000000E-03 0.  1.
         12    1    4    4    0    0  0.53189474415E+01  0.10695849360E+02 -0.25952265630E+00  0.11948211056E+02  0.00000000000E+00 0. -1.
</event>
<event>
 8    1  0.4042158E-011  0.9118800E+02  0.7816164E-02  0.1184000E+00
        -11   -1    0    0    0    0  0.00000000000E+00  0.00000000000E+00  0.45593999997E+02  0.45594000000E+02  0.51100000000E-03 0.  1.
         11   -1    0    0    0    0 -0.00000000000E+00 -0.00000000000E+00 -0.45593999997E+02  0.45594000000E+02  0.51100000000E-03 0. -1.
         23    2    1    2    0    0  0.00000000000E+00  0.00000000000E+00 -0.88817841970E-15  0.91188000000E+02  0.91188000000E+02 0.  0.
    9900012    2    3    3    0    0  0.35759314044E+02 -0.23900026721E+02 -0.58036847432E+01  0.47787279099E+02  0.20000036723E+02 0.  0.
        -12    1    3    3    0    0 -0.35759314044E+02  0.23900026721E+02  0.58036847432E+01  0.43400720901E+02  0.00000000000E+00 0.  1.
         11    1    4    4    0    0  0.12714540172E+02 -0.10288014153E+02 -0.35159343005E+01  0.16729153035E+02  0.51100000000E-03 0. -1.
        -11    1    4    4    0    0  0.13601705581E+02 -0.47597559528E+00 -0.52936301142E+01  0.14603269070E+02  0.51100000000E-03 0.  1.
        -12    1    4    4    0    0  0.94430682904E+01 -0.13136036973E+02  0.30058796716E+01  0.16454856994E+02  0.00000000000E+00 0.  1.
</event>
<event>
 8    1  0.4042158E-011  0.9118800E+02  0.7816164E-02  0.1184000E+00
        -11   -1    0    0    0    0  0.00000000000E+00  0.00000000000E+00  0.45593999997E+02  0.45594000000E+02  0.51100000000E-03 0. -1.
         11   -1    0    0    0    0 -0.00000000000E+00 -0.00000000000E+00 -0.45593999997E+02  0.45594000000E+02  0.51100000000E-03 0.  1.
         23    2    1    2    0    0  0.88817841970E-15  0.35527136788E-14 -0.71054273576E-14  0.91188000000E+02  0.91188000000E+02 0.  0.
    9900012    2    3    3    0    0  0.57136612246E+01  0.27499861598E+02 -0.33086781628E+02  0.47787269234E+02  0.19999991746E+02 0.  0.
         12    1    3    3    0    0 -0.57136612246E+01 -0.27499861598E+02  0.33086781628E+02  0.43400730766E+02  0.00000000000E+00 0. -1.
         11    1    4    4    0    0  0.11764902147E+01  0.75150004598E+01 -0.10370379068E+01  0.76769010034E+01  0.51100000000E-03 0. -1.
        -11    1    4    4    0    0 -0.12327040977E+01  0.15430128732E+02 -0.15051169900E+02  0.21590417960E+02  0.51100000000E-03 0.  1.
        -12    1    4    4    0    0  0.57698751075E+01  0.45547324062E+01 -0.16998573822E+02  0.18519950270E+02  0.00000000000E+00 0.  1.
</event>
<event>
 8    1  0.4042158E-011  0.9118800E+02  0.7816164E-02  0.1184000E+00
        -11   -1    0    0    0    0  0.00000000000E+00  0.00000000000E+00  0.45593999997E+02  0.45594000000E+02  0.51100000000E-03 0. -1.
         11   -1    0    0    0    0 -0.00000000000E+00 -0.00000000000E+00 -0.45593999997E+02  0.45594000000E+02  0.51100000000E-03 0.  1.
         23    2    1    2    0    0  0.88817841970E-15  0.00000000000E+00 -0.71054273576E-14  0.91188000000E+02  0.91188000000E+02 0.  0.
    9900012    2    3    3    0    0 -0.54012160806E+01 -0.11805717733E+02  0.41413467260E+02  0.47787269858E+02  0.19999994590E+02 0.  0.
        -12    1    3    3    0    0  0.54012160806E+01  0.11805717733E+02 -0.41413467260E+02  0.43400730142E+02  0.00000000000E+00 0.  1.
         11    1    4    4    0    0 -0.49451910735E+01  0.68555729959E+00  0.12338442932E+02  0.13310224559E+02  0.51100000000E-03 0. -1.
        -11    1    4    4    0    0  0.14132448100E+01 -0.73096309871E+01  0.33413919935E+01  0.81604452560E+01  0.51100000000E-03 0.  1.
         12    1    4    4    0    0 -0.18692698171E+01 -0.51816440459E+01  0.25733632335E+02  0.26316600043E+02  0.00000000000E+00 0. -1.
</event>
<event>
 8    1  0.4042158E-011  0.9118800E+02  0.7816164E-02  0.1184000E+00
        -11   -1    0    0    0    0  0.00000000000E+00  0.00000000000E+00  0.45593999997E+02  0.45594000000E+02  0.51100000000E-03 0. -1.
         11   -1    0    0    0    0 -0.00000000000E+00 -0.00000000000E+00 -0.45593999997E+02  0.45594000000E+02  0.51100000000E-03 0.  1.
         23    2    1    2    0    0  0.17763568394E-14 -0.17763568394E-14  0.00000000000E+00  0.91188000000E+02  0.91188000000E+02 0.  0.
    9900012    2    3    3    0    0  0.14409624516E+02 -0.15452963720E+02  0.37910251891E+02  0.47787325295E+02  0.20000247350E+02 0.  0.
        -12    1    3    3    0    0 -0.14409624516E+02  0.15452963720E+02 -0.37910251891E+02  0.43400674705E+02  0.00000000000E+00 0.  1.
         11    1    4    4    0    0  0.20553924709E+01 -0.13744838834E+01  0.65197215113E+00  0.25571296608E+01  0.51100000000E-03 0. -1.
        -11    1    4    4    0    0  0.24725908832E+01  0.25917104840E+01  0.42111793484E+00  0.36066618201E+01  0.51100000000E-03 0.  1.
         12    1    4    4    0    0  0.98816411615E+01 -0.16670190320E+02  0.36837161805E+02  0.41623533814E+02  0.00000000000E+00 0. -1.
</event>
<event>
 8    1  0.4042158E-011  0.9118800E+02  0.7816164E-02  0.1184000E+00
        -11   -1    0    0    0    0  0.00000000000E+00  0.00000000000E+00  0.45593999997E+02  0.45594000000E+02  0.51100000000E-03 0. -1.
         11   -1    0    0    0    0 -0.00000000000E+00 -0.00000000000E+00 -0.45593999997E+02  0.45594000000E+02  0.51100000000E-03 0.  1.
         23    2    1    2    0    0  0.00000000000E+00  0.00000000000E+00  0.00000000000E+00  0.91188000000E+02  0.91188000000E+02 0.  0.
    9900012    2    3    3    0    0  0.26893695632E+02 -0.22288162988E+01  0.33990961053E+02  0.47787263599E+02  0.19999966055E+02 0.  0.
        -12    1    3    3    0    0 -0.26893695632E+02  0.22288162988E+01 -0.33990961053E+02  0.43400736401E+02  0.00000000000E+00 0.  1.
         11    1    4    4    0    0  0.77132602894E+01  0.44349787534E+00  0.28664427534E+01  0.82406048915E+01  0.51100000000E-03 0. -1.
        -11    1    4    4    0    0  0.52805905470E+01 -0.15460095586E+01  0.67813782058E-01  0.55026703563E+01  0.51100000000E-03 0.  1.
         12    1    4    4    0    0  0.13899844795E+02 -0.11263046155E+01  0.31056704517E+02  0.34043988352E+02  0.00000000000E+00 0. -1.
</event>
<event>
 8    1  0.4042158E-011  0.9118800E+02  0.7816164E-02  0.1184000E+00
        -11   -1    0    0    0    0  0.00000000000E+00  0.00000000000E+00  0.45593999997E+02  0.45594000000E+02  0.51100000000E-03 0. -1.
         11   -1    0    0    0    0 -0.00000000000E+00 -0.00000000000E+00 -0.45593999997E+02  0.45594000000E+02  0.51100000000E-03 0.  1.
         23    2    1    2    0    0  0.00000000000E+00  0.00000000000E+00  0.00000000000E+00  0.91188000000E+02  0.91188000000E+02 0.  0.
    9900012    2    3    3    0    0  0.20130649171E+02  0.21286847833E+02 -0.32019531086E+02  0.47787270770E+02  0.19999998750E+02 0.  0.
         12    1    3    3    0    0 -0.20130649171E+02 -0.21286847833E+02  0.32019531086E+02  0.43400729230E+02  0.00000000000E+00 0. -1.
         11    1    4    4    0    0  0.16482238555E+02  0.19374235152E+02 -0.13790995407E+02  0.28934697684E+02  0.51100000000E-03 0.  1.
        -11    1    4    4    0    0 -0.17602715385E+00 -0.31062882954E+00 -0.89835370156E+00  0.96670339964E+00  0.51100000000E-03 0. -1.
        -12    1    4    4    0    0  0.38244377696E+01  0.22232415105E+01 -0.17330181977E+02  0.17885869686E+02  0.00000000000E+00 0.  1.
</event>
<event>
 8    1  0.4042158E-011  0.9118800E+02  0.7816164E-02  0.1184000E+00
        -11   -1    0    0    0    0  0.00000000000E+00  0.00000000000E+00  0.45593999997E+02  0.45594000000E+02  0.51100000000E-03 0. -1.
         11   -1    0    0    0    0 -0.00000000000E+00 -0.00000000000E+00 -0.45593999997E+02  0.45594000000E+02  0.51100000000E-03 0.  1.
         23    2    1    2    0    0  0.00000000000E+00  0.00000000000E+00  0.00000000000E+00  0.91188000000E+02  0.91188000000E+02 0.  0.
    9900012    2    3    3    0    0  0.86060621540E+01  0.93439375512E+01  0.41499998764E+02  0.47787269912E+02  0.19999994835E+02 0.  0.
        -12    1    3    3    0    0 -0.86060621540E+01 -0.93439375512E+01 -0.41499998764E+02  0.43400730088E+02  0.00000000000E+00 0.  1.
         11    1    4    4    0    0  0.14722026505E+00  0.72157728717E+01  0.28206488684E+02  0.29115203178E+02  0.51100000000E-03 0. -1.
        -11    1    4    4    0    0  0.31361770305E+00  0.26168858188E+01  0.91468889284E+01  0.95190348661E+01  0.51100000000E-03 0.  1.
        -12    1    4    4    0    0  0.81452241859E+01 -0.48872113921E+00  0.41466211518E+01  0.91530318675E+01  0.00000000000E+00 0.  1.
</event>
<event>
 8    1  0.4042158E-011  0.9118800E+02  0.7816164E-02  0.1184000E+00
        -11   -1    0    0    0    0  0.00000000000E+00  0.00000000000E+00  0.45593999997E+02  0.45594000000E+02  0.51100000000E-03 0. -1.
         11   -1    0    0    0    0 -0.00000000000E+00 -0.00000000000E+00 -0.45593999997E+02  0.45594000000E+02  0.51100000000E-03 0.  1.
         23    2    1    2    0    0 -0.99920072216E-15  0.00000000000E+00  0.00000000000E+00  0.91188000000E+02  0.91188000000E+02 0.  0.
    9900012    2    3    3    0    0 -0.50560029981E+00 -0.21807617154E+02  0.37520587887E+02  0.47787282114E+02  0.20000050473E+02 0.  0.
        -12    1    3    3    0    0  0.50560029981E+00  0.21807617154E+02 -0.37520587887E+02  0.43400717886E+02  0.00000000000E+00 0.  1.
         11    1    4    4    0    0 -0.41065116210E+01 -0.28337003829E+01  0.96981066507E+01  0.10906262807E+02  0.51100000000E-03 0. -1.
        -11    1    4    4    0    0 -0.16134991648E+01 -0.18377653199E+01  0.14116645885E+02  0.14326913563E+02  0.51100000000E-03 0.  1.
         12    1    4    4    0    0  0.52144104859E+01 -0.17136151451E+02  0.13705835351E+02  0.22554105745E+02  0.00000000000E+00 0. -1.
</event>
<event>
 8    1  0.4042158E-011  0.9118800E+02  0.7816164E-02  0.1184000E+00
        -11   -1    0    0    0    0  0.00000000000E+00  0.00000000000E+00  0.45593999997E+02  0.45594000000E+02  0.51100000000E-03 0. -1.
         11   -1    0    0    0    0 -0.00000000000E+00 -0.00000000000E+00 -0.45593999997E+02  0.45594000000E+02  0.51100000000E-03 0.  1.
         23    2    1    2    0    0  0.00000000000E+00  0.00000000000E+00  0.00000000000E+00  0.91188000000E+02  0.91188000000E+02 0.  0.
    9900012    2    3    3    0    0  0.34098935801E+02  0.26300897626E+02 -0.53989465488E+01  0.47787271175E+02  0.20000000596E+02 0.  0.
         12    1    3    3    0    0 -0.34098935801E+02 -0.26300897626E+02  0.53989465488E+01  0.43400728825E+02  0.00000000000E+00 0. -1.
         11    1    4    4    0    0  0.26208640439E+01  0.70770744224E+01  0.36376361022E+00  0.75555433254E+01  0.51100000000E-03 0. -1.
        -11    1    4    4    0    0  0.20507308729E+02  0.16604275717E+02  0.21191140138E+01  0.26471538071E+02  0.51100000000E-03 0.  1.
        -12    1    4    4    0    0  0.10970763028E+02  0.26195474871E+01 -0.78818241728E+01  0.13760189779E+02  0.00000000000E+00 0.  1.
</event>
<event>
 8    1  0.4042158E-011  0.9118800E+02  0.7816164E-02  0.1184000E+00
        -11   -1    0    0    0    0  0.00000000000E+00  0.00000000000E+00  0.45593999997E+02  0.45594000000E+02  0.51100000000E-03 0.  1.
         11   -1    0    0    0    0 -0.00000000000E+00 -0.00000000000E+00 -0.45593999997E+02  0.45594000000E+02  0.51100000000E-03 0. -1.
         23    2    1    2    0    0  0.00000000000E+00  0.00000000000E+00  0.00000000000E+00  0.91188000000E+02  0.91188000000E+02 0.  0.
    9900012    2    3    3    0    0 -0.37947875733E+02 -0.19175732667E+02 -0.87105042455E+01  0.47787275580E+02  0.20000020681E+02 0.  0.
         12    1    3    3    0    0  0.37947875733E+02  0.19175732667E+02  0.87105042455E+01  0.43400724420E+02  0.00000000000E+00 0. -1.
         11    1    4    4    0    0  0.34526301705E+00 -0.42733817346E+01 -0.44111346578E+00  0.43099395995E+01  0.51100000000E-03 0. -1.
        -11    1    4    4    0    0 -0.10721949582E+02 -0.33820575445E+01 -0.76335998156E+01  0.13589347390E+02  0.51100000000E-03 0.  1.
        -12    1    4    4    0    0 -0.27571189168E+02 -0.11520293388E+02 -0.63579096416E+00  0.29887988591E+02  0.00000000000E+00 0.  1.
</event>
<event>
 8    1  0.4042158E-011  0.9118800E+02  0.7816164E-02  0.1184000E+00
        -11   -1    0    0    0    0  0.00000000000E+00  0.00000000000E+00  0.45593999997E+02  0.45594000000E+02  0.51100000000E-03 0.  1.
         11   -1    0    0    0    0 -0.00000000000E+00 -0.00000000000E+00 -0.45593999997E+02  0.45594000000E+02  0.51100000000E-03 0. -1.
         23    2    1    2    0    0  0.00000000000E+00  0.00000000000E+00 -0.35527136788E-14  0.91188000000E+02  0.91188000000E+02 0.  0.
    9900012    2    3    3    0    0  0.17576663909E+02  0.33164114967E+02 -0.21790500654E+02  0.47787267811E+02  0.19999985259E+02 0.  0.
         12    1    3    3    0    0 -0.17576663909E+02 -0.33164114967E+02  0.21790500654E+02  0.43400732189E+02  0.00000000000E+00 0. -1.
         11    1    4    4    0    0  0.15338006680E+01 -0.38398764075E+00 -0.28226884622E+01  0.32353610947E+01  0.51100000000E-03 0. -1.
        -11    1    4    4    0    0  0.69230350099E+00  0.19420274719E+02 -0.84907182837E+01  0.21206570952E+02  0.51100000000E-03 0.  1.
         12    1    4    4    0    0  0.15350559740E+02  0.14127827889E+02 -0.10477093908E+02  0.23345335764E+02  0.00000000000E+00 0. -1.
</event>
<event>
 8    1  0.4042158E-011  0.9118800E+02  0.7816164E-02  0.1184000E+00
        -11   -1    0    0    0    0  0.00000000000E+00  0.00000000000E+00  0.45593999997E+02  0.45594000000E+02  0.51100000000E-03 0. -1.
         11   -1    0    0    0    0 -0.00000000000E+00 -0.00000000000E+00 -0.45593999997E+02  0.45594000000E+02  0.51100000000E-03 0.  1.
         23    2    1    2    0    0  0.00000000000E+00 -0.44408920985E-15  0.00000000000E+00  0.91188000000E+02  0.91188000000E+02 0.  0.
    9900012    2    3    3    0    0  0.16444069796E+02  0.35704568786E+01 -0.40005846041E+02  0.47787270614E+02  0.19999998037E+02 0.  0.
         12    1    3    3    0    0 -0.16444069796E+02 -0.35704568786E+01  0.40005846041E+02  0.43400729386E+02  0.00000000000E+00 0. -1.
         11    1    4    4    0    0  0.45248678725E+00  0.37938410972E+01 -0.20244956762E+01  0.43239516149E+01  0.51100000000E-03 0. -1.
        -11    1    4    4    0    0 -0.22952318122E+01  0.14787762174E+01 -0.41344307872E+01  0.49546328187E+01  0.51100000000E-03 0.  1.
        -12    1    4    4    0    0  0.18286814821E+02 -0.17021604360E+01 -0.33846919578E+02  0.38508686180E+02  0.00000000000E+00 0.  1.
</event>
<event>
 8    1  0.4042158E-011  0.9118800E+02  0.7816164E-02  0.1184000E+00
        -11   -1    0    0    0    0  0.00000000000E+00  0.00000000000E+00  0.45593999997E+02  0.45594000000E+02  0.51100000000E-03 0. -1.
         11   -1    0    0    0    0 -0.00000000000E+00 -0.00000000000E+00 -0.45593999997E+02  0.45594000000E+02  0.51100000000E-03 0.  1.
         23    2    1    2    0    0  0.17763568394E-14  0.00000000000E+00  0.00000000000E+00  0.91188000000E+02  0.91188000000E+02 0.  0.
    9900012    2    3    3    0    0 -0.14800170817E+02  0.27970921883E+02  0.29701949435E+02  0.47787270427E+02  0.19999997185E+02 0.  0.
        -12    1    3    3    0    0  0.14800170817E+02 -0.27970921883E+02 -0.29701949435E+02  0.43400729573E+02  0.00000000000E+00 0.  1.
         11    1    4    4    0    0 -0.19288476450E+01  0.10869284513E+02  0.53987842048E+01  0.12288558508E+02  0.51100000000E-03 0. -1.
        -11    1    4    4    0    0 -0.64770914192E+01  0.22014645185E+01  0.71918167881E+00  0.68786904151E+01  0.51100000000E-03 0.  1.
         12    1    4    4    0    0 -0.63942317527E+01  0.14900172852E+02  0.23583983551E+02  0.28620021504E+02  0.00000000000E+00 0. -1.
</event>
<event>
 8    1  0.4042158E-011  0.9118800E+02  0.7816164E-02  0.1184000E+00
        -11   -1    0    0    0    0  0.00000000000E+00  0.00000000000E+00  0.45593999997E+02  0.45594000000E+02  0.51100000000E-03 0. -1.
         11   -1    0    0    0    0 -0.00000000000E+00 -0.00000000000E+00 -0.45593999997E+02  0.45594000000E+02  0.51100000000E-03 0.  1.
         23    2    1    2    0    0 -0.17763568394E-14  0.26645352591E-14  0.00000000000E+00  0.91188000000E+02  0.91188000000E+02 0.  0.
    9900012    2    3    3    0    0  0.85622398612E+01 -0.60835128510E+01  0.42110589311E+02  0.47787276364E+02  0.20000024252E+02 0.  0.
        -12    1    3    3    0    0 -0.85622398612E+01  0.60835128510E+01 -0.42110589311E+02  0.43400723636E+02  0.00000000000E+00 0.  1.
         11    1    4    4    0    0  0.61051727150E+00 -0.11610798800E+02  0.17413232871E+02  0.20938100664E+02  0.51100000000E-03 0.  1.
        -11    1    4    4    0    0  0.41063659623E+01  0.20942230511E+01  0.16779609792E+02  0.17401244687E+02  0.51100000000E-03 0. -1.
        -12    1    4    4    0    0  0.38453566274E+01  0.34330628983E+01  0.79177466477E+01  0.94479310133E+01  0.00000000000E+00 0.  1.
</event>
<event>
 8    1  0.4042158E-011  0.9118800E+02  0.7816164E-02  0.1184000E+00
        -11   -1    0    0    0    0  0.00000000000E+00  0.00000000000E+00  0.45593999997E+02  0.45594000000E+02  0.51100000000E-03 0. -1.
         11   -1    0    0    0    0 -0.00000000000E+00 -0.00000000000E+00 -0.45593999997E+02  0.45594000000E+02  0.51100000000E-03 0.  1.
         23    2    1    2    0    0  0.00000000000E+00  0.00000000000E+00  0.00000000000E+00  0.91188000000E+02  0.91188000000E+02 0.  0.
    9900012    2    3    3    0    0  0.61274471712E+01 -0.35872987360E+02  0.23647549993E+02  0.47787268997E+02  0.19999990664E+02 0.  0.
        -12    1    3    3    0    0 -0.61274471712E+01  0.35872987360E+02 -0.23647549993E+02  0.43400731003E+02  0.00000000000E+00 0.  1.
         11    1    4    4    0    0  0.26720785940E+01 -0.41540135579E+01  0.74575239607E+01  0.89448586650E+01  0.51100000000E-03 0.  1.
        -11    1    4    4    0    0 -0.37098183298E+01 -0.19410535978E+02  0.14477861969E+02  0.24497757988E+02  0.51100000000E-03 0. -1.
        -12    1    4    4    0    0  0.71651869071E+01 -0.12308437824E+02  0.17121640631E+01  0.14344652344E+02  0.00000000000E+00 0.  1.
</event>
<event>
 8    1  0.4042158E-011  0.9118800E+02  0.7816164E-02  0.1184000E+00
        -11   -1    0    0    0    0  0.00000000000E+00  0.00000000000E+00  0.45593999997E+02  0.45594000000E+02  0.51100000000E-03 0. -1.
         11   -1    0    0    0    0 -0.00000000000E+00 -0.00000000000E+00 -0.45593999997E+02  0.45594000000E+02  0.51100000000E-03 0.  1.
         23    2    1    2    0    0  0.00000000000E+00  0.00000000000E+00 -0.35527136788E-14  0.91188000000E+02  0.91188000000E+02 0.  0.
    9900012    2    3    3    0    0  0.26502921035E+02  0.21738488862E+02  0.26620613218E+02  0.47787265335E+02  0.19999973968E+02 0.  0.
        -12    1    3    3    0    0 -0.26502921035E+02 -0.21738488862E+02 -0.26620613218E+02  0.43400734665E+02  0.00000000000E+00 0.  1.
         11    1    4    4    0    0  0.57256278651E+01  0.28444449253E+01  0.14747228280E+02  0.16073407342E+02  0.51100000000E-03 0. -1.
        -11    1    4    4    0    0  0.12127229336E-01  0.18867297576E+01 -0.77773676361E+00  0.20407770536E+01  0.51100000000E-03 0.  1.
        -12    1    4    4    0    0  0.20765165940E+02  0.17007314179E+02  0.12651121702E+02  0.29673080939E+02  0.00000000000E+00 0.  1.
</event>
<event>
 8    1  0.4042158E-011  0.9118800E+02  0.7816164E-02  0.1184000E+00
        -11   -1    0    0    0    0  0.00000000000E+00  0.00000000000E+00  0.45593999997E+02  0.45594000000E+02  0.51100000000E-03 0. -1.
         11   -1    0    0    0    0 -0.00000000000E+00 -0.00000000000E+00 -0.45593999997E+02  0.45594000000E+02  0.51100000000E-03 0.  1.
         23    2    1    2    0    0  0.22204460493E-15  0.00000000000E+00  0.35527136788E-14  0.91188000000E+02  0.91188000000E+02 0.  0.
    9900012    2    3    3    0    0  0.16505347044E+01 -0.35116653571E+02  0.25450349786E+02  0.47787263519E+02  0.19999965688E+02 0.  0.
        -12    1    3    3    0    0 -0.16505347044E+01  0.35116653571E+02 -0.25450349786E+02  0.43400736481E+02  0.00000000000E+00 0.  1.
         11    1    4    4    0    0 -0.45990561924E+00 -0.15290582474E+02  0.10876286944E+02  0.18769843993E+02  0.51100000000E-03 0. -1.
        -11    1    4    4    0    0  0.51513318453E+01 -0.14270503871E+02  0.24907129842E+01  0.15374887055E+02  0.51100000000E-03 0.  1.
        -12    1    4    4    0    0 -0.30408915216E+01 -0.55555672269E+01  0.12083349858E+02  0.13642532472E+02  0.00000000000E+00 0.  1.
</event>
<event>
 8    1  0.4642940E-011  0.9118800E+02  0.7816164E-02  0.1184000E+00
        -11   -1    0    0    0    0  0.00000000000E+00  0.00000000000E+00  0.45593999997E+02  0.45594000000E+02  0.51100000000E-03 0. -1.
         11   -1    0    0    0    0 -0.00000000000E+00 -0.00000000000E+00 -0.45593999997E+02  0.45594000000E+02  0.51100000000E-03 0.  1.
         23    2    1    2    0    0  0.35527136788E-14  0.88817841970E-15  0.71054273576E-14  0.91188000000E+02  0.91188000000E+02 0.  0.
    9900012    2    3    3    0    0  0.23164525706E+02  0.42210360981E+01  0.36458347287E+02  0.47787268626E+02  0.19999988974E+02 0.  0.
        -12    1    3    3    0    0 -0.23164525706E+02 -0.42210360981E+01 -0.36458347287E+02  0.43400731374E+02  0.00000000000E+00 0.  1.
         11    1    4    4    0    0  0.13147986173E+02  0.53372255191E+01  0.16692818836E+02  0.21909032785E+02  0.51100000000E-03 0. -1.
        -11    1    4    4    0    0  0.57471477586E+01  0.59770003084E+01  0.82623719667E+01  0.11705598268E+02  0.51100000000E-03 0.  1.
        -12    1    4    4    0    0  0.42693917744E+01 -0.70931897294E+01  0.11503156484E+02  0.14172637572E+02  0.00000000000E+00 0.  1.
</event>
<event>
 8    1  0.4042158E-011  0.9118800E+02  0.7816164E-02  0.1184000E+00
        -11   -1    0    0    0    0  0.00000000000E+00  0.00000000000E+00  0.45593999997E+02  0.45594000000E+02  0.51100000000E-03 0. -1.
         11   -1    0    0    0    0 -0.00000000000E+00 -0.00000000000E+00 -0.45593999997E+02  0.45594000000E+02  0.51100000000E-03 0.  1.
         23    2    1    2    0    0  0.35527136788E-14  0.44408920985E-15  0.00000000000E+00  0.91188000000E+02  0.91188000000E+02 0.  0.
    9900012    2    3    3    0    0  0.30296082247E+02 -0.60113133179E+00  0.31071032678E+02  0.47787273854E+02  0.20000012808E+02 0.  0.
        -12    1    3    3    0    0 -0.30296082247E+02  0.60113133179E+00 -0.31071032678E+02  0.43400726146E+02  0.00000000000E+00 0.  1.
         11    1    4    4    0    0  0.20068462681E+02  0.81564351989E+00  0.85138205256E+01  0.21814985880E+02  0.51100000000E-03 0.  1.
        -11    1    4    4    0    0  0.50125552124E+01  0.16730884059E+01  0.45538989211E+01  0.69758820385E+01  0.51100000000E-03 0. -1.
        -12    1    4    4    0    0  0.52150643533E+01 -0.30898632576E+01  0.18003313231E+02  0.18996405935E+02  0.00000000000E+00 0.  1.
</event>
<event>
 8    1  0.4042158E-011  0.9118800E+02  0.7816164E-02  0.1184000E+00
        -11   -1    0    0    0    0  0.00000000000E+00  0.00000000000E+00  0.45593999997E+02  0.45594000000E+02  0.51100000000E-03 0. -1.
         11   -1    0    0    0    0 -0.00000000000E+00 -0.00000000000E+00 -0.45593999997E+02  0.45594000000E+02  0.51100000000E-03 0.  1.
         23    2    1    2    0    0  0.35527136788E-14 -0.35527136788E-14  0.35527136788E-14  0.91188000000E+02  0.91188000000E+02 0.  0.
    9900012    2    3    3    0    0 -0.20039343726E+02  0.31327631349E+02 -0.22374707298E+02  0.47787270633E+02  0.19999998123E+02 0.  0.
         12    1    3    3    0    0  0.20039343726E+02 -0.31327631349E+02  0.22374707298E+02  0.43400729367E+02  0.00000000000E+00 0. -1.
         11    1    4    4    0    0 -0.25705481779E+01  0.14904780109E+01  0.95319903296E+00  0.31205498383E+01  0.51100000000E-03 0. -1.
        -11    1    4    4    0    0  0.24952853281E+01  0.51670599050E+01 -0.90619042041E+00  0.58091426450E+01  0.51100000000E-03 0.  1.
        -12    1    4    4    0    0 -0.19964080877E+02  0.24670093434E+02 -0.22421715910E+02  0.38857578149E+02  0.00000000000E+00 0.  1.
</event>
<event>
 8    1  0.4042158E-011  0.9118800E+02  0.7816164E-02  0.1184000E+00
        -11   -1    0    0    0    0  0.00000000000E+00  0.00000000000E+00  0.45593999997E+02  0.45594000000E+02  0.51100000000E-03 0. -1.
         11   -1    0    0    0    0 -0.00000000000E+00 -0.00000000000E+00 -0.45593999997E+02  0.45594000000E+02  0.51100000000E-03 0.  1.
         23    2    1    2    0    0  0.00000000000E+00  0.00000000000E+00  0.00000000000E+00  0.91188000000E+02  0.91188000000E+02 0.  0.
    9900012    2    3    3    0    0 -0.18867871328E+02  0.19034235458E+02 -0.34136881736E+02  0.47787246751E+02  0.19999889235E+02 0.  0.
         12    1    3    3    0    0  0.18867871328E+02 -0.19034235458E+02  0.34136881736E+02  0.43400753249E+02  0.00000000000E+00 0. -1.
         11    1    4    4    0    0 -0.39591588607E+01  0.86272431202E+01 -0.12653253246E+02  0.15817998631E+02  0.51100000000E-03 0.  1.
        -11    1    4    4    0    0 -0.40198203542E+00  0.60269157806E+01 -0.13614543164E+02  0.14894330774E+02  0.51100000000E-03 0. -1.
         12    1    4    4    0    0 -0.14506730432E+02  0.43800765574E+01 -0.78690853263E+01  0.17074917345E+02  0.00000000000E+00 0. -1.
</event>
<event>
 8    1  0.4042158E-011  0.9118800E+02  0.7816164E-02  0.1184000E+00
        -11   -1    0    0    0    0  0.00000000000E+00  0.00000000000E+00  0.45593999997E+02  0.45594000000E+02  0.51100000000E-03 0. -1.
         11   -1    0    0    0    0 -0.00000000000E+00 -0.00000000000E+00 -0.45593999997E+02  0.45594000000E+02  0.51100000000E-03 0.  1.
         23    2    1    2    0    0  0.00000000000E+00  0.88817841970E-15  0.00000000000E+00  0.91188000000E+02  0.91188000000E+02 0.  0.
    9900012    2    3    3    0    0 -0.20803478681E+02  0.33679037625E+01 -0.37940750806E+02  0.47787215759E+02  0.19999747931E+02 0.  0.
         12    1    3    3    0    0  0.20803478681E+02 -0.33679037625E+01  0.37940750806E+02  0.43400784241E+02  0.00000000000E+00 0. -1.
         11    1    4    4    0    0 -0.13345739673E+02  0.64553292303E+01 -0.25671306231E+02  0.29644493701E+02  0.51100000000E-03 0. -1.
        -11    1    4    4    0    0 -0.80975213249E+01 -0.16948388849E+01 -0.13727324204E+02  0.16027531330E+02  0.51100000000E-03 0.  1.
         12    1    4    4    0    0  0.63978231724E+00 -0.13925865829E+01  0.14578796296E+01  0.21151907287E+01  0.00000000000E+00 0. -1.
</event>
<event>
 8    1  0.4042158E-011  0.9118800E+02  0.7816164E-02  0.1184000E+00
        -11   -1    0    0    0    0  0.00000000000E+00  0.00000000000E+00  0.45593999997E+02  0.45594000000E+02  0.51100000000E-03 0. -1.
         11   -1    0    0    0    0 -0.00000000000E+00 -0.00000000000E+00 -0.45593999997E+02  0.45594000000E+02  0.51100000000E-03 0.  1.
         23    2    1    2    0    0  0.00000000000E+00  0.00000000000E+00  0.00000000000E+00  0.91188000000E+02  0.91188000000E+02 0.  0.
    9900012    2    3    3    0    0  0.21564045989E+02 -0.10701061752E+02  0.36112359251E+02  0.47787270827E+02  0.19999999010E+02 0.  0.
        -12    1    3    3    0    0 -0.21564045989E+02  0.10701061752E+02 -0.36112359251E+02  0.43400729173E+02  0.00000000000E+00 0.  1.
         11    1    4    4    0    0  0.95791291409E+01 -0.42876684764E+01  0.93663588740E+01  0.14066715853E+02  0.51100000000E-03 0. -1.
        -11    1    4    4    0    0  0.77963990044E+01 -0.43833496371E+01  0.28673817148E+01  0.93925220061E+01  0.51100000000E-03 0.  1.
         12    1    4    4    0    0  0.41885178440E+01 -0.20300436389E+01  0.23878618662E+02  0.24328032969E+02  0.00000000000E+00 0. -1.
</event>
<event>
 8    1  0.4042158E-011  0.9118800E+02  0.7816164E-02  0.1184000E+00
        -11   -1    0    0    0    0  0.00000000000E+00  0.00000000000E+00  0.45593999997E+02  0.45594000000E+02  0.51100000000E-03 0. -1.
         11   -1    0    0    0    0 -0.00000000000E+00 -0.00000000000E+00 -0.45593999997E+02  0.45594000000E+02  0.51100000000E-03 0.  1.
         23    2    1    2    0    0 -0.17763568394E-14  0.00000000000E+00 -0.71054273576E-14  0.91188000000E+02  0.91188000000E+02 0.  0.
    9900012    2    3    3    0    0  0.12518062074E+02  0.24687781907E+02  0.33428045525E+02  0.47787277873E+02  0.20000031132E+02 0.  0.
        -12    1    3    3    0    0 -0.12518062074E+02 -0.24687781907E+02 -0.33428045525E+02  0.43400722127E+02  0.00000000000E+00 0.  1.
         11    1    4    4    0    0 -0.15092621185E+01  0.16919263664E+01  0.43794899583E+01  0.49315737375E+01  0.51100000000E-03 0.  1.
        -11    1    4    4    0    0  0.30207837488E+00  0.16177050346E+02  0.15213465558E+02  0.22208956387E+02  0.51100000000E-03 0. -1.
         12    1    4    4    0    0  0.13725245818E+02  0.68188051944E+01  0.13835090008E+02  0.20646747748E+02  0.00000000000E+00 0. -1.
</event>
<event>
 8    1  0.4042158E-011  0.9118800E+02  0.7816164E-02  0.1184000E+00
        -11   -1    0    0    0    0  0.00000000000E+00  0.00000000000E+00  0.45593999997E+02  0.45594000000E+02  0.51100000000E-03 0. -1.
         11   -1    0    0    0    0 -0.00000000000E+00 -0.00000000000E+00 -0.45593999997E+02  0.45594000000E+02  0.51100000000E-03 0.  1.
         23    2    1    2    0    0  0.00000000000E+00  0.00000000000E+00  0.00000000000E+00  0.91188000000E+02  0.91188000000E+02 0.  0.
    9900012    2    3    3    0    0 -0.81861248464E+01 -0.40838650729E+02  0.12198916149E+02  0.47787290460E+02  0.20000088521E+02 0.  0.
        -12    1    3    3    0    0  0.81861248464E+01  0.40838650729E+02 -0.12198916149E+02  0.43400709540E+02  0.00000000000E+00 0.  1.
         11    1    4    4    0    0 -0.11467504019E+02 -0.21000129211E+02  0.20987766912E+01  0.24019032852E+02  0.51100000000E-03 0. -1.
        -11    1    4    4    0    0  0.21975244524E+01 -0.19113579847E+02  0.71188661703E+01  0.20514295116E+02  0.51100000000E-03 0.  1.
         12    1    4    4    0    0  0.10838547199E+01 -0.72494167160E+00  0.29812732877E+01  0.32539624916E+01  0.00000000000E+00 0. -1.
</event>
<event>
 8    1  0.4042158E-011  0.9118800E+02  0.7816164E-02  0.1184000E+00
        -11   -1    0    0    0    0  0.00000000000E+00  0.00000000000E+00  0.45593999997E+02  0.45594000000E+02  0.51100000000E-03 0. -1.
         11   -1    0    0    0    0 -0.00000000000E+00 -0.00000000000E+00 -0.45593999997E+02  0.45594000000E+02  0.51100000000E-03 0.  1.
         23    2    1    2    0    0  0.88817841970E-15  0.00000000000E+00 -0.35527136788E-14  0.91188000000E+02  0.91188000000E+02 0.  0.
    9900012    2    3    3    0    0 -0.22383828668E+01  0.38109016830E+02  0.20647382177E+02  0.47787286730E+02  0.20000071515E+02 0.  0.
        -12    1    3    3    0    0  0.22383828668E+01 -0.38109016830E+02 -0.20647382177E+02  0.43400713270E+02  0.00000000000E+00 0.  1.
         11    1    4    4    0    0 -0.49359832070E+01  0.73583841240E+01  0.34390358079E+01  0.95045628351E+01  0.51100000000E-03 0. -1.
        -11    1    4    4    0    0 -0.47592414041E+01  0.42914744887E+01  0.13581008052E+01  0.65506923365E+01  0.51100000000E-03 0.  1.
        -12    1    4    4    0    0  0.74568417443E+01  0.26459158217E+02  0.15850245564E+02  0.31732031558E+02  0.00000000000E+00 0.  1.
</event>
<event>
 8    1  0.4042158E-011  0.9118800E+02  0.7816164E-02  0.1184000E+00
        -11   -1    0    0    0    0  0.00000000000E+00  0.00000000000E+00  0.45593999997E+02  0.45594000000E+02  0.51100000000E-03 0. -1.
         11   -1    0    0    0    0 -0.00000000000E+00 -0.00000000000E+00 -0.45593999997E+02  0.45594000000E+02  0.51100000000E-03 0.  1.
         23    2    1    2    0    0  0.00000000000E+00  0.00000000000E+00  0.00000000000E+00  0.91188000000E+02  0.91188000000E+02 0.  0.
    9900012    2    3    3    0    0 -0.22687549081E+02 -0.14825281722E+02  0.33898518074E+02  0.47787269718E+02  0.19999993951E+02 0.  0.
        -12    1    3    3    0    0  0.22687549081E+02  0.14825281722E+02 -0.33898518074E+02  0.43400730282E+02  0.00000000000E+00 0.  1.
         11    1    4    4    0    0 -0.31169263339E+00 -0.45383578842E+01  0.11215961847E+02  0.12103373290E+02  0.51100000000E-03 0. -1.
        -11    1    4    4    0    0 -0.22696324487E+01  0.24899044490E+01  0.11151544931E+01  0.35488625533E+01  0.51100000000E-03 0.  1.
        -12    1    4    4    0    0 -0.20106223999E+02 -0.12776828287E+02  0.21567401734E+02  0.32135033874E+02  0.00000000000E+00 0.  1.
</event>
<event>
 8    1  0.4042158E-011  0.9118800E+02  0.7816164E-02  0.1184000E+00
        -11   -1    0    0    0    0  0.00000000000E+00  0.00000000000E+00  0.45593999997E+02  0.45594000000E+02  0.51100000000E-03 0. -1.
         11   -1    0    0    0    0 -0.00000000000E+00 -0.00000000000E+00 -0.45593999997E+02  0.45594000000E+02  0.51100000000E-03 0.  1.
         23    2    1    2    0    0  0.44408920985E-15  0.71054273576E-14 -0.35527136788E-14  0.91188000000E+02  0.91188000000E+02 0.  0.
    9900012    2    3    3    0    0  0.28264619985E+01  0.37779321554E+02  0.21174434349E+02  0.47787277719E+02  0.20000030430E+02 0.  0.
        -12    1    3    3    0    0 -0.28264619985E+01 -0.37779321554E+02 -0.21174434349E+02  0.43400722281E+02  0.00000000000E+00 0.  1.
         11    1    4    4    0    0  0.66306253208E+00  0.27089649658E+02  0.21877141884E+02  0.34826686718E+02  0.51100000000E-03 0. -1.
        -11    1    4    4    0    0 -0.23723730401E+01  0.20045142093E+01  0.25155047977E+00  0.31160084983E+01  0.51100000000E-03 0.  1.
         12    1    4    4    0    0  0.45357725064E+01  0.86851576870E+01 -0.95425801438E+00  0.98445825019E+01  0.00000000000E+00 0. -1.
</event>
<event>
 8    1  0.4042158E-011  0.9118800E+02  0.7816164E-02  0.1184000E+00
        -11   -1    0    0    0    0  0.00000000000E+00  0.00000000000E+00  0.45593999997E+02  0.45594000000E+02  0.51100000000E-03 0.  1.
         11   -1    0    0    0    0 -0.00000000000E+00 -0.00000000000E+00 -0.45593999997E+02  0.45594000000E+02  0.51100000000E-03 0. -1.
         23    2    1    2    0    0 -0.35527136788E-14  0.00000000000E+00  0.00000000000E+00  0.91188000000E+02  0.91188000000E+02 0.  0.
    9900012    2    3    3    0    0  0.25486602492E+02  0.34267141893E+02 -0.77343142574E+01  0.47787268012E+02  0.19999986173E+02 0.  0.
        -12    1    3    3    0    0 -0.25486602492E+02 -0.34267141893E+02  0.77343142574E+01  0.43400731988E+02  0.00000000000E+00 0.  1.
         11    1    4    4    0    0  0.86484660039E+01  0.16929596460E+01  0.25656086941E+00  0.88163427976E+01  0.51100000000E-03 0. -1.
        -11    1    4    4    0    0  0.39108240768E+01  0.11330289012E+01 -0.10380829505E+00  0.40729689262E+01  0.51100000000E-03 0.  1.
         12    1    4    4    0    0  0.12927312411E+02  0.31441153345E+02 -0.78870668318E+01  0.34897956288E+02  0.00000000000E+00 0. -1.
</event>
<event>
 8    1  0.4042158E-011  0.9118800E+02  0.7816164E-02  0.1184000E+00
        -11   -1    0    0    0    0  0.00000000000E+00  0.00000000000E+00  0.45593999997E+02  0.45594000000E+02  0.51100000000E-03 0. -1.
         11   -1    0    0    0    0 -0.00000000000E+00 -0.00000000000E+00 -0.45593999997E+02  0.45594000000E+02  0.51100000000E-03 0.  1.
         23    2    1    2    0    0  0.00000000000E+00  0.88817841970E-15  0.00000000000E+00  0.91188000000E+02  0.91188000000E+02 0.  0.
    9900012    2    3    3    0    0  0.13275683946E+02 -0.74849868025E+01  0.40636860852E+02  0.47787271071E+02  0.20000000121E+02 0.  0.
        -12    1    3    3    0    0 -0.13275683946E+02  0.74849868025E+01 -0.40636860852E+02  0.43400728929E+02  0.00000000000E+00 0.  1.
         11    1    4    4    0    0  0.10470171744E+01 -0.14812477605E+00  0.10171672327E+02  0.10226490312E+02  0.51100000000E-03 0. -1.
        -11    1    4    4    0    0 -0.90331754289E+00 -0.42749488703E+01  0.20055486263E+02  0.20525927505E+02  0.51100000000E-03 0.  1.
        -12    1    4    4    0    0  0.13131984314E+02 -0.30619131561E+01  0.10409702262E+02  0.17034853254E+02  0.00000000000E+00 0.  1.
</event>
<event>
 8    1  0.4042158E-011  0.9118800E+02  0.7816164E-02  0.1184000E+00
        -11   -1    0    0    0    0  0.00000000000E+00  0.00000000000E+00  0.45593999997E+02  0.45594000000E+02  0.51100000000E-03 0.  1.
         11   -1    0    0    0    0 -0.00000000000E+00 -0.00000000000E+00 -0.45593999997E+02  0.45594000000E+02  0.51100000000E-03 0. -1.
         23    2    1    2    0    0  0.00000000000E+00  0.00000000000E+00  0.00000000000E+00  0.91188000000E+02  0.91188000000E+02 0.  0.
    9900012    2    3    3    0    0 -0.12416358178E+02 -0.37034588846E+02  0.18918141893E+02  0.47787276342E+02  0.20000024153E+02 0.  0.
        -12    1    3    3    0    0  0.12416358178E+02  0.37034588846E+02 -0.18918141893E+02  0.43400723658E+02  0.00000000000E+00 0.  1.
         11    1    4    4    0    0  0.12033243178E+01 -0.79253587581E+01  0.27820154346E+01  0.84852172039E+01  0.51100000000E-03 0.  1.
        -11    1    4    4    0    0 -0.64239507170E+01 -0.12369436355E+02 -0.14065647316E+01  0.14008873016E+02  0.51100000000E-03 0. -1.
         12    1    4    4    0    0 -0.71957317784E+01 -0.16739793732E+02  0.17542691190E+02  0.25293186122E+02  0.00000000000E+00 0. -1.
</event>
<event>
 8    1  0.4042158E-011  0.9118800E+02  0.7816164E-02  0.1184000E+00
        -11   -1    0    0    0    0  0.00000000000E+00  0.00000000000E+00  0.45593999997E+02  0.45594000000E+02  0.51100000000E-03 0. -1.
         11   -1    0    0    0    0 -0.00000000000E+00 -0.00000000000E+00 -0.45593999997E+02  0.45594000000E+02  0.51100000000E-03 0.  1.
         23    2    1    2    0    0  0.00000000000E+00  0.00000000000E+00  0.00000000000E+00  0.91188000000E+02  0.91188000000E+02 0.  0.
    9900012    2    3    3    0    0  0.33554383940E+01 -0.35762995746E+01 -0.43122786351E+02  0.47787267424E+02  0.19999983494E+02 0.  0.
         12    1    3    3    0    0 -0.33554383940E+01  0.35762995746E+01  0.43122786351E+02  0.43400732576E+02  0.00000000000E+00 0. -1.
         11    1    4    4    0    0  0.27318730934E+01 -0.75467172877E+01 -0.28261667192E+02  0.29379208722E+02  0.51100000000E-03 0. -1.
        -11    1    4    4    0    0  0.11516168731E+01 -0.30098685043E+01 -0.79172773242E+01  0.85480296165E+01  0.51100000000E-03 0.  1.
        -12    1    4    4    0    0 -0.52805157248E+00  0.69802862174E+01 -0.69438418347E+01  0.98600290854E+01  0.00000000000E+00 0.  1.
</event>
<event>
 8    1  0.4042158E-011  0.9118800E+02  0.7816164E-02  0.1184000E+00
        -11   -1    0    0    0    0  0.00000000000E+00  0.00000000000E+00  0.45593999997E+02  0.45594000000E+02  0.51100000000E-03 0. -1.
         11   -1    0    0    0    0 -0.00000000000E+00 -0.00000000000E+00 -0.45593999997E+02  0.45594000000E+02  0.51100000000E-03 0.  1.
         23    2    1    2    0    0 -0.88817841970E-15  0.00000000000E+00  0.00000000000E+00  0.91188000000E+02  0.91188000000E+02 0.  0.
    9900012    2    3    3    0    0 -0.72328368021E+01  0.85119456014E+01 -0.41938718640E+02  0.47787271121E+02  0.20000000347E+02 0.  0.
         12    1    3    3    0    0  0.72328368021E+01 -0.85119456014E+01  0.41938718640E+02  0.43400728879E+02  0.00000000000E+00 0. -1.
         11    1    4    4    0    0 -0.39929831110E+00  0.34650269843E+01 -0.60064596056E+01  0.69457475046E+01  0.51100000000E-03 0. -1.
        -11    1    4    4    0    0 -0.10786980223E+02 -0.66836919547E+00 -0.13141719268E+02  0.17015006473E+02  0.51100000000E-03 0.  1.
         12    1    4    4    0    0  0.39534417322E+01  0.57152878126E+01 -0.22790539766E+02  0.23826517143E+02  0.00000000000E+00 0. -1.
</event>
<event>
 8    1  0.4042158E-011  0.9118800E+02  0.7816164E-02  0.1184000E+00
        -11   -1    0    0    0    0  0.00000000000E+00  0.00000000000E+00  0.45593999997E+02  0.45594000000E+02  0.51100000000E-03 0. -1.
         11   -1    0    0    0    0 -0.00000000000E+00 -0.00000000000E+00 -0.45593999997E+02  0.45594000000E+02  0.51100000000E-03 0.  1.
         23    2    1    2    0    0  0.35527136788E-14  0.17763568394E-14  0.71054273576E-14  0.91188000000E+02  0.91188000000E+02 0.  0.
    9900012    2    3    3    0    0  0.23648488094E+02  0.12055497808E+02  0.34337170432E+02  0.47787224779E+02  0.19999789055E+02 0.  0.
        -12    1    3    3    0    0 -0.23648488094E+02 -0.12055497808E+02 -0.34337170432E+02  0.43400775221E+02  0.00000000000E+00 0.  1.
         11    1    4    4    0    0  0.32608169605E+01 -0.94051688652E+00  0.27612214480E+01  0.43751392446E+01  0.51100000000E-03 0. -1.
        -11    1    4    4    0    0  0.17330778488E+02  0.16377617881E+02  0.30524225162E+02  0.38733842728E+02  0.51100000000E-03 0.  1.
        -12    1    4    4    0    0  0.30568926452E+01 -0.33816031865E+01  0.10517238216E+01  0.46782428060E+01  0.00000000000E+00 0.  1.
</event>
<event>
 8    1  0.4042158E-011  0.9118800E+02  0.7816164E-02  0.1184000E+00
        -11   -1    0    0    0    0  0.00000000000E+00  0.00000000000E+00  0.45593999997E+02  0.45594000000E+02  0.51100000000E-03 0. -1.
         11   -1    0    0    0    0 -0.00000000000E+00 -0.00000000000E+00 -0.45593999997E+02  0.45594000000E+02  0.51100000000E-03 0.  1.
         23    2    1    2    0    0 -0.17763568394E-14  0.00000000000E+00  0.00000000000E+00  0.91188000000E+02  0.91188000000E+02 0.  0.
    9900012    2    3    3    0    0  0.13548217445E+02  0.56048591221E+01 -0.40849170767E+02  0.47787269660E+02  0.19999993686E+02 0.  0.
         12    1    3    3    0    0 -0.13548217445E+02 -0.56048591221E+01  0.40849170767E+02  0.43400730340E+02  0.00000000000E+00 0. -1.
         11    1    4    4    0    0  0.33887754768E+01  0.29869739252E+01 -0.18278379426E+01  0.48730692861E+01  0.51100000000E-03 0. -1.
        -11    1    4    4    0    0  0.49691784085E+01 -0.54657455108E+01 -0.10653600913E+02  0.12964039521E+02  0.51100000000E-03 0.  1.
        -12    1    4    4    0    0  0.51902635595E+01  0.80836307078E+01 -0.28367731912E+02  0.29950160852E+02  0.00000000000E+00 0.  1.
</event>
<event>
 8    1  0.4042158E-011  0.9118800E+02  0.7816164E-02  0.1184000E+00
        -11   -1    0    0    0    0  0.00000000000E+00  0.00000000000E+00  0.45593999997E+02  0.45594000000E+02  0.51100000000E-03 0. -1.
         11   -1    0    0    0    0 -0.00000000000E+00 -0.00000000000E+00 -0.45593999997E+02  0.45594000000E+02  0.51100000000E-03 0.  1.
         23    2    1    2    0    0  0.35527136788E-14  0.17763568394E-14  0.71054273576E-14  0.91188000000E+02  0.91188000000E+02 0.  0.
    9900012    2    3    3    0    0 -0.25785355772E+02 -0.78292137988E+01 -0.34021188238E+02  0.47787280995E+02  0.20000045371E+02 0.  0.
         12    1    3    3    0    0  0.25785355772E+02  0.78292137988E+01  0.34021188238E+02  0.43400719005E+02  0.00000000000E+00 0. -1.
         11    1    4    4    0    0 -0.95720785657E+00  0.40018773120E+01 -0.30612148285E+01  0.51285773260E+01  0.51100000000E-03 0. -1.
        -11    1    4    4    0    0 -0.19426281831E+01  0.14539461534E+01 -0.51545326113E+01  0.56971019279E+01  0.51100000000E-03 0.  1.
        -12    1    4    4    0    0 -0.22885519732E+02 -0.13285037264E+02 -0.25805440798E+02  0.36961601742E+02  0.00000000000E+00 0.  1.
</event>
<event>
 8    1  0.4042158E-011  0.9118800E+02  0.7816164E-02  0.1184000E+00
        -11   -1    0    0    0    0  0.00000000000E+00  0.00000000000E+00  0.45593999997E+02  0.45594000000E+02  0.51100000000E-03 0.  1.
         11   -1    0    0    0    0 -0.00000000000E+00 -0.00000000000E+00 -0.45593999997E+02  0.45594000000E+02  0.51100000000E-03 0. -1.
         23    2    1    2    0    0 -0.17763568394E-14  0.00000000000E+00  0.00000000000E+00  0.91188000000E+02  0.91188000000E+02 0.  0.
    9900012    2    3    3    0    0 -0.12074312958E+02  0.40377834766E+02 -0.10366546177E+02  0.47787264368E+02  0.19999969558E+02 0.  0.
        -12    1    3    3    0    0  0.12074312958E+02 -0.40377834766E+02  0.10366546177E+02  0.43400735632E+02  0.00000000000E+00 0.  1.
         11    1    4    4    0    0  0.29224716174E+01  0.38781620940E+01  0.14896307042E+01  0.50793682164E+01  0.51100000000E-03 0. -1.
        -11    1    4    4    0    0 -0.54521956325E+01  0.30922391011E+01 -0.13727938419E+01  0.64166146111E+01  0.51100000000E-03 0.  1.
         12    1    4    4    0    0 -0.95445889431E+01  0.33407433571E+02 -0.10483383039E+02  0.36291281540E+02  0.00000000000E+00 0. -1.
</event>
<event>
 8    1  0.4042158E-011  0.9118800E+02  0.7816164E-02  0.1184000E+00
        -11   -1    0    0    0    0  0.00000000000E+00  0.00000000000E+00  0.45593999997E+02  0.45594000000E+02  0.51100000000E-03 0. -1.
         11   -1    0    0    0    0 -0.00000000000E+00 -0.00000000000E+00 -0.45593999997E+02  0.45594000000E+02  0.51100000000E-03 0.  1.
         23    2    1    2    0    0 -0.17763568394E-14 -0.35527136788E-14 -0.35527136788E-14  0.91188000000E+02  0.91188000000E+02 0.  0.
    9900012    2    3    3    0    0 -0.14421515083E+02 -0.28439467456E+02 -0.29442138501E+02  0.47787275052E+02  0.20000018273E+02 0.  0.
         12    1    3    3    0    0  0.14421515083E+02  0.28439467456E+02  0.29442138501E+02  0.43400724948E+02  0.00000000000E+00 0. -1.
         11    1    4    4    0    0  0.19645977147E+00 -0.62311921255E+01 -0.62985621911E+00  0.62660251248E+01  0.51100000000E-03 0. -1.
        -11    1    4    4    0    0 -0.96174745972E+01 -0.22513025315E+02 -0.21071638296E+02  0.32300867902E+02  0.51100000000E-03 0.  1.
        -12    1    4    4    0    0 -0.50005002569E+01  0.30474998482E+00 -0.77406439860E+01  0.92203820252E+01  0.00000000000E+00 0.  1.
</event>
<event>
 8    1  0.4042158E-011  0.9118800E+02  0.7816164E-02  0.1184000E+00
        -11   -1    0    0    0    0  0.00000000000E+00  0.00000000000E+00  0.45593999997E+02  0.45594000000E+02  0.51100000000E-03 0. -1.
         11   -1    0    0    0    0 -0.00000000000E+00 -0.00000000000E+00 -0.45593999997E+02  0.45594000000E+02  0.51100000000E-03 0.  1.
         23    2    1    2    0    0  0.00000000000E+00 -0.35527136788E-14 -0.35527136788E-14  0.91188000000E+02  0.91188000000E+02 0.  0.
    9900012    2    3    3    0    0 -0.16875959780E+02  0.29749501289E+02  0.26716894528E+02  0.47787270759E+02  0.19999998699E+02 0.  0.
        -12    1    3    3    0    0  0.16875959780E+02 -0.29749501289E+02 -0.26716894528E+02  0.43400729241E+02  0.00000000000E+00 0.  1.
         11    1    4    4    0    0 -0.15274266924E+02  0.20959935518E+02  0.25784706400E+02  0.36571480847E+02  0.51100000000E-03 0. -1.
        -11    1    4    4    0    0 -0.41743952421E+01  0.56997064149E+01  0.12807463935E+01  0.71800097798E+01  0.51100000000E-03 0.  1.
         12    1    4    4    0    0  0.25727023863E+01  0.30898593562E+01 -0.34855826556E+00  0.40357801320E+01  0.00000000000E+00 0. -1.
</event>
<event>
 8    1  0.4042158E-011  0.9118800E+02  0.7816164E-02  0.1184000E+00
        -11   -1    0    0    0    0  0.00000000000E+00  0.00000000000E+00  0.45593999997E+02  0.45594000000E+02  0.51100000000E-03 0. -1.
         11   -1    0    0    0    0 -0.00000000000E+00 -0.00000000000E+00 -0.45593999997E+02  0.45594000000E+02  0.51100000000E-03 0.  1.
         23    2    1    2    0    0 -0.17763568394E-14 -0.88817841970E-15  0.71054273576E-14  0.91188000000E+02  0.91188000000E+02 0.  0.
    9900012    2    3    3    0    0  0.13702502317E+02  0.62658300415E+01  0.40701399548E+02  0.47787272805E+02  0.20000008028E+02 0.  0.
        -12    1    3    3    0    0 -0.13702502317E+02 -0.62658300415E+01 -0.40701399548E+02  0.43400727195E+02  0.00000000000E+00 0.  1.
         11    1    4    4    0    0  0.68634446491E+01 -0.10635948358E+00  0.23082246891E+02  0.24081285402E+02  0.51100000000E-03 0. -1.
        -11    1    4    4    0    0  0.12905163344E+01  0.60873198226E+01  0.17015284473E+02  0.18117417062E+02  0.51100000000E-03 0.  1.
         12    1    4    4    0    0  0.55485413339E+01  0.28486970244E+00  0.60386818387E+00  0.55885703418E+01  0.00000000000E+00 0. -1.
</event>
<event>
 8    1  0.4042158E-011  0.9118800E+02  0.7816164E-02  0.1184000E+00
        -11   -1    0    0    0    0  0.00000000000E+00  0.00000000000E+00  0.45593999997E+02  0.45594000000E+02  0.51100000000E-03 0. -1.
         11   -1    0    0    0    0 -0.00000000000E+00 -0.00000000000E+00 -0.45593999997E+02  0.45594000000E+02  0.51100000000E-03 0.  1.
         23    2    1    2    0    0  0.17763568394E-14 -0.35527136788E-14 -0.71054273576E-14  0.91188000000E+02  0.91188000000E+02 0.  0.
    9900012    2    3    3    0    0 -0.10481555960E+02  0.18546769300E+02  0.37812401312E+02  0.47787270054E+02  0.19999995486E+02 0.  0.
        -12    1    3    3    0    0  0.10481555960E+02 -0.18546769300E+02 -0.37812401312E+02  0.43400729946E+02  0.00000000000E+00 0.  1.
         11    1    4    4    0    0 -0.46062652902E+01  0.46001052963E+01  0.18011935503E+02  0.19152244502E+02  0.51100000000E-03 0. -1.
        -11    1    4    4    0    0 -0.59548136657E+01  0.12634012330E+02  0.22007762337E+02  0.26065680054E+02  0.51100000000E-03 0.  1.
        -12    1    4    4    0    0  0.79522995784E-01  0.13126516744E+01 -0.22072965279E+01  0.25693454979E+01  0.00000000000E+00 0.  1.
</event>
<event>
 8    1  0.4276075E-011  0.9118800E+02  0.7816164E-02  0.1184000E+00
        -11   -1    0    0    0    0  0.00000000000E+00  0.00000000000E+00  0.45593999997E+02  0.45594000000E+02  0.51100000000E-03 0. -1.
         11   -1    0    0    0    0 -0.00000000000E+00 -0.00000000000E+00 -0.45593999997E+02  0.45594000000E+02  0.51100000000E-03 0.  1.
         23    2    1    2    0    0  0.88817841970E-15  0.00000000000E+00  0.00000000000E+00  0.91188000000E+02  0.91188000000E+02 0.  0.
    9900012    2    3    3    0    0  0.63932287721E+01 -0.11048511622E+02  0.41481088975E+02  0.47787265838E+02  0.19999976263E+02 0.  0.
        -12    1    3    3    0    0 -0.63932287721E+01  0.11048511622E+02 -0.41481088975E+02  0.43400734162E+02  0.00000000000E+00 0.  1.
         11    1    4    4    0    0  0.48370685653E+01 -0.15359433297E+01  0.21597614520E+02  0.22185880813E+02  0.51100000000E-03 0. -1.
        -11    1    4    4    0    0  0.24819568522E+01 -0.11029511837E+01  0.16110432948E+02  0.16337767937E+02  0.51100000000E-03 0.  1.
        -12    1    4    4    0    0 -0.92579664538E+00 -0.84096171089E+01  0.37730415075E+01  0.92636170886E+01  0.00000000000E+00 0.  1.
</event>
<event>
 8    1  0.4042158E-011  0.9118800E+02  0.7816164E-02  0.1184000E+00
        -11   -1    0    0    0    0  0.00000000000E+00  0.00000000000E+00  0.45593999997E+02  0.45594000000E+02  0.51100000000E-03 0. -1.
         11   -1    0    0    0    0 -0.00000000000E+00 -0.00000000000E+00 -0.45593999997E+02  0.45594000000E+02  0.51100000000E-03 0.  1.
         23    2    1    2    0    0 -0.35527136788E-14  0.35527136788E-14 -0.35527136788E-14  0.91188000000E+02  0.91188000000E+02 0.  0.
    9900012    2    3    3    0    0  0.24768311582E+02 -0.17154178433E+02  0.31239207479E+02  0.47787272123E+02  0.20000004919E+02 0.  0.
        -12    1    3    3    0    0 -0.24768311582E+02  0.17154178433E+02 -0.31239207479E+02  0.43400727877E+02  0.00000000000E+00 0.  1.
         11    1    4    4    0    0  0.10465046576E+01 -0.51515870256E+01  0.11784462832E+02  0.12903781824E+02  0.51100000000E-03 0. -1.
        -11    1    4    4    0    0  0.19054057002E-01  0.16079673310E+01  0.13383959641E+01  0.20921821174E+01  0.51100000000E-03 0.  1.
         12    1    4    4    0    0  0.23702752867E+02 -0.13610558738E+02  0.18116348683E+02  0.32791308181E+02  0.00000000000E+00 0. -1.
</event>
<event>
 8    1  0.4042158E-011  0.9118800E+02  0.7816164E-02  0.1184000E+00
        -11   -1    0    0    0    0  0.00000000000E+00  0.00000000000E+00  0.45593999997E+02  0.45594000000E+02  0.51100000000E-03 0. -1.
         11   -1    0    0    0    0 -0.00000000000E+00 -0.00000000000E+00 -0.45593999997E+02  0.45594000000E+02  0.51100000000E-03 0.  1.
         23    2    1    2    0    0 -0.17763568394E-14  0.00000000000E+00 -0.71054273576E-14  0.91188000000E+02  0.91188000000E+02 0.  0.
    9900012    2    3    3    0    0 -0.12475176595E+02 -0.18718089442E+02  0.37116380947E+02  0.47787278370E+02  0.20000033398E+02 0.  0.
        -12    1    3    3    0    0  0.12475176595E+02  0.18718089442E+02 -0.37116380947E+02  0.43400721630E+02  0.00000000000E+00 0.  1.
         11    1    4    4    0    0 -0.67547950183E+00 -0.31762116715E+01  0.18362586219E+01  0.37304743837E+01  0.51100000000E-03 0.  1.
        -11    1    4    4    0    0 -0.13540889433E+02 -0.15551108320E+02  0.36506175134E+02  0.41927240308E+02  0.51100000000E-03 0. -1.
         12    1    4    4    0    0  0.17411923405E+01  0.92305492786E-02 -0.12260528089E+01  0.21295636783E+01  0.00000000000E+00 0. -1.
</event>
<event>
 8    1  0.4042158E-011  0.9118800E+02  0.7816164E-02  0.1184000E+00
        -11   -1    0    0    0    0  0.00000000000E+00  0.00000000000E+00  0.45593999997E+02  0.45594000000E+02  0.51100000000E-03 0.  1.
         11   -1    0    0    0    0 -0.00000000000E+00 -0.00000000000E+00 -0.45593999997E+02  0.45594000000E+02  0.51100000000E-03 0. -1.
         23    2    1    2    0    0  0.71054273576E-14  0.00000000000E+00  0.00000000000E+00  0.91188000000E+02  0.91188000000E+02 0.  0.
    9900012    2    3    3    0    0  0.39813938423E+02  0.12731288339E+02  0.11678526420E+02  0.47787269881E+02  0.19999994694E+02 0.  0.
        -12    1    3    3    0    0 -0.39813938423E+02 -0.12731288339E+02 -0.11678526420E+02  0.43400730119E+02  0.00000000000E+00 0.  1.
         11    1    4    4    0    0  0.14844044862E+02  0.42777225050E+01  0.16593502240E+01  0.15536988805E+02  0.51100000000E-03 0. -1.
        -11    1    4    4    0    0  0.24390237632E+02  0.60003596662E+01  0.13052339009E+02  0.28306387296E+02  0.51100000000E-03 0.  1.
         12    1    4    4    0    0  0.57965592921E+00  0.24532061675E+01 -0.30331628130E+01  0.39438937798E+01  0.00000000000E+00 0. -1.
</event>
<event>
 8    1  0.4042158E-011  0.9118800E+02  0.7816164E-02  0.1184000E+00
        -11   -1    0    0    0    0  0.00000000000E+00  0.00000000000E+00  0.45593999997E+02  0.45594000000E+02  0.51100000000E-03 0. -1.
         11   -1    0    0    0    0 -0.00000000000E+00 -0.00000000000E+00 -0.45593999997E+02  0.45594000000E+02  0.51100000000E-03 0.  1.
         23    2    1    2    0    0 -0.44408920985E-15  0.00000000000E+00  0.00000000000E+00  0.91188000000E+02  0.91188000000E+02 0.  0.
    9900012    2    3    3    0    0 -0.32042686130E+01 -0.11698514326E+02 -0.41671313757E+02  0.47787297643E+02  0.20000121274E+02 0.  0.
         12    1    3    3    0    0  0.32042686130E+01  0.11698514326E+02  0.41671313757E+02  0.43400702357E+02  0.00000000000E+00 0. -1.
         11    1    4    4    0    0  0.14996334802E+01 -0.12065392748E+02 -0.14230438085E+02  0.18717050277E+02  0.51100000000E-03 0. -1.
        -11    1    4    4    0    0  0.58178268009E+00 -0.26276972156E+01 -0.14831856205E+02  0.15074057930E+02  0.51100000000E-03 0.  1.
         12    1    4    4    0    0 -0.52856847732E+01  0.29945756374E+01 -0.12609019468E+02  0.13996189436E+02  0.00000000000E+00 0. -1.
</event>
<event>
 8    1  0.4042158E-011  0.9118800E+02  0.7816164E-02  0.1184000E+00
        -11   -1    0    0    0    0  0.00000000000E+00  0.00000000000E+00  0.45593999997E+02  0.45594000000E+02  0.51100000000E-03 0. -1.
         11   -1    0    0    0    0 -0.00000000000E+00 -0.00000000000E+00 -0.45593999997E+02  0.45594000000E+02  0.51100000000E-03 0.  1.
         23    2    1    2    0    0  0.00000000000E+00  0.35527136788E-14  0.35527136788E-14  0.91188000000E+02  0.91188000000E+02 0.  0.
    9900012    2    3    3    0    0 -0.28729369785E+02  0.28307779910E+02  0.16028596213E+02  0.47787274335E+02  0.20000015005E+02 0.  0.
        -12    1    3    3    0    0  0.28729369785E+02 -0.28307779910E+02 -0.16028596213E+02  0.43400725665E+02  0.00000000000E+00 0.  1.
         11    1    4    4    0    0 -0.16570159125E+02  0.13364638036E+02  0.76899985433E+01  0.22634482568E+02  0.51100000000E-03 0. -1.
        -11    1    4    4    0    0 -0.92301340755E+01  0.11358024491E+02 -0.10620047272E+01  0.14674057029E+02  0.51100000000E-03 0.  1.
        -12    1    4    4    0    0 -0.29290765837E+01  0.35851173833E+01  0.94006023972E+01  0.10478734738E+02  0.00000000000E+00 0.  1.
</event>
<event>
 8    1  0.4042158E-011  0.9118800E+02  0.7816164E-02  0.1184000E+00
        -11   -1    0    0    0    0  0.00000000000E+00  0.00000000000E+00  0.45593999997E+02  0.45594000000E+02  0.51100000000E-03 0.  1.
         11   -1    0    0    0    0 -0.00000000000E+00 -0.00000000000E+00 -0.45593999997E+02  0.45594000000E+02  0.51100000000E-03 0. -1.
         23    2    1    2    0    0 -0.35527136788E-14  0.00000000000E+00  0.00000000000E+00  0.91188000000E+02  0.91188000000E+02 0.  0.
    9900012    2    3    3    0    0 -0.23995883682E+02  0.32205733317E+02  0.16450279339E+02  0.47787269793E+02  0.19999994294E+02 0.  0.
        -12    1    3    3    0    0  0.23995883682E+02 -0.32205733317E+02 -0.16450279339E+02  0.43400730207E+02  0.00000000000E+00 0.  1.
         11    1    4    4    0    0  0.80062287836E+00  0.19642268549E+00  0.21078150130E+01  0.22632859419E+01  0.51100000000E-03 0. -1.
        -11    1    4    4    0    0 -0.81005798677E+01  0.22597231337E+02  0.70741319562E+01  0.25025938573E+02  0.51100000000E-03 0.  1.
         12    1    4    4    0    0 -0.16695926692E+02  0.94120792952E+01  0.72683323700E+01  0.20498045278E+02  0.00000000000E+00 0. -1.
</event>
<event>
 8    1  0.4042158E-011  0.9118800E+02  0.7816164E-02  0.1184000E+00
        -11   -1    0    0    0    0  0.00000000000E+00  0.00000000000E+00  0.45593999997E+02  0.45594000000E+02  0.51100000000E-03 0. -1.
         11   -1    0    0    0    0 -0.00000000000E+00 -0.00000000000E+00 -0.45593999997E+02  0.45594000000E+02  0.51100000000E-03 0.  1.
         23    2    1    2    0    0  0.17763568394E-14  0.00000000000E+00 -0.35527136788E-14  0.91188000000E+02  0.91188000000E+02 0.  0.
    9900012    2    3    3    0    0  0.11886378879E+02  0.38093026715E+02 -0.17066297306E+02  0.47787272001E+02  0.20000004360E+02 0.  0.
         12    1    3    3    0    0 -0.11886378879E+02 -0.38093026715E+02  0.17066297306E+02  0.43400727999E+02  0.00000000000E+00 0. -1.
         11    1    4    4    0    0 -0.20612956737E+01  0.21406925876E+00 -0.81770455941E+00  0.22278703978E+01  0.51100000000E-03 0. -1.
        -11    1    4    4    0    0 -0.12588605799E+01  0.11438148570E+02 -0.78256455094E+01  0.13916059089E+02  0.51100000000E-03 0.  1.
         12    1    4    4    0    0  0.15206535133E+02  0.26440808886E+02 -0.84229472368E+01  0.31643342514E+02  0.00000000000E+00 0. -1.
</event>
<event>
 8    1  0.4042158E-011  0.9118800E+02  0.7816164E-02  0.1184000E+00
        -11   -1    0    0    0    0  0.00000000000E+00  0.00000000000E+00  0.45593999997E+02  0.45594000000E+02  0.51100000000E-03 0. -1.
         11   -1    0    0    0    0 -0.00000000000E+00 -0.00000000000E+00 -0.45593999997E+02  0.45594000000E+02  0.51100000000E-03 0.  1.
         23    2    1    2    0    0 -0.53290705182E-14  0.00000000000E+00  0.00000000000E+00  0.91188000000E+02  0.91188000000E+02 0.  0.
    9900012    2    3    3    0    0  0.15125001842E+02 -0.16067570505E+02 -0.37372329619E+02  0.47787268166E+02  0.19999986874E+02 0.  0.
         12    1    3    3    0    0 -0.15125001842E+02  0.16067570505E+02  0.37372329619E+02  0.43400731834E+02  0.00000000000E+00 0. -1.
         11    1    4    4    0    0  0.30644405926E+01 -0.45817008735E+01 -0.17102682874E+02  0.17968988308E+02  0.51100000000E-03 0. -1.
        -11    1    4    4    0    0  0.13764083850E+02 -0.11519396180E+02 -0.21279088839E+02  0.27837853988E+02  0.51100000000E-03 0.  1.
        -12    1    4    4    0    0 -0.17035226009E+01  0.33526547940E-01  0.10094420953E+01  0.19804258696E+01  0.00000000000E+00 0.  1.
</event>
<event>
 8    1  0.4042158E-011  0.9118800E+02  0.7816164E-02  0.1184000E+00
        -11   -1    0    0    0    0  0.00000000000E+00  0.00000000000E+00  0.45593999997E+02  0.45594000000E+02  0.51100000000E-03 0. -1.
         11   -1    0    0    0    0 -0.00000000000E+00 -0.00000000000E+00 -0.45593999997E+02  0.45594000000E+02  0.51100000000E-03 0.  1.
         23    2    1    2    0    0  0.00000000000E+00  0.00000000000E+00 -0.71054273576E-14  0.91188000000E+02  0.91188000000E+02 0.  0.
    9900012    2    3    3    0    0  0.23252268146E+02  0.77334776240E+01  0.35821062889E+02  0.47787271935E+02  0.20000004060E+02 0.  0.
        -12    1    3    3    0    0 -0.23252268146E+02 -0.77334776240E+01 -0.35821062889E+02  0.43400728065E+02  0.00000000000E+00 0.  1.
         11    1    4    4    0    0  0.11276061638E+01  0.32797422312E+01  0.25468772160E+01  0.43028814274E+01  0.51100000000E-03 0. -1.
        -11    1    4    4    0    0  0.32949844124E+00 -0.36382056741E+01  0.11497014175E+01  0.38297419444E+01  0.51100000000E-03 0.  1.
         12    1    4    4    0    0  0.21795163541E+02  0.80919410669E+01  0.32124484256E+02  0.39654648563E+02  0.00000000000E+00 0. -1.
</event>
<event>
 8    1  0.4042158E-011  0.9118800E+02  0.7816164E-02  0.1184000E+00
        -11   -1    0    0    0    0  0.00000000000E+00  0.00000000000E+00  0.45593999997E+02  0.45594000000E+02  0.51100000000E-03 0. -1.
         11   -1    0    0    0    0 -0.00000000000E+00 -0.00000000000E+00 -0.45593999997E+02  0.45594000000E+02  0.51100000000E-03 0.  1.
         23    2    1    2    0    0  0.35527136788E-14  0.00000000000E+00 -0.71054273576E-14  0.91188000000E+02  0.91188000000E+02 0.  0.
    9900012    2    3    3    0    0  0.25745612612E+02  0.28382000000E+02 -0.20377647486E+02  0.47787274087E+02  0.20000013873E+02 0.  0.
         12    1    3    3    0    0 -0.25745612612E+02 -0.28382000000E+02  0.20377647486E+02  0.43400725913E+02  0.00000000000E+00 0. -1.
         11    1    4    4    0    0  0.36541818428E+01  0.50020801412E+01 -0.73140045026E+01  0.95848063520E+01  0.51100000000E-03 0. -1.
        -11    1    4    4    0    0  0.17762808632E+02  0.14624975433E+02 -0.15975400264E+02  0.28011081571E+02  0.51100000000E-03 0.  1.
         12    1    4    4    0    0  0.43286221364E+01  0.87549444253E+01  0.29117572806E+01  0.10191386164E+02  0.00000000000E+00 0. -1.
</event>
<event>
 8    1  0.4042158E-011  0.9118800E+02  0.7816164E-02  0.1184000E+00
        -11   -1    0    0    0    0  0.00000000000E+00  0.00000000000E+00  0.45593999997E+02  0.45594000000E+02  0.51100000000E-03 0. -1.
         11   -1    0    0    0    0 -0.00000000000E+00 -0.00000000000E+00 -0.45593999997E+02  0.45594000000E+02  0.51100000000E-03 0.  1.
         23    2    1    2    0    0  0.00000000000E+00  0.00000000000E+00  0.00000000000E+00  0.91188000000E+02  0.91188000000E+02 0.  0.
    9900012    2    3    3    0    0 -0.38568999925E+01 -0.34117255822E+02  0.26547326159E+02  0.47787270184E+02  0.19999996076E+02 0.  0.
        -12    1    3    3    0    0  0.38568999925E+01  0.34117255822E+02 -0.26547326159E+02  0.43400729816E+02  0.00000000000E+00 0.  1.
         11    1    4    4    0    0 -0.37441601812E+00 -0.21777392443E+02  0.14665586069E+02  0.26257844999E+02  0.51100000000E-03 0. -1.
        -11    1    4    4    0    0  0.10510004099E+00 -0.11027641448E+02  0.13455921252E+02  0.17397750973E+02  0.51100000000E-03 0.  1.
        -12    1    4    4    0    0 -0.35875840154E+01 -0.13122219307E+01 -0.15741811616E+01  0.41316742118E+01  0.00000000000E+00 0.  1.
</event>
<event>
 8    1  0.4042158E-011  0.9118800E+02  0.7816164E-02  0.1184000E+00
        -11   -1    0    0    0    0  0.00000000000E+00  0.00000000000E+00  0.45593999997E+02  0.45594000000E+02  0.51100000000E-03 0. -1.
         11   -1    0    0    0    0 -0.00000000000E+00 -0.00000000000E+00 -0.45593999997E+02  0.45594000000E+02  0.51100000000E-03 0.  1.
         23    2    1    2    0    0  0.00000000000E+00  0.00000000000E+00  0.00000000000E+00  0.91188000000E+02  0.91188000000E+02 0.  0.
    9900012    2    3    3    0    0 -0.22291262953E+02 -0.40581448758E+01 -0.37016960764E+02  0.47787258899E+02  0.19999944626E+02 0.  0.
         12    1    3    3    0    0  0.22291262953E+02  0.40581448758E+01  0.37016960764E+02  0.43400741101E+02  0.00000000000E+00 0. -1.
         11    1    4    4    0    0 -0.54520995496E+01  0.20323479795E+01 -0.13258701034E+02  0.14479260381E+02  0.51100000000E-03 0. -1.
        -11    1    4    4    0    0 -0.50462589249E+01 -0.78736422566E+01 -0.17492198591E+02  0.19835220779E+02  0.51100000000E-03 0.  1.
         12    1    4    4    0    0 -0.11792904479E+02  0.17831494013E+01 -0.62660611384E+01  0.13472777739E+02  0.00000000000E+00 0. -1.
</event>
<event>
 8    1  0.4042158E-011  0.9118800E+02  0.7816164E-02  0.1184000E+00
        -11   -1    0    0    0    0  0.00000000000E+00  0.00000000000E+00  0.45593999997E+02  0.45594000000E+02  0.51100000000E-03 0.  1.
         11   -1    0    0    0    0 -0.00000000000E+00 -0.00000000000E+00 -0.45593999997E+02  0.45594000000E+02  0.51100000000E-03 0. -1.
         23    2    1    2    0    0  0.00000000000E+00  0.71054273576E-14  0.00000000000E+00  0.91188000000E+02  0.91188000000E+02 0.  0.
    9900012    2    3    3    0    0 -0.10629862398E+02 -0.41671272611E+02  0.58424022891E+01  0.47787278807E+02  0.20000035391E+02 0.  0.
         12    1    3    3    0    0  0.10629862398E+02  0.41671272611E+02 -0.58424022891E+01  0.43400721193E+02  0.00000000000E+00 0. -1.
         11    1    4    4    0    0  0.15845830816E+01 -0.27435044842E+01  0.21584301021E+00  0.31755800830E+01  0.51100000000E-03 0. -1.
        -11    1    4    4    0    0 -0.14493553895E+02 -0.33763395384E+02  0.92687118058E+01  0.37893785653E+02  0.51100000000E-03 0.  1.
        -12    1    4    4    0    0  0.22791084151E+01 -0.51643727425E+01 -0.36421525269E+01  0.67179130703E+01  0.00000000000E+00 0.  1.
</event>
<event>
 8    1  0.4042158E-011  0.9118800E+02  0.7816164E-02  0.1184000E+00
        -11   -1    0    0    0    0  0.00000000000E+00  0.00000000000E+00  0.45593999997E+02  0.45594000000E+02  0.51100000000E-03 0. -1.
         11   -1    0    0    0    0 -0.00000000000E+00 -0.00000000000E+00 -0.45593999997E+02  0.45594000000E+02  0.51100000000E-03 0.  1.
         23    2    1    2    0    0  0.00000000000E+00 -0.35527136788E-14  0.71054273576E-14  0.91188000000E+02  0.91188000000E+02 0.  0.
    9900012    2    3    3    0    0  0.13894079640E+02  0.24354287365E+02 -0.33127734536E+02  0.47787267776E+02  0.19999985098E+02 0.  0.
         12    1    3    3    0    0 -0.13894079640E+02 -0.24354287365E+02  0.33127734536E+02  0.43400732224E+02  0.00000000000E+00 0. -1.
         11    1    4    4    0    0  0.25983135142E+01 -0.61678927486E-01 -0.15581843428E+01  0.30303425739E+01  0.51100000000E-03 0. -1.
        -11    1    4    4    0    0 -0.43176243063E+01  0.70154374116E+01 -0.99135931398E+01  0.12889436409E+02  0.51100000000E-03 0.  1.
        -12    1    4    4    0    0  0.15613390432E+02  0.17400528881E+02 -0.21655957053E+02  0.31867488794E+02  0.00000000000E+00 0.  1.
</event>
<event>
 8    1  0.4042158E-011  0.9118800E+02  0.7816164E-02  0.1184000E+00
        -11   -1    0    0    0    0  0.00000000000E+00  0.00000000000E+00  0.45593999997E+02  0.45594000000E+02  0.51100000000E-03 0. -1.
         11   -1    0    0    0    0 -0.00000000000E+00 -0.00000000000E+00 -0.45593999997E+02  0.45594000000E+02  0.51100000000E-03 0.  1.
         23    2    1    2    0    0  0.00000000000E+00  0.00000000000E+00 -0.11102230246E-15  0.91188000000E+02  0.91188000000E+02 0.  0.
    9900012    2    3    3    0    0  0.39729889215E+02  0.17457331759E+02 -0.63283414098E+00  0.47787274105E+02  0.20000013953E+02 0.  0.
        -12    1    3    3    0    0 -0.39729889215E+02 -0.17457331759E+02  0.63283414098E+00  0.43400725895E+02  0.00000000000E+00 0.  1.
         11    1    4    4    0    0  0.14506510525E+01 -0.30342568050E+01 -0.13850257693E+01  0.36372241445E+01  0.51100000000E-03 0.  1.
        -11    1    4    4    0    0  0.21756021226E+02  0.76262721741E+01 -0.14131449015E+01  0.23097217703E+02  0.51100000000E-03 0. -1.
        -12    1    4    4    0    0  0.16523216937E+02  0.12865316390E+02  0.21653365298E+01  0.21052832257E+02  0.00000000000E+00 0.  1.
</event>
<event>
 8    1  0.4042158E-011  0.9118800E+02  0.7816164E-02  0.1184000E+00
        -11   -1    0    0    0    0  0.00000000000E+00  0.00000000000E+00  0.45593999997E+02  0.45594000000E+02  0.51100000000E-03 0.  1.
         11   -1    0    0    0    0 -0.00000000000E+00 -0.00000000000E+00 -0.45593999997E+02  0.45594000000E+02  0.51100000000E-03 0. -1.
         23    2    1    2    0    0 -0.88817841970E-15  0.00000000000E+00  0.44408920985E-15  0.91188000000E+02  0.91188000000E+02 0.  0.
    9900012    2    3    3    0    0 -0.52356833055E+01  0.43011132765E+02  0.25006990629E+01  0.47787269393E+02  0.19999992473E+02 0.  0.
         12    1    3    3    0    0  0.52356833055E+01 -0.43011132765E+02 -0.25006990629E+01  0.43400730607E+02  0.00000000000E+00 0. -1.
         11    1    4    4    0    0  0.30494811867E+00  0.15953414333E+02  0.62242786247E+01  0.17127348507E+02  0.51100000000E-03 0.  1.
        -11    1    4    4    0    0  0.20811120676E+01  0.19343282836E+02 -0.37621798275E+01  0.19815337888E+02  0.51100000000E-03 0. -1.
         12    1    4    4    0    0 -0.76217434918E+01  0.77144355957E+01  0.38600265750E-01  0.10844582998E+02  0.00000000000E+00 0. -1.
</event>
<event>
 8    1  0.4042158E-011  0.9118800E+02  0.7816164E-02  0.1184000E+00
        -11   -1    0    0    0    0  0.00000000000E+00  0.00000000000E+00  0.45593999997E+02  0.45594000000E+02  0.51100000000E-03 0. -1.
         11   -1    0    0    0    0 -0.00000000000E+00 -0.00000000000E+00 -0.45593999997E+02  0.45594000000E+02  0.51100000000E-03 0.  1.
         23    2    1    2    0    0  0.00000000000E+00  0.00000000000E+00  0.00000000000E+00  0.91188000000E+02  0.91188000000E+02 0.  0.
    9900012    2    3    3    0    0 -0.98593543542E+01  0.82134863272E+01 -0.41460283781E+02  0.47787270085E+02  0.19999995628E+02 0.  0.
         12    1    3    3    0    0  0.98593543542E+01 -0.82134863272E+01  0.41460283781E+02  0.43400729915E+02  0.00000000000E+00 0. -1.
         11    1    4    4    0    0  0.23286383582E+01  0.80177027352E+01 -0.25249232508E+02  0.26593793566E+02  0.51100000000E-03 0. -1.
        -11    1    4    4    0    0 -0.55158977180E+01 -0.87520931967E+00 -0.11987498136E+02  0.13224644827E+02  0.51100000000E-03 0.  1.
         12    1    4    4    0    0 -0.66720949944E+01  0.10709929117E+01 -0.42235531372E+01  0.79688316919E+01  0.00000000000E+00 0. -1.
</event>
<event>
 8    1  0.4042158E-011  0.9118800E+02  0.7816164E-02  0.1184000E+00
        -11   -1    0    0    0    0  0.00000000000E+00  0.00000000000E+00  0.45593999997E+02  0.45594000000E+02  0.51100000000E-03 0. -1.
         11   -1    0    0    0    0 -0.00000000000E+00 -0.00000000000E+00 -0.45593999997E+02  0.45594000000E+02  0.51100000000E-03 0.  1.
         23    2    1    2    0    0  0.00000000000E+00  0.17763568394E-14  0.00000000000E+00  0.91188000000E+02  0.91188000000E+02 0.  0.
    9900012    2    3    3    0    0 -0.13185112094E+01 -0.15906617588E+02  0.40359190967E+02  0.47787271315E+02  0.20000001233E+02 0.  0.
        -12    1    3    3    0    0  0.13185112094E+01  0.15906617588E+02 -0.40359190967E+02  0.43400728685E+02  0.00000000000E+00 0.  1.
         11    1    4    4    0    0 -0.25491464496E+00 -0.10240210032E+02  0.23152555326E+02  0.25317339934E+02  0.51100000000E-03 0. -1.
        -11    1    4    4    0    0 -0.27202229397E+01  0.44315533433E+00  0.15730240541E+02  0.15969861216E+02  0.51100000000E-03 0.  1.
         12    1    4    4    0    0  0.16566263753E+01 -0.61095628903E+01  0.14763950998E+01  0.65000701649E+01  0.00000000000E+00 0. -1.
</event>
<event>
 8    1  0.4042158E-011  0.9118800E+02  0.7816164E-02  0.1184000E+00
        -11   -1    0    0    0    0  0.00000000000E+00  0.00000000000E+00  0.45593999997E+02  0.45594000000E+02  0.51100000000E-03 0. -1.
         11   -1    0    0    0    0 -0.00000000000E+00 -0.00000000000E+00 -0.45593999997E+02  0.45594000000E+02  0.51100000000E-03 0.  1.
         23    2    1    2    0    0 -0.27755575616E-15  0.00000000000E+00  0.71054273576E-14  0.91188000000E+02  0.91188000000E+02 0.  0.
    9900012    2    3    3    0    0 -0.25111378217E+00 -0.13910420509E+01  0.43377702974E+02  0.47787272225E+02  0.20000005383E+02 0.  0.
        -12    1    3    3    0    0  0.25111378217E+00  0.13910420509E+01 -0.43377702974E+02  0.43400727775E+02  0.00000000000E+00 0.  1.
         11    1    4    4    0    0 -0.27524954152E+01  0.73801378156E+00  0.12802838062E+02  0.13116156375E+02  0.51100000000E-03 0. -1.
        -11    1    4    4    0    0 -0.65456225961E+01 -0.76196397923E+00  0.83542850945E+01  0.10640481379E+02  0.51100000000E-03 0.  1.
        -12    1    4    4    0    0  0.90470042292E+01 -0.13670918532E+01  0.22220579817E+02  0.24030634471E+02  0.00000000000E+00 0.  1.
</event>
<event>
 8    1  0.4042158E-011  0.9118800E+02  0.7816164E-02  0.1184000E+00
        -11   -1    0    0    0    0  0.00000000000E+00  0.00000000000E+00  0.45593999997E+02  0.45594000000E+02  0.51100000000E-03 0. -1.
         11   -1    0    0    0    0 -0.00000000000E+00 -0.00000000000E+00 -0.45593999997E+02  0.45594000000E+02  0.51100000000E-03 0.  1.
         23    2    1    2    0    0  0.00000000000E+00  0.22204460493E-15  0.00000000000E+00  0.91188000000E+02  0.91188000000E+02 0.  0.
    9900012    2    3    3    0    0  0.29132574607E+02 -0.17775319892E+01 -0.32120980752E+02  0.47787263512E+02  0.19999965657E+02 0.  0.
         12    1    3    3    0    0 -0.29132574607E+02  0.17775319892E+01  0.32120980752E+02  0.43400736488E+02  0.00000000000E+00 0. -1.
         11    1    4    4    0    0  0.11344790788E+02 -0.80950396395E+01 -0.12025484089E+02  0.18407775874E+02  0.51100000000E-03 0. -1.
        -11    1    4    4    0    0  0.11558712055E+02  0.13991373977E+01 -0.17518798517E+02  0.21034964026E+02  0.51100000000E-03 0.  1.
         12    1    4    4    0    0  0.62290717637E+01  0.49183702526E+01 -0.25766981468E+01  0.83445236124E+01  0.00000000000E+00 0. -1.
</event>
<event>
 8    1  0.4042158E-011  0.9118800E+02  0.7816164E-02  0.1184000E+00
        -11   -1    0    0    0    0  0.00000000000E+00  0.00000000000E+00  0.45593999997E+02  0.45594000000E+02  0.51100000000E-03 0. -1.
         11   -1    0    0    0    0 -0.00000000000E+00 -0.00000000000E+00 -0.45593999997E+02  0.45594000000E+02  0.51100000000E-03 0.  1.
         23    2    1    2    0    0  0.00000000000E+00  0.00000000000E+00  0.00000000000E+00  0.91188000000E+02  0.91188000000E+02 0.  0.
    9900012    2    3    3    0    0 -0.20382945863E+02 -0.10547998350E+02 -0.36836043802E+02  0.47787321731E+02  0.20000231100E+02 0.  0.
         12    1    3    3    0    0  0.20382945863E+02  0.10547998350E+02  0.36836043802E+02  0.43400678269E+02  0.00000000000E+00 0. -1.
         11    1    4    4    0    0 -0.58023968075E+01 -0.54171823933E+01 -0.50887644903E+01  0.94291674125E+01  0.51100000000E-03 0.  1.
        -11    1    4    4    0    0 -0.36277043897E+01 -0.64779388146E+01 -0.38625240485E+01  0.83691709692E+01  0.51100000000E-03 0. -1.
        -12    1    4    4    0    0 -0.10952844666E+02  0.13471228579E+01 -0.27884755263E+02  0.29988983349E+02  0.00000000000E+00 0.  1.
</event>
<event>
 8    1  0.4042158E-011  0.9118800E+02  0.7816164E-02  0.1184000E+00
        -11   -1    0    0    0    0  0.00000000000E+00  0.00000000000E+00  0.45593999997E+02  0.45594000000E+02  0.51100000000E-03 0. -1.
         11   -1    0    0    0    0 -0.00000000000E+00 -0.00000000000E+00 -0.45593999997E+02  0.45594000000E+02  0.51100000000E-03 0.  1.
         23    2    1    2    0    0  0.00000000000E+00  0.17763568394E-14  0.35527136788E-14  0.91188000000E+02  0.91188000000E+02 0.  0.
    9900012    2    3    3    0    0  0.33934054154E+02 -0.15491927021E+02 -0.22183377377E+02  0.47787284960E+02  0.20000063447E+02 0.  0.
         12    1    3    3    0    0 -0.33934054154E+02  0.15491927021E+02  0.22183377377E+02  0.43400715040E+02  0.00000000000E+00 0. -1.
         11    1    4    4    0    0 -0.22847301864E+01 -0.77760368492E+00 -0.23504874274E+01  0.33688946144E+01  0.51100000000E-03 0. -1.
        -11    1    4    4    0    0  0.75984808642E+01 -0.40128305339E+01 -0.13247527648E+01  0.86945207163E+01  0.51100000000E-03 0.  1.
        -12    1    4    4    0    0  0.28620303476E+02 -0.10701492802E+02 -0.18508137185E+02  0.35723869629E+02  0.00000000000E+00 0.  1.
</event>
<event>
 8    1  0.4042158E-011  0.9118800E+02  0.7816164E-02  0.1184000E+00
        -11   -1    0    0    0    0  0.00000000000E+00  0.00000000000E+00  0.45593999997E+02  0.45594000000E+02  0.51100000000E-03 0. -1.
         11   -1    0    0    0    0 -0.00000000000E+00 -0.00000000000E+00 -0.45593999997E+02  0.45594000000E+02  0.51100000000E-03 0.  1.
         23    2    1    2    0    0  0.00000000000E+00  0.00000000000E+00  0.00000000000E+00  0.91188000000E+02  0.91188000000E+02 0.  0.
    9900012    2    3    3    0    0  0.15408896772E+02  0.17842279538E+02 -0.36439570821E+02  0.47787270047E+02  0.19999995452E+02 0.  0.
         12    1    3    3    0    0 -0.15408896772E+02 -0.17842279538E+02  0.36439570821E+02  0.43400729953E+02  0.00000000000E+00 0. -1.
         11    1    4    4    0    0  0.92465583603E+01  0.31325399293E+01 -0.11729808688E+02  0.15261063529E+02  0.51100000000E-03 0. -1.
        -11    1    4    4    0    0  0.24026237253E+01 -0.24727594699E+01 -0.28822325449E+01  0.44938185172E+01  0.51100000000E-03 0.  1.
        -12    1    4    4    0    0  0.37597146865E+01  0.17182499078E+02 -0.21827529588E+02  0.28032388001E+02  0.00000000000E+00 0.  1.
</event>
<event>
 8    1  0.4042158E-011  0.9118800E+02  0.7816164E-02  0.1184000E+00
        -11   -1    0    0    0    0  0.00000000000E+00  0.00000000000E+00  0.45593999997E+02  0.45594000000E+02  0.51100000000E-03 0. -1.
         11   -1    0    0    0    0 -0.00000000000E+00 -0.00000000000E+00 -0.45593999997E+02  0.45594000000E+02  0.51100000000E-03 0.  1.
         23    2    1    2    0    0  0.00000000000E+00 -0.17763568394E-14  0.00000000000E+00  0.91188000000E+02  0.91188000000E+02 0.  0.
    9900012    2    3    3    0    0 -0.27895580683E+02 -0.10768926054E+02  0.31456171512E+02  0.47787263645E+02  0.19999966264E+02 0.  0.
        -12    1    3    3    0    0  0.27895580683E+02  0.10768926054E+02 -0.31456171512E+02  0.43400736355E+02  0.00000000000E+00 0.  1.
         11    1    4    4    0    0 -0.47599272638E+01  0.34841634966E+01  0.30591401126E+01  0.66448958846E+01  0.51100000000E-03 0. -1.
        -11    1    4    4    0    0  0.92674906389E+00 -0.64488691537E+00  0.43784634953E+01  0.45216905911E+01  0.51100000000E-03 0.  1.
        -12    1    4    4    0    0 -0.24062402483E+02 -0.13608202635E+02  0.24018567904E+02  0.36620677169E+02  0.00000000000E+00 0.  1.
</event>
<event>
 8    1  0.4042158E-011  0.9118800E+02  0.7816164E-02  0.1184000E+00
        -11   -1    0    0    0    0  0.00000000000E+00  0.00000000000E+00  0.45593999997E+02  0.45594000000E+02  0.51100000000E-03 0. -1.
         11   -1    0    0    0    0 -0.00000000000E+00 -0.00000000000E+00 -0.45593999997E+02  0.45594000000E+02  0.51100000000E-03 0.  1.
         23    2    1    2    0    0  0.00000000000E+00  0.00000000000E+00  0.00000000000E+00  0.91188000000E+02  0.91188000000E+02 0.  0.
    9900012    2    3    3    0    0  0.11844675542E+02  0.41854293605E+01 -0.41542859804E+02  0.47787270071E+02  0.19999995563E+02 0.  0.
         12    1    3    3    0    0 -0.11844675542E+02 -0.41854293605E+01  0.41542859804E+02  0.43400729929E+02  0.00000000000E+00 0. -1.
         11    1    4    4    0    0  0.23649382499E+01  0.24347352676E+01  0.10318319869E+01  0.35476113456E+01  0.51100000000E-03 0. -1.
        -11    1    4    4    0    0 -0.61795114751E+00  0.51373631987E+00 -0.11794840414E+02  0.11822184624E+02  0.51100000000E-03 0.  1.
        -12    1    4    4    0    0  0.10097688440E+02  0.12369577730E+01 -0.30779851377E+02  0.32417474102E+02  0.00000000000E+00 0.  1.
</event>
<event>
 8    1  0.4042158E-011  0.9118800E+02  0.7816164E-02  0.1184000E+00
        -11   -1    0    0    0    0  0.00000000000E+00  0.00000000000E+00  0.45593999997E+02  0.45594000000E+02  0.51100000000E-03 0. -1.
         11   -1    0    0    0    0 -0.00000000000E+00 -0.00000000000E+00 -0.45593999997E+02  0.45594000000E+02  0.51100000000E-03 0.  1.
         23    2    1    2    0    0 -0.88817841970E-15  0.00000000000E+00  0.71054273576E-14  0.91188000000E+02  0.91188000000E+02 0.  0.
    9900012    2    3    3    0    0  0.52121303204E+01 -0.18950747063E+02 -0.38695298004E+02  0.47787271846E+02  0.20000003653E+02 0.  0.
         12    1    3    3    0    0 -0.52121303204E+01  0.18950747063E+02  0.38695298004E+02  0.43400728154E+02  0.00000000000E+00 0. -1.
         11    1    4    4    0    0 -0.39823834562E+01 -0.25758094984E+01 -0.16568988250E+02  0.17234429044E+02  0.51100000000E-03 0.  1.
        -11    1    4    4    0    0  0.81409099750E+01 -0.60978018718E+01 -0.14500409940E+02  0.17712128375E+02  0.51100000000E-03 0. -1.
        -12    1    4    4    0    0  0.10536038016E+01 -0.10277135693E+02 -0.76258998138E+01  0.12840714427E+02  0.00000000000E+00 0.  1.
</event>
<event>
 8    1  0.4042158E-011  0.9118800E+02  0.7816164E-02  0.1184000E+00
        -11   -1    0    0    0    0  0.00000000000E+00  0.00000000000E+00  0.45593999997E+02  0.45594000000E+02  0.51100000000E-03 0. -1.
         11   -1    0    0    0    0 -0.00000000000E+00 -0.00000000000E+00 -0.45593999997E+02  0.45594000000E+02  0.51100000000E-03 0.  1.
         23    2    1    2    0    0  0.00000000000E+00  0.00000000000E+00  0.00000000000E+00  0.91188000000E+02  0.91188000000E+02 0.  0.
    9900012    2    3    3    0    0 -0.27970775354E+02  0.54565568573E+01  0.32733547989E+02  0.47787269009E+02  0.19999990718E+02 0.  0.
        -12    1    3    3    0    0  0.27970775354E+02 -0.54565568573E+01 -0.32733547989E+02  0.43400730991E+02  0.00000000000E+00 0.  1.
         11    1    4    4    0    0 -0.23915902973E+01 -0.35919043760E+01  0.84516580245E+01  0.94895734794E+01  0.51100000000E-03 0.  1.
        -11    1    4    4    0    0 -0.19109942915E+02  0.18286462242E+01  0.19928477626E+02  0.27670888782E+02  0.51100000000E-03 0. -1.
         12    1    4    4    0    0 -0.64692421418E+01  0.72198150091E+01  0.43534123380E+01  0.10626806747E+02  0.00000000000E+00 0. -1.
</event>
<event>
 8    1  0.4042158E-011  0.9118800E+02  0.7816164E-02  0.1184000E+00
        -11   -1    0    0    0    0  0.00000000000E+00  0.00000000000E+00  0.45593999997E+02  0.45594000000E+02  0.51100000000E-03 0. -1.
         11   -1    0    0    0    0 -0.00000000000E+00 -0.00000000000E+00 -0.45593999997E+02  0.45594000000E+02  0.51100000000E-03 0.  1.
         23    2    1    2    0    0 -0.88817841970E-15  0.00000000000E+00  0.71054273576E-14  0.91188000000E+02  0.91188000000E+02 0.  0.
    9900012    2    3    3    0    0 -0.59627216634E+01  0.22148520926E+01  0.42932097231E+02  0.47787255858E+02  0.19999930758E+02 0.  0.
        -12    1    3    3    0    0  0.59627216634E+01 -0.22148520926E+01 -0.42932097231E+02  0.43400744142E+02  0.00000000000E+00 0.  1.
         11    1    4    4    0    0 -0.32355959879E+01 -0.13227436539E+00  0.15968448781E+02  0.16293493629E+02  0.51100000000E-03 0. -1.
        -11    1    4    4    0    0  0.63208432954E+01 -0.14082856542E+01  0.10906610097E+02  0.12684260819E+02  0.51100000000E-03 0.  1.
         12    1    4    4    0    0 -0.90479689708E+01  0.37554121122E+01  0.16057038353E+02  0.18809501411E+02  0.00000000000E+00 0. -1.
</event>
<event>
 8    1  0.4042158E-011  0.9118800E+02  0.7816164E-02  0.1184000E+00
        -11   -1    0    0    0    0  0.00000000000E+00  0.00000000000E+00  0.45593999997E+02  0.45594000000E+02  0.51100000000E-03 0. -1.
         11   -1    0    0    0    0 -0.00000000000E+00 -0.00000000000E+00 -0.45593999997E+02  0.45594000000E+02  0.51100000000E-03 0.  1.
         23    2    1    2    0    0  0.00000000000E+00  0.00000000000E+00  0.35527136788E-14  0.91188000000E+02  0.91188000000E+02 0.  0.
    9900012    2    3    3    0    0  0.30528589044E+02  0.99845200755E+01 -0.29187972105E+02  0.47787272981E+02  0.20000008829E+02 0.  0.
         12    1    3    3    0    0 -0.30528589044E+02 -0.99845200755E+01  0.29187972105E+02  0.43400727019E+02  0.00000000000E+00 0. -1.
         11    1    4    4    0    0  0.10524550864E+02 -0.44039185529E+00 -0.89971616957E+00  0.10572114515E+02  0.51100000000E-03 0. -1.
        -11    1    4    4    0    0  0.78126149957E+01  0.86007114838E+01 -0.11147615725E+02  0.16102128049E+02  0.51100000000E-03 0.  1.
        -12    1    4    4    0    0  0.12191423184E+02  0.18242004470E+01 -0.17140640210E+02  0.21113030416E+02  0.00000000000E+00 0.  1.
</event>
<event>
 8    1  0.4042158E-011  0.9118800E+02  0.7816164E-02  0.1184000E+00
        -11   -1    0    0    0    0  0.00000000000E+00  0.00000000000E+00  0.45593999997E+02  0.45594000000E+02  0.51100000000E-03 0. -1.
         11   -1    0    0    0    0 -0.00000000000E+00 -0.00000000000E+00 -0.45593999997E+02  0.45594000000E+02  0.51100000000E-03 0.  1.
         23    2    1    2    0    0  0.88817841970E-15  0.00000000000E+00  0.00000000000E+00  0.91188000000E+02  0.91188000000E+02 0.  0.
    9900012    2    3    3    0    0  0.48938564093E+01 -0.19461720309E+02  0.38482655521E+02  0.47787272312E+02  0.20000005779E+02 0.  0.
        -12    1    3    3    0    0 -0.48938564093E+01  0.19461720309E+02 -0.38482655521E+02  0.43400727688E+02  0.00000000000E+00 0.  1.
         11    1    4    4    0    0  0.73346278199E+01 -0.11439134209E+02  0.12689373096E+02  0.18592222743E+02  0.51100000000E-03 0. -1.
        -11    1    4    4    0    0 -0.85806778369E+00  0.12060393256E+01 -0.26670738589E+00  0.15039761524E+01  0.51100000000E-03 0.  1.
         12    1    4    4    0    0 -0.15827036269E+01 -0.92286254257E+01  0.26059989811E+02  0.27691073416E+02  0.00000000000E+00 0. -1.
</event>
<event>
 8    1  0.4042158E-011  0.9118800E+02  0.7816164E-02  0.1184000E+00
        -11   -1    0    0    0    0  0.00000000000E+00  0.00000000000E+00  0.45593999997E+02  0.45594000000E+02  0.51100000000E-03 0. -1.
         11   -1    0    0    0    0 -0.00000000000E+00 -0.00000000000E+00 -0.45593999997E+02  0.45594000000E+02  0.51100000000E-03 0.  1.
         23    2    1    2    0    0  0.35527136788E-14  0.00000000000E+00  0.00000000000E+00  0.91188000000E+02  0.91188000000E+02 0.  0.
    9900012    2    3    3    0    0 -0.19892098620E+02  0.61524296127E+01  0.38079852479E+02  0.47787272558E+02  0.20000006901E+02 0.  0.
        -12    1    3    3    0    0  0.19892098620E+02 -0.61524296127E+01 -0.38079852479E+02  0.43400727442E+02  0.00000000000E+00 0.  1.
         11    1    4    4    0    0 -0.15276311752E+02  0.55189543071E+01  0.24075671788E+02  0.29042426374E+02  0.51100000000E-03 0. -1.
        -11    1    4    4    0    0 -0.49389698672E+01  0.54574033886E+01  0.65092293627E+01  0.98258201822E+01  0.51100000000E-03 0.  1.
        -12    1    4    4    0    0  0.32318299904E+00 -0.48239280831E+01  0.74949513292E+01  0.89190260022E+01  0.00000000000E+00 0.  1.
</event>
<event>
 8    1  0.4042158E-011  0.9118800E+02  0.7816164E-02  0.1184000E+00
        -11   -1    0    0    0    0  0.00000000000E+00  0.00000000000E+00  0.45593999997E+02  0.45594000000E+02  0.51100000000E-03 0. -1.
         11   -1    0    0    0    0 -0.00000000000E+00 -0.00000000000E+00 -0.45593999997E+02  0.45594000000E+02  0.51100000000E-03 0.  1.
         23    2    1    2    0    0  0.88817841970E-15 -0.35527136788E-14 -0.71054273576E-14  0.91188000000E+02  0.91188000000E+02 0.  0.
    9900012    2    3    3    0    0 -0.54808825744E+01 -0.18726643586E+02 -0.38767202704E+02  0.47787271213E+02  0.20000000768E+02 0.  0.
         12    1    3    3    0    0  0.54808825744E+01  0.18726643586E+02  0.38767202704E+02  0.43400728787E+02  0.00000000000E+00 0. -1.
         11    1    4    4    0    0 -0.26390874716E+01 -0.47851212539E+00 -0.50402015791E+01  0.57094122952E+01  0.51100000000E-03 0. -1.
        -11    1    4    4    0    0 -0.52078378595E+01 -0.76596323012E+01 -0.28629273059E+02  0.30090311037E+02  0.51100000000E-03 0.  1.
         12    1    4    4    0    0  0.23660427567E+01 -0.10588499159E+02 -0.50977280661E+01  0.11987547881E+02  0.00000000000E+00 0. -1.
</event>
<event>
 8    1  0.4720011E-011  0.9118800E+02  0.7816164E-02  0.1184000E+00
        -11   -1    0    0    0    0  0.00000000000E+00  0.00000000000E+00  0.45593999997E+02  0.45594000000E+02  0.51100000000E-03 0. -1.
         11   -1    0    0    0    0 -0.00000000000E+00 -0.00000000000E+00 -0.45593999997E+02  0.45594000000E+02  0.51100000000E-03 0.  1.
         23    2    1    2    0    0  0.00000000000E+00 -0.17763568394E-14 -0.71054273576E-14  0.91188000000E+02  0.91188000000E+02 0.  0.
    9900012    2    3    3    0    0 -0.14226413887E+02  0.88605577762E+01  0.40034024906E+02  0.47787268596E+02  0.19999988838E+02 0.  0.
        -12    1    3    3    0    0  0.14226413887E+02 -0.88605577762E+01 -0.40034024906E+02  0.43400731404E+02  0.00000000000E+00 0.  1.
         11    1    4    4    0    0 -0.15815963560E+02  0.51610955477E+01  0.29093848635E+02  0.33514677968E+02  0.51100000000E-03 0. -1.
        -11    1    4    4    0    0  0.89572465445E+00  0.29685376205E-01 -0.12415340833E+01  0.15312122711E+01  0.51100000000E-03 0.  1.
        -12    1    4    4    0    0  0.69382501891E+00  0.36697768523E+01  0.12181710354E+02  0.12741378358E+02  0.00000000000E+00 0.  1.
</event>
<event>
 8    1  0.4042158E-011  0.9118800E+02  0.7816164E-02  0.1184000E+00
        -11   -1    0    0    0    0  0.00000000000E+00  0.00000000000E+00  0.45593999997E+02  0.45594000000E+02  0.51100000000E-03 0. -1.
         11   -1    0    0    0    0 -0.00000000000E+00 -0.00000000000E+00 -0.45593999997E+02  0.45594000000E+02  0.51100000000E-03 0.  1.
         23    2    1    2    0    0  0.44408920985E-15  0.88817841970E-15  0.00000000000E+00  0.91188000000E+02  0.91188000000E+02 0.  0.
    9900012    2    3    3    0    0 -0.12383040551E+01  0.72927878333E+01  0.42765707867E+02  0.47787263593E+02  0.19999966025E+02 0.  0.
        -12    1    3    3    0    0  0.12383040551E+01 -0.72927878333E+01 -0.42765707867E+02  0.43400736407E+02  0.00000000000E+00 0.  1.
         11    1    4    4    0    0 -0.11467199472E+01  0.47866686973E+01  0.24763840968E+02  0.25248266943E+02  0.51100000000E-03 0. -1.
        -11    1    4    4    0    0 -0.47289448385E+01  0.54435382263E+01  0.13992892838E+02  0.15741539885E+02  0.51100000000E-03 0.  1.
         12    1    4    4    0    0  0.46373607306E+01 -0.29374190903E+01  0.40089740612E+01  0.67974567657E+01  0.00000000000E+00 0. -1.
</event>
<event>
 8    1  0.4042158E-011  0.9118800E+02  0.7816164E-02  0.1184000E+00
        -11   -1    0    0    0    0  0.00000000000E+00  0.00000000000E+00  0.45593999997E+02  0.45594000000E+02  0.51100000000E-03 0. -1.
         11   -1    0    0    0    0 -0.00000000000E+00 -0.00000000000E+00 -0.45593999997E+02  0.45594000000E+02  0.51100000000E-03 0.  1.
         23    2    1    2    0    0  0.00000000000E+00  0.00000000000E+00  0.00000000000E+00  0.91188000000E+02  0.91188000000E+02 0.  0.
    9900012    2    3    3    0    0  0.34269660903E+02 -0.13638446212E+02  0.22873703265E+02  0.47787272189E+02  0.20000005219E+02 0.  0.
        -12    1    3    3    0    0 -0.34269660903E+02  0.13638446212E+02 -0.22873703265E+02  0.43400727811E+02  0.00000000000E+00 0.  1.
         11    1    4    4    0    0  0.65327382431E+01 -0.34946273208E+01  0.17168919124E+01  0.76050514241E+01  0.51100000000E-03 0. -1.
        -11    1    4    4    0    0  0.74763099896E+01 -0.43968444779E+01  0.16459345805E+02  0.18604771350E+02  0.51100000000E-03 0.  1.
        -12    1    4    4    0    0  0.20260612670E+02 -0.57469744134E+01  0.46974655479E+01  0.21577449415E+02  0.00000000000E+00 0.  1.
</event>
<event>
 8    1  0.4042158E-011  0.9118800E+02  0.7816164E-02  0.1184000E+00
        -11   -1    0    0    0    0  0.00000000000E+00  0.00000000000E+00  0.45593999997E+02  0.45594000000E+02  0.51100000000E-03 0. -1.
         11   -1    0    0    0    0 -0.00000000000E+00 -0.00000000000E+00 -0.45593999997E+02  0.45594000000E+02  0.51100000000E-03 0.  1.
         23    2    1    2    0    0  0.00000000000E+00  0.00000000000E+00  0.00000000000E+00  0.91188000000E+02  0.91188000000E+02 0.  0.
    9900012    2    3    3    0    0  0.14502763841E+02  0.14389943978E+02  0.38291217290E+02  0.47787332168E+02  0.20000278684E+02 0.  0.
        -12    1    3    3    0    0 -0.14502763841E+02 -0.14389943978E+02 -0.38291217290E+02  0.43400667832E+02  0.00000000000E+00 0.  1.
         11    1    4    4    0    0  0.10985868590E+01 -0.17638601756E+01 -0.99788005396E+00  0.23051812660E+01  0.51100000000E-03 0. -1.
        -11    1    4    4    0    0  0.56450394644E+01  0.91775905590E+00  0.81284407404E+01  0.99388279676E+01  0.51100000000E-03 0.  1.
        -12    1    4    4    0    0  0.77591375181E+01  0.15236045098E+02  0.31160656603E+02  0.35543322934E+02  0.00000000000E+00 0.  1.
</event>
<event>
 8    1  0.4042158E-011  0.9118800E+02  0.7816164E-02  0.1184000E+00
        -11   -1    0    0    0    0  0.00000000000E+00  0.00000000000E+00  0.45593999997E+02  0.45594000000E+02  0.51100000000E-03 0. -1.
         11   -1    0    0    0    0 -0.00000000000E+00 -0.00000000000E+00 -0.45593999997E+02  0.45594000000E+02  0.51100000000E-03 0.  1.
         23    2    1    2    0    0  0.11657341759E-14  0.00000000000E+00  0.00000000000E+00  0.91188000000E+02  0.91188000000E+02 0.  0.
    9900012    2    3    3    0    0 -0.35795242918E+00  0.17252081978E+02  0.39822809742E+02  0.47787324449E+02  0.20000243493E+02 0.  0.
        -12    1    3    3    0    0  0.35795242918E+00 -0.17252081978E+02 -0.39822809742E+02  0.43400675551E+02  0.00000000000E+00 0.  1.
         11    1    4    4    0    0  0.39810589011E+01  0.85572089152E+01  0.25813490940E+02  0.27484740660E+02  0.51100000000E-03 0. -1.
        -11    1    4    4    0    0  0.99004270924E+00  0.57748779162E+01  0.12841172032E+02  0.14114712145E+02  0.51100000000E-03 0.  1.
        -12    1    4    4    0    0 -0.53290540395E+01  0.29199951468E+01  0.11681467697E+01  0.61878716445E+01  0.00000000000E+00 0.  1.
</event>
<event>
 8    1  0.4042158E-011  0.9118800E+02  0.7816164E-02  0.1184000E+00
        -11   -1    0    0    0    0  0.00000000000E+00  0.00000000000E+00  0.45593999997E+02  0.45594000000E+02  0.51100000000E-03 0. -1.
         11   -1    0    0    0    0 -0.00000000000E+00 -0.00000000000E+00 -0.45593999997E+02  0.45594000000E+02  0.51100000000E-03 0.  1.
         23    2    1    2    0    0  0.00000000000E+00  0.00000000000E+00  0.00000000000E+00  0.91188000000E+02  0.91188000000E+02 0.  0.
    9900012    2    3    3    0    0  0.29646393927E+02 -0.12368211827E+02  0.29184607578E+02  0.47787278161E+02  0.20000032447E+02 0.  0.
        -12    1    3    3    0    0 -0.29646393927E+02  0.12368211827E+02 -0.29184607578E+02  0.43400721839E+02  0.00000000000E+00 0.  1.
         11    1    4    4    0    0  0.23317419982E+01 -0.40377899816E+01  0.42235190864E+01  0.62911749631E+01  0.51100000000E-03 0. -1.
        -11    1    4    4    0    0  0.10421039986E+02 -0.68405564304E+01  0.15119998817E+01  0.12556967412E+02  0.51100000000E-03 0.  1.
         12    1    4    4    0    0  0.16893611943E+02 -0.14898654145E+01  0.23449088610E+02  0.28939135786E+02  0.00000000000E+00 0. -1.
</event>
<event>
 8    1  0.4042158E-011  0.9118800E+02  0.7816164E-02  0.1184000E+00
        -11   -1    0    0    0    0  0.00000000000E+00  0.00000000000E+00  0.45593999997E+02  0.45594000000E+02  0.51100000000E-03 0. -1.
         11   -1    0    0    0    0 -0.00000000000E+00 -0.00000000000E+00 -0.45593999997E+02  0.45594000000E+02  0.51100000000E-03 0.  1.
         23    2    1    2    0    0 -0.71054273576E-14  0.00000000000E+00 -0.17763568394E-14  0.91188000000E+02  0.91188000000E+02 0.  0.
    9900012    2    3    3    0    0 -0.30805208818E+02 -0.26672621519E+02 -0.14941023113E+02  0.47787264975E+02  0.19999972328E+02 0.  0.
         12    1    3    3    0    0  0.30805208818E+02  0.26672621519E+02  0.14941023113E+02  0.43400735025E+02  0.00000000000E+00 0. -1.
         11    1    4    4    0    0 -0.16324074769E+02 -0.98196097463E+01 -0.77792626630E+01  0.20577100877E+02  0.51100000000E-03 0.  1.
        -11    1    4    4    0    0 -0.16196642067E+02 -0.10692614359E+02 -0.31517190178E+01  0.19662058618E+02  0.51100000000E-03 0. -1.
        -12    1    4    4    0    0  0.17155080180E+01 -0.61603974139E+01 -0.40100414323E+01  0.75481054805E+01  0.00000000000E+00 0.  1.
</event>
<event>
 8    1  0.4042158E-011  0.9118800E+02  0.7816164E-02  0.1184000E+00
        -11   -1    0    0    0    0  0.00000000000E+00  0.00000000000E+00  0.45593999997E+02  0.45594000000E+02  0.51100000000E-03 0. -1.
         11   -1    0    0    0    0 -0.00000000000E+00 -0.00000000000E+00 -0.45593999997E+02  0.45594000000E+02  0.51100000000E-03 0.  1.
         23    2    1    2    0    0 -0.17763568394E-14  0.00000000000E+00  0.71054273576E-14  0.91188000000E+02  0.91188000000E+02 0.  0.
    9900012    2    3    3    0    0 -0.13904828913E+02  0.25574399673E+02  0.32190510842E+02  0.47787272195E+02  0.20000005248E+02 0.  0.
        -12    1    3    3    0    0  0.13904828913E+02 -0.25574399673E+02 -0.32190510842E+02  0.43400727805E+02  0.00000000000E+00 0.  1.
         11    1    4    4    0    0 -0.24793281816E+01  0.21032493716E+00  0.14369994524E+00  0.24923793344E+01  0.51100000000E-03 0. -1.
        -11    1    4    4    0    0 -0.74313137126E+01  0.15657429251E+01  0.52408608499E+01  0.92272746308E+01  0.51100000000E-03 0.  1.
         12    1    4    4    0    0 -0.39941870184E+01  0.23798331811E+02  0.26805950046E+02  0.36067618230E+02  0.00000000000E+00 0. -1.
</event>
<event>
 8    1  0.4042158E-011  0.9118800E+02  0.7816164E-02  0.1184000E+00
        -11   -1    0    0    0    0  0.00000000000E+00  0.00000000000E+00  0.45593999997E+02  0.45594000000E+02  0.51100000000E-03 0. -1.
         11   -1    0    0    0    0 -0.00000000000E+00 -0.00000000000E+00 -0.45593999997E+02  0.45594000000E+02  0.51100000000E-03 0.  1.
         23    2    1    2    0    0  0.00000000000E+00  0.00000000000E+00 -0.71054273576E-14  0.91188000000E+02  0.91188000000E+02 0.  0.
    9900012    2    3    3    0    0  0.71663567253E+01 -0.20039724538E+02  0.37824284499E+02  0.47787265834E+02  0.19999976244E+02 0.  0.
        -12    1    3    3    0    0 -0.71663567253E+01  0.20039724538E+02 -0.37824284499E+02  0.43400734166E+02  0.00000000000E+00 0.  1.
         11    1    4    4    0    0  0.66613989571E+01 -0.32594612104E+01  0.10078326607E+02  0.12512833049E+02  0.51100000000E-03 0. -1.
        -11    1    4    4    0    0  0.38135831425E+00 -0.18438937964E+01  0.16423819742E+02  0.16531401443E+02  0.51100000000E-03 0.  1.
        -12    1    4    4    0    0  0.12359945392E+00 -0.14936369531E+02  0.11322138150E+02  0.18743031342E+02  0.00000000000E+00 0.  1.
</event>
<event>
 8    1  0.4042158E-011  0.9118800E+02  0.7816164E-02  0.1184000E+00
        -11   -1    0    0    0    0  0.00000000000E+00  0.00000000000E+00  0.45593999997E+02  0.45594000000E+02  0.51100000000E-03 0. -1.
         11   -1    0    0    0    0 -0.00000000000E+00 -0.00000000000E+00 -0.45593999997E+02  0.45594000000E+02  0.51100000000E-03 0.  1.
         23    2    1    2    0    0 -0.17763568394E-14  0.14210854715E-13  0.35527136788E-14  0.91188000000E+02  0.91188000000E+02 0.  0.
    9900012    2    3    3    0    0 -0.87589154818E+01  0.32047678480E+02  0.27925837725E+02  0.47787254511E+02  0.19999924616E+02 0.  0.
        -12    1    3    3    0    0  0.87589154818E+01 -0.32047678480E+02 -0.27925837725E+02  0.43400745489E+02  0.00000000000E+00 0.  1.
         11    1    4    4    0    0 -0.14826878933E+01  0.81104340341E+01  0.87063573535E+01  0.11990753197E+02  0.51100000000E-03 0.  1.
        -11    1    4    4    0    0 -0.42175449608E+01  0.24137518783E+02  0.20983332803E+02  0.32260002391E+02  0.51100000000E-03 0. -1.
         12    1    4    4    0    0 -0.30586826277E+01 -0.20027433692E+00 -0.17638524316E+01  0.35364989223E+01  0.00000000000E+00 0. -1.
</event>
<event>
 8    1  0.4042158E-011  0.9118800E+02  0.7816164E-02  0.1184000E+00
        -11   -1    0    0    0    0  0.00000000000E+00  0.00000000000E+00  0.45593999997E+02  0.45594000000E+02  0.51100000000E-03 0.  1.
         11   -1    0    0    0    0 -0.00000000000E+00 -0.00000000000E+00 -0.45593999997E+02  0.45594000000E+02  0.51100000000E-03 0. -1.
         23    2    1    2    0    0 -0.35527136788E-14  0.35527136788E-14 -0.17763568394E-14  0.91188000000E+02  0.91188000000E+02 0.  0.
    9900012    2    3    3    0    0 -0.29767786434E+02  0.29769883338E+02 -0.10547827982E+02  0.47787265694E+02  0.19999975605E+02 0.  0.
         12    1    3    3    0    0  0.29767786434E+02 -0.29769883338E+02  0.10547827982E+02  0.43400734306E+02  0.00000000000E+00 0. -1.
         11    1    4    4    0    0  0.71240820344E+00 -0.22498864135E-01 -0.17545088327E+01  0.18937616408E+01  0.51100000000E-03 0. -1.
        -11    1    4    4    0    0 -0.62275313395E+01  0.15929489605E+02 -0.36562265497E+01  0.17489962221E+02  0.51100000000E-03 0.  1.
        -12    1    4    4    0    0 -0.24252663298E+02  0.13862892598E+02 -0.51370925996E+01  0.28403541832E+02  0.00000000000E+00 0.  1.
</event>
<event>
 8    1  0.4042158E-011  0.9118800E+02  0.7816164E-02  0.1184000E+00
        -11   -1    0    0    0    0  0.00000000000E+00  0.00000000000E+00  0.45593999997E+02  0.45594000000E+02  0.51100000000E-03 0. -1.
         11   -1    0    0    0    0 -0.00000000000E+00 -0.00000000000E+00 -0.45593999997E+02  0.45594000000E+02  0.51100000000E-03 0.  1.
         23    2    1    2    0    0 -0.71054273576E-14  0.00000000000E+00  0.00000000000E+00  0.91188000000E+02  0.91188000000E+02 0.  0.
    9900012    2    3    3    0    0  0.34896416704E+02 -0.20821435843E+02 -0.15242415123E+02  0.47787270650E+02  0.19999998200E+02 0.  0.
         12    1    3    3    0    0 -0.34896416704E+02  0.20821435843E+02  0.15242415123E+02  0.43400729350E+02  0.00000000000E+00 0. -1.
         11    1    4    4    0    0  0.22453623389E+02 -0.84318956006E+01 -0.13740659820E+02  0.27641776340E+02  0.51100000000E-03 0. -1.
        -11    1    4    4    0    0  0.88901686399E+01 -0.22313125141E+01  0.58084153097E+00  0.91842926308E+01  0.51100000000E-03 0.  1.
         12    1    4    4    0    0  0.35526246754E+01 -0.10158227728E+02 -0.20825968340E+01  0.10961201678E+02  0.00000000000E+00 0. -1.
</event>
<event>
 8    1  0.4042158E-011  0.9118800E+02  0.7816164E-02  0.1184000E+00
        -11   -1    0    0    0    0  0.00000000000E+00  0.00000000000E+00  0.45593999997E+02  0.45594000000E+02  0.51100000000E-03 0. -1.
         11   -1    0    0    0    0 -0.00000000000E+00 -0.00000000000E+00 -0.45593999997E+02  0.45594000000E+02  0.51100000000E-03 0.  1.
         23    2    1    2    0    0  0.35527136788E-14 -0.88817841970E-15  0.00000000000E+00  0.91188000000E+02  0.91188000000E+02 0.  0.
    9900012    2    3    3    0    0  0.26079410670E+02 -0.53551465438E+01 -0.34275505110E+02  0.47787268371E+02  0.19999987809E+02 0.  0.
         12    1    3    3    0    0 -0.26079410670E+02  0.53551465438E+01  0.34275505110E+02  0.43400731629E+02  0.00000000000E+00 0. -1.
         11    1    4    4    0    0  0.10079989790E+02 -0.27879698940E+01 -0.16250061530E+02  0.19324685516E+02  0.51100000000E-03 0. -1.
        -11    1    4    4    0    0 -0.15160684100E+01  0.14240432981E+01 -0.71866552728E+01  0.74816025696E+01  0.51100000000E-03 0.  1.
         12    1    4    4    0    0  0.17515489291E+02 -0.39912199479E+01 -0.10838788307E+02  0.20980980285E+02  0.00000000000E+00 0. -1.
</event>
<event>
 8    1  0.4042158E-011  0.9118800E+02  0.7816164E-02  0.1184000E+00
        -11   -1    0    0    0    0  0.00000000000E+00  0.00000000000E+00  0.45593999997E+02  0.45594000000E+02  0.51100000000E-03 0. -1.
         11   -1    0    0    0    0 -0.00000000000E+00 -0.00000000000E+00 -0.45593999997E+02  0.45594000000E+02  0.51100000000E-03 0.  1.
         23    2    1    2    0    0  0.00000000000E+00  0.00000000000E+00  0.35527136788E-14  0.91188000000E+02  0.91188000000E+02 0.  0.
    9900012    2    3    3    0    0 -0.15679816221E+02  0.34199863510E+02 -0.21636444395E+02  0.47787273890E+02  0.20000012975E+02 0.  0.
         12    1    3    3    0    0  0.15679816221E+02 -0.34199863510E+02  0.21636444395E+02  0.43400726110E+02  0.00000000000E+00 0. -1.
         11    1    4    4    0    0  0.16954868916E+01  0.43113152015E+00  0.67133936145E+00  0.18738321661E+01  0.51100000000E-03 0. -1.
        -11    1    4    4    0    0 -0.18473957891E+01  0.16522768522E+02 -0.12091702962E+02  0.20557821665E+02  0.51100000000E-03 0.  1.
         12    1    4    4    0    0 -0.15527907324E+02  0.17245963467E+02 -0.10216080794E+02  0.25355620059E+02  0.00000000000E+00 0. -1.
</event>
<event>
 8    1  0.4042158E-011  0.9118800E+02  0.7816164E-02  0.1184000E+00
        -11   -1    0    0    0    0  0.00000000000E+00  0.00000000000E+00  0.45593999997E+02  0.45594000000E+02  0.51100000000E-03 0. -1.
         11   -1    0    0    0    0 -0.00000000000E+00 -0.00000000000E+00 -0.45593999997E+02  0.45594000000E+02  0.51100000000E-03 0.  1.
         23    2    1    2    0    0  0.44408920985E-15  0.00000000000E+00  0.00000000000E+00  0.91188000000E+02  0.91188000000E+02 0.  0.
    9900012    2    3    3    0    0 -0.14806435883E+01 -0.37280409073E+02 -0.22172110351E+02  0.47787266325E+02  0.19999978482E+02 0.  0.
         12    1    3    3    0    0  0.14806435883E+01  0.37280409073E+02  0.22172110351E+02  0.43400733675E+02  0.00000000000E+00 0. -1.
         11    1    4    4    0    0 -0.22670413736E+01 -0.26869501139E+01  0.20483916532E+01  0.40687941862E+01  0.51100000000E-03 0. -1.
        -11    1    4    4    0    0 -0.43738869851E+01 -0.17032365856E+02 -0.82376365135E+01  0.19418831829E+02  0.51100000000E-03 0.  1.
        -12    1    4    4    0    0  0.51602847703E+01 -0.17561093104E+02 -0.15982865491E+02  0.24299640310E+02  0.00000000000E+00 0.  1.
</event>
<event>
 8    1  0.4042158E-011  0.9118800E+02  0.7816164E-02  0.1184000E+00
        -11   -1    0    0    0    0  0.00000000000E+00  0.00000000000E+00  0.45593999997E+02  0.45594000000E+02  0.51100000000E-03 0. -1.
         11   -1    0    0    0    0 -0.00000000000E+00 -0.00000000000E+00 -0.45593999997E+02  0.45594000000E+02  0.51100000000E-03 0.  1.
         23    2    1    2    0    0  0.00000000000E+00  0.35527136788E-14 -0.71054273576E-14  0.91188000000E+02  0.91188000000E+02 0.  0.
    9900012    2    3    3    0    0  0.20014888913E+02 -0.19525479814E+02 -0.33193113034E+02  0.47787275431E+02  0.20000020001E+02 0.  0.
         12    1    3    3    0    0 -0.20014888913E+02  0.19525479814E+02  0.33193113034E+02  0.43400724569E+02  0.00000000000E+00 0. -1.
         11    1    4    4    0    0  0.10294059853E+01 -0.67701956651E+01 -0.92824074938E+01  0.11535090601E+02  0.51100000000E-03 0. -1.
        -11    1    4    4    0    0  0.12351319942E+02 -0.59893628340E+01 -0.22931414120E+02  0.26725967247E+02  0.51100000000E-03 0.  1.
        -12    1    4    4    0    0  0.66341629860E+01 -0.67659213147E+01 -0.97929142032E+00  0.95262175835E+01  0.00000000000E+00 0.  1.
</event>
<event>
 8    1  0.4042158E-011  0.9118800E+02  0.7816164E-02  0.1184000E+00
        -11   -1    0    0    0    0  0.00000000000E+00  0.00000000000E+00  0.45593999997E+02  0.45594000000E+02  0.51100000000E-03 0. -1.
         11   -1    0    0    0    0 -0.00000000000E+00 -0.00000000000E+00 -0.45593999997E+02  0.45594000000E+02  0.51100000000E-03 0.  1.
         23    2    1    2    0    0  0.00000000000E+00 -0.17763568394E-14 -0.71054273576E-14  0.91188000000E+02  0.91188000000E+02 0.  0.
    9900012    2    3    3    0    0  0.43819924312E+01  0.14333928421E+02  0.40730327710E+02  0.47787274695E+02  0.20000016644E+02 0.  0.
        -12    1    3    3    0    0 -0.43819924312E+01 -0.14333928421E+02 -0.40730327710E+02  0.43400725305E+02  0.00000000000E+00 0.  1.
         11    1    4    4    0    0 -0.20293815843E+00  0.10673098987E+02  0.10017782859E+02  0.14639405710E+02  0.51100000000E-03 0.  1.
        -11    1    4    4    0    0  0.19585378316E+01  0.72192981594E+01  0.23743071078E+02  0.24893524476E+02  0.51100000000E-03 0. -1.
        -12    1    4    4    0    0  0.26263927581E+01 -0.35584687259E+01  0.69694737734E+01  0.82543445089E+01  0.00000000000E+00 0.  1.
</event>
<event>
 8    1  0.4042158E-011  0.9118800E+02  0.7816164E-02  0.1184000E+00
        -11   -1    0    0    0    0  0.00000000000E+00  0.00000000000E+00  0.45593999997E+02  0.45594000000E+02  0.51100000000E-03 0. -1.
         11   -1    0    0    0    0 -0.00000000000E+00 -0.00000000000E+00 -0.45593999997E+02  0.45594000000E+02  0.51100000000E-03 0.  1.
         23    2    1    2    0    0 -0.17763568394E-14  0.00000000000E+00  0.00000000000E+00  0.91188000000E+02  0.91188000000E+02 0.  0.
    9900012    2    3    3    0    0  0.14512328046E+02  0.47907250914E+01  0.40620975593E+02  0.47787281454E+02  0.20000047461E+02 0.  0.
        -12    1    3    3    0    0 -0.14512328046E+02 -0.47907250914E+01 -0.40620975593E+02  0.43400718546E+02  0.00000000000E+00 0.  1.
         11    1    4    4    0    0 -0.12719946005E+01 -0.55164168592E+00  0.21137191404E+02  0.21182614086E+02  0.51100000000E-03 0. -1.
        -11    1    4    4    0    0  0.12073919205E+01  0.24302412428E+01  0.10160840540E+01  0.28976360734E+01  0.51100000000E-03 0.  1.
        -12    1    4    4    0    0  0.14576930726E+02  0.29121255346E+01  0.18467700134E+02  0.23707031294E+02  0.00000000000E+00 0.  1.
</event>
<event>
 8    1  0.4042158E-011  0.9118800E+02  0.7816164E-02  0.1184000E+00
        -11   -1    0    0    0    0  0.00000000000E+00  0.00000000000E+00  0.45593999997E+02  0.45594000000E+02  0.51100000000E-03 0. -1.
         11   -1    0    0    0    0 -0.00000000000E+00 -0.00000000000E+00 -0.45593999997E+02  0.45594000000E+02  0.51100000000E-03 0.  1.
         23    2    1    2    0    0 -0.35527136788E-14  0.35527136788E-14  0.00000000000E+00  0.91188000000E+02  0.91188000000E+02 0.  0.
    9900012    2    3    3    0    0 -0.24894031491E+02 -0.28035986083E+02 -0.21860782516E+02  0.47787272682E+02  0.20000007466E+02 0.  0.
         12    1    3    3    0    0  0.24894031491E+02  0.28035986083E+02  0.21860782516E+02  0.43400727318E+02  0.00000000000E+00 0. -1.
         11    1    4    4    0    0 -0.63690647919E+01 -0.52329889553E+01  0.15914733623E+01  0.83953527295E+01  0.51100000000E-03 0. -1.
        -11    1    4    4    0    0  0.14897305610E+01 -0.14814927046E+01 -0.31702507880E+01  0.38032365293E+01  0.51100000000E-03 0.  1.
        -12    1    4    4    0    0 -0.20014697260E+02 -0.21321504423E+02 -0.20282005091E+02  0.35588683423E+02  0.00000000000E+00 0.  1.
</event>
<event>
 8    1  0.4042158E-011  0.9118800E+02  0.7816164E-02  0.1184000E+00
        -11   -1    0    0    0    0  0.00000000000E+00  0.00000000000E+00  0.45593999997E+02  0.45594000000E+02  0.51100000000E-03 0.  1.
         11   -1    0    0    0    0 -0.00000000000E+00 -0.00000000000E+00 -0.45593999997E+02  0.45594000000E+02  0.51100000000E-03 0. -1.
         23    2    1    2    0    0 -0.71054273576E-14 -0.17763568394E-14 -0.17763568394E-14  0.91188000000E+02  0.91188000000E+02 0.  0.
    9900012    2    3    3    0    0 -0.39964166176E+02 -0.10084256060E+02 -0.13593985463E+02  0.47787271444E+02  0.20000001820E+02 0.  0.
        -12    1    3    3    0    0  0.39964166176E+02  0.10084256060E+02  0.13593985463E+02  0.43400728556E+02  0.00000000000E+00 0.  1.
         11    1    4    4    0    0 -0.17435842020E+02 -0.81549499830E+01 -0.10588795904E+02  0.21968941603E+02  0.51100000000E-03 0. -1.
        -11    1    4    4    0    0  0.28549344620E-01  0.24877641644E+01 -0.12001859011E+01  0.27622874689E+01  0.51100000000E-03 0.  1.
        -12    1    4    4    0    0 -0.22556873501E+02 -0.44170702415E+01 -0.18050036578E+01  0.23056042372E+02  0.00000000000E+00 0.  1.
</event>
<event>
 8    1  0.4042158E-011  0.9118800E+02  0.7816164E-02  0.1184000E+00
        -11   -1    0    0    0    0  0.00000000000E+00  0.00000000000E+00  0.45593999997E+02  0.45594000000E+02  0.51100000000E-03 0. -1.
         11   -1    0    0    0    0 -0.00000000000E+00 -0.00000000000E+00 -0.45593999997E+02  0.45594000000E+02  0.51100000000E-03 0.  1.
         23    2    1    2    0    0  0.35527136788E-14  0.88817841970E-15 -0.71054273576E-14  0.91188000000E+02  0.91188000000E+02 0.  0.
    9900012    2    3    3    0    0 -0.23367952632E+02 -0.45234303298E+01  0.36291880510E+02  0.47787271629E+02  0.20000002666E+02 0.  0.
        -12    1    3    3    0    0  0.23367952632E+02  0.45234303298E+01 -0.36291880510E+02  0.43400728371E+02  0.00000000000E+00 0.  1.
         11    1    4    4    0    0 -0.10551964866E+02 -0.55442591852E+01  0.99187320876E+01  0.15506902300E+02  0.51100000000E-03 0. -1.
        -11    1    4    4    0    0  0.20111429034E+01 -0.21449160048E+01  0.19305648607E+01  0.35174481358E+01  0.51100000000E-03 0.  1.
        -12    1    4    4    0    0 -0.14827130669E+02  0.31657448602E+01  0.24442583562E+02  0.28762921194E+02  0.00000000000E+00 0.  1.
</event>
<event>
 8    1  0.4042158E-011  0.9118800E+02  0.7816164E-02  0.1184000E+00
        -11   -1    0    0    0    0  0.00000000000E+00  0.00000000000E+00  0.45593999997E+02  0.45594000000E+02  0.51100000000E-03 0. -1.
         11   -1    0    0    0    0 -0.00000000000E+00 -0.00000000000E+00 -0.45593999997E+02  0.45594000000E+02  0.51100000000E-03 0.  1.
         23    2    1    2    0    0  0.00000000000E+00  0.00000000000E+00  0.00000000000E+00  0.91188000000E+02  0.91188000000E+02 0.  0.
    9900012    2    3    3    0    0 -0.23902020715E+02 -0.18643876024E+02 -0.31059979576E+02  0.47787273753E+02  0.20000012351E+02 0.  0.
         12    1    3    3    0    0  0.23902020715E+02  0.18643876024E+02  0.31059979576E+02  0.43400726247E+02  0.00000000000E+00 0. -1.
         11    1    4    4    0    0  0.23644765439E+01 -0.32873601365E+01 -0.83714667060E+00  0.41350091660E+01  0.51100000000E-03 0. -1.
        -11    1    4    4    0    0 -0.52847477595E+01 -0.49855386432E+01 -0.33037631706E+01  0.79811656913E+01  0.51100000000E-03 0.  1.
        -12    1    4    4    0    0 -0.20981749499E+02 -0.10370977244E+02 -0.26919069735E+02  0.35671098896E+02  0.00000000000E+00 0.  1.
</event>
<event>
 8    1  0.4042158E-011  0.9118800E+02  0.7816164E-02  0.1184000E+00
        -11   -1    0    0    0    0  0.00000000000E+00  0.00000000000E+00  0.45593999997E+02  0.45594000000E+02  0.51100000000E-03 0.  1.
         11   -1    0    0    0    0 -0.00000000000E+00 -0.00000000000E+00 -0.45593999997E+02  0.45594000000E+02  0.51100000000E-03 0. -1.
         23    2    1    2    0    0  0.71054273576E-14 -0.17763568394E-14 -0.44408920985E-15  0.91188000000E+02  0.91188000000E+02 0.  0.
    9900012    2    3    3    0    0  0.42837966646E+02  0.58650735810E+01 -0.37593651157E+01  0.47787270737E+02  0.19999998598E+02 0.  0.
         12    1    3    3    0    0 -0.42837966646E+02 -0.58650735810E+01  0.37593651157E+01  0.43400729263E+02  0.00000000000E+00 0. -1.
         11    1    4    4    0    0  0.11070195839E+02 -0.19854215572E+01 -0.41701531199E+01  0.11995053646E+02  0.51100000000E-03 0. -1.
        -11    1    4    4    0    0  0.94292448734E+01 -0.38192172972E+01 -0.23415973818E+01  0.10439356216E+02  0.51100000000E-03 0.  1.
         12    1    4    4    0    0  0.22338525934E+02  0.11669712435E+02  0.27523853860E+01  0.25352860875E+02  0.00000000000E+00 0. -1.
</event>
<event>
 8    1  0.4042158E-011  0.9118800E+02  0.7816164E-02  0.1184000E+00
        -11   -1    0    0    0    0  0.00000000000E+00  0.00000000000E+00  0.45593999997E+02  0.45594000000E+02  0.51100000000E-03 0. -1.
         11   -1    0    0    0    0 -0.00000000000E+00 -0.00000000000E+00 -0.45593999997E+02  0.45594000000E+02  0.51100000000E-03 0.  1.
         23    2    1    2    0    0 -0.88817841970E-15  0.00000000000E+00  0.71054273576E-14  0.91188000000E+02  0.91188000000E+02 0.  0.
    9900012    2    3    3    0    0  0.64748699351E+01  0.73686148702E+01 -0.42277684739E+02  0.47787273592E+02  0.20000011617E+02 0.  0.
         12    1    3    3    0    0 -0.64748699351E+01 -0.73686148702E+01  0.42277684739E+02  0.43400726408E+02  0.00000000000E+00 0. -1.
         11    1    4    4    0    0 -0.10675572081E+01 -0.92029654623E+00 -0.11361447284E+01  0.18103726773E+01  0.51100000000E-03 0. -1.
        -11    1    4    4    0    0  0.12169957326E+02  0.21456319940E+01 -0.29930476344E+02  0.32381244763E+02  0.51100000000E-03 0.  1.
        -12    1    4    4    0    0 -0.46275301828E+01  0.61432794224E+01 -0.11211063667E+02  0.13595656152E+02  0.00000000000E+00 0.  1.
</event>
<event>
 8    1  0.4042158E-011  0.9118800E+02  0.7816164E-02  0.1184000E+00
        -11   -1    0    0    0    0  0.00000000000E+00  0.00000000000E+00  0.45593999997E+02  0.45594000000E+02  0.51100000000E-03 0. -1.
         11   -1    0    0    0    0 -0.00000000000E+00 -0.00000000000E+00 -0.45593999997E+02  0.45594000000E+02  0.51100000000E-03 0.  1.
         23    2    1    2    0    0  0.00000000000E+00  0.00000000000E+00  0.00000000000E+00  0.91188000000E+02  0.91188000000E+02 0.  0.
    9900012    2    3    3    0    0  0.83075224739E+01 -0.38165579885E+02  0.18920801925E+02  0.47787272321E+02  0.20000005819E+02 0.  0.
        -12    1    3    3    0    0 -0.83075224739E+01  0.38165579885E+02 -0.18920801925E+02  0.43400727679E+02  0.00000000000E+00 0.  1.
         11    1    4    4    0    0  0.15428513068E+01  0.91685525839E-02  0.24610524762E+00  0.15623835225E+01  0.51100000000E-03 0. -1.
        -11    1    4    4    0    0  0.11882566902E+02 -0.22926290039E+02  0.14467661365E+02  0.29599381696E+02  0.51100000000E-03 0.  1.
         12    1    4    4    0    0 -0.51178957352E+01 -0.15248458399E+02  0.42070353123E+01  0.16625507103E+02  0.00000000000E+00 0. -1.
</event>
<event>
 8    1  0.4042158E-011  0.9118800E+02  0.7816164E-02  0.1184000E+00
        -11   -1    0    0    0    0  0.00000000000E+00  0.00000000000E+00  0.45593999997E+02  0.45594000000E+02  0.51100000000E-03 0. -1.
         11   -1    0    0    0    0 -0.00000000000E+00 -0.00000000000E+00 -0.45593999997E+02  0.45594000000E+02  0.51100000000E-03 0.  1.
         23    2    1    2    0    0  0.00000000000E+00  0.00000000000E+00  0.35527136788E-14  0.91188000000E+02  0.91188000000E+02 0.  0.
    9900012    2    3    3    0    0 -0.23596723883E+02  0.34068916795E+02  0.12889031434E+02  0.47787267277E+02  0.19999982822E+02 0.  0.
        -12    1    3    3    0    0  0.23596723883E+02 -0.34068916795E+02 -0.12889031434E+02  0.43400732723E+02  0.00000000000E+00 0.  1.
         11    1    4    4    0    0 -0.69267939444E+01  0.57800523873E+01  0.90755007980E+01  0.12796647801E+02  0.51100000000E-03 0. -1.
        -11    1    4    4    0    0 -0.46412569559E+01  0.76331365081E+01  0.63400813538E+01  0.10954573060E+02  0.51100000000E-03 0.  1.
         12    1    4    4    0    0 -0.12028672983E+02  0.20655727900E+02 -0.25265507177E+01  0.24036046416E+02  0.00000000000E+00 0. -1.
</event>
<event>
 8    1  0.4042158E-011  0.9118800E+02  0.7816164E-02  0.1184000E+00
        -11   -1    0    0    0    0  0.00000000000E+00  0.00000000000E+00  0.45593999997E+02  0.45594000000E+02  0.51100000000E-03 0.  1.
         11   -1    0    0    0    0 -0.00000000000E+00 -0.00000000000E+00 -0.45593999997E+02  0.45594000000E+02  0.51100000000E-03 0. -1.
         23    2    1    2    0    0  0.00000000000E+00  0.35527136788E-14 -0.35527136788E-14  0.91188000000E+02  0.91188000000E+02 0.  0.
    9900012    2    3    3    0    0  0.16185650419E+02 -0.26439861349E+02  0.30374032014E+02  0.47787269955E+02  0.19999995033E+02 0.  0.
        -12    1    3    3    0    0 -0.16185650419E+02  0.26439861349E+02 -0.30374032014E+02  0.43400730045E+02  0.00000000000E+00 0.  1.
         11    1    4    4    0    0 -0.40934847904E-01 -0.18908251054E+01  0.48649501808E+01  0.52196394285E+01  0.51100000000E-03 0.  1.
        -11    1    4    4    0    0  0.11362173059E+02 -0.10542209791E+02  0.32731552765E+01  0.15841423852E+02  0.51100000000E-03 0. -1.
         12    1    4    4    0    0  0.48644122075E+01 -0.14006826453E+02  0.22235926557E+02  0.26726206675E+02  0.00000000000E+00 0. -1.
</event>
<event>
 8    1  0.4042158E-011  0.9118800E+02  0.7816164E-02  0.1184000E+00
        -11   -1    0    0    0    0  0.00000000000E+00  0.00000000000E+00  0.45593999997E+02  0.45594000000E+02  0.51100000000E-03 0. -1.
         11   -1    0    0    0    0 -0.00000000000E+00 -0.00000000000E+00 -0.45593999997E+02  0.45594000000E+02  0.51100000000E-03 0.  1.
         23    2    1    2    0    0  0.00000000000E+00  0.00000000000E+00  0.00000000000E+00  0.91188000000E+02  0.91188000000E+02 0.  0.
    9900012    2    3    3    0    0 -0.39839061293E+02  0.13720235021E+02  0.10403190968E+02  0.47787285305E+02  0.20000065021E+02 0.  0.
        -12    1    3    3    0    0  0.39839061293E+02 -0.13720235021E+02 -0.10403190968E+02  0.43400714695E+02  0.00000000000E+00 0.  1.
         11    1    4    4    0    0 -0.65351718794E+01  0.38523738928E+01  0.32056978870E+01  0.82356393381E+01  0.51100000000E-03 0. -1.
        -11    1    4    4    0    0 -0.34607313381E+02  0.11748574180E+02  0.72657543653E+01  0.37262398225E+02  0.51100000000E-03 0.  1.
        -12    1    4    4    0    0  0.13034239675E+01 -0.18807130522E+01 -0.68261284194E-01  0.22892477425E+01  0.00000000000E+00 0.  1.
</event>
<event>
 8    1  0.4042158E-011  0.9118800E+02  0.7816164E-02  0.1184000E+00
        -11   -1    0    0    0    0  0.00000000000E+00  0.00000000000E+00  0.45593999997E+02  0.45594000000E+02  0.51100000000E-03 0. -1.
         11   -1    0    0    0    0 -0.00000000000E+00 -0.00000000000E+00 -0.45593999997E+02  0.45594000000E+02  0.51100000000E-03 0.  1.
         23    2    1    2    0    0  0.00000000000E+00  0.00000000000E+00 -0.35527136788E-14  0.91188000000E+02  0.91188000000E+02 0.  0.
    9900012    2    3    3    0    0 -0.84037219822E+01  0.33290345405E+02 -0.26547201038E+02  0.47787268171E+02  0.19999986900E+02 0.  0.
         12    1    3    3    0    0  0.84037219822E+01 -0.33290345405E+02  0.26547201038E+02  0.43400731829E+02  0.00000000000E+00 0. -1.
         11    1    4    4    0    0 -0.31224148650E+00  0.10501839848E+02 -0.14166503310E+02  0.17637345357E+02  0.51100000000E-03 0. -1.
        -11    1    4    4    0    0 -0.43761434435E+01  0.46612966554E+01 -0.94582675183E+01  0.11416529361E+02  0.51100000000E-03 0.  1.
        -12    1    4    4    0    0 -0.37153370522E+01  0.18127208901E+02 -0.29224302100E+01  0.18733393453E+02  0.00000000000E+00 0.  1.
</event>
<event>
 8    1  0.4042158E-011  0.9118800E+02  0.7816164E-02  0.1184000E+00
        -11   -1    0    0    0    0  0.00000000000E+00  0.00000000000E+00  0.45593999997E+02  0.45594000000E+02  0.51100000000E-03 0. -1.
         11   -1    0    0    0    0 -0.00000000000E+00 -0.00000000000E+00 -0.45593999997E+02  0.45594000000E+02  0.51100000000E-03 0.  1.
         23    2    1    2    0    0  0.00000000000E+00  0.00000000000E+00  0.00000000000E+00  0.91188000000E+02  0.91188000000E+02 0.  0.
    9900012    2    3    3    0    0 -0.20512818051E+02 -0.96748327995E+01 -0.37003314877E+02  0.47787269522E+02  0.19999993059E+02 0.  0.
         12    1    3    3    0    0  0.20512818051E+02  0.96748327995E+01  0.37003314877E+02  0.43400730478E+02  0.00000000000E+00 0. -1.
         11    1    4    4    0    0 -0.83590065979E+01 -0.27909663932E+01 -0.12481205293E+02  0.15278840615E+02  0.51100000000E-03 0. -1.
        -11    1    4    4    0    0 -0.29714429861E+01  0.14348941103E+01  0.15472139719E+01  0.36444843069E+01  0.51100000000E-03 0.  1.
        -12    1    4    4    0    0 -0.91823684674E+01 -0.83187605166E+01 -0.26069323556E+02  0.28863944600E+02  0.00000000000E+00 0.  1.
</event>
<event>
 8    1  0.4042158E-011  0.9118800E+02  0.7816164E-02  0.1184000E+00
        -11   -1    0    0    0    0  0.00000000000E+00  0.00000000000E+00  0.45593999997E+02  0.45594000000E+02  0.51100000000E-03 0.  1.
         11   -1    0    0    0    0 -0.00000000000E+00 -0.00000000000E+00 -0.45593999997E+02  0.45594000000E+02  0.51100000000E-03 0. -1.
         23    2    1    2    0    0 -0.35527136788E-14  0.00000000000E+00  0.00000000000E+00  0.91188000000E+02  0.91188000000E+02 0.  0.
    9900012    2    3    3    0    0  0.27297991950E+02 -0.19582699773E+02 -0.27476550854E+02  0.47787270262E+02  0.19999996434E+02 0.  0.
         12    1    3    3    0    0 -0.27297991950E+02  0.19582699773E+02  0.27476550854E+02  0.43400729738E+02  0.00000000000E+00 0. -1.
         11    1    4    4    0    0  0.17101480799E+02 -0.49691316221E+01 -0.16647712460E+02  0.24378253527E+02  0.51100000000E-03 0. -1.
        -11    1    4    4    0    0  0.40971709094E+01 -0.42462706796E+00  0.64463185656E+00  0.41692527027E+01  0.51100000000E-03 0.  1.
        -12    1    4    4    0    0  0.60993402419E+01 -0.14188941083E+02 -0.11473470251E+02  0.19239764033E+02  0.00000000000E+00 0.  1.
</event>
<event>
 8    1  0.4042158E-011  0.9118800E+02  0.7816164E-02  0.1184000E+00
        -11   -1    0    0    0    0  0.00000000000E+00  0.00000000000E+00  0.45593999997E+02  0.45594000000E+02  0.51100000000E-03 0. -1.
         11   -1    0    0    0    0 -0.00000000000E+00 -0.00000000000E+00 -0.45593999997E+02  0.45594000000E+02  0.51100000000E-03 0.  1.
         23    2    1    2    0    0  0.88817841970E-15 -0.44408920985E-15  0.00000000000E+00  0.91188000000E+02  0.91188000000E+02 0.  0.
    9900012    2    3    3    0    0  0.40956258156E+01 -0.15054162961E+01  0.43180800904E+02  0.47787285769E+02  0.20000067133E+02 0.  0.
        -12    1    3    3    0    0 -0.40956258156E+01  0.15054162961E+01 -0.43180800904E+02  0.43400714231E+02  0.00000000000E+00 0.  1.
         11    1    4    4    0    0 -0.45350913526E+01 -0.39705844483E+00  0.76599744829E+01  0.89106631810E+01  0.51100000000E-03 0.  1.
        -11    1    4    4    0    0 -0.87474624736E+00 -0.53074876352E+01  0.11001969945E+02  0.12246548449E+02  0.51100000000E-03 0. -1.
         12    1    4    4    0    0  0.95054634155E+01  0.41991297840E+01  0.24518856477E+02  0.26630074138E+02  0.00000000000E+00 0. -1.
</event>
<event>
 8    1  0.4042158E-011  0.9118800E+02  0.7816164E-02  0.1184000E+00
        -11   -1    0    0    0    0  0.00000000000E+00  0.00000000000E+00  0.45593999997E+02  0.45594000000E+02  0.51100000000E-03 0. -1.
         11   -1    0    0    0    0 -0.00000000000E+00 -0.00000000000E+00 -0.45593999997E+02  0.45594000000E+02  0.51100000000E-03 0.  1.
         23    2    1    2    0    0  0.71054273576E-14  0.00000000000E+00  0.00000000000E+00  0.91188000000E+02  0.91188000000E+02 0.  0.
    9900012    2    3    3    0    0 -0.34148403757E+02 -0.18716578843E+02 -0.19162455020E+02  0.47787268611E+02  0.19999988905E+02 0.  0.
         12    1    3    3    0    0  0.34148403757E+02  0.18716578843E+02  0.19162455020E+02  0.43400731389E+02  0.00000000000E+00 0. -1.
         11    1    4    4    0    0 -0.66948231345E+01 -0.66157742141E+00 -0.11697375735E+02  0.13493959420E+02  0.51100000000E-03 0.  1.
        -11    1    4    4    0    0 -0.14230895647E+01 -0.23175780003E+01 -0.20297058634E+01  0.33935317664E+01  0.51100000000E-03 0. -1.
        -12    1    4    4    0    0 -0.26030491058E+02 -0.15737423421E+02 -0.54353734211E+01  0.30899777424E+02  0.00000000000E+00 0.  1.
</event>
<event>
 8    1  0.4042158E-011  0.9118800E+02  0.7816164E-02  0.1184000E+00
        -11   -1    0    0    0    0  0.00000000000E+00  0.00000000000E+00  0.45593999997E+02  0.45594000000E+02  0.51100000000E-03 0. -1.
         11   -1    0    0    0    0 -0.00000000000E+00 -0.00000000000E+00 -0.45593999997E+02  0.45594000000E+02  0.51100000000E-03 0.  1.
         23    2    1    2    0    0 -0.35527136788E-14  0.00000000000E+00  0.35527136788E-14  0.91188000000E+02  0.91188000000E+02 0.  0.
    9900012    2    3    3    0    0  0.99923288409E+01 -0.35534209889E+02 -0.22827527514E+02  0.47787277420E+02  0.20000029068E+02 0.  0.
         12    1    3    3    0    0 -0.99923288409E+01  0.35534209889E+02  0.22827527514E+02  0.43400722580E+02  0.00000000000E+00 0. -1.
         11    1    4    4    0    0  0.54398731077E+01 -0.55876878197E+01 -0.69263806291E+01  0.10430207260E+02  0.51100000000E-03 0. -1.
        -11    1    4    4    0    0  0.60127124671E+01 -0.22282140387E+02 -0.18010194531E+02  0.29274794597E+02  0.51100000000E-03 0.  1.
         12    1    4    4    0    0 -0.14602567339E+01 -0.76643816824E+01  0.21090476458E+01  0.80822755629E+01  0.00000000000E+00 0. -1.
</event>
<event>
 8    1  0.4042158E-011  0.9118800E+02  0.7816164E-02  0.1184000E+00
        -11   -1    0    0    0    0  0.00000000000E+00  0.00000000000E+00  0.45593999997E+02  0.45594000000E+02  0.51100000000E-03 0. -1.
         11   -1    0    0    0    0 -0.00000000000E+00 -0.00000000000E+00 -0.45593999997E+02  0.45594000000E+02  0.51100000000E-03 0.  1.
         23    2    1    2    0    0  0.00000000000E+00  0.88817841970E-15  0.00000000000E+00  0.91188000000E+02  0.91188000000E+02 0.  0.
    9900012    2    3    3    0    0  0.29061184504E+02 -0.52578865658E+01 -0.31802916347E+02  0.47787270696E+02  0.19999998412E+02 0.  0.
         12    1    3    3    0    0 -0.29061184504E+02  0.52578865658E+01  0.31802916347E+02  0.43400729304E+02  0.00000000000E+00 0. -1.
         11    1    4    4    0    0  0.20957331940E+01  0.28125789683E+01 -0.13745294686E+00  0.35102124789E+01  0.51100000000E-03 0. -1.
        -11    1    4    4    0    0  0.10209101841E+02 -0.64061528804E+01 -0.57071690490E+01  0.13335529008E+02  0.51100000000E-03 0.  1.
        -12    1    4    4    0    0  0.16756349469E+02 -0.16643126537E+01 -0.25958294352E+02  0.30941529209E+02  0.00000000000E+00 0.  1.
</event>
<event>
 8    1  0.4042158E-011  0.9118800E+02  0.7816164E-02  0.1184000E+00
        -11   -1    0    0    0    0  0.00000000000E+00  0.00000000000E+00  0.45593999997E+02  0.45594000000E+02  0.51100000000E-03 0. -1.
         11   -1    0    0    0    0 -0.00000000000E+00 -0.00000000000E+00 -0.45593999997E+02  0.45594000000E+02  0.51100000000E-03 0.  1.
         23    2    1    2    0    0  0.00000000000E+00  0.00000000000E+00 -0.35527136788E-14  0.91188000000E+02  0.91188000000E+02 0.  0.
    9900012    2    3    3    0    0  0.89780359218E+01  0.34487244075E+02  0.24771915211E+02  0.47787275166E+02  0.20000018792E+02 0.  0.
        -12    1    3    3    0    0 -0.89780359218E+01 -0.34487244075E+02 -0.24771915211E+02  0.43400724834E+02  0.00000000000E+00 0.  1.
         11    1    4    4    0    0  0.95505480607E+01  0.30353414618E+02  0.20052055720E+02  0.37611536609E+02  0.51100000000E-03 0. -1.
        -11    1    4    4    0    0  0.17508221276E+01  0.45308890402E+01 -0.47396331453E-01  0.48576311399E+01  0.51100000000E-03 0.  1.
        -12    1    4    4    0    0 -0.23233342665E+01 -0.39705958319E+00  0.47672558225E+01  0.53181074175E+01  0.00000000000E+00 0.  1.
</event>
<event>
 8    1  0.4042158E-011  0.9118800E+02  0.7816164E-02  0.1184000E+00
        -11   -1    0    0    0    0  0.00000000000E+00  0.00000000000E+00  0.45593999997E+02  0.45594000000E+02  0.51100000000E-03 0. -1.
         11   -1    0    0    0    0 -0.00000000000E+00 -0.00000000000E+00 -0.45593999997E+02  0.45594000000E+02  0.51100000000E-03 0.  1.
         23    2    1    2    0    0 -0.88817841970E-15  0.00000000000E+00 -0.35527136788E-14  0.91188000000E+02  0.91188000000E+02 0.  0.
    9900012    2    3    3    0    0  0.43967058503E+01 -0.39302644558E+02  0.17877200933E+02  0.47787271841E+02  0.20000003631E+02 0.  0.
        -12    1    3    3    0    0 -0.43967058503E+01  0.39302644558E+02 -0.17877200933E+02  0.43400728159E+02  0.00000000000E+00 0.  1.
         11    1    4    4    0    0 -0.20400729252E+01 -0.75400564836E+01  0.52138053082E+01  0.93913851677E+01  0.51100000000E-03 0. -1.
        -11    1    4    4    0    0 -0.51061962786E+01 -0.52222514328E+01  0.27101704558E+01  0.77903898890E+01  0.51100000000E-03 0.  1.
        -12    1    4    4    0    0  0.11542975054E+02 -0.26540336641E+02  0.99532251689E+01  0.30605496784E+02  0.00000000000E+00 0.  1.
</event>
<event>
 8    1  0.4042158E-011  0.9118800E+02  0.7816164E-02  0.1184000E+00
        -11   -1    0    0    0    0  0.00000000000E+00  0.00000000000E+00  0.45593999997E+02  0.45594000000E+02  0.51100000000E-03 0. -1.
         11   -1    0    0    0    0 -0.00000000000E+00 -0.00000000000E+00 -0.45593999997E+02  0.45594000000E+02  0.51100000000E-03 0.  1.
         23    2    1    2    0    0  0.35527136788E-14  0.00000000000E+00  0.71054273576E-14  0.91188000000E+02  0.91188000000E+02 0.  0.
    9900012    2    3    3    0    0  0.20551639816E+02  0.94946586529E+01 -0.37028432646E+02  0.47787271132E+02  0.20000000398E+02 0.  0.
         12    1    3    3    0    0 -0.20551639816E+02 -0.94946586529E+01  0.37028432646E+02  0.43400728868E+02  0.00000000000E+00 0. -1.
         11    1    4    4    0    0 -0.34306422494E-01  0.28195984003E+01 -0.34891363924E+01  0.44861325320E+01  0.51100000000E-03 0. -1.
        -11    1    4    4    0    0  0.22289332325E+02  0.93853919613E+01 -0.29441809254E+02  0.38101444201E+02  0.51100000000E-03 0.  1.
        -12    1    4    4    0    0 -0.17033860864E+01 -0.27103317087E+01 -0.40974869997E+01  0.51996943990E+01  0.00000000000E+00 0.  1.
</event>
<event>
 8    1  0.4042158E-011  0.9118800E+02  0.7816164E-02  0.1184000E+00
        -11   -1    0    0    0    0  0.00000000000E+00  0.00000000000E+00  0.45593999997E+02  0.45594000000E+02  0.51100000000E-03 0. -1.
         11   -1    0    0    0    0 -0.00000000000E+00 -0.00000000000E+00 -0.45593999997E+02  0.45594000000E+02  0.51100000000E-03 0.  1.
         23    2    1    2    0    0  0.00000000000E+00  0.35527136788E-14  0.00000000000E+00  0.91188000000E+02  0.91188000000E+02 0.  0.
    9900012    2    3    3    0    0  0.73221497641E+01 -0.19450629611E+02 -0.38100950023E+02  0.47787271180E+02  0.20000000620E+02 0.  0.
         12    1    3    3    0    0 -0.73221497641E+01  0.19450629611E+02  0.38100950023E+02  0.43400728820E+02  0.00000000000E+00 0. -1.
         11    1    4    4    0    0  0.10394866160E+01 -0.99207044991E+01 -0.24238881940E+02  0.26211148547E+02  0.51100000000E-03 0. -1.
        -11    1    4    4    0    0 -0.11066389534E+01  0.35852910306E+00 -0.76849558230E+01  0.77724989002E+01  0.51100000000E-03 0.  1.
         12    1    4    4    0    0  0.73893021015E+01 -0.98884542145E+01 -0.61771122597E+01  0.13803623733E+02  0.00000000000E+00 0. -1.
</event>
<event>
 8    1  0.4042158E-011  0.9118800E+02  0.7816164E-02  0.1184000E+00
        -11   -1    0    0    0    0  0.00000000000E+00  0.00000000000E+00  0.45593999997E+02  0.45594000000E+02  0.51100000000E-03 0. -1.
         11   -1    0    0    0    0 -0.00000000000E+00 -0.00000000000E+00 -0.45593999997E+02  0.45594000000E+02  0.51100000000E-03 0.  1.
         23    2    1    2    0    0  0.00000000000E+00  0.00000000000E+00 -0.17763568394E-14  0.91188000000E+02  0.91188000000E+02 0.  0.
    9900012    2    3    3    0    0 -0.32018149177E+02 -0.26849158348E+02 -0.11729628809E+02  0.47787269906E+02  0.19999994810E+02 0.  0.
         12    1    3    3    0    0  0.32018149177E+02  0.26849158348E+02  0.11729628809E+02  0.43400730094E+02  0.00000000000E+00 0. -1.
         11    1    4    4    0    0 -0.59577821085E+01 -0.75585102865E+01 -0.11226131202E+02  0.14786895124E+02  0.51100000000E-03 0.  1.
        -11    1    4    4    0    0 -0.91370684106E+01 -0.10220907329E+02 -0.13870473028E+01  0.13779581497E+02  0.51100000000E-03 0. -1.
         12    1    4    4    0    0 -0.16923298657E+02 -0.90697407330E+01  0.88354969588E+00  0.19220793284E+02  0.00000000000E+00 0. -1.
</event>
<event>
 8    1  0.4042158E-011  0.9118800E+02  0.7816164E-02  0.1184000E+00
        -11   -1    0    0    0    0  0.00000000000E+00  0.00000000000E+00  0.45593999997E+02  0.45594000000E+02  0.51100000000E-03 0. -1.
         11   -1    0    0    0    0 -0.00000000000E+00 -0.00000000000E+00 -0.45593999997E+02  0.45594000000E+02  0.51100000000E-03 0.  1.
         23    2    1    2    0    0  0.35527136788E-14 -0.88817841970E-15  0.00000000000E+00  0.91188000000E+02  0.91188000000E+02 0.  0.
    9900012    2    3    3    0    0 -0.26640944313E+02  0.42673216467E+01  0.33995204302E+02  0.47787264252E+02  0.19999969031E+02 0.  0.
        -12    1    3    3    0    0  0.26640944313E+02 -0.42673216467E+01 -0.33995204302E+02  0.43400735748E+02  0.00000000000E+00 0.  1.
         11    1    4    4    0    0 -0.14279961212E+02  0.19032287647E+01  0.12820253755E+02  0.19284669521E+02  0.51100000000E-03 0. -1.
        -11    1    4    4    0    0 -0.68428815376E+01 -0.27713027796E+01  0.16385899947E+01  0.75624152402E+01  0.51100000000E-03 0.  1.
        -12    1    4    4    0    0 -0.55181015637E+01  0.51353956617E+01  0.19536360552E+02  0.20940179491E+02  0.00000000000E+00 0.  1.
</event>
<event>
 8    1  0.4042158E-011  0.9118800E+02  0.7816164E-02  0.1184000E+00
        -11   -1    0    0    0    0  0.00000000000E+00  0.00000000000E+00  0.45593999997E+02  0.45594000000E+02  0.51100000000E-03 0. -1.
         11   -1    0    0    0    0 -0.00000000000E+00 -0.00000000000E+00 -0.45593999997E+02  0.45594000000E+02  0.51100000000E-03 0.  1.
         23    2    1    2    0    0  0.00000000000E+00 -0.44408920985E-15 -0.35527136788E-14  0.91188000000E+02  0.91188000000E+02 0.  0.
    9900012    2    3    3    0    0  0.38844594471E+02  0.31739451716E+01 -0.19095766563E+02  0.47787254059E+02  0.19999922557E+02 0.  0.
         12    1    3    3    0    0 -0.38844594471E+02 -0.31739451716E+01  0.19095766563E+02  0.43400745941E+02  0.00000000000E+00 0. -1.
         11    1    4    4    0    0  0.68881830046E+01  0.40540289751E+01 -0.94968725291E+01  0.12412606661E+02  0.51100000000E-03 0. -1.
        -11    1    4    4    0    0  0.73703465862E+01 -0.51874171580E+01 -0.35864396895E+01  0.97001987341E+01  0.51100000000E-03 0.  1.
        -12    1    4    4    0    0  0.24586064881E+02  0.43073333546E+01 -0.60124543442E+01  0.25674448664E+02  0.00000000000E+00 0.  1.
</event>
<event>
 8    1  0.4042158E-011  0.9118800E+02  0.7816164E-02  0.1184000E+00
        -11   -1    0    0    0    0  0.00000000000E+00  0.00000000000E+00  0.45593999997E+02  0.45594000000E+02  0.51100000000E-03 0. -1.
         11   -1    0    0    0    0 -0.00000000000E+00 -0.00000000000E+00 -0.45593999997E+02  0.45594000000E+02  0.51100000000E-03 0.  1.
         23    2    1    2    0    0  0.00000000000E+00  0.44408920985E-15  0.00000000000E+00  0.91188000000E+02  0.91188000000E+02 0.  0.
    9900012    2    3    3    0    0  0.34240473956E+02  0.97490789464E+00 -0.26650749654E+02  0.47787274669E+02  0.20000016527E+02 0.  0.
         12    1    3    3    0    0 -0.34240473956E+02 -0.97490789464E+00  0.26650749654E+02  0.43400725331E+02  0.00000000000E+00 0. -1.
         11    1    4    4    0    0  0.49116058534E+01  0.35695943217E+01 -0.26682752525E+01  0.66321616962E+01  0.51100000000E-03 0. -1.
        -11    1    4    4    0    0  0.15205703275E+02  0.17886856296E+01 -0.31883957619E+01  0.15639011355E+02  0.51100000000E-03 0.  1.
         12    1    4    4    0    0  0.14123164828E+02 -0.43833720567E+01 -0.20794078639E+02  0.25516101618E+02  0.00000000000E+00 0. -1.
</event>
<event>
 8    1  0.4042158E-011  0.9118800E+02  0.7816164E-02  0.1184000E+00
        -11   -1    0    0    0    0  0.00000000000E+00  0.00000000000E+00  0.45593999997E+02  0.45594000000E+02  0.51100000000E-03 0.  1.
         11   -1    0    0    0    0 -0.00000000000E+00 -0.00000000000E+00 -0.45593999997E+02  0.45594000000E+02  0.51100000000E-03 0. -1.
         23    2    1    2    0    0  0.00000000000E+00  0.71054273576E-14  0.35527136788E-14  0.91188000000E+02  0.91188000000E+02 0.  0.
    9900012    2    3    3    0    0 -0.16689582027E+02 -0.35704219021E+02  0.18173874140E+02  0.47787272986E+02  0.20000008851E+02 0.  0.
        -12    1    3    3    0    0  0.16689582027E+02  0.35704219021E+02 -0.18173874140E+02  0.43400727014E+02  0.00000000000E+00 0.  1.
         11    1    4    4    0    0 -0.73198887360E+01 -0.16964909881E+02  0.90858266641E+01  0.20589832073E+02  0.51100000000E-03 0. -1.
        -11    1    4    4    0    0 -0.12116348313E+02 -0.11774154254E+02  0.22250531187E+01  0.17040758976E+02  0.51100000000E-03 0.  1.
         12    1    4    4    0    0  0.27466550229E+01 -0.69651548864E+01  0.68629943572E+01  0.10156681936E+02  0.00000000000E+00 0. -1.
</event>
<event>
 8    1  0.4042158E-011  0.9118800E+02  0.7816164E-02  0.1184000E+00
        -11   -1    0    0    0    0  0.00000000000E+00  0.00000000000E+00  0.45593999997E+02  0.45594000000E+02  0.51100000000E-03 0.  1.
         11   -1    0    0    0    0 -0.00000000000E+00 -0.00000000000E+00 -0.45593999997E+02  0.45594000000E+02  0.51100000000E-03 0. -1.
         23    2    1    2    0    0  0.00000000000E+00  0.00000000000E+00  0.00000000000E+00  0.91188000000E+02  0.91188000000E+02 0.  0.
    9900012    2    3    3    0    0 -0.25121014592E+01 -0.41260625275E+02 -0.13223973823E+02  0.47787270334E+02  0.19999996763E+02 0.  0.
         12    1    3    3    0    0  0.25121014592E+01  0.41260625275E+02  0.13223973823E+02  0.43400729666E+02  0.00000000000E+00 0. -1.
         11    1    4    4    0    0 -0.11877389521E+01 -0.44572356078E+01 -0.18887816333E+01  0.49844928931E+01  0.51100000000E-03 0.  1.
        -11    1    4    4    0    0  0.37589526187E+01 -0.28350906431E+02 -0.11464567725E+01  0.28621984272E+02  0.51100000000E-03 0. -1.
         12    1    4    4    0    0 -0.50833151258E+01 -0.84524832362E+01 -0.10188735417E+02  0.14180793170E+02  0.00000000000E+00 0. -1.
</event>
<event>
 8    1  0.4042158E-011  0.9118800E+02  0.7816164E-02  0.1184000E+00
        -11   -1    0    0    0    0  0.00000000000E+00  0.00000000000E+00  0.45593999997E+02  0.45594000000E+02  0.51100000000E-03 0. -1.
         11   -1    0    0    0    0 -0.00000000000E+00 -0.00000000000E+00 -0.45593999997E+02  0.45594000000E+02  0.51100000000E-03 0.  1.
         23    2    1    2    0    0 -0.17763568394E-14  0.00000000000E+00  0.00000000000E+00  0.91188000000E+02  0.91188000000E+02 0.  0.
    9900012    2    3    3    0    0 -0.15398519182E+02 -0.22582430870E+02  0.33712646437E+02  0.47787272970E+02  0.20000008777E+02 0.  0.
        -12    1    3    3    0    0  0.15398519182E+02  0.22582430870E+02 -0.33712646437E+02  0.43400727030E+02  0.00000000000E+00 0.  1.
         11    1    4    4    0    0 -0.17218848880E+02 -0.20646540390E+02  0.19962537173E+02  0.33485389015E+02  0.51100000000E-03 0. -1.
        -11    1    4    4    0    0  0.78078890873E+00  0.51646742777E+00  0.15205457750E+01  0.17856174392E+01  0.51100000000E-03 0.  1.
         12    1    4    4    0    0  0.10395407892E+01 -0.24523579080E+01  0.12229563489E+02  0.12516266516E+02  0.00000000000E+00 0. -1.
</event>
<event>
 8    1  0.4042158E-011  0.9118800E+02  0.7816164E-02  0.1184000E+00
        -11   -1    0    0    0    0  0.00000000000E+00  0.00000000000E+00  0.45593999997E+02  0.45594000000E+02  0.51100000000E-03 0. -1.
         11   -1    0    0    0    0 -0.00000000000E+00 -0.00000000000E+00 -0.45593999997E+02  0.45594000000E+02  0.51100000000E-03 0.  1.
         23    2    1    2    0    0 -0.44408920985E-15  0.00000000000E+00  0.00000000000E+00  0.91188000000E+02  0.91188000000E+02 0.  0.
    9900012    2    3    3    0    0  0.37232026756E+01 -0.72861058512E+01  0.42622455129E+02  0.47787271229E+02  0.20000000840E+02 0.  0.
        -12    1    3    3    0    0 -0.37232026756E+01  0.72861058512E+01 -0.42622455129E+02  0.43400728771E+02  0.00000000000E+00 0.  1.
         11    1    4    4    0    0  0.26827633670E+01 -0.13725455324E+00 -0.46215036360E+00  0.27257368390E+01  0.51100000000E-03 0. -1.
        -11    1    4    4    0    0 -0.92108089529E+00 -0.68254175987E+01  0.11430590773E+02  0.13345153468E+02  0.51100000000E-03 0.  1.
        -12    1    4    4    0    0  0.19615202039E+01 -0.32343369928E+00  0.31654014720E+02  0.31716380922E+02  0.00000000000E+00 0.  1.
</event>
<event>
 8    1  0.4042158E-011  0.9118800E+02  0.7816164E-02  0.1184000E+00
        -11   -1    0    0    0    0  0.00000000000E+00  0.00000000000E+00  0.45593999997E+02  0.45594000000E+02  0.51100000000E-03 0. -1.
         11   -1    0    0    0    0 -0.00000000000E+00 -0.00000000000E+00 -0.45593999997E+02  0.45594000000E+02  0.51100000000E-03 0.  1.
         23    2    1    2    0    0  0.00000000000E+00  0.00000000000E+00  0.00000000000E+00  0.91188000000E+02  0.91188000000E+02 0.  0.
    9900012    2    3    3    0    0 -0.18978549516E+02  0.37184785894E+02 -0.11862984621E+02  0.47787262128E+02  0.19999959347E+02 0.  0.
         12    1    3    3    0    0  0.18978549516E+02 -0.37184785894E+02  0.11862984621E+02  0.43400737872E+02  0.00000000000E+00 0. -1.
         11    1    4    4    0    0 -0.25193807841E+01  0.29588210801E+01 -0.78496862677E+01  0.87589654915E+01  0.51100000000E-03 0. -1.
        -11    1    4    4    0    0 -0.29214815822E+01  0.38276706394E+01  0.19978804203E+01  0.52132181610E+01  0.51100000000E-03 0.  1.
        -12    1    4    4    0    0 -0.13537687150E+02  0.30398294174E+02 -0.60111787737E+01  0.33815078476E+02  0.00000000000E+00 0.  1.
</event>
<event>
 8    1  0.4042158E-011  0.9118800E+02  0.7816164E-02  0.1184000E+00
        -11   -1    0    0    0    0  0.00000000000E+00  0.00000000000E+00  0.45593999997E+02  0.45594000000E+02  0.51100000000E-03 0. -1.
         11   -1    0    0    0    0 -0.00000000000E+00 -0.00000000000E+00 -0.45593999997E+02  0.45594000000E+02  0.51100000000E-03 0.  1.
         23    2    1    2    0    0  0.00000000000E+00  0.35527136788E-14  0.00000000000E+00  0.91188000000E+02  0.91188000000E+02 0.  0.
    9900012    2    3    3    0    0  0.18401232234E+02 -0.71927587448E+01  0.38643007997E+02  0.47787271974E+02  0.20000004238E+02 0.  0.
        -12    1    3    3    0    0 -0.18401232234E+02  0.71927587448E+01 -0.38643007997E+02  0.43400728026E+02  0.00000000000E+00 0.  1.
         11    1    4    4    0    0  0.18321937167E+02 -0.54058044674E+01  0.28068323280E+02  0.33952126229E+02  0.51100000000E-03 0. -1.
        -11    1    4    4    0    0  0.42202765259E+01 -0.21881506468E+01  0.53656502884E+01  0.71686079881E+01  0.51100000000E-03 0.  1.
        -12    1    4    4    0    0 -0.41409814592E+01  0.40119636943E+00  0.52090344294E+01  0.66665377565E+01  0.00000000000E+00 0.  1.
</event>
<event>
 8    1  0.4042158E-011  0.9118800E+02  0.7816164E-02  0.1184000E+00
        -11   -1    0    0    0    0  0.00000000000E+00  0.00000000000E+00  0.45593999997E+02  0.45594000000E+02  0.51100000000E-03 0. -1.
         11   -1    0    0    0    0 -0.00000000000E+00 -0.00000000000E+00 -0.45593999997E+02  0.45594000000E+02  0.51100000000E-03 0.  1.
         23    2    1    2    0    0  0.00000000000E+00 -0.17763568394E-14  0.35527136788E-14  0.91188000000E+02  0.91188000000E+02 0.  0.
    9900012    2    3    3    0    0  0.39069970040E+02  0.15226655107E+02 -0.11194182350E+02  0.47787270708E+02  0.19999998465E+02 0.  0.
         12    1    3    3    0    0 -0.39069970040E+02 -0.15226655107E+02  0.11194182350E+02  0.43400729292E+02  0.00000000000E+00 0. -1.
         11    1    4    4    0    0  0.88156498756E+01  0.66476212300E+00  0.28687100560E+01  0.92944655067E+01  0.51100000000E-03 0. -1.
        -11    1    4    4    0    0  0.62510388212E+01  0.28653986814E+01  0.22106823056E+01  0.72230957674E+01  0.51100000000E-03 0.  1.
        -12    1    4    4    0    0  0.24003281343E+02  0.11696494302E+02 -0.16273574711E+02  0.31269709434E+02  0.00000000000E+00 0.  1.
</event>
<event>
 8    1  0.4042158E-011  0.9118800E+02  0.7816164E-02  0.1184000E+00
        -11   -1    0    0    0    0  0.00000000000E+00  0.00000000000E+00  0.45593999997E+02  0.45594000000E+02  0.51100000000E-03 0. -1.
         11   -1    0    0    0    0 -0.00000000000E+00 -0.00000000000E+00 -0.45593999997E+02  0.45594000000E+02  0.51100000000E-03 0.  1.
         23    2    1    2    0    0  0.00000000000E+00  0.00000000000E+00  0.00000000000E+00  0.91188000000E+02  0.91188000000E+02 0.  0.
    9900012    2    3    3    0    0  0.16093236219E+02  0.19464217459E+02 -0.35295534682E+02  0.47787276714E+02  0.20000025850E+02 0.  0.
         12    1    3    3    0    0 -0.16093236219E+02 -0.19464217459E+02  0.35295534682E+02  0.43400723286E+02  0.00000000000E+00 0. -1.
         11    1    4    4    0    0  0.91662088032E+01  0.12878202257E+02 -0.25995502184E+02  0.30424227373E+02  0.51100000000E-03 0. -1.
        -11    1    4    4    0    0  0.79969554632E+01  0.68571239186E+01 -0.11067390046E+02  0.15279351027E+02  0.51100000000E-03 0.  1.
         12    1    4    4    0    0 -0.10699280474E+01 -0.27110871662E+00  0.17673575480E+01  0.20836983143E+01  0.00000000000E+00 0. -1.
</event>
<event>
 8    1  0.6202688E-011  0.9118800E+02  0.7816164E-02  0.1184000E+00
        -11   -1    0    0    0    0  0.00000000000E+00  0.00000000000E+00  0.45593999997E+02  0.45594000000E+02  0.51100000000E-03 0. -1.
         11   -1    0    0    0    0 -0.00000000000E+00 -0.00000000000E+00 -0.45593999997E+02  0.45594000000E+02  0.51100000000E-03 0.  1.
         23    2    1    2    0    0  0.00000000000E+00  0.00000000000E+00 -0.17763568394E-14  0.91188000000E+02  0.91188000000E+02 0.  0.
    9900012    2    3    3    0    0  0.40378671880E+02 -0.14620621858E+01  0.15844515278E+02  0.47787269211E+02  0.19999991643E+02 0.  0.
        -12    1    3    3    0    0 -0.40378671880E+02  0.14620621858E+01 -0.15844515278E+02  0.43400730789E+02  0.00000000000E+00 0.  1.
         11    1    4    4    0    0  0.22823804957E+02 -0.11102221561E+00  0.13019177130E+02  0.26276174989E+02  0.51100000000E-03 0. -1.
        -11    1    4    4    0    0  0.41032707300E+01 -0.16076744956E+01  0.62316968788E+01  0.76325286909E+01  0.51100000000E-03 0.  1.
        -12    1    4    4    0    0  0.13451596193E+02  0.25663452542E+00 -0.34063587312E+01  0.13878565532E+02  0.00000000000E+00 0.  1.
</event>
<event>
 8    1  0.4042158E-011  0.9118800E+02  0.7816164E-02  0.1184000E+00
        -11   -1    0    0    0    0  0.00000000000E+00  0.00000000000E+00  0.45593999997E+02  0.45594000000E+02  0.51100000000E-03 0. -1.
         11   -1    0    0    0    0 -0.00000000000E+00 -0.00000000000E+00 -0.45593999997E+02  0.45594000000E+02  0.51100000000E-03 0.  1.
         23    2    1    2    0    0  0.71054273576E-14  0.00000000000E+00  0.35527136788E-14  0.91188000000E+02  0.91188000000E+02 0.  0.
    9900012    2    3    3    0    0 -0.20889098680E+02  0.27163827550E+02  0.26634535347E+02  0.47787234523E+02  0.19999833484E+02 0.  0.
        -12    1    3    3    0    0  0.20889098680E+02 -0.27163827550E+02 -0.26634535347E+02  0.43400765477E+02  0.00000000000E+00 0.  1.
         11    1    4    4    0    0 -0.17036029553E+02  0.23789076046E+02  0.11419549143E+02  0.31409434012E+02  0.51100000000E-03 0. -1.
        -11    1    4    4    0    0 -0.18872060798E+01  0.27061514794E+01  0.52637607053E+01  0.62122443320E+01  0.51100000000E-03 0.  1.
        -12    1    4    4    0    0 -0.19658630472E+01  0.66860002450E+00  0.99512254983E+01  0.10165556179E+02  0.00000000000E+00 0.  1.
</event>
<event>
 8    1  0.4042158E-011  0.9118800E+02  0.7816164E-02  0.1184000E+00
        -11   -1    0    0    0    0  0.00000000000E+00  0.00000000000E+00  0.45593999997E+02  0.45594000000E+02  0.51100000000E-03 0. -1.
         11   -1    0    0    0    0 -0.00000000000E+00 -0.00000000000E+00 -0.45593999997E+02  0.45594000000E+02  0.51100000000E-03 0.  1.
         23    2    1    2    0    0 -0.35527136788E-14  0.00000000000E+00 -0.17763568394E-14  0.91188000000E+02  0.91188000000E+02 0.  0.
    9900012    2    3    3    0    0  0.21183183636E+02 -0.35350156443E+02  0.13611115042E+02  0.47787270948E+02  0.19999999562E+02 0.  0.
        -12    1    3    3    0    0 -0.21183183636E+02  0.35350156443E+02 -0.13611115042E+02  0.43400729052E+02  0.00000000000E+00 0.  1.
         11    1    4    4    0    0  0.12176063799E+02 -0.22801008352E+02  0.65125508115E+01  0.26656253110E+02  0.51100000000E-03 0. -1.
        -11    1    4    4    0    0  0.45473152451E+01 -0.61569904890E+01 -0.31315671970E+01  0.82700254650E+01  0.51100000000E-03 0.  1.
        -12    1    4    4    0    0  0.44598045916E+01 -0.63921576023E+01  0.10230131428E+02  0.12860992374E+02  0.00000000000E+00 0.  1.
</event>
<event>
 8    1  0.4042158E-011  0.9118800E+02  0.7816164E-02  0.1184000E+00
        -11   -1    0    0    0    0  0.00000000000E+00  0.00000000000E+00  0.45593999997E+02  0.45594000000E+02  0.51100000000E-03 0. -1.
         11   -1    0    0    0    0 -0.00000000000E+00 -0.00000000000E+00 -0.45593999997E+02  0.45594000000E+02  0.51100000000E-03 0.  1.
         23    2    1    2    0    0 -0.35527136788E-14  0.00000000000E+00 -0.22204460493E-15  0.91188000000E+02  0.91188000000E+02 0.  0.
    9900012    2    3    3    0    0 -0.31371332964E+02 -0.29931505512E+02 -0.18888348477E+01  0.47787271305E+02  0.20000001190E+02 0.  0.
        -12    1    3    3    0    0  0.31371332964E+02  0.29931505512E+02  0.18888348477E+01  0.43400728695E+02  0.00000000000E+00 0.  1.
         11    1    4    4    0    0 -0.99899715804E+01 -0.12196134702E+02  0.14667125387E+01  0.15833397607E+02  0.51100000000E-03 0. -1.
        -11    1    4    4    0    0 -0.19875367335E+02 -0.18340777542E+02 -0.70243942688E+01  0.27942019659E+02  0.51100000000E-03 0.  1.
         12    1    4    4    0    0 -0.15059940488E+01  0.60540673200E+00  0.36688468824E+01  0.40118540393E+01  0.00000000000E+00 0. -1.
</event>
<event>
 8    1  0.4042158E-011  0.9118800E+02  0.7816164E-02  0.1184000E+00
        -11   -1    0    0    0    0  0.00000000000E+00  0.00000000000E+00  0.45593999997E+02  0.45594000000E+02  0.51100000000E-03 0. -1.
         11   -1    0    0    0    0 -0.00000000000E+00 -0.00000000000E+00 -0.45593999997E+02  0.45594000000E+02  0.51100000000E-03 0.  1.
         23    2    1    2    0    0  0.00000000000E+00  0.00000000000E+00  0.00000000000E+00  0.91188000000E+02  0.91188000000E+02 0.  0.
    9900012    2    3    3    0    0 -0.34280421516E+02  0.57528865023E+01 -0.25988071828E+02  0.47787275585E+02  0.20000020702E+02 0.  0.
         12    1    3    3    0    0  0.34280421516E+02 -0.57528865023E+01  0.25988071828E+02  0.43400724415E+02  0.00000000000E+00 0. -1.
         11    1    4    4    0    0 -0.24138946334E+02  0.53483549096E+01 -0.18554251328E+02  0.30912034436E+02  0.51100000000E-03 0. -1.
        -11    1    4    4    0    0 -0.42802876164E+01  0.59066684603E+00 -0.96761112432E+01  0.10597022150E+02  0.51100000000E-03 0.  1.
         12    1    4    4    0    0 -0.58611875659E+01 -0.18613525338E+00  0.22422907441E+01  0.62782189988E+01  0.00000000000E+00 0. -1.
</event>
<event>
 8    1  0.4042158E-011  0.9118800E+02  0.7816164E-02  0.1184000E+00
        -11   -1    0    0    0    0  0.00000000000E+00  0.00000000000E+00  0.45593999997E+02  0.45594000000E+02  0.51100000000E-03 0.  1.
         11   -1    0    0    0    0 -0.00000000000E+00 -0.00000000000E+00 -0.45593999997E+02  0.45594000000E+02  0.51100000000E-03 0. -1.
         23    2    1    2    0    0  0.44408920985E-15  0.00000000000E+00  0.00000000000E+00  0.91188000000E+02  0.91188000000E+02 0.  0.
    9900012    2    3    3    0    0  0.37030061352E+00 -0.42693473999E+02  0.77944415888E+01  0.47787272306E+02  0.20000005754E+02 0.  0.
        -12    1    3    3    0    0 -0.37030061352E+00  0.42693473999E+02 -0.77944415888E+01  0.43400727694E+02  0.00000000000E+00 0.  1.
         11    1    4    4    0    0 -0.98873466828E+00 -0.41407014346E+01  0.57217234099E+01  0.71316985113E+01  0.51100000000E-03 0. -1.
        -11    1    4    4    0    0 -0.38468899405E+01 -0.13049851759E+02  0.49292034358E+01  0.14470460944E+02  0.51100000000E-03 0.  1.
         12    1    4    4    0    0  0.52059252223E+01 -0.25502920805E+02 -0.28564852570E+01  0.26185112852E+02  0.00000000000E+00 0. -1.
</event>
<event>
 8    1  0.4042158E-011  0.9118800E+02  0.7816164E-02  0.1184000E+00
        -11   -1    0    0    0    0  0.00000000000E+00  0.00000000000E+00  0.45593999997E+02  0.45594000000E+02  0.51100000000E-03 0. -1.
         11   -1    0    0    0    0 -0.00000000000E+00 -0.00000000000E+00 -0.45593999997E+02  0.45594000000E+02  0.51100000000E-03 0.  1.
         23    2    1    2    0    0  0.00000000000E+00  0.00000000000E+00  0.71054273576E-14  0.91188000000E+02  0.91188000000E+02 0.  0.
    9900012    2    3    3    0    0 -0.99202785209E+01 -0.22023107385E+02 -0.36058205317E+02  0.47787270104E+02  0.19999995712E+02 0.  0.
         12    1    3    3    0    0  0.99202785209E+01  0.22023107385E+02  0.36058205317E+02  0.43400729896E+02  0.00000000000E+00 0. -1.
         11    1    4    4    0    0 -0.17563524376E+01 -0.45462996586E+01 -0.40604810432E+01  0.63435889711E+01  0.51100000000E-03 0. -1.
        -11    1    4    4    0    0  0.26276441678E+00 -0.16835826667E+02 -0.15399878184E+02  0.22818202231E+02  0.51100000000E-03 0.  1.
         12    1    4    4    0    0 -0.84266905000E+01 -0.64098105893E+00 -0.16597846090E+02  0.18625478902E+02  0.00000000000E+00 0. -1.
</event>
<event>
 8    1  0.4042158E-011  0.9118800E+02  0.7816164E-02  0.1184000E+00
        -11   -1    0    0    0    0  0.00000000000E+00  0.00000000000E+00  0.45593999997E+02  0.45594000000E+02  0.51100000000E-03 0. -1.
         11   -1    0    0    0    0 -0.00000000000E+00 -0.00000000000E+00 -0.45593999997E+02  0.45594000000E+02  0.51100000000E-03 0.  1.
         23    2    1    2    0    0  0.00000000000E+00  0.88817841970E-15  0.00000000000E+00  0.91188000000E+02  0.91188000000E+02 0.  0.
    9900012    2    3    3    0    0 -0.16099103957E+02  0.74353656276E+01  0.39612592243E+02  0.47787271038E+02  0.19999999970E+02 0.  0.
        -12    1    3    3    0    0  0.16099103957E+02 -0.74353656276E+01 -0.39612592243E+02  0.43400728962E+02  0.00000000000E+00 0.  1.
         11    1    4    4    0    0 -0.39759086202E+01 -0.15974942049E+01  0.11351760359E+00  0.42863415167E+01  0.51100000000E-03 0. -1.
        -11    1    4    4    0    0 -0.11908063362E+01  0.13676186634E+01  0.76050821246E-02  0.18134107745E+01  0.51100000000E-03 0.  1.
         12    1    4    4    0    0 -0.10932389000E+02  0.76652411691E+01  0.39491469557E+02  0.41687518747E+02  0.00000000000E+00 0. -1.
</event>
<event>
 8    1  0.4042158E-011  0.9118800E+02  0.7816164E-02  0.1184000E+00
        -11   -1    0    0    0    0  0.00000000000E+00  0.00000000000E+00  0.45593999997E+02  0.45594000000E+02  0.51100000000E-03 0. -1.
         11   -1    0    0    0    0 -0.00000000000E+00 -0.00000000000E+00 -0.45593999997E+02  0.45594000000E+02  0.51100000000E-03 0.  1.
         23    2    1    2    0    0  0.88817841970E-15  0.00000000000E+00  0.00000000000E+00  0.91188000000E+02  0.91188000000E+02 0.  0.
    9900012    2    3    3    0    0  0.77898958515E+01 -0.33502602154E+02  0.26467273579E+02  0.47787269601E+02  0.19999993419E+02 0.  0.
        -12    1    3    3    0    0 -0.77898958515E+01  0.33502602154E+02 -0.26467273579E+02  0.43400730399E+02  0.00000000000E+00 0.  1.
         11    1    4    4    0    0  0.10066817738E+02 -0.71136227599E+01  0.81259636372E+01  0.14764001267E+02  0.51100000000E-03 0. -1.
        -11    1    4    4    0    0  0.98941927547E+00 -0.85770229283E+01  0.25671709253E+01  0.90074768740E+01  0.51100000000E-03 0.  1.
         12    1    4    4    0    0 -0.32663411615E+01 -0.17811956465E+02  0.15774139017E+02  0.24015791460E+02  0.00000000000E+00 0. -1.
</event>
<event>
 8    1  0.4042158E-011  0.9118800E+02  0.7816164E-02  0.1184000E+00
        -11   -1    0    0    0    0  0.00000000000E+00  0.00000000000E+00  0.45593999997E+02  0.45594000000E+02  0.51100000000E-03 0. -1.
         11   -1    0    0    0    0 -0.00000000000E+00 -0.00000000000E+00 -0.45593999997E+02  0.45594000000E+02  0.51100000000E-03 0.  1.
         23    2    1    2    0    0  0.00000000000E+00  0.49960036108E-15  0.00000000000E+00  0.91188000000E+02  0.91188000000E+02 0.  0.
    9900012    2    3    3    0    0  0.10361038184E+02 -0.27000043376E+00  0.42144979194E+02  0.47787270931E+02  0.19999999481E+02 0.  0.
        -12    1    3    3    0    0 -0.10361038184E+02  0.27000043376E+00 -0.42144979194E+02  0.43400729069E+02  0.00000000000E+00 0.  1.
         11    1    4    4    0    0 -0.68121231220E+00 -0.19210271364E+01  0.51295018903E+01  0.55196182275E+01  0.51100000000E-03 0. -1.
        -11    1    4    4    0    0 -0.38751737416E+01 -0.12436545981E+01  0.14820972110E+02  0.15369608415E+02  0.51100000000E-03 0.  1.
         12    1    4    4    0    0  0.14917424238E+02  0.28946813008E+01  0.22194505194E+02  0.26898044288E+02  0.00000000000E+00 0. -1.
</event>
<event>
 8    1  0.4042158E-011  0.9118800E+02  0.7816164E-02  0.1184000E+00
        -11   -1    0    0    0    0  0.00000000000E+00  0.00000000000E+00  0.45593999997E+02  0.45594000000E+02  0.51100000000E-03 0. -1.
         11   -1    0    0    0    0 -0.00000000000E+00 -0.00000000000E+00 -0.45593999997E+02  0.45594000000E+02  0.51100000000E-03 0.  1.
         23    2    1    2    0    0  0.00000000000E+00  0.88817841970E-15  0.00000000000E+00  0.91188000000E+02  0.91188000000E+02 0.  0.
    9900012    2    3    3    0    0 -0.15466919304E+02 -0.52385911294E+01  0.40211367373E+02  0.47787280008E+02  0.20000040871E+02 0.  0.
        -12    1    3    3    0    0  0.15466919304E+02  0.52385911294E+01 -0.40211367373E+02  0.43400719992E+02  0.00000000000E+00 0.  1.
         11    1    4    4    0    0 -0.10527495173E+02 -0.46738512887E+01  0.14057473670E+02  0.18173761491E+02  0.51100000000E-03 0. -1.
        -11    1    4    4    0    0 -0.12319389062E+01 -0.22143614697E+01 -0.55838341835E+00  0.25947760000E+01  0.51100000000E-03 0.  1.
         12    1    4    4    0    0 -0.37074852246E+01  0.16496216291E+01  0.26712277121E+02  0.27018742517E+02  0.00000000000E+00 0. -1.
</event>
<event>
 8    1  0.4042158E-011  0.9118800E+02  0.7816164E-02  0.1184000E+00
        -11   -1    0    0    0    0  0.00000000000E+00  0.00000000000E+00  0.45593999997E+02  0.45594000000E+02  0.51100000000E-03 0. -1.
         11   -1    0    0    0    0 -0.00000000000E+00 -0.00000000000E+00 -0.45593999997E+02  0.45594000000E+02  0.51100000000E-03 0.  1.
         23    2    1    2    0    0  0.35527136788E-14  0.00000000000E+00  0.00000000000E+00  0.91188000000E+02  0.91188000000E+02 0.  0.
    9900012    2    3    3    0    0  0.28204759318E+02  0.10174671377E+02  0.31378189247E+02  0.47787272515E+02  0.20000006705E+02 0.  0.
        -12    1    3    3    0    0 -0.28204759318E+02 -0.10174671377E+02 -0.31378189247E+02  0.43400727485E+02  0.00000000000E+00 0.  1.
         11    1    4    4    0    0  0.14823097706E+02 -0.25492294443E+01  0.12823688260E+02  0.19765368127E+02  0.51100000000E-03 0. -1.
        -11    1    4    4    0    0  0.64545074417E+01  0.80780017559E+00  0.27799663654E+01  0.70739960908E+01  0.51100000000E-03 0.  1.
        -12    1    4    4    0    0  0.69271541702E+01  0.11916100645E+02  0.15774534622E+02  0.20947908297E+02  0.00000000000E+00 0.  1.
</event>
<event>
 8    1  0.4042158E-011  0.9118800E+02  0.7816164E-02  0.1184000E+00
        -11   -1    0    0    0    0  0.00000000000E+00  0.00000000000E+00  0.45593999997E+02  0.45594000000E+02  0.51100000000E-03 0. -1.
         11   -1    0    0    0    0 -0.00000000000E+00 -0.00000000000E+00 -0.45593999997E+02  0.45594000000E+02  0.51100000000E-03 0.  1.
         23    2    1    2    0    0 -0.35527136788E-14  0.44408920985E-15  0.00000000000E+00  0.91188000000E+02  0.91188000000E+02 0.  0.
    9900012    2    3    3    0    0 -0.25183489030E+02 -0.17379720952E+01 -0.35304313443E+02  0.47787271730E+02  0.20000003124E+02 0.  0.
         12    1    3    3    0    0  0.25183489030E+02  0.17379720952E+01  0.35304313443E+02  0.43400728270E+02  0.00000000000E+00 0. -1.
         11    1    4    4    0    0 -0.51492616847E+01 -0.11098759158E+01 -0.91457624877E+01  0.10554226271E+02  0.51100000000E-03 0. -1.
        -11    1    4    4    0    0 -0.15844013935E+02 -0.80949188174E+01 -0.15810122254E+02  0.23801690154E+02  0.51100000000E-03 0.  1.
         12    1    4    4    0    0 -0.41902134100E+01  0.74668226381E+01 -0.10348428701E+02  0.13431355305E+02  0.00000000000E+00 0. -1.
</event>
<event>
 8    1  0.4042158E-011  0.9118800E+02  0.7816164E-02  0.1184000E+00
        -11   -1    0    0    0    0  0.00000000000E+00  0.00000000000E+00  0.45593999997E+02  0.45594000000E+02  0.51100000000E-03 0.  1.
         11   -1    0    0    0    0 -0.00000000000E+00 -0.00000000000E+00 -0.45593999997E+02  0.45594000000E+02  0.51100000000E-03 0. -1.
         23    2    1    2    0    0  0.00000000000E+00  0.00000000000E+00  0.00000000000E+00  0.91188000000E+02  0.91188000000E+02 0.  0.
    9900012    2    3    3    0    0 -0.43194200181E+02  0.27930104113E+01 -0.31754628719E+01  0.47787269581E+02  0.19999993327E+02 0.  0.
         12    1    3    3    0    0  0.43194200181E+02 -0.27930104113E+01  0.31754628719E+01  0.43400730419E+02  0.00000000000E+00 0. -1.
         11    1    4    4    0    0 -0.48321001088E+01 -0.29104237658E+01  0.49206889610E+01  0.74855152174E+01  0.51100000000E-03 0.  1.
        -11    1    4    4    0    0 -0.83225303970E+01 -0.13911139937E+01 -0.33237393450E+01  0.90690106322E+01  0.51100000000E-03 0. -1.
        -12    1    4    4    0    0 -0.30039569675E+02  0.70945481708E+01 -0.47724124879E+01  0.31232743731E+02  0.00000000000E+00 0.  1.
</event>
<event>
 8    1  0.4042158E-011  0.9118800E+02  0.7816164E-02  0.1184000E+00
        -11   -1    0    0    0    0  0.00000000000E+00  0.00000000000E+00  0.45593999997E+02  0.45594000000E+02  0.51100000000E-03 0. -1.
         11   -1    0    0    0    0 -0.00000000000E+00 -0.00000000000E+00 -0.45593999997E+02  0.45594000000E+02  0.51100000000E-03 0.  1.
         23    2    1    2    0    0  0.00000000000E+00  0.00000000000E+00  0.00000000000E+00  0.91188000000E+02  0.91188000000E+02 0.  0.
    9900012    2    3    3    0    0 -0.14692473072E+02  0.14103021498E+02 -0.38325698246E+02  0.47787272744E+02  0.20000007749E+02 0.  0.
         12    1    3    3    0    0  0.14692473072E+02 -0.14103021498E+02  0.38325698246E+02  0.43400727256E+02  0.00000000000E+00 0. -1.
         11    1    4    4    0    0  0.18602689298E+01 -0.87135289424E+00 -0.18441713594E+01  0.27605841087E+01  0.51100000000E-03 0. -1.
        -11    1    4    4    0    0 -0.12365890868E+01  0.13071641914E+01  0.11676276654E+01  0.21450373934E+01  0.51100000000E-03 0.  1.
        -12    1    4    4    0    0 -0.15316152915E+02  0.13667210201E+02 -0.37649154552E+02  0.42881651242E+02  0.00000000000E+00 0.  1.
</event>
<event>
 8    1  0.4042158E-011  0.9118800E+02  0.7816164E-02  0.1184000E+00
        -11   -1    0    0    0    0  0.00000000000E+00  0.00000000000E+00  0.45593999997E+02  0.45594000000E+02  0.51100000000E-03 0.  1.
         11   -1    0    0    0    0 -0.00000000000E+00 -0.00000000000E+00 -0.45593999997E+02  0.45594000000E+02  0.51100000000E-03 0. -1.
         23    2    1    2    0    0  0.00000000000E+00  0.00000000000E+00 -0.17763568394E-14  0.91188000000E+02  0.91188000000E+02 0.  0.
    9900012    2    3    3    0    0 -0.36985776850E+02 -0.18841522050E+02 -0.12675671132E+02  0.47787270962E+02  0.19999999625E+02 0.  0.
         12    1    3    3    0    0  0.36985776850E+02  0.18841522050E+02  0.12675671132E+02  0.43400729038E+02  0.00000000000E+00 0. -1.
         11    1    4    4    0    0 -0.13954472058E+02 -0.21592579590E+01 -0.86265804920E+01  0.16547131975E+02  0.51100000000E-03 0. -1.
        -11    1    4    4    0    0 -0.14526852066E+02 -0.52272763526E+01 -0.65234158613E+01  0.16760334238E+02  0.51100000000E-03 0.  1.
         12    1    4    4    0    0 -0.85044527262E+01 -0.11454987739E+02  0.24743252218E+01  0.14479804749E+02  0.00000000000E+00 0. -1.
</event>
<event>
 8    1  0.4042158E-011  0.9118800E+02  0.7816164E-02  0.1184000E+00
        -11   -1    0    0    0    0  0.00000000000E+00  0.00000000000E+00  0.45593999997E+02  0.45594000000E+02  0.51100000000E-03 0. -1.
         11   -1    0    0    0    0 -0.00000000000E+00 -0.00000000000E+00 -0.45593999997E+02  0.45594000000E+02  0.51100000000E-03 0.  1.
         23    2    1    2    0    0  0.00000000000E+00 -0.16653345369E-15  0.00000000000E+00  0.91188000000E+02  0.91188000000E+02 0.  0.
    9900012    2    3    3    0    0 -0.18053038854E+02  0.44159675609E+00  0.39465378950E+02  0.47787270107E+02  0.19999995726E+02 0.  0.
        -12    1    3    3    0    0  0.18053038854E+02 -0.44159675609E+00 -0.39465378950E+02  0.43400729893E+02  0.00000000000E+00 0.  1.
         11    1    4    4    0    0 -0.61258662460E+01 -0.12884688492E+01  0.27328561002E+02  0.28036344911E+02  0.51100000000E-03 0. -1.
        -11    1    4    4    0    0 -0.10188707132E+02 -0.15932466226E+01  0.12232125699E+02  0.15999158953E+02  0.51100000000E-03 0.  1.
        -12    1    4    4    0    0 -0.17384654759E+01  0.33233122279E+01 -0.95307751374E-01  0.37517662430E+01  0.00000000000E+00 0.  1.
</event>
<event>
 8    1  0.4042158E-011  0.9118800E+02  0.7816164E-02  0.1184000E+00
        -11   -1    0    0    0    0  0.00000000000E+00  0.00000000000E+00  0.45593999997E+02  0.45594000000E+02  0.51100000000E-03 0. -1.
         11   -1    0    0    0    0 -0.00000000000E+00 -0.00000000000E+00 -0.45593999997E+02  0.45594000000E+02  0.51100000000E-03 0.  1.
         23    2    1    2    0    0  0.00000000000E+00 -0.71054273576E-14  0.00000000000E+00  0.91188000000E+02  0.91188000000E+02 0.  0.
    9900012    2    3    3    0    0 -0.11486266881E+02 -0.19303347229E+02  0.37135824486E+02  0.47787274184E+02  0.20000014314E+02 0.  0.
        -12    1    3    3    0    0  0.11486266881E+02  0.19303347229E+02 -0.37135824486E+02  0.43400725816E+02  0.00000000000E+00 0.  1.
         11    1    4    4    0    0 -0.50615342144E+01 -0.16124325268E+02  0.27355873320E+02  0.32155198636E+02  0.51100000000E-03 0. -1.
        -11    1    4    4    0    0 -0.39764156658E+01 -0.61543465302E+01  0.91589398818E+01  0.11729196169E+02  0.51100000000E-03 0.  1.
        -12    1    4    4    0    0 -0.24483170010E+01  0.29753245690E+01  0.62101128387E+00  0.39028793785E+01  0.00000000000E+00 0.  1.
</event>
<event>
 8    1  0.4042158E-011  0.9118800E+02  0.7816164E-02  0.1184000E+00
        -11   -1    0    0    0    0  0.00000000000E+00  0.00000000000E+00  0.45593999997E+02  0.45594000000E+02  0.51100000000E-03 0. -1.
         11   -1    0    0    0    0 -0.00000000000E+00 -0.00000000000E+00 -0.45593999997E+02  0.45594000000E+02  0.51100000000E-03 0.  1.
         23    2    1    2    0    0  0.00000000000E+00  0.35527136788E-14  0.00000000000E+00  0.91188000000E+02  0.91188000000E+02 0.  0.
    9900012    2    3    3    0    0 -0.29948306567E+02  0.26200803000E+02  0.17327438724E+02  0.47787271011E+02  0.19999999846E+02 0.  0.
        -12    1    3    3    0    0  0.29948306567E+02 -0.26200803000E+02 -0.17327438724E+02  0.43400728989E+02  0.00000000000E+00 0.  1.
         11    1    4    4    0    0 -0.46850991198E+01  0.41822816340E+01  0.11598725913E+02  0.13189847478E+02  0.51100000000E-03 0. -1.
        -11    1    4    4    0    0 -0.62275251560E+01  0.86730990181E+01  0.35311174755E+01  0.11246044061E+02  0.51100000000E-03 0.  1.
        -12    1    4    4    0    0 -0.19035682291E+02  0.13345422348E+02  0.21975953352E+01  0.23351379471E+02  0.00000000000E+00 0.  1.
</event>
<event>
 8    1  0.4042158E-011  0.9118800E+02  0.7816164E-02  0.1184000E+00
        -11   -1    0    0    0    0  0.00000000000E+00  0.00000000000E+00  0.45593999997E+02  0.45594000000E+02  0.51100000000E-03 0. -1.
         11   -1    0    0    0    0 -0.00000000000E+00 -0.00000000000E+00 -0.45593999997E+02  0.45594000000E+02  0.51100000000E-03 0.  1.
         23    2    1    2    0    0  0.00000000000E+00  0.00000000000E+00  0.00000000000E+00  0.91188000000E+02  0.91188000000E+02 0.  0.
    9900012    2    3    3    0    0 -0.27322973814E+02 -0.10637921403E+02  0.31998626999E+02  0.47787281116E+02  0.20000045922E+02 0.  0.
        -12    1    3    3    0    0  0.27322973814E+02  0.10637921403E+02 -0.31998626999E+02  0.43400718884E+02  0.00000000000E+00 0.  1.
         11    1    4    4    0    0 -0.18692542943E+01  0.23696463227E+01  0.89831316513E+01  0.94766022306E+01  0.51100000000E-03 0. -1.
        -11    1    4    4    0    0 -0.25266494908E+01 -0.56517763381E+01  0.24957756342E+01  0.66749853709E+01  0.51100000000E-03 0.  1.
         12    1    4    4    0    0 -0.22927070028E+02 -0.73557913880E+01  0.20519719714E+02  0.31635693515E+02  0.00000000000E+00 0. -1.
</event>
<event>
 8    1  0.4042158E-011  0.9118800E+02  0.7816164E-02  0.1184000E+00
        -11   -1    0    0    0    0  0.00000000000E+00  0.00000000000E+00  0.45593999997E+02  0.45594000000E+02  0.51100000000E-03 0.  1.
         11   -1    0    0    0    0 -0.00000000000E+00 -0.00000000000E+00 -0.45593999997E+02  0.45594000000E+02  0.51100000000E-03 0. -1.
         23    2    1    2    0    0  0.00000000000E+00 -0.17763568394E-14  0.00000000000E+00  0.91188000000E+02  0.91188000000E+02 0.  0.
    9900012    2    3    3    0    0  0.40002243963E+02 -0.15770628595E+02  0.58932968041E+01  0.47787271946E+02  0.20000004113E+02 0.  0.
        -12    1    3    3    0    0 -0.40002243963E+02  0.15770628595E+02 -0.58932968041E+01  0.43400728054E+02  0.00000000000E+00 0.  1.
         11    1    4    4    0    0  0.11877133708E+02 -0.74032060892E+01  0.14933440960E+01  0.14074936673E+02  0.51100000000E-03 0. -1.
        -11    1    4    4    0    0  0.22151202221E+02 -0.10413397981E+02 -0.22033022885E+01  0.24575783987E+02  0.51100000000E-03 0.  1.
        -12    1    4    4    0    0  0.59739080343E+01  0.20459754754E+01  0.66032549966E+01  0.91365512859E+01  0.00000000000E+00 0.  1.
</event>
<event>
 8    1  0.4042158E-011  0.9118800E+02  0.7816164E-02  0.1184000E+00
        -11   -1    0    0    0    0  0.00000000000E+00  0.00000000000E+00  0.45593999997E+02  0.45594000000E+02  0.51100000000E-03 0. -1.
         11   -1    0    0    0    0 -0.00000000000E+00 -0.00000000000E+00 -0.45593999997E+02  0.45594000000E+02  0.51100000000E-03 0.  1.
         23    2    1    2    0    0  0.00000000000E+00  0.00000000000E+00  0.00000000000E+00  0.91188000000E+02  0.91188000000E+02 0.  0.
    9900012    2    3    3    0    0 -0.49641634573E+01  0.16624956882E+01  0.43083811755E+02  0.47787289798E+02  0.20000085503E+02 0.  0.
        -12    1    3    3    0    0  0.49641634573E+01 -0.16624956882E+01 -0.43083811755E+02  0.43400710202E+02  0.00000000000E+00 0.  1.
         11    1    4    4    0    0 -0.84549154118E+01 -0.67256064478E+01  0.28966770226E+02  0.30915904553E+02  0.51100000000E-03 0.  1.
        -11    1    4    4    0    0  0.85618776614E-01  0.11638611379E+01  0.26670505685E+01  0.29111960290E+01  0.51100000000E-03 0. -1.
        -12    1    4    4    0    0  0.34051331779E+01  0.72242409981E+01  0.11449990960E+02  0.13960189216E+02  0.00000000000E+00 0.  1.
</event>
<event>
 8    1  0.4042158E-011  0.9118800E+02  0.7816164E-02  0.1184000E+00
        -11   -1    0    0    0    0  0.00000000000E+00  0.00000000000E+00  0.45593999997E+02  0.45594000000E+02  0.51100000000E-03 0. -1.
         11   -1    0    0    0    0 -0.00000000000E+00 -0.00000000000E+00 -0.45593999997E+02  0.45594000000E+02  0.51100000000E-03 0.  1.
         23    2    1    2    0    0  0.00000000000E+00  0.11102230246E-14  0.00000000000E+00  0.91188000000E+02  0.91188000000E+02 0.  0.
    9900012    2    3    3    0    0 -0.28230959555E+02 -0.13774621291E+01 -0.32935374316E+02  0.47787270045E+02  0.19999995441E+02 0.  0.
         12    1    3    3    0    0  0.28230959555E+02  0.13774621291E+01  0.32935374316E+02  0.43400729955E+02  0.00000000000E+00 0. -1.
         11    1    4    4    0    0 -0.20014952891E+01 -0.55054876781E+01 -0.12758085840E+02  0.14038701241E+02  0.51100000000E-03 0. -1.
        -11    1    4    4    0    0 -0.77408030664E+01 -0.87820803338E+00 -0.45026080765E+01  0.89980420767E+01  0.51100000000E-03 0.  1.
        -12    1    4    4    0    0 -0.18488661200E+02  0.50062335823E+01 -0.15674680400E+02  0.24750526727E+02  0.00000000000E+00 0.  1.
</event>
<event>
 8    1  0.4042158E-011  0.9118800E+02  0.7816164E-02  0.1184000E+00
        -11   -1    0    0    0    0  0.00000000000E+00  0.00000000000E+00  0.45593999997E+02  0.45594000000E+02  0.51100000000E-03 0. -1.
         11   -1    0    0    0    0 -0.00000000000E+00 -0.00000000000E+00 -0.45593999997E+02  0.45594000000E+02  0.51100000000E-03 0.  1.
         23    2    1    2    0    0 -0.17763568394E-14  0.00000000000E+00 -0.35527136788E-14  0.91188000000E+02  0.91188000000E+02 0.  0.
    9900012    2    3    3    0    0 -0.12135628099E+02  0.28178136470E+02 -0.30697591081E+02  0.47787274863E+02  0.20000017412E+02 0.  0.
         12    1    3    3    0    0  0.12135628099E+02 -0.28178136470E+02  0.30697591081E+02  0.43400725137E+02  0.00000000000E+00 0. -1.
         11    1    4    4    0    0 -0.14477665144E+02  0.12967987956E+02 -0.12491795451E+02  0.23104468259E+02  0.51100000000E-03 0. -1.
        -11    1    4    4    0    0 -0.52968958735E+00  0.18037105754E+01 -0.61324484882E+01  0.64141147183E+01  0.51100000000E-03 0.  1.
         12    1    4    4    0    0  0.28717266331E+01  0.13406437938E+02 -0.12073347141E+02  0.18268691886E+02  0.00000000000E+00 0. -1.
</event>
<event>
 8    1  0.4042158E-011  0.9118800E+02  0.7816164E-02  0.1184000E+00
        -11   -1    0    0    0    0  0.00000000000E+00  0.00000000000E+00  0.45593999997E+02  0.45594000000E+02  0.51100000000E-03 0. -1.
         11   -1    0    0    0    0 -0.00000000000E+00 -0.00000000000E+00 -0.45593999997E+02  0.45594000000E+02  0.51100000000E-03 0.  1.
         23    2    1    2    0    0  0.44408920985E-15  0.00000000000E+00  0.00000000000E+00  0.91188000000E+02  0.91188000000E+02 0.  0.
    9900012    2    3    3    0    0  0.33040798385E+01  0.36004386255E+02 -0.24008136523E+02  0.47787269678E+02  0.19999993771E+02 0.  0.
         12    1    3    3    0    0 -0.33040798385E+01 -0.36004386255E+02  0.24008136523E+02  0.43400730322E+02  0.00000000000E+00 0. -1.
         11    1    4    4    0    0 -0.12445149477E+01  0.17480170318E+02 -0.20291948631E+02  0.26811720409E+02  0.51100000000E-03 0. -1.
        -11    1    4    4    0    0  0.47830039571E+01  0.79180862578E+01 -0.45979190753E+01  0.10330250574E+02  0.51100000000E-03 0.  1.
        -12    1    4    4    0    0 -0.23440917088E+00  0.10606129679E+02  0.88173118309E+00  0.10645298695E+02  0.00000000000E+00 0.  1.
</event>
<event>
 8    1  0.4042158E-011  0.9118800E+02  0.7816164E-02  0.1184000E+00
        -11   -1    0    0    0    0  0.00000000000E+00  0.00000000000E+00  0.45593999997E+02  0.45594000000E+02  0.51100000000E-03 0. -1.
         11   -1    0    0    0    0 -0.00000000000E+00 -0.00000000000E+00 -0.45593999997E+02  0.45594000000E+02  0.51100000000E-03 0.  1.
         23    2    1    2    0    0  0.00000000000E+00  0.16115581092E-14  0.00000000000E+00  0.91188000000E+02  0.91188000000E+02 0.  0.
    9900012    2    3    3    0    0  0.21352846472E+02 -0.10860963409E-01 -0.37784643158E+02  0.47787269258E+02  0.19999991853E+02 0.  0.
         12    1    3    3    0    0 -0.21352846472E+02  0.10860963409E-01  0.37784643158E+02  0.43400730742E+02  0.00000000000E+00 0. -1.
         11    1    4    4    0    0  0.27666519619E+01  0.52700215153E+01 -0.82843183932E+01  0.10200853952E+02  0.51100000000E-03 0. -1.
        -11    1    4    4    0    0 -0.57303970739E+00  0.24946675526E+01 -0.24965199442E+01  0.35755213323E+01  0.51100000000E-03 0.  1.
        -12    1    4    4    0    0  0.19159234218E+02 -0.77755500313E+01 -0.27003804820E+02  0.34010893973E+02  0.00000000000E+00 0.  1.
</event>
<event>
 8    1  0.4042158E-011  0.9118800E+02  0.7816164E-02  0.1184000E+00
        -11   -1    0    0    0    0  0.00000000000E+00  0.00000000000E+00  0.45593999997E+02  0.45594000000E+02  0.51100000000E-03 0. -1.
         11   -1    0    0    0    0 -0.00000000000E+00 -0.00000000000E+00 -0.45593999997E+02  0.45594000000E+02  0.51100000000E-03 0.  1.
         23    2    1    2    0    0 -0.22204460493E-15  0.00000000000E+00  0.00000000000E+00  0.91188000000E+02  0.91188000000E+02 0.  0.
    9900012    2    3    3    0    0 -0.19716122854E+01  0.25843604215E+02 -0.34811542078E+02  0.47787278857E+02  0.20000035622E+02 0.  0.
         12    1    3    3    0    0  0.19716122854E+01 -0.25843604215E+02  0.34811542078E+02  0.43400721143E+02  0.00000000000E+00 0. -1.
         11    1    4    4    0    0 -0.29597712502E+01  0.62704484898E+01 -0.48713349118E+00  0.69509761484E+01  0.51100000000E-03 0. -1.
        -11    1    4    4    0    0 -0.10516183623E+01  0.20914253055E+00  0.29927459530E+00  0.11131968930E+01  0.51100000000E-03 0.  1.
        -12    1    4    4    0    0  0.20397773271E+01  0.19364013195E+02 -0.34623683182E+02  0.39723105816E+02  0.00000000000E+00 0.  1.
</event>
<event>
 8    1  0.4042158E-011  0.9118800E+02  0.7816164E-02  0.1184000E+00
        -11   -1    0    0    0    0  0.00000000000E+00  0.00000000000E+00  0.45593999997E+02  0.45594000000E+02  0.51100000000E-03 0. -1.
         11   -1    0    0    0    0 -0.00000000000E+00 -0.00000000000E+00 -0.45593999997E+02  0.45594000000E+02  0.51100000000E-03 0.  1.
         23    2    1    2    0    0  0.17763568394E-14  0.00000000000E+00  0.00000000000E+00  0.91188000000E+02  0.91188000000E+02 0.  0.
    9900012    2    3    3    0    0 -0.15808543229E+02  0.79219191123E+00  0.40411457497E+02  0.47787268393E+02  0.19999987910E+02 0.  0.
        -12    1    3    3    0    0  0.15808543229E+02 -0.79219191123E+00 -0.40411457497E+02  0.43400731607E+02  0.00000000000E+00 0.  1.
         11    1    4    4    0    0 -0.18611196458E+01 -0.61627759402E+01  0.91859198531E+01  0.11217160845E+02  0.51100000000E-03 0. -1.
        -11    1    4    4    0    0 -0.28115381004E+01 -0.25738331746E+01  0.10624135872E+02  0.11287232920E+02  0.51100000000E-03 0.  1.
        -12    1    4    4    0    0 -0.11135885483E+02  0.95288010260E+01  0.20601401772E+02  0.25282874627E+02  0.00000000000E+00 0.  1.
</event>
<event>
 8    1  0.4042158E-011  0.9118800E+02  0.7816164E-02  0.1184000E+00
        -11   -1    0    0    0    0  0.00000000000E+00  0.00000000000E+00  0.45593999997E+02  0.45594000000E+02  0.51100000000E-03 0. -1.
         11   -1    0    0    0    0 -0.00000000000E+00 -0.00000000000E+00 -0.45593999997E+02  0.45594000000E+02  0.51100000000E-03 0.  1.
         23    2    1    2    0    0  0.00000000000E+00 -0.35527136788E-14  0.00000000000E+00  0.91188000000E+02  0.91188000000E+02 0.  0.
    9900012    2    3    3    0    0 -0.33345296240E+02 -0.27682299631E+02  0.23246495011E+01  0.47787280080E+02  0.20000041198E+02 0.  0.
         12    1    3    3    0    0  0.33345296240E+02  0.27682299631E+02 -0.23246495011E+01  0.43400719920E+02  0.00000000000E+00 0. -1.
         11    1    4    4    0    0 -0.18630371453E+01 -0.49555745480E+01 -0.29519911850E+01  0.60615904450E+01  0.51100000000E-03 0. -1.
        -11    1    4    4    0    0 -0.15467831949E+02 -0.69340351495E+01 -0.39665839136E+01  0.17408861446E+02  0.51100000000E-03 0.  1.
        -12    1    4    4    0    0 -0.16014427147E+02 -0.15792689934E+02  0.92432245997E+01  0.24316828189E+02  0.00000000000E+00 0.  1.
</event>
<event>
 8    1  0.4042158E-011  0.9118800E+02  0.7816164E-02  0.1184000E+00
        -11   -1    0    0    0    0  0.00000000000E+00  0.00000000000E+00  0.45593999997E+02  0.45594000000E+02  0.51100000000E-03 0. -1.
         11   -1    0    0    0    0 -0.00000000000E+00 -0.00000000000E+00 -0.45593999997E+02  0.45594000000E+02  0.51100000000E-03 0.  1.
         23    2    1    2    0    0  0.00000000000E+00  0.17763568394E-14  0.00000000000E+00  0.91188000000E+02  0.91188000000E+02 0.  0.
    9900012    2    3    3    0    0  0.81082708643E+01 -0.11272556202E+02 -0.41119445694E+02  0.47787269661E+02  0.19999993694E+02 0.  0.
         12    1    3    3    0    0 -0.81082708643E+01  0.11272556202E+02  0.41119445694E+02  0.43400730339E+02  0.00000000000E+00 0. -1.
         11    1    4    4    0    0 -0.66536918300E-01  0.11123664885E+01  0.12153097600E+01  0.16488676236E+01  0.51100000000E-03 0.  1.
        -11    1    4    4    0    0  0.24483850427E+01  0.14538794435E+01 -0.11660722580E+02  0.12003366448E+02  0.51100000000E-03 0. -1.
        -12    1    4    4    0    0  0.57264227400E+01 -0.13838802134E+02 -0.30674032874E+02  0.34135035589E+02  0.00000000000E+00 0.  1.
</event>
<event>
 8    1  0.4042158E-011  0.9118800E+02  0.7816164E-02  0.1184000E+00
        -11   -1    0    0    0    0  0.00000000000E+00  0.00000000000E+00  0.45593999997E+02  0.45594000000E+02  0.51100000000E-03 0. -1.
         11   -1    0    0    0    0 -0.00000000000E+00 -0.00000000000E+00 -0.45593999997E+02  0.45594000000E+02  0.51100000000E-03 0.  1.
         23    2    1    2    0    0  0.00000000000E+00  0.00000000000E+00  0.00000000000E+00  0.91188000000E+02  0.91188000000E+02 0.  0.
    9900012    2    3    3    0    0  0.18358255253E+02 -0.17038723629E+02 -0.35444043325E+02  0.47787264453E+02  0.19999969947E+02 0.  0.
         12    1    3    3    0    0 -0.18358255253E+02  0.17038723629E+02  0.35444043325E+02  0.43400735547E+02  0.00000000000E+00 0. -1.
         11    1    4    4    0    0 -0.28817729919E+01 -0.22830824081E+01 -0.15778879712E+01  0.40008513557E+01  0.51100000000E-03 0.  1.
        -11    1    4    4    0    0  0.39886989880E+01 -0.83828112746E+01 -0.98169064351E+01  0.13511213739E+02  0.51100000000E-03 0. -1.
        -12    1    4    4    0    0  0.17251329257E+02 -0.63728299460E+01 -0.24049248918E+02  0.30275199358E+02  0.00000000000E+00 0.  1.
</event>
<event>
 8    1  0.4042158E-011  0.9118800E+02  0.7816164E-02  0.1184000E+00
        -11   -1    0    0    0    0  0.00000000000E+00  0.00000000000E+00  0.45593999997E+02  0.45594000000E+02  0.51100000000E-03 0. -1.
         11   -1    0    0    0    0 -0.00000000000E+00 -0.00000000000E+00 -0.45593999997E+02  0.45594000000E+02  0.51100000000E-03 0.  1.
         23    2    1    2    0    0  0.00000000000E+00  0.00000000000E+00  0.00000000000E+00  0.91188000000E+02  0.91188000000E+02 0.  0.
    9900012    2    3    3    0    0  0.34998116552E+02  0.41628220564E+00  0.25662852534E+02  0.47787268978E+02  0.19999990579E+02 0.  0.
        -12    1    3    3    0    0 -0.34998116552E+02 -0.41628220564E+00 -0.25662852534E+02  0.43400731022E+02  0.00000000000E+00 0.  1.
         11    1    4    4    0    0  0.83683531964E+01  0.17850016418E+01  0.11483743211E+02  0.14321030845E+02  0.51100000000E-03 0. -1.
        -11    1    4    4    0    0  0.26262663768E+02 -0.48722913225E+01  0.11713164175E+02  0.29166160977E+02  0.51100000000E-03 0.  1.
         12    1    4    4    0    0  0.36709958762E+00  0.35035718864E+01  0.24659451482E+01  0.43000771556E+01  0.00000000000E+00 0. -1.
</event>
<event>
 8    1  0.4042158E-011  0.9118800E+02  0.7816164E-02  0.1184000E+00
        -11   -1    0    0    0    0  0.00000000000E+00  0.00000000000E+00  0.45593999997E+02  0.45594000000E+02  0.51100000000E-03 0. -1.
         11   -1    0    0    0    0 -0.00000000000E+00 -0.00000000000E+00 -0.45593999997E+02  0.45594000000E+02  0.51100000000E-03 0.  1.
         23    2    1    2    0    0  0.00000000000E+00  0.35527136788E-14 -0.17763568394E-14  0.91188000000E+02  0.91188000000E+02 0.  0.
    9900012    2    3    3    0    0 -0.36068148813E+02  0.20157208721E+02 -0.13281520992E+02  0.47787271641E+02  0.20000002721E+02 0.  0.
         12    1    3    3    0    0  0.36068148813E+02 -0.20157208721E+02  0.13281520992E+02  0.43400728359E+02  0.00000000000E+00 0. -1.
         11    1    4    4    0    0 -0.14463514392E+02  0.15795868251E+02 -0.94895478227E+01  0.23425503634E+02  0.51100000000E-03 0. -1.
        -11    1    4    4    0    0 -0.99733348991E+00  0.16412966293E+01 -0.29981953110E+01  0.35605763718E+01  0.51100000000E-03 0.  1.
        -12    1    4    4    0    0 -0.20607300931E+02  0.27200438401E+01 -0.79377785828E+00  0.20801191635E+02  0.00000000000E+00 0.  1.
</event>
<event>
 8    1  0.4042158E-011  0.9118800E+02  0.7816164E-02  0.1184000E+00
        -11   -1    0    0    0    0  0.00000000000E+00  0.00000000000E+00  0.45593999997E+02  0.45594000000E+02  0.51100000000E-03 0. -1.
         11   -1    0    0    0    0 -0.00000000000E+00 -0.00000000000E+00 -0.45593999997E+02  0.45594000000E+02  0.51100000000E-03 0.  1.
         23    2    1    2    0    0 -0.17763568394E-14  0.00000000000E+00  0.00000000000E+00  0.91188000000E+02  0.91188000000E+02 0.  0.
    9900012    2    3    3    0    0  0.15511787565E+02 -0.10862127338E+02 -0.39051531513E+02  0.47787268701E+02  0.19999989316E+02 0.  0.
         12    1    3    3    0    0 -0.15511787565E+02  0.10862127338E+02  0.39051531513E+02  0.43400731299E+02  0.00000000000E+00 0. -1.
         11    1    4    4    0    0  0.19038553598E+02 -0.98760201034E+01 -0.29244085619E+02  0.36265946012E+02  0.51100000000E-03 0. -1.
        -11    1    4    4    0    0 -0.52205850890E+00 -0.21463274640E+00  0.50191857510E+00  0.75533755347E+00  0.51100000000E-03 0.  1.
        -12    1    4    4    0    0 -0.30047075240E+01 -0.77147448840E+00 -0.10309364469E+02  0.10765985136E+02  0.00000000000E+00 0.  1.
</event>
<event>
 8    1  0.4042158E-011  0.9118800E+02  0.7816164E-02  0.1184000E+00
        -11   -1    0    0    0    0  0.00000000000E+00  0.00000000000E+00  0.45593999997E+02  0.45594000000E+02  0.51100000000E-03 0.  1.
         11   -1    0    0    0    0 -0.00000000000E+00 -0.00000000000E+00 -0.45593999997E+02  0.45594000000E+02  0.51100000000E-03 0. -1.
         23    2    1    2    0    0  0.00000000000E+00  0.00000000000E+00 -0.35527136788E-14  0.91188000000E+02  0.91188000000E+02 0.  0.
    9900012    2    3    3    0    0  0.23089918090E+02  0.22231222200E+02  0.29261802564E+02  0.47787255223E+02  0.19999927864E+02 0.  0.
        -12    1    3    3    0    0 -0.23089918090E+02 -0.22231222200E+02 -0.29261802564E+02  0.43400744777E+02  0.00000000000E+00 0.  1.
         11    1    4    4    0    0  0.98555500063E+01  0.19776184095E+02  0.18458852888E+02  0.28791640688E+02  0.51100000000E-03 0. -1.
        -11    1    4    4    0    0 -0.95803483171E+00 -0.56621327378E+00  0.83533083638E+00  0.13914762224E+01  0.51100000000E-03 0.  1.
         12    1    4    4    0    0  0.14192402916E+02  0.30212513786E+01  0.99676188393E+01  0.17604138313E+02  0.00000000000E+00 0. -1.
</event>
<event>
 8    1  0.4042158E-011  0.9118800E+02  0.7816164E-02  0.1184000E+00
        -11   -1    0    0    0    0  0.00000000000E+00  0.00000000000E+00  0.45593999997E+02  0.45594000000E+02  0.51100000000E-03 0. -1.
         11   -1    0    0    0    0 -0.00000000000E+00 -0.00000000000E+00 -0.45593999997E+02  0.45594000000E+02  0.51100000000E-03 0.  1.
         23    2    1    2    0    0  0.00000000000E+00  0.00000000000E+00  0.00000000000E+00  0.91188000000E+02  0.91188000000E+02 0.  0.
    9900012    2    3    3    0    0  0.26984435614E+02 -0.26473921239E+02  0.21321233680E+02  0.47787271011E+02  0.19999999847E+02 0.  0.
        -12    1    3    3    0    0 -0.26984435614E+02  0.26473921239E+02 -0.21321233680E+02  0.43400728989E+02  0.00000000000E+00 0.  1.
         11    1    4    4    0    0  0.18213676799E+01 -0.20676443814E+01  0.32626946425E+01  0.42705632070E+01  0.51100000000E-03 0. -1.
        -11    1    4    4    0    0  0.76536863833E+01  0.17033003766E+01  0.14917990158E+01  0.79815795424E+01  0.51100000000E-03 0.  1.
         12    1    4    4    0    0  0.17509381550E+02 -0.26109577234E+02  0.16566740021E+02  0.35535128262E+02  0.00000000000E+00 0. -1.
</event>
<event>
 8    1  0.4042158E-011  0.9118800E+02  0.7816164E-02  0.1184000E+00
        -11   -1    0    0    0    0  0.00000000000E+00  0.00000000000E+00  0.45593999997E+02  0.45594000000E+02  0.51100000000E-03 0. -1.
         11   -1    0    0    0    0 -0.00000000000E+00 -0.00000000000E+00 -0.45593999997E+02  0.45594000000E+02  0.51100000000E-03 0.  1.
         23    2    1    2    0    0  0.00000000000E+00  0.17763568394E-14  0.00000000000E+00  0.91188000000E+02  0.91188000000E+02 0.  0.
    9900012    2    3    3    0    0 -0.15583622786E+02 -0.12580352459E+02  0.38503363643E+02  0.47787267530E+02  0.19999983976E+02 0.  0.
        -12    1    3    3    0    0  0.15583622786E+02  0.12580352459E+02 -0.38503363643E+02  0.43400732470E+02  0.00000000000E+00 0.  1.
         11    1    4    4    0    0 -0.58274532009E+01 -0.73561286680E+01  0.12584813184E+02  0.15698705772E+02  0.51100000000E-03 0. -1.
        -11    1    4    4    0    0 -0.12825918713E+02 -0.59251596024E+01  0.14504941071E+02  0.20248580762E+02  0.51100000000E-03 0.  1.
         12    1    4    4    0    0  0.30697491277E+01  0.70093581108E+00  0.11413609388E+02  0.11839980996E+02  0.00000000000E+00 0. -1.
</event>
<event>
 8    1  0.4042158E-011  0.9118800E+02  0.7816164E-02  0.1184000E+00
        -11   -1    0    0    0    0  0.00000000000E+00  0.00000000000E+00  0.45593999997E+02  0.45594000000E+02  0.51100000000E-03 0. -1.
         11   -1    0    0    0    0 -0.00000000000E+00 -0.00000000000E+00 -0.45593999997E+02  0.45594000000E+02  0.51100000000E-03 0.  1.
         23    2    1    2    0    0  0.00000000000E+00  0.00000000000E+00  0.00000000000E+00  0.91188000000E+02  0.91188000000E+02 0.  0.
    9900012    2    3    3    0    0  0.26195641156E+02 -0.42118880257E+01 -0.34346344602E+02  0.47787274155E+02  0.20000014182E+02 0.  0.
         12    1    3    3    0    0 -0.26195641156E+02  0.42118880257E+01  0.34346344602E+02  0.43400725845E+02  0.00000000000E+00 0. -1.
         11    1    4    4    0    0  0.53707460957E+01 -0.57071619401E+01 -0.29755750513E+00  0.78425220283E+01  0.51100000000E-03 0. -1.
        -11    1    4    4    0    0  0.42295252588E+01  0.24667186264E+00 -0.64740373223E+01  0.77371112461E+01  0.51100000000E-03 0.  1.
         12    1    4    4    0    0  0.16595369802E+02  0.12486020517E+01 -0.27574749775E+02  0.32207640881E+02  0.00000000000E+00 0. -1.
</event>
<event>
 8    1  0.4042158E-011  0.9118800E+02  0.7816164E-02  0.1184000E+00
        -11   -1    0    0    0    0  0.00000000000E+00  0.00000000000E+00  0.45593999997E+02  0.45594000000E+02  0.51100000000E-03 0.  1.
         11   -1    0    0    0    0 -0.00000000000E+00 -0.00000000000E+00 -0.45593999997E+02  0.45594000000E+02  0.51100000000E-03 0. -1.
         23    2    1    2    0    0  0.00000000000E+00  0.00000000000E+00  0.35527136788E-14  0.91188000000E+02  0.91188000000E+02 0.  0.
    9900012    2    3    3    0    0 -0.11991180302E+02 -0.33988279665E+02  0.24179152660E+02  0.47787274395E+02  0.20000015278E+02 0.  0.
        -12    1    3    3    0    0  0.11991180302E+02  0.33988279665E+02 -0.24179152660E+02  0.43400725605E+02  0.00000000000E+00 0.  1.
         11    1    4    4    0    0 -0.37525835505E+01 -0.29175614634E+02  0.21667610648E+02  0.36534692062E+02  0.51100000000E-03 0. -1.
        -11    1    4    4    0    0 -0.92518137362E+00 -0.31753389520E+01 -0.11997038669E+00  0.33095515088E+01  0.51100000000E-03 0.  1.
         12    1    4    4    0    0 -0.73134153780E+01 -0.16373260791E+01  0.26315123985E+01  0.79430308248E+01  0.00000000000E+00 0. -1.
</event>
<event>
 8    1  0.4042158E-011  0.9118800E+02  0.7816164E-02  0.1184000E+00
        -11   -1    0    0    0    0  0.00000000000E+00  0.00000000000E+00  0.45593999997E+02  0.45594000000E+02  0.51100000000E-03 0. -1.
         11   -1    0    0    0    0 -0.00000000000E+00 -0.00000000000E+00 -0.45593999997E+02  0.45594000000E+02  0.51100000000E-03 0.  1.
         23    2    1    2    0    0  0.00000000000E+00  0.44408920985E-15  0.00000000000E+00  0.91188000000E+02  0.91188000000E+02 0.  0.
    9900012    2    3    3    0    0 -0.20652045847E+02  0.68108738780E+00 -0.38166113146E+02  0.47787273389E+02  0.20000010691E+02 0.  0.
         12    1    3    3    0    0  0.20652045847E+02 -0.68108738780E+00  0.38166113146E+02  0.43400726611E+02  0.00000000000E+00 0. -1.
         11    1    4    4    0    0 -0.10846460101E+02  0.23145756790E+01 -0.24684610912E+02  0.27061651344E+02  0.51100000000E-03 0. -1.
        -11    1    4    4    0    0 -0.94759208125E+01  0.51283289991E+00 -0.15225304152E+02  0.17940623167E+02  0.51100000000E-03 0.  1.
         12    1    4    4    0    0 -0.32966493299E+00 -0.21463211911E+01  0.17438019184E+01  0.27849988786E+01  0.00000000000E+00 0. -1.
</event>
<event>
 8    1  0.4042158E-011  0.9118800E+02  0.7816164E-02  0.1184000E+00
        -11   -1    0    0    0    0  0.00000000000E+00  0.00000000000E+00  0.45593999997E+02  0.45594000000E+02  0.51100000000E-03 0. -1.
         11   -1    0    0    0    0 -0.00000000000E+00 -0.00000000000E+00 -0.45593999997E+02  0.45594000000E+02  0.51100000000E-03 0.  1.
         23    2    1    2    0    0 -0.44408920985E-15 -0.35527136788E-14 -0.35527136788E-14  0.91188000000E+02  0.91188000000E+02 0.  0.
    9900012    2    3    3    0    0  0.34789585555E+01  0.30337522573E+02  0.30840794909E+02  0.47787273518E+02  0.20000011278E+02 0.  0.
        -12    1    3    3    0    0 -0.34789585555E+01 -0.30337522573E+02 -0.30840794909E+02  0.43400726482E+02  0.00000000000E+00 0.  1.
         11    1    4    4    0    0 -0.19393097099E+01  0.15713565614E+01  0.82533748170E+01  0.86225448520E+01  0.51100000000E-03 0. -1.
        -11    1    4    4    0    0  0.34614327921E+01  0.94586030711E+00  0.51369535702E+01  0.62661360453E+01  0.51100000000E-03 0.  1.
         12    1    4    4    0    0  0.19568354732E+01  0.27820305705E+02  0.17450466522E+02  0.32898592621E+02  0.00000000000E+00 0. -1.
</event>
<event>
 8    1  0.4042158E-011  0.9118800E+02  0.7816164E-02  0.1184000E+00
        -11   -1    0    0    0    0  0.00000000000E+00  0.00000000000E+00  0.45593999997E+02  0.45594000000E+02  0.51100000000E-03 0. -1.
         11   -1    0    0    0    0 -0.00000000000E+00 -0.00000000000E+00 -0.45593999997E+02  0.45594000000E+02  0.51100000000E-03 0.  1.
         23    2    1    2    0    0  0.00000000000E+00  0.88817841970E-15  0.71054273576E-14  0.91188000000E+02  0.91188000000E+02 0.  0.
    9900012    2    3    3    0    0 -0.27037651928E+02 -0.54776064875E+01 -0.33504993478E+02  0.47787269792E+02  0.19999994289E+02 0.  0.
         12    1    3    3    0    0  0.27037651928E+02  0.54776064875E+01  0.33504993478E+02  0.43400730208E+02  0.00000000000E+00 0. -1.
         11    1    4    4    0    0 -0.70678632923E+01  0.71771861021E+01 -0.73693140508E+01  0.12480924713E+02  0.51100000000E-03 0. -1.
        -11    1    4    4    0    0 -0.63680629162E+01 -0.45052585289E+01 -0.10014511194E+02  0.12694093683E+02  0.51100000000E-03 0.  1.
         12    1    4    4    0    0 -0.13601725720E+02 -0.81495340607E+01 -0.16121168233E+02  0.22612251395E+02  0.00000000000E+00 0. -1.
</event>
<event>
 8    1  0.4042158E-011  0.9118800E+02  0.7816164E-02  0.1184000E+00
        -11   -1    0    0    0    0  0.00000000000E+00  0.00000000000E+00  0.45593999997E+02  0.45594000000E+02  0.51100000000E-03 0. -1.
         11   -1    0    0    0    0 -0.00000000000E+00 -0.00000000000E+00 -0.45593999997E+02  0.45594000000E+02  0.51100000000E-03 0.  1.
         23    2    1    2    0    0 -0.13322676296E-14 -0.88817841970E-15 -0.71054273576E-14  0.91188000000E+02  0.91188000000E+02 0.  0.
    9900012    2    3    3    0    0  0.23430887565E+01  0.43700882374E+01 -0.43116535713E+02  0.47787269730E+02  0.19999994006E+02 0.  0.
         12    1    3    3    0    0 -0.23430887565E+01 -0.43700882374E+01  0.43116535713E+02  0.43400730270E+02  0.00000000000E+00 0. -1.
         11    1    4    4    0    0  0.69011635517E+01 -0.49292311038E+00 -0.57735904950E+01  0.90112917513E+01  0.51100000000E-03 0. -1.
        -11    1    4    4    0    0  0.19570679249E+01  0.29334927879E+01 -0.15713915111E+02  0.16104739153E+02  0.51100000000E-03 0.  1.
         12    1    4    4    0    0 -0.65151427201E+01  0.19295185599E+01 -0.21629030107E+02  0.22671238826E+02  0.00000000000E+00 0. -1.
</event>
<event>
 8    1  0.4042158E-011  0.9118800E+02  0.7816164E-02  0.1184000E+00
        -11   -1    0    0    0    0  0.00000000000E+00  0.00000000000E+00  0.45593999997E+02  0.45594000000E+02  0.51100000000E-03 0. -1.
         11   -1    0    0    0    0 -0.00000000000E+00 -0.00000000000E+00 -0.45593999997E+02  0.45594000000E+02  0.51100000000E-03 0.  1.
         23    2    1    2    0    0  0.44408920985E-15  0.17763568394E-14  0.00000000000E+00  0.91188000000E+02  0.91188000000E+02 0.  0.
    9900012    2    3    3    0    0  0.16439235230E+01  0.10613369352E+02 -0.42050889446E+02  0.47787269629E+02  0.19999993545E+02 0.  0.
         12    1    3    3    0    0 -0.16439235230E+01 -0.10613369352E+02  0.42050889446E+02  0.43400730371E+02  0.00000000000E+00 0. -1.
         11    1    4    4    0    0  0.39081281644E+01  0.76636809777E+00 -0.32009670150E+01  0.51094985960E+01  0.51100000000E-03 0. -1.
        -11    1    4    4    0    0 -0.86863157326E+00 -0.23225223899E+01 -0.65210606098E+00  0.25639566372E+01  0.51100000000E-03 0.  1.
        -12    1    4    4    0    0 -0.13955730681E+01  0.12169523644E+02 -0.38197816370E+02  0.40113814396E+02  0.00000000000E+00 0.  1.
</event>
<event>
 8    1  0.4042158E-011  0.9118800E+02  0.7816164E-02  0.1184000E+00
        -11   -1    0    0    0    0  0.00000000000E+00  0.00000000000E+00  0.45593999997E+02  0.45594000000E+02  0.51100000000E-03 0. -1.
         11   -1    0    0    0    0 -0.00000000000E+00 -0.00000000000E+00 -0.45593999997E+02  0.45594000000E+02  0.51100000000E-03 0.  1.
         23    2    1    2    0    0  0.88817841970E-15 -0.35527136788E-14  0.71054273576E-14  0.91188000000E+02  0.91188000000E+02 0.  0.
    9900012    2    3    3    0    0 -0.47304903460E+01  0.24481906920E+02 -0.35522979754E+02  0.47787269638E+02  0.19999993589E+02 0.  0.
         12    1    3    3    0    0  0.47304903460E+01 -0.24481906920E+02  0.35522979754E+02  0.43400730362E+02  0.00000000000E+00 0. -1.
         11    1    4    4    0    0 -0.29351944980E+01  0.46140187651E+01 -0.88068010569E+00  0.55389650311E+01  0.51100000000E-03 0. -1.
        -11    1    4    4    0    0 -0.13337580739E+01  0.82547599257E+01 -0.27178596034E+02  0.28435823439E+02  0.51100000000E-03 0.  1.
        -12    1    4    4    0    0 -0.46153777408E+00  0.11613128229E+02 -0.74637036142E+01  0.13812481168E+02  0.00000000000E+00 0.  1.
</event>
<event>
 8    1  0.4042158E-011  0.9118800E+02  0.7816164E-02  0.1184000E+00
        -11   -1    0    0    0    0  0.00000000000E+00  0.00000000000E+00  0.45593999997E+02  0.45594000000E+02  0.51100000000E-03 0.  1.
         11   -1    0    0    0    0 -0.00000000000E+00 -0.00000000000E+00 -0.45593999997E+02  0.45594000000E+02  0.51100000000E-03 0. -1.
         23    2    1    2    0    0 -0.71054273576E-14  0.44408920985E-15 -0.35527136788E-14  0.91188000000E+02  0.91188000000E+02 0.  0.
    9900012    2    3    3    0    0 -0.34107524055E+02  0.16927437738E+01 -0.26784969885E+02  0.47787272006E+02  0.20000004386E+02 0.  0.
         12    1    3    3    0    0  0.34107524055E+02 -0.16927437738E+01  0.26784969885E+02  0.43400727994E+02  0.00000000000E+00 0. -1.
         11    1    4    4    0    0  0.88175154347E+00  0.23199229770E+01 -0.22501921579E+01  0.33500587177E+01  0.51100000000E-03 0. -1.
        -11    1    4    4    0    0 -0.96590619473E+01 -0.18330916935E+01 -0.10732105196E+01  0.98898677412E+01  0.51100000000E-03 0.  1.
         12    1    4    4    0    0 -0.25330213651E+02  0.12059124904E+01 -0.23461567207E+02  0.34547345547E+02  0.00000000000E+00 0. -1.
</event>
<event>
 8    1  0.4042158E-011  0.9118800E+02  0.7816164E-02  0.1184000E+00
        -11   -1    0    0    0    0  0.00000000000E+00  0.00000000000E+00  0.45593999997E+02  0.45594000000E+02  0.51100000000E-03 0. -1.
         11   -1    0    0    0    0 -0.00000000000E+00 -0.00000000000E+00 -0.45593999997E+02  0.45594000000E+02  0.51100000000E-03 0.  1.
         23    2    1    2    0    0  0.35527136788E-14  0.00000000000E+00 -0.71054273576E-14  0.91188000000E+02  0.91188000000E+02 0.  0.
    9900012    2    3    3    0    0 -0.17768461474E+02  0.25272170427E+02  0.30483151498E+02  0.47787270208E+02  0.19999996184E+02 0.  0.
        -12    1    3    3    0    0  0.17768461474E+02 -0.25272170427E+02 -0.30483151498E+02  0.43400729792E+02  0.00000000000E+00 0.  1.
         11    1    4    4    0    0 -0.55541422062E+01  0.12076612470E+02  0.15720985589E+02  0.20587434336E+02  0.51100000000E-03 0. -1.
        -11    1    4    4    0    0  0.28177936212E+01  0.81215403309E-01  0.26068995265E+01  0.38395940197E+01  0.51100000000E-03 0.  1.
        -12    1    4    4    0    0 -0.15032112889E+02  0.13114342554E+02  0.12155266382E+02  0.23360241852E+02  0.00000000000E+00 0.  1.
</event>
<event>
 8    1  0.4042158E-011  0.9118800E+02  0.7816164E-02  0.1184000E+00
        -11   -1    0    0    0    0  0.00000000000E+00  0.00000000000E+00  0.45593999997E+02  0.45594000000E+02  0.51100000000E-03 0. -1.
         11   -1    0    0    0    0 -0.00000000000E+00 -0.00000000000E+00 -0.45593999997E+02  0.45594000000E+02  0.51100000000E-03 0.  1.
         23    2    1    2    0    0  0.35527136788E-14  0.00000000000E+00 -0.71054273576E-14  0.91188000000E+02  0.91188000000E+02 0.  0.
    9900012    2    3    3    0    0  0.18159934760E+02 -0.13131024940E+02 -0.37167413075E+02  0.47787266813E+02  0.19999980708E+02 0.  0.
         12    1    3    3    0    0 -0.18159934760E+02  0.13131024940E+02  0.37167413075E+02  0.43400733187E+02  0.00000000000E+00 0. -1.
         11    1    4    4    0    0  0.71390463280E+01 -0.68071006307E+01 -0.22035761705E+02  0.24142853925E+02  0.51100000000E-03 0. -1.
        -11    1    4    4    0    0  0.11934134067E+01 -0.22586676112E+00 -0.11439316901E+02  0.11503617813E+02  0.51100000000E-03 0.  1.
         12    1    4    4    0    0  0.98274750249E+01 -0.60980575484E+01 -0.36923344691E+01  0.12140795075E+02  0.00000000000E+00 0. -1.
</event>
<event>
 8    1  0.4042158E-011  0.9118800E+02  0.7816164E-02  0.1184000E+00
        -11   -1    0    0    0    0  0.00000000000E+00  0.00000000000E+00  0.45593999997E+02  0.45594000000E+02  0.51100000000E-03 0. -1.
         11   -1    0    0    0    0 -0.00000000000E+00 -0.00000000000E+00 -0.45593999997E+02  0.45594000000E+02  0.51100000000E-03 0.  1.
         23    2    1    2    0    0  0.00000000000E+00  0.17763568394E-14  0.00000000000E+00  0.91188000000E+02  0.91188000000E+02 0.  0.
    9900012    2    3    3    0    0 -0.22119631890E+02  0.96163562219E+01  0.36081406845E+02  0.47787304823E+02  0.20000154008E+02 0.  0.
        -12    1    3    3    0    0  0.22119631890E+02 -0.96163562219E+01 -0.36081406845E+02  0.43400695177E+02  0.00000000000E+00 0.  1.
         11    1    4    4    0    0 -0.87337471101E+01  0.16542583194E+01  0.61907232376E+01  0.10832357252E+02  0.51100000000E-03 0. -1.
        -11    1    4    4    0    0 -0.78387294565E+01  0.14781516595E+01  0.26444850266E+01  0.84038034923E+01  0.51100000000E-03 0.  1.
         12    1    4    4    0    0 -0.55471553235E+01  0.64839462431E+01  0.27246198581E+02  0.28551144078E+02  0.00000000000E+00 0. -1.
</event>
<event>
 8    1  0.4042158E-011  0.9118800E+02  0.7816164E-02  0.1184000E+00
        -11   -1    0    0    0    0  0.00000000000E+00  0.00000000000E+00  0.45593999997E+02  0.45594000000E+02  0.51100000000E-03 0. -1.
         11   -1    0    0    0    0 -0.00000000000E+00 -0.00000000000E+00 -0.45593999997E+02  0.45594000000E+02  0.51100000000E-03 0.  1.
         23    2    1    2    0    0  0.00000000000E+00  0.88817841970E-15  0.00000000000E+00  0.91188000000E+02  0.91188000000E+02 0.  0.
    9900012    2    3    3    0    0  0.25348984677E+02 -0.57790469440E+01  0.34751331776E+02  0.47787268808E+02  0.19999989804E+02 0.  0.
        -12    1    3    3    0    0 -0.25348984677E+02  0.57790469440E+01 -0.34751331776E+02  0.43400731192E+02  0.00000000000E+00 0.  1.
         11    1    4    4    0    0  0.59147958195E+01  0.13193422794E+01  0.96124766628E+01  0.11363326163E+02  0.51100000000E-03 0. -1.
        -11    1    4    4    0    0  0.19894111371E+02 -0.10037535665E+02  0.17848252387E+02  0.28549744359E+02  0.51100000000E-03 0.  1.
        -12    1    4    4    0    0 -0.45992251313E+00  0.29391464416E+01  0.72906027266E+01  0.78741982856E+01  0.00000000000E+00 0.  1.
</event>
<event>
 8    1  0.4042158E-011  0.9118800E+02  0.7816164E-02  0.1184000E+00
        -11   -1    0    0    0    0  0.00000000000E+00  0.00000000000E+00  0.45593999997E+02  0.45594000000E+02  0.51100000000E-03 0. -1.
         11   -1    0    0    0    0 -0.00000000000E+00 -0.00000000000E+00 -0.45593999997E+02  0.45594000000E+02  0.51100000000E-03 0.  1.
         23    2    1    2    0    0  0.00000000000E+00  0.00000000000E+00  0.00000000000E+00  0.91188000000E+02  0.91188000000E+02 0.  0.
    9900012    2    3    3    0    0  0.36199997635E+02  0.45971234794E+01 -0.23495746841E+02  0.47787268523E+02  0.19999988505E+02 0.  0.
         12    1    3    3    0    0 -0.36199997635E+02 -0.45971234794E+01  0.23495746841E+02  0.43400731477E+02  0.00000000000E+00 0. -1.
         11    1    4    4    0    0  0.70893322387E+01 -0.77449424303E+00  0.96277138820E+00  0.71962074685E+01  0.51100000000E-03 0. -1.
        -11    1    4    4    0    0  0.26218989176E+02  0.47817062985E+01 -0.14785913168E+02  0.30478243666E+02  0.51100000000E-03 0.  1.
         12    1    4    4    0    0  0.28916762211E+01  0.58991142390E+00 -0.96726050614E+01  0.10112817388E+02  0.00000000000E+00 0. -1.
</event>
<event>
 8    1  0.4042158E-011  0.9118800E+02  0.7816164E-02  0.1184000E+00
        -11   -1    0    0    0    0  0.00000000000E+00  0.00000000000E+00  0.45593999997E+02  0.45594000000E+02  0.51100000000E-03 0. -1.
         11   -1    0    0    0    0 -0.00000000000E+00 -0.00000000000E+00 -0.45593999997E+02  0.45594000000E+02  0.51100000000E-03 0.  1.
         23    2    1    2    0    0 -0.35527136788E-14  0.17763568394E-14  0.00000000000E+00  0.91188000000E+02  0.91188000000E+02 0.  0.
    9900012    2    3    3    0    0  0.18398456535E+02 -0.10687135472E+02 -0.37827308089E+02  0.47787270689E+02  0.19999998379E+02 0.  0.
         12    1    3    3    0    0 -0.18398456535E+02  0.10687135472E+02  0.37827308089E+02  0.43400729311E+02  0.00000000000E+00 0. -1.
         11    1    4    4    0    0  0.62760875717E-02  0.24964124372E+01  0.12468090299E+00  0.24995319631E+01  0.51100000000E-03 0. -1.
        -11    1    4    4    0    0  0.19214790093E+01  0.11127827748E+01 -0.75642147518E+01  0.78833820254E+01  0.51100000000E-03 0.  1.
        -12    1    4    4    0    0  0.16470701438E+02 -0.14296330684E+02 -0.30387774241E+02  0.37404356700E+02  0.00000000000E+00 0.  1.
</event>
<event>
 8    1  0.4042158E-011  0.9118800E+02  0.7816164E-02  0.1184000E+00
        -11   -1    0    0    0    0  0.00000000000E+00  0.00000000000E+00  0.45593999997E+02  0.45594000000E+02  0.51100000000E-03 0. -1.
         11   -1    0    0    0    0 -0.00000000000E+00 -0.00000000000E+00 -0.45593999997E+02  0.45594000000E+02  0.51100000000E-03 0.  1.
         23    2    1    2    0    0  0.44408920985E-15  0.00000000000E+00  0.35527136788E-14  0.91188000000E+02  0.91188000000E+02 0.  0.
    9900012    2    3    3    0    0  0.28727384137E+01  0.39574571594E+02  0.17584756636E+02  0.47787274098E+02  0.20000013923E+02 0.  0.
        -12    1    3    3    0    0 -0.28727384137E+01 -0.39574571594E+02 -0.17584756636E+02  0.43400725902E+02  0.00000000000E+00 0.  1.
         11    1    4    4    0    0  0.61341190444E+01  0.72966015773E+01  0.23542816756E+01  0.98188824974E+01  0.51100000000E-03 0. -1.
        -11    1    4    4    0    0  0.35125728246E+01  0.21237474339E+02  0.70615777404E+01  0.22654676440E+02  0.51100000000E-03 0.  1.
         12    1    4    4    0    0 -0.67739534554E+01  0.11040495678E+02  0.81688972201E+01  0.15313715161E+02  0.00000000000E+00 0. -1.
</event>
<event>
 8    1  0.4205572E-011  0.9118800E+02  0.7816164E-02  0.1184000E+00
        -11   -1    0    0    0    0  0.00000000000E+00  0.00000000000E+00  0.45593999997E+02  0.45594000000E+02  0.51100000000E-03 0. -1.
         11   -1    0    0    0    0 -0.00000000000E+00 -0.00000000000E+00 -0.45593999997E+02  0.45594000000E+02  0.51100000000E-03 0.  1.
         23    2    1    2    0    0 -0.71054273576E-14  0.17763568394E-14 -0.35527136788E-14  0.91188000000E+02  0.91188000000E+02 0.  0.
    9900012    2    3    3    0    0  0.35312292845E+02 -0.84847699830E+01  0.23762865928E+02  0.47787272532E+02  0.20000006783E+02 0.  0.
        -12    1    3    3    0    0 -0.35312292845E+02  0.84847699830E+01 -0.23762865928E+02  0.43400727468E+02  0.00000000000E+00 0.  1.
         11    1    4    4    0    0  0.20149194199E+02 -0.59230824091E+01  0.14827960600E+02  0.25708779588E+02  0.51100000000E-03 0. -1.
        -11    1    4    4    0    0  0.13776505329E+02  0.32193327704E+01  0.52854369974E+01  0.15102716547E+02  0.51100000000E-03 0.  1.
        -12    1    4    4    0    0  0.13865933166E+01 -0.57810203444E+01  0.36494683308E+01  0.69757763973E+01  0.00000000000E+00 0.  1.
</event>
<event>
 8    1  0.4042158E-011  0.9118800E+02  0.7816164E-02  0.1184000E+00
        -11   -1    0    0    0    0  0.00000000000E+00  0.00000000000E+00  0.45593999997E+02  0.45594000000E+02  0.51100000000E-03 0. -1.
         11   -1    0    0    0    0 -0.00000000000E+00 -0.00000000000E+00 -0.45593999997E+02  0.45594000000E+02  0.51100000000E-03 0.  1.
         23    2    1    2    0    0 -0.17763568394E-14  0.00000000000E+00  0.00000000000E+00  0.91188000000E+02  0.91188000000E+02 0.  0.
    9900012    2    3    3    0    0  0.14467971429E+02 -0.15917986517E+02  0.37695077679E+02  0.47787269900E+02  0.19999994781E+02 0.  0.
        -12    1    3    3    0    0 -0.14467971429E+02  0.15917986517E+02 -0.37695077679E+02  0.43400730100E+02  0.00000000000E+00 0.  1.
         11    1    4    4    0    0  0.73792629303E+01 -0.60150546148E+01  0.32870754055E+02  0.34221643382E+02  0.51100000000E-03 0. -1.
        -11    1    4    4    0    0  0.13272651436E+01 -0.13071309241E+00  0.55839061130E+00  0.14458627216E+01  0.51100000000E-03 0.  1.
        -12    1    4    4    0    0  0.57614433546E+01 -0.97722188095E+01  0.42659330133E+01  0.12119763796E+02  0.00000000000E+00 0.  1.
</event>
<event>
 8    1  0.4042158E-011  0.9118800E+02  0.7816164E-02  0.1184000E+00
        -11   -1    0    0    0    0  0.00000000000E+00  0.00000000000E+00  0.45593999997E+02  0.45594000000E+02  0.51100000000E-03 0. -1.
         11   -1    0    0    0    0 -0.00000000000E+00 -0.00000000000E+00 -0.45593999997E+02  0.45594000000E+02  0.51100000000E-03 0.  1.
         23    2    1    2    0    0  0.17763568394E-14  0.00000000000E+00  0.00000000000E+00  0.91188000000E+02  0.91188000000E+02 0.  0.
    9900012    2    3    3    0    0  0.15119630959E+02 -0.39060277888E+01  0.40493982886E+02  0.47787274852E+02  0.20000017359E+02 0.  0.
        -12    1    3    3    0    0 -0.15119630959E+02  0.39060277888E+01 -0.40493982886E+02  0.43400725148E+02  0.00000000000E+00 0.  1.
         11    1    4    4    0    0  0.93790343491E+01 -0.43774046027E+01  0.12887122240E+02  0.16528940567E+02  0.51100000000E-03 0. -1.
        -11    1    4    4    0    0  0.89525770322E+00 -0.61958163039E+01  0.96837915429E+01  0.11531064345E+02  0.51100000000E-03 0.  1.
         12    1    4    4    0    0  0.48453389068E+01  0.66671931179E+01  0.17923069103E+02  0.19727269939E+02  0.00000000000E+00 0. -1.
</event>
<event>
 8    1  0.4042158E-011  0.9118800E+02  0.7816164E-02  0.1184000E+00
        -11   -1    0    0    0    0  0.00000000000E+00  0.00000000000E+00  0.45593999997E+02  0.45594000000E+02  0.51100000000E-03 0.  1.
         11   -1    0    0    0    0 -0.00000000000E+00 -0.00000000000E+00 -0.45593999997E+02  0.45594000000E+02  0.51100000000E-03 0. -1.
         23    2    1    2    0    0 -0.35527136788E-14  0.35527136788E-14  0.17763568394E-14  0.91188000000E+02  0.91188000000E+02 0.  0.
    9900012    2    3    3    0    0  0.31489266392E+02 -0.29529647617E+02 -0.44776437423E+01  0.47787270976E+02  0.19999999690E+02 0.  0.
         12    1    3    3    0    0 -0.31489266392E+02  0.29529647617E+02  0.44776437423E+01  0.43400729024E+02  0.00000000000E+00 0. -1.
         11    1    4    4    0    0  0.27554859963E+01 -0.20226577415E+01 -0.20156555688E+01  0.39682130800E+01  0.51100000000E-03 0. -1.
        -11    1    4    4    0    0  0.12009130865E+02 -0.88229656743E+01 -0.96251480446E+01  0.17739994999E+02  0.51100000000E-03 0.  1.
         12    1    4    4    0    0  0.16724649531E+02 -0.18684024201E+02  0.71631598711E+01  0.26079062898E+02  0.00000000000E+00 0. -1.
</event>
<event>
 8    1  0.4609030E-011  0.9118800E+02  0.7816164E-02  0.1184000E+00
        -11   -1    0    0    0    0  0.00000000000E+00  0.00000000000E+00  0.45593999997E+02  0.45594000000E+02  0.51100000000E-03 0. -1.
         11   -1    0    0    0    0 -0.00000000000E+00 -0.00000000000E+00 -0.45593999997E+02  0.45594000000E+02  0.51100000000E-03 0.  1.
         23    2    1    2    0    0  0.71054273576E-14  0.00000000000E+00  0.35527136788E-14  0.91188000000E+02  0.91188000000E+02 0.  0.
    9900012    2    3    3    0    0  0.35510998208E+02 -0.22365429916E+02  0.11062567466E+02  0.47787264431E+02  0.19999969845E+02 0.  0.
        -12    1    3    3    0    0 -0.35510998208E+02  0.22365429916E+02 -0.11062567466E+02  0.43400735569E+02  0.00000000000E+00 0.  1.
         11    1    4    4    0    0  0.18690342754E+02 -0.86709565216E+01  0.77618493081E+01  0.22017281944E+02  0.51100000000E-03 0. -1.
        -11    1    4    4    0    0  0.12145470085E+02 -0.66359547424E+01  0.81017600047E+01  0.16037046311E+02  0.51100000000E-03 0.  1.
        -12    1    4    4    0    0  0.46751853688E+01 -0.70585186517E+01 -0.48010418471E+01  0.97329361760E+01  0.00000000000E+00 0.  1.
</event>
<event>
 8    1  0.4042158E-011  0.9118800E+02  0.7816164E-02  0.1184000E+00
        -11   -1    0    0    0    0  0.00000000000E+00  0.00000000000E+00  0.45593999997E+02  0.45594000000E+02  0.51100000000E-03 0. -1.
         11   -1    0    0    0    0 -0.00000000000E+00 -0.00000000000E+00 -0.45593999997E+02  0.45594000000E+02  0.51100000000E-03 0.  1.
         23    2    1    2    0    0  0.00000000000E+00  0.44408920985E-15  0.00000000000E+00  0.91188000000E+02  0.91188000000E+02 0.  0.
    9900012    2    3    3    0    0  0.27080777016E+02  0.21832533054E+01  0.33844991914E+02  0.47787325391E+02  0.20000247788E+02 0.  0.
        -12    1    3    3    0    0 -0.27080777016E+02 -0.21832533054E+01 -0.33844991914E+02  0.43400674609E+02  0.00000000000E+00 0.  1.
         11    1    4    4    0    0  0.81677695936E+01 -0.33606390398E+01  0.18716189862E+02  0.20695461292E+02  0.51100000000E-03 0. -1.
        -11    1    4    4    0    0  0.11246344701E+02 -0.23290913807E+01  0.77525383713E+01  0.13856651372E+02  0.51100000000E-03 0.  1.
        -12    1    4    4    0    0  0.76666627214E+01  0.78729837260E+01  0.73762636814E+01  0.13235212727E+02  0.00000000000E+00 0.  1.
</event>
<event>
 8    1  0.4042158E-011  0.9118800E+02  0.7816164E-02  0.1184000E+00
        -11   -1    0    0    0    0  0.00000000000E+00  0.00000000000E+00  0.45593999997E+02  0.45594000000E+02  0.51100000000E-03 0. -1.
         11   -1    0    0    0    0 -0.00000000000E+00 -0.00000000000E+00 -0.45593999997E+02  0.45594000000E+02  0.51100000000E-03 0.  1.
         23    2    1    2    0    0  0.00000000000E+00  0.00000000000E+00 -0.88817841970E-15  0.91188000000E+02  0.91188000000E+02 0.  0.
    9900012    2    3    3    0    0  0.53799550247E+01 -0.42530805970E+02 -0.67683165791E+01  0.47787268648E+02  0.19999989076E+02 0.  0.
         12    1    3    3    0    0 -0.53799550247E+01  0.42530805970E+02  0.67683165791E+01  0.43400731352E+02  0.00000000000E+00 0. -1.
         11    1    4    4    0    0  0.47697050414E+00  0.73864497975E+00  0.23249117242E+00  0.90947769313E+00  0.51100000000E-03 0. -1.
        -11    1    4    4    0    0  0.12558424642E+01  0.39324388572E+00 -0.25092836022E+01  0.28334229310E+01  0.51100000000E-03 0.  1.
         12    1    4    4    0    0  0.36471420563E+01 -0.43662694836E+02 -0.44915241493E+01  0.44044368024E+02  0.00000000000E+00 0. -1.
</event>
<event>
 8    1  0.4042158E-011  0.9118800E+02  0.7816164E-02  0.1184000E+00
        -11   -1    0    0    0    0  0.00000000000E+00  0.00000000000E+00  0.45593999997E+02  0.45594000000E+02  0.51100000000E-03 0. -1.
         11   -1    0    0    0    0 -0.00000000000E+00 -0.00000000000E+00 -0.45593999997E+02  0.45594000000E+02  0.51100000000E-03 0.  1.
         23    2    1    2    0    0 -0.11102230246E-14  0.00000000000E+00  0.00000000000E+00  0.91188000000E+02  0.91188000000E+02 0.  0.
    9900012    2    3    3    0    0 -0.10381064184E+01 -0.93786769795E+01 -0.42362577386E+02  0.47787248744E+02  0.19999898321E+02 0.  0.
         12    1    3    3    0    0  0.10381064184E+01  0.93786769795E+01  0.42362577386E+02  0.43400751256E+02  0.00000000000E+00 0. -1.
         11    1    4    4    0    0 -0.31943041406E+01  0.13857645778E+01 -0.54582031062E+01  0.64742492860E+01  0.51100000000E-03 0. -1.
        -11    1    4    4    0    0 -0.41228954358E+00 -0.41558037221E+01 -0.47854168579E+00  0.42035329963E+01  0.51100000000E-03 0.  1.
        -12    1    4    4    0    0  0.25684872658E+01 -0.66086378351E+01 -0.36425832594E+02  0.37109466461E+02  0.00000000000E+00 0.  1.
</event>
<event>
 8    1  0.4042158E-011  0.9118800E+02  0.7816164E-02  0.1184000E+00
        -11   -1    0    0    0    0  0.00000000000E+00  0.00000000000E+00  0.45593999997E+02  0.45594000000E+02  0.51100000000E-03 0. -1.
         11   -1    0    0    0    0 -0.00000000000E+00 -0.00000000000E+00 -0.45593999997E+02  0.45594000000E+02  0.51100000000E-03 0.  1.
         23    2    1    2    0    0  0.00000000000E+00  0.00000000000E+00  0.00000000000E+00  0.91188000000E+02  0.91188000000E+02 0.  0.
    9900012    2    3    3    0    0 -0.86991184599E+01 -0.37495763136E+02 -0.20050370208E+02  0.47787259677E+02  0.19999948170E+02 0.  0.
         12    1    3    3    0    0  0.86991184599E+01  0.37495763136E+02  0.20050370208E+02  0.43400740323E+02  0.00000000000E+00 0. -1.
         11    1    4    4    0    0  0.49925280768E-01 -0.24517483088E+01  0.84165624639E+00  0.25926719425E+01  0.51100000000E-03 0. -1.
        -11    1    4    4    0    0  0.49049635991E+01 -0.15292599729E+02 -0.80442526530E+01  0.17961967469E+02  0.51100000000E-03 0.  1.
         12    1    4    4    0    0 -0.13654007340E+02 -0.19751415098E+02 -0.12847773802E+02  0.27232620265E+02  0.00000000000E+00 0. -1.
</event>
<event>
 8    1  0.4042158E-011  0.9118800E+02  0.7816164E-02  0.1184000E+00
        -11   -1    0    0    0    0  0.00000000000E+00  0.00000000000E+00  0.45593999997E+02  0.45594000000E+02  0.51100000000E-03 0. -1.
         11   -1    0    0    0    0 -0.00000000000E+00 -0.00000000000E+00 -0.45593999997E+02  0.45594000000E+02  0.51100000000E-03 0.  1.
         23    2    1    2    0    0  0.00000000000E+00 -0.17763568394E-14  0.00000000000E+00  0.91188000000E+02  0.91188000000E+02 0.  0.
    9900012    2    3    3    0    0  0.41158146572E+01 -0.42582082978E+01 -0.42994779933E+02  0.47787269941E+02  0.19999994969E+02 0.  0.
         12    1    3    3    0    0 -0.41158146572E+01  0.42582082978E+01  0.42994779933E+02  0.43400730059E+02  0.00000000000E+00 0. -1.
         11    1    4    4    0    0  0.11104162822E+01 -0.63050872725E+01 -0.88439245092E+01  0.10917973751E+02  0.51100000000E-03 0. -1.
        -11    1    4    4    0    0  0.63794934929E+01 -0.34036911865E+01 -0.14564922408E+02  0.16260996769E+02  0.51100000000E-03 0.  1.
        -12    1    4    4    0    0 -0.33740951179E+01  0.54505701612E+01 -0.19585933016E+02  0.20608299421E+02  0.00000000000E+00 0.  1.
</event>
<event>
 8    1  0.4042158E-011  0.9118800E+02  0.7816164E-02  0.1184000E+00
        -11   -1    0    0    0    0  0.00000000000E+00  0.00000000000E+00  0.45593999997E+02  0.45594000000E+02  0.51100000000E-03 0. -1.
         11   -1    0    0    0    0 -0.00000000000E+00 -0.00000000000E+00 -0.45593999997E+02  0.45594000000E+02  0.51100000000E-03 0.  1.
         23    2    1    2    0    0  0.00000000000E+00 -0.35527136788E-14 -0.71054273576E-14  0.91188000000E+02  0.91188000000E+02 0.  0.
    9900012    2    3    3    0    0  0.21753279250E+01  0.17832961414E+02  0.39507935744E+02  0.47787267851E+02  0.19999985439E+02 0.  0.
        -12    1    3    3    0    0 -0.21753279250E+01 -0.17832961414E+02 -0.39507935744E+02  0.43400732149E+02  0.00000000000E+00 0.  1.
         11    1    4    4    0    0  0.21912562424E+01  0.12298360126E+02  0.19061442676E+02  0.22790126433E+02  0.51100000000E-03 0. -1.
        -11    1    4    4    0    0 -0.35152922988E+01  0.58660251570E+01  0.34853929288E+01  0.76756429840E+01  0.51100000000E-03 0.  1.
        -12    1    4    4    0    0  0.34993639813E+01 -0.33142386882E+00  0.16961100139E+02  0.17321498433E+02  0.00000000000E+00 0.  1.
</event>
<event>
 8    1  0.4042158E-011  0.9118800E+02  0.7816164E-02  0.1184000E+00
        -11   -1    0    0    0    0  0.00000000000E+00  0.00000000000E+00  0.45593999997E+02  0.45594000000E+02  0.51100000000E-03 0. -1.
         11   -1    0    0    0    0 -0.00000000000E+00 -0.00000000000E+00 -0.45593999997E+02  0.45594000000E+02  0.51100000000E-03 0.  1.
         23    2    1    2    0    0  0.00000000000E+00 -0.83266726847E-16  0.00000000000E+00  0.91188000000E+02  0.91188000000E+02 0.  0.
    9900012    2    3    3    0    0  0.58154065678E+01 -0.11200863324E+00  0.43009200434E+02  0.47787276256E+02  0.20000023763E+02 0.  0.
        -12    1    3    3    0    0 -0.58154065678E+01  0.11200863324E+00 -0.43009200434E+02  0.43400723744E+02  0.00000000000E+00 0.  1.
         11    1    4    4    0    0  0.81016266734E+00  0.29860318166E+01  0.20608789783E+02  0.20839744868E+02  0.51100000000E-03 0. -1.
        -11    1    4    4    0    0 -0.31559293117E+01 -0.42648744370E+01  0.14846201769E+02  0.15765746130E+02  0.51100000000E-03 0.  1.
         12    1    4    4    0    0  0.81611732122E+01  0.11668339871E+01  0.75542088813E+01  0.11181785259E+02  0.00000000000E+00 0. -1.
</event>
<event>
 8    1  0.4042158E-011  0.9118800E+02  0.7816164E-02  0.1184000E+00
        -11   -1    0    0    0    0  0.00000000000E+00  0.00000000000E+00  0.45593999997E+02  0.45594000000E+02  0.51100000000E-03 0. -1.
         11   -1    0    0    0    0 -0.00000000000E+00 -0.00000000000E+00 -0.45593999997E+02  0.45594000000E+02  0.51100000000E-03 0.  1.
         23    2    1    2    0    0  0.00000000000E+00  0.00000000000E+00  0.35527136788E-14  0.91188000000E+02  0.91188000000E+02 0.  0.
    9900012    2    3    3    0    0 -0.15658368395E+02 -0.37051914567E+02  0.16297061501E+02  0.47787273192E+02  0.20000009792E+02 0.  0.
        -12    1    3    3    0    0  0.15658368395E+02  0.37051914567E+02 -0.16297061501E+02  0.43400726808E+02  0.00000000000E+00 0.  1.
         11    1    4    4    0    0 -0.22782887994E+01 -0.47868561472E+01  0.24903756726E+01  0.58571804548E+01  0.51100000000E-03 0. -1.
        -11    1    4    4    0    0 -0.65249368689E+00  0.67352639024E+00 -0.27673231210E+01  0.29218937912E+01  0.51100000000E-03 0.  1.
        -12    1    4    4    0    0 -0.12727585908E+02 -0.32938584810E+02  0.16574008950E+02  0.39008198946E+02  0.00000000000E+00 0.  1.
</event>
<event>
 8    1  0.4042158E-011  0.9118800E+02  0.7816164E-02  0.1184000E+00
        -11   -1    0    0    0    0  0.00000000000E+00  0.00000000000E+00  0.45593999997E+02  0.45594000000E+02  0.51100000000E-03 0. -1.
         11   -1    0    0    0    0 -0.00000000000E+00 -0.00000000000E+00 -0.45593999997E+02  0.45594000000E+02  0.51100000000E-03 0.  1.
         23    2    1    2    0    0  0.00000000000E+00  0.00000000000E+00  0.00000000000E+00  0.91188000000E+02  0.91188000000E+02 0.  0.
    9900012    2    3    3    0    0  0.16702498127E+02  0.19069307726E+02 -0.35227992266E+02  0.47787269823E+02  0.19999994431E+02 0.  0.
         12    1    3    3    0    0 -0.16702498127E+02 -0.19069307726E+02  0.35227992266E+02  0.43400730177E+02  0.00000000000E+00 0. -1.
         11    1    4    4    0    0  0.24152056136E+01  0.92372339721E+00 -0.18320633086E+02  0.18502218246E+02  0.51100000000E-03 0. -1.
        -11    1    4    4    0    0  0.54198231426E+01  0.26905886576E+01 -0.50583099615E+01  0.78867135202E+01  0.51100000000E-03 0.  1.
         12    1    4    4    0    0  0.88674693710E+01  0.15454995671E+02 -0.11849049218E+02  0.21398338057E+02  0.00000000000E+00 0. -1.
</event>
<event>
 8    1  0.4042158E-011  0.9118800E+02  0.7816164E-02  0.1184000E+00
        -11   -1    0    0    0    0  0.00000000000E+00  0.00000000000E+00  0.45593999997E+02  0.45594000000E+02  0.51100000000E-03 0. -1.
         11   -1    0    0    0    0 -0.00000000000E+00 -0.00000000000E+00 -0.45593999997E+02  0.45594000000E+02  0.51100000000E-03 0.  1.
         23    2    1    2    0    0  0.00000000000E+00  0.00000000000E+00  0.35527136788E-14  0.91188000000E+02  0.91188000000E+02 0.  0.
    9900012    2    3    3    0    0  0.19303327802E+02 -0.26546808826E+02 -0.28394921363E+02  0.47787273252E+02  0.20000010065E+02 0.  0.
         12    1    3    3    0    0 -0.19303327802E+02  0.26546808826E+02  0.28394921363E+02  0.43400726748E+02  0.00000000000E+00 0. -1.
         11    1    4    4    0    0  0.25633796763E+01  0.11180036554E+01 -0.29387853120E+01  0.40567606424E+01  0.51100000000E-03 0. -1.
        -11    1    4    4    0    0  0.57523548402E+01 -0.10466543338E+02 -0.11586200449E+01  0.11999188153E+02  0.51100000000E-03 0.  1.
        -12    1    4    4    0    0  0.10987593285E+02 -0.17198269143E+02 -0.24297516006E+02  0.31731324457E+02  0.00000000000E+00 0.  1.
</event>
<event>
 8    1  0.4042158E-011  0.9118800E+02  0.7816164E-02  0.1184000E+00
        -11   -1    0    0    0    0  0.00000000000E+00  0.00000000000E+00  0.45593999997E+02  0.45594000000E+02  0.51100000000E-03 0. -1.
         11   -1    0    0    0    0 -0.00000000000E+00 -0.00000000000E+00 -0.45593999997E+02  0.45594000000E+02  0.51100000000E-03 0.  1.
         23    2    1    2    0    0  0.35527136788E-14  0.00000000000E+00  0.71054273576E-14  0.91188000000E+02  0.91188000000E+02 0.  0.
    9900012    2    3    3    0    0  0.25845940651E+02 -0.78420627776E+01  0.33972232639E+02  0.47787272042E+02  0.20000004549E+02 0.  0.
        -12    1    3    3    0    0 -0.25845940651E+02  0.78420627776E+01 -0.33972232639E+02  0.43400727958E+02  0.00000000000E+00 0.  1.
         11    1    4    4    0    0  0.69903638315E+01  0.12489009532E+00  0.15673613637E+02  0.17162253603E+02  0.51100000000E-03 0.  1.
        -11    1    4    4    0    0  0.13830255129E+02  0.14012700928E+01  0.11052319555E+02  0.17759315376E+02  0.51100000000E-03 0. -1.
        -12    1    4    4    0    0  0.50253216908E+01 -0.93682229657E+01  0.72462994477E+01  0.12865703063E+02  0.00000000000E+00 0.  1.
</event>
<event>
 8    1  0.4042158E-011  0.9118800E+02  0.7816164E-02  0.1184000E+00
        -11   -1    0    0    0    0  0.00000000000E+00  0.00000000000E+00  0.45593999997E+02  0.45594000000E+02  0.51100000000E-03 0.  1.
         11   -1    0    0    0    0 -0.00000000000E+00 -0.00000000000E+00 -0.45593999997E+02  0.45594000000E+02  0.51100000000E-03 0. -1.
         23    2    1    2    0    0  0.00000000000E+00  0.00000000000E+00  0.00000000000E+00  0.91188000000E+02  0.91188000000E+02 0.  0.
    9900012    2    3    3    0    0  0.27325126738E+02  0.33246934997E+02 -0.56214386759E+01  0.47787287900E+02  0.20000076853E+02 0.  0.
         12    1    3    3    0    0 -0.27325126738E+02 -0.33246934997E+02  0.56214386759E+01  0.43400712100E+02  0.00000000000E+00 0. -1.
         11    1    4    4    0    0  0.87103589852E+01  0.20352962601E+02  0.45866880637E+00  0.22143256708E+02  0.51100000000E-03 0. -1.
        -11    1    4    4    0    0  0.14821384226E+02  0.14480768583E+02 -0.42961762576E+01  0.21161834038E+02  0.51100000000E-03 0.  1.
         12    1    4    4    0    0  0.37933835267E+01 -0.15867961872E+01 -0.17839312247E+01  0.44821971548E+01  0.00000000000E+00 0. -1.
</event>
<event>
 8    1  0.4042158E-011  0.9118800E+02  0.7816164E-02  0.1184000E+00
        -11   -1    0    0    0    0  0.00000000000E+00  0.00000000000E+00  0.45593999997E+02  0.45594000000E+02  0.51100000000E-03 0. -1.
         11   -1    0    0    0    0 -0.00000000000E+00 -0.00000000000E+00 -0.45593999997E+02  0.45594000000E+02  0.51100000000E-03 0.  1.
         23    2    1    2    0    0  0.00000000000E+00 -0.17763568394E-14 -0.35527136788E-14  0.91188000000E+02  0.91188000000E+02 0.  0.
    9900012    2    3    3    0    0 -0.36387605639E+02 -0.90418724376E+01 -0.21858867214E+02  0.47787269854E+02  0.19999994571E+02 0.  0.
         12    1    3    3    0    0  0.36387605639E+02  0.90418724376E+01  0.21858867214E+02  0.43400730146E+02  0.00000000000E+00 0. -1.
         11    1    4    4    0    0 -0.12781631040E+02 -0.36282821856E+01 -0.88370273408E+01  0.15957054119E+02  0.51100000000E-03 0. -1.
        -11    1    4    4    0    0 -0.25453671877E+02 -0.52335998168E+01 -0.14218304796E+02  0.29621616610E+02  0.51100000000E-03 0.  1.
         12    1    4    4    0    0  0.18476972775E+01 -0.17999043517E+00  0.11964649223E+01  0.22085991253E+01  0.00000000000E+00 0. -1.
</event>
<event>
 8    1  0.4042158E-011  0.9118800E+02  0.7816164E-02  0.1184000E+00
        -11   -1    0    0    0    0  0.00000000000E+00  0.00000000000E+00  0.45593999997E+02  0.45594000000E+02  0.51100000000E-03 0. -1.
         11   -1    0    0    0    0 -0.00000000000E+00 -0.00000000000E+00 -0.45593999997E+02  0.45594000000E+02  0.51100000000E-03 0.  1.
         23    2    1    2    0    0 -0.17763568394E-14  0.00000000000E+00  0.00000000000E+00  0.91188000000E+02  0.91188000000E+02 0.  0.
    9900012    2    3    3    0    0 -0.14964101070E+02 -0.32933013324E+02 -0.23981528142E+02  0.47787292870E+02  0.20000099509E+02 0.  0.
         12    1    3    3    0    0  0.14964101070E+02  0.32933013324E+02  0.23981528142E+02  0.43400707130E+02  0.00000000000E+00 0. -1.
         11    1    4    4    0    0  0.11660076399E+01 -0.14772502753E+01  0.12183288784E+01  0.22419116195E+01  0.51100000000E-03 0. -1.
        -11    1    4    4    0    0  0.44160065934E+00 -0.10778673788E+02 -0.11300309514E+02  0.15622797930E+02  0.51100000000E-03 0.  1.
        -12    1    4    4    0    0 -0.16571709369E+02 -0.20677089261E+02 -0.13899547506E+02  0.29922583320E+02  0.00000000000E+00 0.  1.
</event>
<event>
 8    1  0.4042158E-011  0.9118800E+02  0.7816164E-02  0.1184000E+00
        -11   -1    0    0    0    0  0.00000000000E+00  0.00000000000E+00  0.45593999997E+02  0.45594000000E+02  0.51100000000E-03 0. -1.
         11   -1    0    0    0    0 -0.00000000000E+00 -0.00000000000E+00 -0.45593999997E+02  0.45594000000E+02  0.51100000000E-03 0.  1.
         23    2    1    2    0    0  0.00000000000E+00  0.00000000000E+00 -0.71054273576E-14  0.91188000000E+02  0.91188000000E+02 0.  0.
    9900012    2    3    3    0    0  0.20492298892E+02  0.16750445347E+02 -0.34396386800E+02  0.47787272378E+02  0.20000006081E+02 0.  0.
         12    1    3    3    0    0 -0.20492298892E+02 -0.16750445347E+02  0.34396386800E+02  0.43400727622E+02  0.00000000000E+00 0. -1.
         11    1    4    4    0    0  0.12095073920E+02  0.10200367752E+02 -0.20314065459E+02  0.25748778051E+02  0.51100000000E-03 0. -1.
        -11    1    4    4    0    0  0.71151191649E+01  0.60241835351E+01 -0.16671857052E+02  0.19101479676E+02  0.51100000000E-03 0.  1.
         12    1    4    4    0    0  0.12821058074E+01  0.52589405968E+00  0.25895357106E+01  0.29370146509E+01  0.00000000000E+00 0. -1.
</event>
<event>
 8    1  0.4042158E-011  0.9118800E+02  0.7816164E-02  0.1184000E+00
        -11   -1    0    0    0    0  0.00000000000E+00  0.00000000000E+00  0.45593999997E+02  0.45594000000E+02  0.51100000000E-03 0. -1.
         11   -1    0    0    0    0 -0.00000000000E+00 -0.00000000000E+00 -0.45593999997E+02  0.45594000000E+02  0.51100000000E-03 0.  1.
         23    2    1    2    0    0  0.35527136788E-14 -0.35527136788E-14 -0.71054273576E-14  0.91188000000E+02  0.91188000000E+02 0.  0.
    9900012    2    3    3    0    0  0.23335574766E+02 -0.16684835909E+02 -0.32568241353E+02  0.47787272542E+02  0.20000006830E+02 0.  0.
         12    1    3    3    0    0 -0.23335574766E+02  0.16684835909E+02  0.32568241353E+02  0.43400727458E+02  0.00000000000E+00 0. -1.
         11    1    4    4    0    0  0.50577602833E+01 -0.91726192367E+01 -0.34779153258E+01  0.11036927925E+02  0.51100000000E-03 0. -1.
        -11    1    4    4    0    0  0.39328386286E+00  0.28836104953E+00  0.86958633183E+00  0.99699796454E+00  0.51100000000E-03 0.  1.
        -12    1    4    4    0    0  0.17884530620E+02 -0.78005777217E+01 -0.29959912360E+02  0.35753346653E+02  0.00000000000E+00 0.  1.
</event>
<event>
 8    1  0.4042158E-011  0.9118800E+02  0.7816164E-02  0.1184000E+00
        -11   -1    0    0    0    0  0.00000000000E+00  0.00000000000E+00  0.45593999997E+02  0.45594000000E+02  0.51100000000E-03 0.  1.
         11   -1    0    0    0    0 -0.00000000000E+00 -0.00000000000E+00 -0.45593999997E+02  0.45594000000E+02  0.51100000000E-03 0. -1.
         23    2    1    2    0    0  0.00000000000E+00  0.35527136788E-14  0.17763568394E-14  0.91188000000E+02  0.91188000000E+02 0.  0.
    9900012    2    3    3    0    0  0.35853014522E+02 -0.20455787813E+02 -0.13406919482E+02  0.47787269645E+02  0.19999993619E+02 0.  0.
         12    1    3    3    0    0 -0.35853014522E+02  0.20455787813E+02  0.13406919482E+02  0.43400730355E+02  0.00000000000E+00 0. -1.
         11    1    4    4    0    0 -0.31299061028E+00  0.13364600099E+01 -0.21133676053E+01  0.25200022572E+01  0.51100000000E-03 0. -1.
        -11    1    4    4    0    0  0.43657841681E+01 -0.74536759500E+01 -0.12303065952E+00  0.86390099765E+01  0.51100000000E-03 0.  1.
        -12    1    4    4    0    0  0.31800220964E+02 -0.14338571873E+02 -0.11170521217E+02  0.36628257411E+02  0.00000000000E+00 0.  1.
</event>
<event>
 8    1  0.4042158E-011  0.9118800E+02  0.7816164E-02  0.1184000E+00
        -11   -1    0    0    0    0  0.00000000000E+00  0.00000000000E+00  0.45593999997E+02  0.45594000000E+02  0.51100000000E-03 0. -1.
         11   -1    0    0    0    0 -0.00000000000E+00 -0.00000000000E+00 -0.45593999997E+02  0.45594000000E+02  0.51100000000E-03 0.  1.
         23    2    1    2    0    0 -0.35527136788E-14  0.00000000000E+00  0.00000000000E+00  0.91188000000E+02  0.91188000000E+02 0.  0.
    9900012    2    3    3    0    0  0.18126884505E+02  0.17433725747E+02  0.35370962323E+02  0.47787266010E+02  0.19999977044E+02 0.  0.
        -12    1    3    3    0    0 -0.18126884505E+02 -0.17433725747E+02 -0.35370962323E+02  0.43400733990E+02  0.00000000000E+00 0.  1.
         11    1    4    4    0    0  0.51630125926E+00  0.71985348442E+01  0.20670140094E+02  0.21893838463E+02  0.51100000000E-03 0. -1.
        -11    1    4    4    0    0  0.32140217989E+01 -0.56037688293E+00  0.29770374644E+01  0.44166402050E+01  0.51100000000E-03 0.  1.
         12    1    4    4    0    0  0.14396561447E+02  0.10795567786E+02  0.11723784765E+02  0.21476787342E+02  0.00000000000E+00 0. -1.
</event>
<event>
 8    1  0.4042158E-011  0.9118800E+02  0.7816164E-02  0.1184000E+00
        -11   -1    0    0    0    0  0.00000000000E+00  0.00000000000E+00  0.45593999997E+02  0.45594000000E+02  0.51100000000E-03 0. -1.
         11   -1    0    0    0    0 -0.00000000000E+00 -0.00000000000E+00 -0.45593999997E+02  0.45594000000E+02  0.51100000000E-03 0.  1.
         23    2    1    2    0    0  0.00000000000E+00 -0.88817841970E-15  0.00000000000E+00  0.91188000000E+02  0.91188000000E+02 0.  0.
    9900012    2    3    3    0    0  0.16602266571E+02 -0.54709037387E+01  0.39724768037E+02  0.47787271450E+02  0.20000001850E+02 0.  0.
        -12    1    3    3    0    0 -0.16602266571E+02  0.54709037387E+01 -0.39724768037E+02  0.43400728550E+02  0.00000000000E+00 0.  1.
         11    1    4    4    0    0  0.84630528232E+01 -0.44063116983E+01  0.19068816950E+02  0.21322725577E+02  0.51100000000E-03 0. -1.
        -11    1    4    4    0    0  0.71049024853E+01 -0.41662308936E+01  0.21553873317E+02  0.23073937124E+02  0.51100000000E-03 0.  1.
        -12    1    4    4    0    0  0.10343112630E+01  0.31016388532E+01 -0.89792222937E+00  0.33906087498E+01  0.00000000000E+00 0.  1.
</event>
<event>
 8    1  0.4042158E-011  0.9118800E+02  0.7816164E-02  0.1184000E+00
        -11   -1    0    0    0    0  0.00000000000E+00  0.00000000000E+00  0.45593999997E+02  0.45594000000E+02  0.51100000000E-03 0.  1.
         11   -1    0    0    0    0 -0.00000000000E+00 -0.00000000000E+00 -0.45593999997E+02  0.45594000000E+02  0.51100000000E-03 0. -1.
         23    2    1    2    0    0  0.35527136788E-14 -0.35527136788E-14  0.00000000000E+00  0.91188000000E+02  0.91188000000E+02 0.  0.
    9900012    2    3    3    0    0 -0.28786488974E+02  0.25043394495E+02  0.20683071087E+02  0.47787274374E+02  0.20000015182E+02 0.  0.
        -12    1    3    3    0    0  0.28786488974E+02 -0.25043394495E+02 -0.20683071087E+02  0.43400725626E+02  0.00000000000E+00 0.  1.
         11    1    4    4    0    0 -0.68063929658E+01  0.83740960418E+01  0.55907262507E+01  0.12153546396E+02  0.51100000000E-03 0. -1.
        -11    1    4    4    0    0 -0.22308815549E+02  0.81453500245E+01  0.11155327088E+02  0.26238736648E+02  0.51100000000E-03 0.  1.
        -12    1    4    4    0    0  0.32871954050E+00  0.85239484284E+01  0.39370177483E+01  0.93949913303E+01  0.00000000000E+00 0.  1.
</event>
<event>
 8    1  0.4042158E-011  0.9118800E+02  0.7816164E-02  0.1184000E+00
        -11   -1    0    0    0    0  0.00000000000E+00  0.00000000000E+00  0.45593999997E+02  0.45594000000E+02  0.51100000000E-03 0. -1.
         11   -1    0    0    0    0 -0.00000000000E+00 -0.00000000000E+00 -0.45593999997E+02  0.45594000000E+02  0.51100000000E-03 0.  1.
         23    2    1    2    0    0  0.00000000000E+00  0.00000000000E+00  0.00000000000E+00  0.91188000000E+02  0.91188000000E+02 0.  0.
    9900012    2    3    3    0    0  0.13732710080E+02 -0.79814795815E+01  0.40389749562E+02  0.47787271755E+02  0.20000003241E+02 0.  0.
        -12    1    3    3    0    0 -0.13732710080E+02  0.79814795815E+01 -0.40389749562E+02  0.43400728245E+02  0.00000000000E+00 0.  1.
         11    1    4    4    0    0 -0.12088139684E+01 -0.78996345042E+00  0.17328723675E+01  0.22556862296E+01  0.51100000000E-03 0. -1.
        -11    1    4    4    0    0 -0.12925193797E+00 -0.60302823297E+01  0.28622973604E+01  0.66763581000E+01  0.51100000000E-03 0.  1.
         12    1    4    4    0    0  0.15070775986E+02 -0.11612338014E+01  0.35794579835E+02  0.38855227426E+02  0.00000000000E+00 0. -1.
</event>
<event>
 8    1  0.4042158E-011  0.9118800E+02  0.7816164E-02  0.1184000E+00
        -11   -1    0    0    0    0  0.00000000000E+00  0.00000000000E+00  0.45593999997E+02  0.45594000000E+02  0.51100000000E-03 0. -1.
         11   -1    0    0    0    0 -0.00000000000E+00 -0.00000000000E+00 -0.45593999997E+02  0.45594000000E+02  0.51100000000E-03 0.  1.
         23    2    1    2    0    0  0.00000000000E+00  0.17763568394E-14  0.00000000000E+00  0.91188000000E+02  0.91188000000E+02 0.  0.
    9900012    2    3    3    0    0 -0.57184133931E+01  0.88439468974E+01 -0.42103535679E+02  0.47787269994E+02  0.19999995209E+02 0.  0.
         12    1    3    3    0    0  0.57184133931E+01 -0.88439468974E+01  0.42103535679E+02  0.43400730006E+02  0.00000000000E+00 0. -1.
         11    1    4    4    0    0 -0.57881521321E+00  0.11893349918E+02 -0.20071933771E+02  0.23338151703E+02  0.51100000000E-03 0. -1.
        -11    1    4    4    0    0 -0.22809847676E+01  0.19947384058E+01 -0.20880978773E+01  0.36799491606E+01  0.51100000000E-03 0.  1.
        -12    1    4    4    0    0 -0.28586134123E+01 -0.50441414263E+01 -0.19943504030E+02  0.20769169130E+02  0.00000000000E+00 0.  1.
</event>
<event>
 8    1  0.4042158E-011  0.9118800E+02  0.7816164E-02  0.1184000E+00
        -11   -1    0    0    0    0  0.00000000000E+00  0.00000000000E+00  0.45593999997E+02  0.45594000000E+02  0.51100000000E-03 0. -1.
         11   -1    0    0    0    0 -0.00000000000E+00 -0.00000000000E+00 -0.45593999997E+02  0.45594000000E+02  0.51100000000E-03 0.  1.
         23    2    1    2    0    0  0.00000000000E+00  0.00000000000E+00  0.00000000000E+00  0.91188000000E+02  0.91188000000E+02 0.  0.
    9900012    2    3    3    0    0  0.23464292046E+02 -0.32505963762E+02 -0.16625659528E+02  0.47787271481E+02  0.20000001988E+02 0.  0.
         12    1    3    3    0    0 -0.23464292046E+02  0.32505963762E+02  0.16625659528E+02  0.43400728519E+02  0.00000000000E+00 0. -1.
         11    1    4    4    0    0  0.14933691984E+02 -0.18612709548E+02 -0.55538755639E+01  0.24500890739E+02  0.51100000000E-03 0. -1.
        -11    1    4    4    0    0  0.65722693402E+01 -0.15455039296E+02 -0.63754997336E+01  0.17963851509E+02  0.51100000000E-03 0.  1.
        -12    1    4    4    0    0  0.19583307220E+01  0.15617850819E+01 -0.46962842305E+01  0.53225292327E+01  0.00000000000E+00 0.  1.
</event>
<event>
 8    1  0.4042158E-011  0.9118800E+02  0.7816164E-02  0.1184000E+00
        -11   -1    0    0    0    0  0.00000000000E+00  0.00000000000E+00  0.45593999997E+02  0.45594000000E+02  0.51100000000E-03 0. -1.
         11   -1    0    0    0    0 -0.00000000000E+00 -0.00000000000E+00 -0.45593999997E+02  0.45594000000E+02  0.51100000000E-03 0.  1.
         23    2    1    2    0    0  0.00000000000E+00  0.00000000000E+00 -0.88817841970E-15  0.91188000000E+02  0.91188000000E+02 0.  0.
    9900012    2    3    3    0    0 -0.19095251506E+02  0.38430973756E+02 -0.64849526145E+01  0.47787274380E+02  0.20000015208E+02 0.  0.
         12    1    3    3    0    0  0.19095251506E+02 -0.38430973756E+02  0.64849526145E+01  0.43400725620E+02  0.00000000000E+00 0. -1.
         11    1    4    4    0    0  0.27675991026E+01  0.43222037582E+01 -0.50653665208E+01  0.72110324068E+01  0.51100000000E-03 0. -1.
        -11    1    4    4    0    0 -0.56184342504E+01  0.74781765238E+01 -0.95581126210E-01  0.93540934120E+01  0.51100000000E-03 0.  1.
         12    1    4    4    0    0 -0.16244416358E+02  0.26630593474E+02 -0.13240049675E+01  0.31222148561E+02  0.00000000000E+00 0. -1.
</event>
<event>
 8    1  0.4042158E-011  0.9118800E+02  0.7816164E-02  0.1184000E+00
        -11   -1    0    0    0    0  0.00000000000E+00  0.00000000000E+00  0.45593999997E+02  0.45594000000E+02  0.51100000000E-03 0. -1.
         11   -1    0    0    0    0 -0.00000000000E+00 -0.00000000000E+00 -0.45593999997E+02  0.45594000000E+02  0.51100000000E-03 0.  1.
         23    2    1    2    0    0 -0.44408920985E-15  0.00000000000E+00  0.00000000000E+00  0.91188000000E+02  0.91188000000E+02 0.  0.
    9900012    2    3    3    0    0 -0.19628549160E+01  0.38316725450E+02  0.20287903468E+02  0.47787271023E+02  0.19999999901E+02 0.  0.
        -12    1    3    3    0    0  0.19628549160E+01 -0.38316725450E+02 -0.20287903468E+02  0.43400728977E+02  0.00000000000E+00 0.  1.
         11    1    4    4    0    0 -0.57912210303E+01  0.18028590321E+02  0.30473550070E+01  0.19179538127E+02  0.51100000000E-03 0. -1.
        -11    1    4    4    0    0  0.41793326293E-01  0.17703127973E+02  0.10922785990E+02  0.20801676393E+02  0.51100000000E-03 0.  1.
        -12    1    4    4    0    0  0.37865727881E+01  0.25850071558E+01  0.63177624708E+01  0.78060565020E+01  0.00000000000E+00 0.  1.
</event>
<event>
 8    1  0.4042158E-011  0.9118800E+02  0.7816164E-02  0.1184000E+00
        -11   -1    0    0    0    0  0.00000000000E+00  0.00000000000E+00  0.45593999997E+02  0.45594000000E+02  0.51100000000E-03 0. -1.
         11   -1    0    0    0    0 -0.00000000000E+00 -0.00000000000E+00 -0.45593999997E+02  0.45594000000E+02  0.51100000000E-03 0.  1.
         23    2    1    2    0    0  0.35527136788E-14 -0.22204460493E-15  0.35527136788E-14  0.91188000000E+02  0.91188000000E+02 0.  0.
    9900012    2    3    3    0    0  0.30866105579E+02  0.17196804608E+01  0.30462265702E+02  0.47787269520E+02  0.19999993051E+02 0.  0.
        -12    1    3    3    0    0 -0.30866105579E+02 -0.17196804608E+01 -0.30462265702E+02  0.43400730480E+02  0.00000000000E+00 0.  1.
         11    1    4    4    0    0  0.53806053098E+01 -0.36343051722E+01  0.10313922694E+02  0.12187538274E+02  0.51100000000E-03 0. -1.
        -11    1    4    4    0    0  0.14717324051E+02 -0.21629503850E+01  0.53343402384E+01  0.15802948068E+02  0.51100000000E-03 0.  1.
         12    1    4    4    0    0  0.10768176218E+02  0.75169360181E+01  0.14814002769E+02  0.19796783178E+02  0.00000000000E+00 0. -1.
</event>
<event>
 8    1  0.4042158E-011  0.9118800E+02  0.7816164E-02  0.1184000E+00
        -11   -1    0    0    0    0  0.00000000000E+00  0.00000000000E+00  0.45593999997E+02  0.45594000000E+02  0.51100000000E-03 0. -1.
         11   -1    0    0    0    0 -0.00000000000E+00 -0.00000000000E+00 -0.45593999997E+02  0.45594000000E+02  0.51100000000E-03 0.  1.
         23    2    1    2    0    0  0.00000000000E+00  0.00000000000E+00  0.00000000000E+00  0.91188000000E+02  0.91188000000E+02 0.  0.
    9900012    2    3    3    0    0  0.85312025288E+01  0.41507805618E+02  0.93778357086E+01  0.47787272513E+02  0.20000006695E+02 0.  0.
        -12    1    3    3    0    0 -0.85312025288E+01 -0.41507805618E+02 -0.93778357086E+01  0.43400727487E+02  0.00000000000E+00 0.  1.
         11    1    4    4    0    0  0.72047472829E+01  0.11546872496E+02 -0.12840173754E+01  0.13670674772E+02  0.51100000000E-03 0. -1.
        -11    1    4    4    0    0 -0.93979410559E+00  0.12425299315E+02 -0.16519440341E+01  0.12569812862E+02  0.51100000000E-03 0.  1.
        -12    1    4    4    0    0  0.22662493515E+01  0.17535633808E+02  0.12313797118E+02  0.21546784879E+02  0.00000000000E+00 0.  1.
</event>
<event>
 8    1  0.4042158E-011  0.9118800E+02  0.7816164E-02  0.1184000E+00
        -11   -1    0    0    0    0  0.00000000000E+00  0.00000000000E+00  0.45593999997E+02  0.45594000000E+02  0.51100000000E-03 0. -1.
         11   -1    0    0    0    0 -0.00000000000E+00 -0.00000000000E+00 -0.45593999997E+02  0.45594000000E+02  0.51100000000E-03 0.  1.
         23    2    1    2    0    0  0.00000000000E+00  0.00000000000E+00  0.00000000000E+00  0.91188000000E+02  0.91188000000E+02 0.  0.
    9900012    2    3    3    0    0 -0.15054694050E+02  0.31329941610E+02 -0.25988738515E+02  0.47787267474E+02  0.19999983719E+02 0.  0.
         12    1    3    3    0    0  0.15054694050E+02 -0.31329941610E+02  0.25988738515E+02  0.43400732526E+02  0.00000000000E+00 0. -1.
         11    1    4    4    0    0 -0.26989946641E+01  0.17521225901E+01 -0.68691835570E+01  0.75855249500E+01  0.51100000000E-03 0. -1.
        -11    1    4    4    0    0 -0.68028797342E+01  0.23688918613E+02 -0.20416688190E+02  0.32004455856E+02  0.51100000000E-03 0.  1.
        -12    1    4    4    0    0 -0.55528196518E+01  0.58889004069E+01  0.12971332318E+01  0.81972866675E+01  0.00000000000E+00 0.  1.
</event>
<event>
 8    1  0.4042158E-011  0.9118800E+02  0.7816164E-02  0.1184000E+00
        -11   -1    0    0    0    0  0.00000000000E+00  0.00000000000E+00  0.45593999997E+02  0.45594000000E+02  0.51100000000E-03 0. -1.
         11   -1    0    0    0    0 -0.00000000000E+00 -0.00000000000E+00 -0.45593999997E+02  0.45594000000E+02  0.51100000000E-03 0.  1.
         23    2    1    2    0    0  0.44408920985E-15  0.71054273576E-14  0.00000000000E+00  0.91188000000E+02  0.91188000000E+02 0.  0.
    9900012    2    3    3    0    0  0.26272258822E+01 -0.41856790679E+02  0.11168290681E+02  0.47787263157E+02  0.19999964036E+02 0.  0.
        -12    1    3    3    0    0 -0.26272258822E+01  0.41856790679E+02 -0.11168290681E+02  0.43400736843E+02  0.00000000000E+00 0.  1.
         11    1    4    4    0    0  0.55285955905E+01 -0.74385075187E+01 -0.55416270814E+00  0.92846033775E+01  0.51100000000E-03 0. -1.
        -11    1    4    4    0    0  0.34241003014E+01 -0.19303255267E+02  0.10055092439E+02  0.22032816683E+02  0.51100000000E-03 0.  1.
        -12    1    4    4    0    0 -0.63254700096E+01 -0.15115027893E+02  0.16673609500E+01  0.16469843096E+02  0.00000000000E+00 0.  1.
</event>
<event>
 8    1  0.4042158E-011  0.9118800E+02  0.7816164E-02  0.1184000E+00
        -11   -1    0    0    0    0  0.00000000000E+00  0.00000000000E+00  0.45593999997E+02  0.45594000000E+02  0.51100000000E-03 0. -1.
         11   -1    0    0    0    0 -0.00000000000E+00 -0.00000000000E+00 -0.45593999997E+02  0.45594000000E+02  0.51100000000E-03 0.  1.
         23    2    1    2    0    0  0.35527136788E-14  0.00000000000E+00 -0.88817841970E-15  0.91188000000E+02  0.91188000000E+02 0.  0.
    9900012    2    3    3    0    0  0.17166108547E+02  0.39772649245E+02 -0.26615791628E+01  0.47787275187E+02  0.20000018888E+02 0.  0.
        -12    1    3    3    0    0 -0.17166108547E+02 -0.39772649245E+02  0.26615791628E+01  0.43400724813E+02  0.00000000000E+00 0.  1.
         11    1    4    4    0    0  0.58220630967E+01  0.54564318914E+01 -0.27819073591E+01  0.84503299642E+01  0.51100000000E-03 0. -1.
        -11    1    4    4    0    0  0.11079208207E+02  0.21259415685E+02 -0.62963630593E+01  0.24786201762E+02  0.51100000000E-03 0.  1.
         12    1    4    4    0    0  0.26483724365E+00  0.13056801669E+02  0.64166912557E+01  0.14550743461E+02  0.00000000000E+00 0. -1.
</event>
<event>
 8    1  0.4042158E-011  0.9118800E+02  0.7816164E-02  0.1184000E+00
        -11   -1    0    0    0    0  0.00000000000E+00  0.00000000000E+00  0.45593999997E+02  0.45594000000E+02  0.51100000000E-03 0. -1.
         11   -1    0    0    0    0 -0.00000000000E+00 -0.00000000000E+00 -0.45593999997E+02  0.45594000000E+02  0.51100000000E-03 0.  1.
         23    2    1    2    0    0  0.00000000000E+00 -0.22204460493E-15  0.00000000000E+00  0.91188000000E+02  0.91188000000E+02 0.  0.
    9900012    2    3    3    0    0 -0.74354138812E+01  0.11914592817E+01 -0.42742467476E+02  0.47787268661E+02  0.19999989134E+02 0.  0.
         12    1    3    3    0    0  0.74354138812E+01 -0.11914592817E+01  0.42742467476E+02  0.43400731339E+02  0.00000000000E+00 0. -1.
         11    1    4    4    0    0  0.55222527014E+01  0.17800735647E+01 -0.63319522502E+01  0.85882219553E+01  0.51100000000E-03 0.  1.
        -11    1    4    4    0    0 -0.28516913703E+01  0.23570162489E+01 -0.63552891464E+01  0.73537316829E+01  0.51100000000E-03 0. -1.
        -12    1    4    4    0    0 -0.10105975212E+02 -0.29456305320E+01 -0.30055226079E+02  0.31845315023E+02  0.00000000000E+00 0.  1.
</event>
<event>
 8    1  0.4042158E-011  0.9118800E+02  0.7816164E-02  0.1184000E+00
        -11   -1    0    0    0    0  0.00000000000E+00  0.00000000000E+00  0.45593999997E+02  0.45594000000E+02  0.51100000000E-03 0. -1.
         11   -1    0    0    0    0 -0.00000000000E+00 -0.00000000000E+00 -0.45593999997E+02  0.45594000000E+02  0.51100000000E-03 0.  1.
         23    2    1    2    0    0  0.00000000000E+00  0.88817841970E-15  0.00000000000E+00  0.91188000000E+02  0.91188000000E+02 0.  0.
    9900012    2    3    3    0    0 -0.14330744794E+02 -0.73035758936E+01 -0.40310145150E+02  0.47787305660E+02  0.20000157827E+02 0.  0.
         12    1    3    3    0    0  0.14330744794E+02  0.73035758936E+01  0.40310145150E+02  0.43400694340E+02  0.00000000000E+00 0. -1.
         11    1    4    4    0    0 -0.56688937744E+00  0.24805439589E+01 -0.41705373507E+01  0.48854727462E+01  0.51100000000E-03 0. -1.
        -11    1    4    4    0    0 -0.29321258569E+00 -0.68834728334E+00 -0.19938735439E+02  0.19952768398E+02  0.51100000000E-03 0.  1.
         12    1    4    4    0    0 -0.13470642831E+02 -0.90957725692E+01 -0.16200872360E+02  0.22949064516E+02  0.00000000000E+00 0. -1.
</event>
<event>
 8    1  0.4042158E-011  0.9118800E+02  0.7816164E-02  0.1184000E+00
        -11   -1    0    0    0    0  0.00000000000E+00  0.00000000000E+00  0.45593999997E+02  0.45594000000E+02  0.51100000000E-03 0. -1.
         11   -1    0    0    0    0 -0.00000000000E+00 -0.00000000000E+00 -0.45593999997E+02  0.45594000000E+02  0.51100000000E-03 0.  1.
         23    2    1    2    0    0  0.00000000000E+00 -0.71054273576E-14  0.00000000000E+00  0.91188000000E+02  0.91188000000E+02 0.  0.
    9900012    2    3    3    0    0 -0.10552784736E+02  0.41263615082E+02  0.83414796176E+01  0.47787222616E+02  0.19999779195E+02 0.  0.
         12    1    3    3    0    0  0.10552784736E+02 -0.41263615082E+02 -0.83414796176E+01  0.43400777384E+02  0.00000000000E+00 0. -1.
         11    1    4    4    0    0 -0.35221942764E+01  0.72904735759E+01 -0.33429567008E+01  0.87596927598E+01  0.51100000000E-03 0. -1.
        -11    1    4    4    0    0 -0.49689063320E+01  0.30931306527E+02  0.54611431776E+01  0.31800311927E+02  0.51100000000E-03 0.  1.
        -12    1    4    4    0    0 -0.20616841273E+01  0.30418349789E+01  0.62232931407E+01  0.72272179291E+01  0.00000000000E+00 0.  1.
</event>
<event>
 8    1  0.4042158E-011  0.9118800E+02  0.7816164E-02  0.1184000E+00
        -11   -1    0    0    0    0  0.00000000000E+00  0.00000000000E+00  0.45593999997E+02  0.45594000000E+02  0.51100000000E-03 0. -1.
         11   -1    0    0    0    0 -0.00000000000E+00 -0.00000000000E+00 -0.45593999997E+02  0.45594000000E+02  0.51100000000E-03 0.  1.
         23    2    1    2    0    0  0.00000000000E+00 -0.35527136788E-14 -0.35527136788E-14  0.91188000000E+02  0.91188000000E+02 0.  0.
    9900012    2    3    3    0    0  0.35792436482E+01 -0.31787671867E+02 -0.29331826942E+02  0.47787272592E+02  0.20000007054E+02 0.  0.
         12    1    3    3    0    0 -0.35792436482E+01  0.31787671867E+02  0.29331826942E+02  0.43400727408E+02  0.00000000000E+00 0. -1.
         11    1    4    4    0    0 -0.35358087994E+01 -0.51532303856E+00 -0.39068174586E+01  0.52944050295E+01  0.51100000000E-03 0. -1.
        -11    1    4    4    0    0  0.36842415985E+01 -0.22344364972E+01 -0.60069754715E+01  0.73925704050E+01  0.51100000000E-03 0.  1.
        -12    1    4    4    0    0  0.34308108492E+01 -0.29037912331E+02 -0.19418034012E+02  0.35100297157E+02  0.00000000000E+00 0.  1.
</event>
<event>
 8    1  0.4042158E-011  0.9118800E+02  0.7816164E-02  0.1184000E+00
        -11   -1    0    0    0    0  0.00000000000E+00  0.00000000000E+00  0.45593999997E+02  0.45594000000E+02  0.51100000000E-03 0. -1.
         11   -1    0    0    0    0 -0.00000000000E+00 -0.00000000000E+00 -0.45593999997E+02  0.45594000000E+02  0.51100000000E-03 0.  1.
         23    2    1    2    0    0  0.00000000000E+00  0.00000000000E+00 -0.35527136788E-14  0.91188000000E+02  0.91188000000E+02 0.  0.
    9900012    2    3    3    0    0 -0.14347885361E+02 -0.36705596580E+02  0.18178586230E+02  0.47787266919E+02  0.19999981191E+02 0.  0.
        -12    1    3    3    0    0  0.14347885361E+02  0.36705596580E+02 -0.18178586230E+02  0.43400733081E+02  0.00000000000E+00 0.  1.
         11    1    4    4    0    0 -0.73565234615E+01 -0.23894586347E+02  0.63249517083E+01  0.25789042412E+02  0.51100000000E-03 0. -1.
        -11    1    4    4    0    0  0.30569148013E+01 -0.35292696898E+01  0.44217664497E+01  0.64305902873E+01  0.51100000000E-03 0.  1.
         12    1    4    4    0    0 -0.10048276701E+02 -0.92817405430E+01  0.74318680720E+01  0.15567634220E+02  0.00000000000E+00 0. -1.
</event>
<event>
 8    1  0.4042158E-011  0.9118800E+02  0.7816164E-02  0.1184000E+00
        -11   -1    0    0    0    0  0.00000000000E+00  0.00000000000E+00  0.45593999997E+02  0.45594000000E+02  0.51100000000E-03 0. -1.
         11   -1    0    0    0    0 -0.00000000000E+00 -0.00000000000E+00 -0.45593999997E+02  0.45594000000E+02  0.51100000000E-03 0.  1.
         23    2    1    2    0    0  0.00000000000E+00  0.00000000000E+00  0.00000000000E+00  0.91188000000E+02  0.91188000000E+02 0.  0.
    9900012    2    3    3    0    0 -0.19749249937E+02 -0.20048343265E+02 -0.33040190746E+02  0.47787272526E+02  0.20000006756E+02 0.  0.
         12    1    3    3    0    0  0.19749249937E+02  0.20048343265E+02  0.33040190746E+02  0.43400727474E+02  0.00000000000E+00 0. -1.
         11    1    4    4    0    0 -0.11728272883E+02 -0.21487274918E+01 -0.11985907079E+02  0.16906548537E+02  0.51100000000E-03 0. -1.
        -11    1    4    4    0    0 -0.78547014244E+01 -0.52304935317E+01 -0.12197487558E+02  0.15421838413E+02  0.51100000000E-03 0.  1.
         12    1    4    4    0    0 -0.16627562968E+00 -0.12669122242E+02 -0.88567961083E+01  0.15458885576E+02  0.00000000000E+00 0. -1.
</event>
<event>
 8    1  0.4042158E-011  0.9118800E+02  0.7816164E-02  0.1184000E+00
        -11   -1    0    0    0    0  0.00000000000E+00  0.00000000000E+00  0.45593999997E+02  0.45594000000E+02  0.51100000000E-03 0. -1.
         11   -1    0    0    0    0 -0.00000000000E+00 -0.00000000000E+00 -0.45593999997E+02  0.45594000000E+02  0.51100000000E-03 0.  1.
         23    2    1    2    0    0  0.44408920985E-15 -0.35527136788E-14  0.00000000000E+00  0.91188000000E+02  0.91188000000E+02 0.  0.
    9900012    2    3    3    0    0 -0.39008681984E+01 -0.22026543051E+02  0.37191900417E+02  0.47787276179E+02  0.20000023412E+02 0.  0.
        -12    1    3    3    0    0  0.39008681984E+01  0.22026543051E+02 -0.37191900417E+02  0.43400723821E+02  0.00000000000E+00 0.  1.
         11    1    4    4    0    0 -0.17609222373E+01 -0.11204407678E+02  0.18065946102E+02  0.21331151103E+02  0.51100000000E-03 0. -1.
        -11    1    4    4    0    0 -0.48060801087E+01 -0.12774273031E+02  0.10503558522E+02  0.17222229802E+02  0.51100000000E-03 0.  1.
         12    1    4    4    0    0  0.26661341475E+01  0.19521376572E+01  0.86223957929E+01  0.92338952742E+01  0.00000000000E+00 0. -1.
</event>
<event>
 8    1  0.4042158E-011  0.9118800E+02  0.7816164E-02  0.1184000E+00
        -11   -1    0    0    0    0  0.00000000000E+00  0.00000000000E+00  0.45593999997E+02  0.45594000000E+02  0.51100000000E-03 0. -1.
         11   -1    0    0    0    0 -0.00000000000E+00 -0.00000000000E+00 -0.45593999997E+02  0.45594000000E+02  0.51100000000E-03 0.  1.
         23    2    1    2    0    0  0.71054273576E-14  0.00000000000E+00  0.00000000000E+00  0.91188000000E+02  0.91188000000E+02 0.  0.
    9900012    2    3    3    0    0 -0.34007245455E+02 -0.11095351438E+01 -0.26942520333E+02  0.47787271739E+02  0.20000003167E+02 0.  0.
         12    1    3    3    0    0  0.34007245455E+02  0.11095351438E+01  0.26942520333E+02  0.43400728261E+02  0.00000000000E+00 0. -1.
         11    1    4    4    0    0 -0.15096317823E+02  0.27614569792E+01 -0.17214934770E+02  0.23062489802E+02  0.51100000000E-03 0. -1.
        -11    1    4    4    0    0 -0.16084906745E+02  0.19520009044E+01 -0.77199395115E+01  0.17948036072E+02  0.51100000000E-03 0.  1.
         12    1    4    4    0    0 -0.28260208878E+01 -0.58229930274E+01 -0.20076460517E+01  0.67767458654E+01  0.00000000000E+00 0. -1.
</event>
<event>
 8    1  0.4042158E-011  0.9118800E+02  0.7816164E-02  0.1184000E+00
        -11   -1    0    0    0    0  0.00000000000E+00  0.00000000000E+00  0.45593999997E+02  0.45594000000E+02  0.51100000000E-03 0.  1.
         11   -1    0    0    0    0 -0.00000000000E+00 -0.00000000000E+00 -0.45593999997E+02  0.45594000000E+02  0.51100000000E-03 0. -1.
         23    2    1    2    0    0  0.22204460493E-15  0.00000000000E+00  0.44408920985E-15  0.91188000000E+02  0.91188000000E+02 0.  0.
    9900012    2    3    3    0    0  0.15938276636E+01  0.43340130590E+02 -0.16480794970E+01  0.47787269911E+02  0.19999994834E+02 0.  0.
         12    1    3    3    0    0 -0.15938276636E+01 -0.43340130590E+02  0.16480794970E+01  0.43400730089E+02  0.00000000000E+00 0. -1.
         11    1    4    4    0    0  0.11259607487E+01  0.10688804883E+01 -0.31009060892E+01  0.34678396649E+01  0.51100000000E-03 0. -1.
        -11    1    4    4    0    0 -0.22756686223E+01  0.71940533827E+01  0.48527916164E+01  0.89712127656E+01  0.51100000000E-03 0.  1.
         12    1    4    4    0    0  0.27435355372E+01  0.35077196719E+02 -0.33999650242E+01  0.35348217481E+02  0.00000000000E+00 0. -1.
</event>
<event>
 8    1  0.4042158E-011  0.9118800E+02  0.7816164E-02  0.1184000E+00
        -11   -1    0    0    0    0  0.00000000000E+00  0.00000000000E+00  0.45593999997E+02  0.45594000000E+02  0.51100000000E-03 0. -1.
         11   -1    0    0    0    0 -0.00000000000E+00 -0.00000000000E+00 -0.45593999997E+02  0.45594000000E+02  0.51100000000E-03 0.  1.
         23    2    1    2    0    0  0.00000000000E+00  0.00000000000E+00  0.71054273576E-14  0.91188000000E+02  0.91188000000E+02 0.  0.
    9900012    2    3    3    0    0 -0.14130742247E+02  0.14011646916E+02  0.38569667772E+02  0.47787269617E+02  0.19999993491E+02 0.  0.
        -12    1    3    3    0    0  0.14130742247E+02 -0.14011646916E+02 -0.38569667772E+02  0.43400730383E+02  0.00000000000E+00 0.  1.
         11    1    4    4    0    0 -0.72422384416E+01  0.53944950077E+01  0.69139215960E+01  0.11373341907E+02  0.51100000000E-03 0. -1.
        -11    1    4    4    0    0 -0.29571779497E+01  0.11783468353E+02  0.16862384052E+02  0.20783046553E+02  0.51100000000E-03 0.  1.
        -12    1    4    4    0    0 -0.39313258558E+01 -0.31663164446E+01  0.14793362124E+02  0.15630881157E+02  0.00000000000E+00 0.  1.
</event>
<event>
 8    1  0.4042158E-011  0.9118800E+02  0.7816164E-02  0.1184000E+00
        -11   -1    0    0    0    0  0.00000000000E+00  0.00000000000E+00  0.45593999997E+02  0.45594000000E+02  0.51100000000E-03 0. -1.
         11   -1    0    0    0    0 -0.00000000000E+00 -0.00000000000E+00 -0.45593999997E+02  0.45594000000E+02  0.51100000000E-03 0.  1.
         23    2    1    2    0    0  0.22204460493E-15  0.00000000000E+00  0.00000000000E+00  0.91188000000E+02  0.91188000000E+02 0.  0.
    9900012    2    3    3    0    0  0.17277864330E+01 -0.98280543682E+01  0.42237986523E+02  0.47787269543E+02  0.19999993156E+02 0.  0.
        -12    1    3    3    0    0 -0.17277864330E+01  0.98280543682E+01 -0.42237986523E+02  0.43400730457E+02  0.00000000000E+00 0.  1.
         11    1    4    4    0    0 -0.13975101408E+01  0.60751309038E+00 -0.10034405904E+00  0.15271463387E+01  0.51100000000E-03 0. -1.
        -11    1    4    4    0    0 -0.47663843762E+01 -0.11582004872E+01  0.22113477980E+02  0.22650954881E+02  0.51100000000E-03 0.  1.
         12    1    4    4    0    0  0.78916809499E+01 -0.92773669714E+01  0.20224852602E+02  0.23609168323E+02  0.00000000000E+00 0. -1.
</event>
<event>
 8    1  0.4042158E-011  0.9118800E+02  0.7816164E-02  0.1184000E+00
        -11   -1    0    0    0    0  0.00000000000E+00  0.00000000000E+00  0.45593999997E+02  0.45594000000E+02  0.51100000000E-03 0. -1.
         11   -1    0    0    0    0 -0.00000000000E+00 -0.00000000000E+00 -0.45593999997E+02  0.45594000000E+02  0.51100000000E-03 0.  1.
         23    2    1    2    0    0  0.00000000000E+00  0.00000000000E+00  0.00000000000E+00  0.91188000000E+02  0.91188000000E+02 0.  0.
    9900012    2    3    3    0    0  0.98210309926E+01 -0.10375431714E+01 -0.42262208259E+02  0.47787269677E+02  0.19999993766E+02 0.  0.
         12    1    3    3    0    0 -0.98210309926E+01  0.10375431714E+01  0.42262208259E+02  0.43400730323E+02  0.00000000000E+00 0. -1.
         11    1    4    4    0    0 -0.88095328432E+00  0.34308537064E+01 -0.14555518640E+02  0.14980319055E+02  0.51100000000E-03 0. -1.
        -11    1    4    4    0    0  0.78374725579E+01  0.33530554190E+01 -0.93725792498E+01  0.12669419829E+02  0.51100000000E-03 0.  1.
         12    1    4    4    0    0  0.28645117191E+01 -0.78214522968E+01 -0.18334110370E+02  0.20137530794E+02  0.00000000000E+00 0. -1.
</event>
<event>
 8    1  0.4042158E-011  0.9118800E+02  0.7816164E-02  0.1184000E+00
        -11   -1    0    0    0    0  0.00000000000E+00  0.00000000000E+00  0.45593999997E+02  0.45594000000E+02  0.51100000000E-03 0. -1.
         11   -1    0    0    0    0 -0.00000000000E+00 -0.00000000000E+00 -0.45593999997E+02  0.45594000000E+02  0.51100000000E-03 0.  1.
         23    2    1    2    0    0  0.17763568394E-14 -0.44408920985E-15 -0.71054273576E-14  0.91188000000E+02  0.91188000000E+02 0.  0.
    9900012    2    3    3    0    0  0.83006114461E+01 -0.18599967298E+01  0.42558942689E+02  0.47787270271E+02  0.19999996473E+02 0.  0.
        -12    1    3    3    0    0 -0.83006114461E+01  0.18599967298E+01 -0.42558942689E+02  0.43400729729E+02  0.00000000000E+00 0.  1.
         11    1    4    4    0    0  0.77185503047E+01  0.45134457724E+01  0.16331865832E+02  0.18619265650E+02  0.51100000000E-03 0. -1.
        -11    1    4    4    0    0 -0.30444435948E+01  0.16961940944E+01  0.11203411592E+02  0.11732951154E+02  0.51100000000E-03 0.  1.
         12    1    4    4    0    0  0.36265047362E+01 -0.80696365967E+01  0.15023665265E+02  0.17435053467E+02  0.00000000000E+00 0. -1.
</event>
<event>
 8    1  0.4042158E-011  0.9118800E+02  0.7816164E-02  0.1184000E+00
        -11   -1    0    0    0    0  0.00000000000E+00  0.00000000000E+00  0.45593999997E+02  0.45594000000E+02  0.51100000000E-03 0. -1.
         11   -1    0    0    0    0 -0.00000000000E+00 -0.00000000000E+00 -0.45593999997E+02  0.45594000000E+02  0.51100000000E-03 0.  1.
         23    2    1    2    0    0  0.00000000000E+00  0.35527136788E-14 -0.17763568394E-14  0.91188000000E+02  0.91188000000E+02 0.  0.
    9900012    2    3    3    0    0  0.36742384391E+02 -0.19946331261E+02  0.11651798561E+02  0.47787270154E+02  0.19999995938E+02 0.  0.
        -12    1    3    3    0    0 -0.36742384391E+02  0.19946331261E+02 -0.11651798561E+02  0.43400729846E+02  0.00000000000E+00 0.  1.
         11    1    4    4    0    0  0.16881467041E+00  0.33840162492E+00 -0.22957367179E+01  0.23266760393E+01  0.51100000000E-03 0. -1.
        -11    1    4    4    0    0 -0.45426879872E+00 -0.15473915121E+01 -0.18063762099E+00  0.16227787417E+01  0.51100000000E-03 0.  1.
         12    1    4    4    0    0  0.37027838519E+02 -0.18737341374E+02  0.14128172900E+02  0.43837815373E+02  0.00000000000E+00 0. -1.
</event>
<event>
 8    1  0.4042158E-011  0.9118800E+02  0.7816164E-02  0.1184000E+00
        -11   -1    0    0    0    0  0.00000000000E+00  0.00000000000E+00  0.45593999997E+02  0.45594000000E+02  0.51100000000E-03 0. -1.
         11   -1    0    0    0    0 -0.00000000000E+00 -0.00000000000E+00 -0.45593999997E+02  0.45594000000E+02  0.51100000000E-03 0.  1.
         23    2    1    2    0    0  0.00000000000E+00  0.00000000000E+00  0.71054273576E-14  0.91188000000E+02  0.91188000000E+02 0.  0.
    9900012    2    3    3    0    0  0.53435935481E+01  0.72229819769E+01 -0.42460546920E+02  0.47787268377E+02  0.19999987840E+02 0.  0.
         12    1    3    3    0    0 -0.53435935481E+01 -0.72229819769E+01  0.42460546920E+02  0.43400731623E+02  0.00000000000E+00 0. -1.
         11    1    4    4    0    0  0.64674736408E+01  0.56739562432E+00 -0.16755602241E+02  0.17969428478E+02  0.51100000000E-03 0.  1.
        -11    1    4    4    0    0 -0.62992437612E+01  0.14857659163E+01 -0.18292201774E+02  0.19403417697E+02  0.51100000000E-03 0. -1.
         12    1    4    4    0    0  0.51753636685E+01  0.51698204362E+01 -0.74127429047E+01  0.10414422203E+02  0.00000000000E+00 0. -1.
</event>
<event>
 8    1  0.4042158E-011  0.9118800E+02  0.7816164E-02  0.1184000E+00
        -11   -1    0    0    0    0  0.00000000000E+00  0.00000000000E+00  0.45593999997E+02  0.45594000000E+02  0.51100000000E-03 0. -1.
         11   -1    0    0    0    0 -0.00000000000E+00 -0.00000000000E+00 -0.45593999997E+02  0.45594000000E+02  0.51100000000E-03 0.  1.
         23    2    1    2    0    0  0.00000000000E+00 -0.35527136788E-14 -0.71054273576E-14  0.91188000000E+02  0.91188000000E+02 0.  0.
    9900012    2    3    3    0    0  0.13461656087E+02 -0.25315343419E+02 -0.32581298016E+02  0.47787265244E+02  0.19999973552E+02 0.  0.
         12    1    3    3    0    0 -0.13461656087E+02  0.25315343419E+02  0.32581298016E+02  0.43400734756E+02  0.00000000000E+00 0. -1.
         11    1    4    4    0    0  0.38365318164E+01 -0.71414501228E+01 -0.13299513807E+02  0.15575504935E+02  0.51100000000E-03 0.  1.
        -11    1    4    4    0    0  0.81225338636E+00 -0.12131557297E+02 -0.17605126390E+02  0.21395675112E+02  0.51100000000E-03 0. -1.
         12    1    4    4    0    0  0.88128708840E+01 -0.60423359985E+01 -0.16766578188E+01  0.10816085197E+02  0.00000000000E+00 0. -1.
</event>
<event>
 8    1  0.4042158E-011  0.9118800E+02  0.7816164E-02  0.1184000E+00
        -11   -1    0    0    0    0  0.00000000000E+00  0.00000000000E+00  0.45593999997E+02  0.45594000000E+02  0.51100000000E-03 0. -1.
         11   -1    0    0    0    0 -0.00000000000E+00 -0.00000000000E+00 -0.45593999997E+02  0.45594000000E+02  0.51100000000E-03 0.  1.
         23    2    1    2    0    0  0.00000000000E+00  0.35527136788E-14  0.00000000000E+00  0.91188000000E+02  0.91188000000E+02 0.  0.
    9900012    2    3    3    0    0  0.15392048011E+02 -0.24666360099E+02  0.32222331046E+02  0.47787273272E+02  0.20000010155E+02 0.  0.
        -12    1    3    3    0    0 -0.15392048011E+02  0.24666360099E+02 -0.32222331046E+02  0.43400726728E+02  0.00000000000E+00 0.  1.
         11    1    4    4    0    0  0.76213722299E+01  0.60068129659E+00  0.33556884134E+01  0.83490584904E+01  0.51100000000E-03 0.  1.
        -11    1    4    4    0    0  0.21557629876E+01 -0.76757803586E+01  0.56412799525E+01  0.97667270841E+01  0.51100000000E-03 0. -1.
        -12    1    4    4    0    0  0.56149127931E+01 -0.17591261037E+02  0.23225362680E+02  0.29671487697E+02  0.00000000000E+00 0.  1.
</event>
<event>
 8    1  0.4042158E-011  0.9118800E+02  0.7816164E-02  0.1184000E+00
        -11   -1    0    0    0    0  0.00000000000E+00  0.00000000000E+00  0.45593999997E+02  0.45594000000E+02  0.51100000000E-03 0. -1.
         11   -1    0    0    0    0 -0.00000000000E+00 -0.00000000000E+00 -0.45593999997E+02  0.45594000000E+02  0.51100000000E-03 0.  1.
         23    2    1    2    0    0  0.00000000000E+00  0.00000000000E+00  0.00000000000E+00  0.91188000000E+02  0.91188000000E+02 0.  0.
    9900012    2    3    3    0    0 -0.22362936308E+02 -0.17099615203E+02  0.33032174627E+02  0.47787282022E+02  0.20000050050E+02 0.  0.
        -12    1    3    3    0    0  0.22362936308E+02  0.17099615203E+02 -0.33032174627E+02  0.43400717978E+02  0.00000000000E+00 0.  1.
         11    1    4    4    0    0 -0.16411136170E+02 -0.16107270205E+02  0.29681411273E+02  0.37546713828E+02  0.51100000000E-03 0. -1.
        -11    1    4    4    0    0 -0.69447742144E+01 -0.11478327070E+01  0.47689303925E+01  0.85023588587E+01  0.51100000000E-03 0.  1.
        -12    1    4    4    0    0  0.99297407643E+00  0.15548770890E+00 -0.14181670382E+01  0.17382093350E+01  0.00000000000E+00 0.  1.
</event>
<event>
 8    1  0.4042158E-011  0.9118800E+02  0.7816164E-02  0.1184000E+00
        -11   -1    0    0    0    0  0.00000000000E+00  0.00000000000E+00  0.45593999997E+02  0.45594000000E+02  0.51100000000E-03 0. -1.
         11   -1    0    0    0    0 -0.00000000000E+00 -0.00000000000E+00 -0.45593999997E+02  0.45594000000E+02  0.51100000000E-03 0.  1.
         23    2    1    2    0    0  0.00000000000E+00  0.00000000000E+00 -0.17763568394E-14  0.91188000000E+02  0.91188000000E+02 0.  0.
    9900012    2    3    3    0    0  0.38456863015E+02 -0.14193620268E+02  0.14256026742E+02  0.47787268811E+02  0.19999989818E+02 0.  0.
        -12    1    3    3    0    0 -0.38456863015E+02  0.14193620268E+02 -0.14256026742E+02  0.43400731189E+02  0.00000000000E+00 0.  1.
         11    1    4    4    0    0  0.38162578371E+01  0.27820813417E+01  0.27258831350E+01  0.54529111122E+01  0.51100000000E-03 0. -1.
        -11    1    4    4    0    0  0.58520167145E+01 -0.33040189487E+01  0.77233228736E+01  0.10237790646E+02  0.51100000000E-03 0.  1.
         12    1    4    4    0    0  0.28788588463E+02 -0.13671682661E+02  0.38068207334E+01  0.32096567053E+02  0.00000000000E+00 0. -1.
</event>
<event>
 8    1  0.4042158E-011  0.9118800E+02  0.7816164E-02  0.1184000E+00
        -11   -1    0    0    0    0  0.00000000000E+00  0.00000000000E+00  0.45593999997E+02  0.45594000000E+02  0.51100000000E-03 0. -1.
         11   -1    0    0    0    0 -0.00000000000E+00 -0.00000000000E+00 -0.45593999997E+02  0.45594000000E+02  0.51100000000E-03 0.  1.
         23    2    1    2    0    0  0.00000000000E+00  0.00000000000E+00  0.00000000000E+00  0.91188000000E+02  0.91188000000E+02 0.  0.
    9900012    2    3    3    0    0 -0.17362071286E+02 -0.80251877465E+01 -0.38958674954E+02  0.47787268303E+02  0.19999987499E+02 0.  0.
         12    1    3    3    0    0  0.17362071286E+02  0.80251877465E+01  0.38958674954E+02  0.43400731697E+02  0.00000000000E+00 0. -1.
         11    1    4    4    0    0  0.18344416192E+01 -0.12006959956E+01 -0.12163888561E+01  0.25072792103E+01  0.51100000000E-03 0. -1.
        -11    1    4    4    0    0 -0.54869394174E+00  0.19136348971E+01 -0.12711632846E+02  0.12866571938E+02  0.51100000000E-03 0.  1.
        -12    1    4    4    0    0 -0.18647818964E+02 -0.87381266480E+01 -0.25030653251E+02  0.32413417154E+02  0.00000000000E+00 0.  1.
</event>
<event>
 8    1  0.4042158E-011  0.9118800E+02  0.7816164E-02  0.1184000E+00
        -11   -1    0    0    0    0  0.00000000000E+00  0.00000000000E+00  0.45593999997E+02  0.45594000000E+02  0.51100000000E-03 0. -1.
         11   -1    0    0    0    0 -0.00000000000E+00 -0.00000000000E+00 -0.45593999997E+02  0.45594000000E+02  0.51100000000E-03 0.  1.
         23    2    1    2    0    0  0.35527136788E-14  0.00000000000E+00 -0.88817841970E-15  0.91188000000E+02  0.91188000000E+02 0.  0.
    9900012    2    3    3    0    0  0.31259699565E+02 -0.29447696657E+02 -0.62679713738E+01  0.47787272812E+02  0.20000008059E+02 0.  0.
         12    1    3    3    0    0 -0.31259699565E+02  0.29447696657E+02  0.62679713738E+01  0.43400727188E+02  0.00000000000E+00 0. -1.
         11    1    4    4    0    0  0.72345708318E+01 -0.36247714114E+01  0.84569575277E-01  0.80922886243E+01  0.51100000000E-03 0. -1.
        -11    1    4    4    0    0  0.26362381926E+02 -0.21518580698E+02 -0.70360808617E+01  0.34749545756E+02  0.51100000000E-03 0.  1.
         12    1    4    4    0    0 -0.23372531929E+01 -0.43043445478E+01  0.68353991267E+00  0.49454384321E+01  0.00000000000E+00 0. -1.
</event>
<event>
 8    1  0.4065268E-011  0.9118800E+02  0.7816164E-02  0.1184000E+00
        -11   -1    0    0    0    0  0.00000000000E+00  0.00000000000E+00  0.45593999997E+02  0.45594000000E+02  0.51100000000E-03 0. -1.
         11   -1    0    0    0    0 -0.00000000000E+00 -0.00000000000E+00 -0.45593999997E+02  0.45594000000E+02  0.51100000000E-03 0.  1.
         23    2    1    2    0    0  0.00000000000E+00  0.00000000000E+00  0.00000000000E+00  0.91188000000E+02  0.91188000000E+02 0.  0.
    9900012    2    3    3    0    0  0.24390338526E+02  0.29933480861E+02  0.19817202494E+02  0.47787269539E+02  0.19999993135E+02 0.  0.
        -12    1    3    3    0    0 -0.24390338526E+02 -0.29933480861E+02 -0.19817202494E+02  0.43400730461E+02  0.00000000000E+00 0.  1.
         11    1    4    4    0    0  0.15802216231E+02  0.11074388173E+02  0.77114281658E+01  0.20780236665E+02  0.51100000000E-03 0. -1.
        -11    1    4    4    0    0  0.12662068747E+01 -0.16727714354E+01  0.53384829533E-01  0.20986410665E+01  0.51100000000E-03 0.  1.
        -12    1    4    4    0    0  0.73219154206E+01  0.20531864124E+02  0.12052389498E+02  0.24908391808E+02  0.00000000000E+00 0.  1.
</event>
<event>
 8    1  0.4042158E-011  0.9118800E+02  0.7816164E-02  0.1184000E+00
        -11   -1    0    0    0    0  0.00000000000E+00  0.00000000000E+00  0.45593999997E+02  0.45594000000E+02  0.51100000000E-03 0. -1.
         11   -1    0    0    0    0 -0.00000000000E+00 -0.00000000000E+00 -0.45593999997E+02  0.45594000000E+02  0.51100000000E-03 0.  1.
         23    2    1    2    0    0  0.00000000000E+00  0.00000000000E+00  0.00000000000E+00  0.91188000000E+02  0.91188000000E+02 0.  0.
    9900012    2    3    3    0    0  0.25439785578E+02 -0.65386144427E+01  0.34549781989E+02  0.47787267234E+02  0.19999982629E+02 0.  0.
        -12    1    3    3    0    0 -0.25439785578E+02  0.65386144427E+01 -0.34549781989E+02  0.43400732766E+02  0.00000000000E+00 0.  1.
         11    1    4    4    0    0  0.10672108011E+02 -0.61560519884E+01  0.29557688869E+02  0.32022614463E+02  0.51100000000E-03 0. -1.
        -11    1    4    4    0    0  0.25795913930E+01 -0.33207677450E+00  0.19052555871E-01  0.26009479041E+01  0.51100000000E-03 0.  1.
         12    1    4    4    0    0  0.12188086174E+02 -0.50485679819E-01  0.49730405646E+01  0.13163704868E+02  0.00000000000E+00 0. -1.
</event>
<event>
 8    1  0.4042158E-011  0.9118800E+02  0.7816164E-02  0.1184000E+00
        -11   -1    0    0    0    0  0.00000000000E+00  0.00000000000E+00  0.45593999997E+02  0.45594000000E+02  0.51100000000E-03 0. -1.
         11   -1    0    0    0    0 -0.00000000000E+00 -0.00000000000E+00 -0.45593999997E+02  0.45594000000E+02  0.51100000000E-03 0.  1.
         23    2    1    2    0    0 -0.35527136788E-14  0.00000000000E+00  0.00000000000E+00  0.91188000000E+02  0.91188000000E+02 0.  0.
    9900012    2    3    3    0    0 -0.26072996100E+02 -0.23381377587E+02 -0.25634613300E+02  0.47787270253E+02  0.19999996392E+02 0.  0.
         12    1    3    3    0    0  0.26072996100E+02  0.23381377587E+02  0.25634613300E+02  0.43400729747E+02  0.00000000000E+00 0. -1.
         11    1    4    4    0    0 -0.14152456740E+01  0.93091676159E+00 -0.86138505759E+00  0.19003975409E+01  0.51100000000E-03 0. -1.
        -11    1    4    4    0    0 -0.10776885839E+02 -0.19963331040E+02 -0.89354171978E+01  0.24382730269E+02  0.51100000000E-03 0.  1.
        -12    1    4    4    0    0 -0.13880864587E+02 -0.43489633094E+01 -0.15837811045E+02  0.21504142444E+02  0.00000000000E+00 0.  1.
</event>
<event>
 8    1  0.4042158E-011  0.9118800E+02  0.7816164E-02  0.1184000E+00
        -11   -1    0    0    0    0  0.00000000000E+00  0.00000000000E+00  0.45593999997E+02  0.45594000000E+02  0.51100000000E-03 0. -1.
         11   -1    0    0    0    0 -0.00000000000E+00 -0.00000000000E+00 -0.45593999997E+02  0.45594000000E+02  0.51100000000E-03 0.  1.
         23    2    1    2    0    0 -0.88817841970E-15  0.00000000000E+00  0.00000000000E+00  0.91188000000E+02  0.91188000000E+02 0.  0.
    9900012    2    3    3    0    0 -0.74375101667E+01 -0.18140043191E+02 -0.38720085536E+02  0.47787277099E+02  0.20000027604E+02 0.  0.
         12    1    3    3    0    0  0.74375101667E+01  0.18140043191E+02  0.38720085536E+02  0.43400722901E+02  0.00000000000E+00 0. -1.
         11    1    4    4    0    0 -0.48706802713E+01 -0.71206505426E+01 -0.30838426570E+02  0.32022425643E+02  0.51100000000E-03 0.  1.
        -11    1    4    4    0    0  0.17963137439E+01 -0.13087670345E-01 -0.13140366626E+01  0.22256700037E+01  0.51100000000E-03 0. -1.
        -12    1    4    4    0    0 -0.43631436392E+01 -0.11006304978E+02 -0.65676223032E+01  0.13539181452E+02  0.00000000000E+00 0.  1.
</event>
<event>
 8    1  0.4042158E-011  0.9118800E+02  0.7816164E-02  0.1184000E+00
        -11   -1    0    0    0    0  0.00000000000E+00  0.00000000000E+00  0.45593999997E+02  0.45594000000E+02  0.51100000000E-03 0. -1.
         11   -1    0    0    0    0 -0.00000000000E+00 -0.00000000000E+00 -0.45593999997E+02  0.45594000000E+02  0.51100000000E-03 0.  1.
         23    2    1    2    0    0 -0.35527136788E-14  0.17763568394E-14  0.00000000000E+00  0.91188000000E+02  0.91188000000E+02 0.  0.
    9900012    2    3    3    0    0  0.19049166958E+02 -0.15605867175E+02  0.35738069975E+02  0.47787268467E+02  0.19999988248E+02 0.  0.
        -12    1    3    3    0    0 -0.19049166958E+02  0.15605867175E+02 -0.35738069975E+02  0.43400731533E+02  0.00000000000E+00 0.  1.
         11    1    4    4    0    0  0.10404538082E+01  0.11355784281E+01  0.70928580066E+01  0.72581483490E+01  0.51100000000E-03 0. -1.
        -11    1    4    4    0    0  0.24419369230E+01 -0.22992678879E+01 -0.14850504921E+01  0.36681144995E+01  0.51100000000E-03 0.  1.
         12    1    4    4    0    0  0.15566776227E+02 -0.14442177715E+02  0.30130262461E+02  0.36861005618E+02  0.00000000000E+00 0. -1.
</event>
<event>
 8    1  0.4042158E-011  0.9118800E+02  0.7816164E-02  0.1184000E+00
        -11   -1    0    0    0    0  0.00000000000E+00  0.00000000000E+00  0.45593999997E+02  0.45594000000E+02  0.51100000000E-03 0. -1.
         11   -1    0    0    0    0 -0.00000000000E+00 -0.00000000000E+00 -0.45593999997E+02  0.45594000000E+02  0.51100000000E-03 0.  1.
         23    2    1    2    0    0  0.00000000000E+00  0.17763568394E-14  0.00000000000E+00  0.91188000000E+02  0.91188000000E+02 0.  0.
    9900012    2    3    3    0    0  0.25176025821E+02 -0.11472930348E+02 -0.33438939860E+02  0.47787272980E+02  0.20000008823E+02 0.  0.
         12    1    3    3    0    0 -0.25176025821E+02  0.11472930348E+02  0.33438939860E+02  0.43400727020E+02  0.00000000000E+00 0. -1.
         11    1    4    4    0    0  0.10793555183E+01  0.35059519011E+01 -0.88273250509E+01  0.95592036741E+01  0.51100000000E-03 0. -1.
        -11    1    4    4    0    0  0.33661041952E+01 -0.24345729064E+01 -0.74693648928E+01  0.85468833414E+01  0.51100000000E-03 0.  1.
        -12    1    4    4    0    0  0.20730566108E+02 -0.12544309342E+02 -0.17142249917E+02  0.29681185964E+02  0.00000000000E+00 0.  1.
</event>
<event>
 8    1  0.4042158E-011  0.9118800E+02  0.7816164E-02  0.1184000E+00
        -11   -1    0    0    0    0  0.00000000000E+00  0.00000000000E+00  0.45593999997E+02  0.45594000000E+02  0.51100000000E-03 0. -1.
         11   -1    0    0    0    0 -0.00000000000E+00 -0.00000000000E+00 -0.45593999997E+02  0.45594000000E+02  0.51100000000E-03 0.  1.
         23    2    1    2    0    0  0.00000000000E+00  0.00000000000E+00 -0.71054273576E-14  0.91188000000E+02  0.91188000000E+02 0.  0.
    9900012    2    3    3    0    0  0.17129993214E+02  0.65983452031E+01 -0.39327451327E+02  0.47787271265E+02  0.20000001004E+02 0.  0.
         12    1    3    3    0    0 -0.17129993214E+02 -0.65983452031E+01  0.39327451327E+02  0.43400728735E+02  0.00000000000E+00 0. -1.
         11    1    4    4    0    0  0.10453649181E+02 -0.15236079777E+01 -0.21698824530E+02  0.24133776098E+02  0.51100000000E-03 0. -1.
        -11    1    4    4    0    0  0.21832432948E+01 -0.29026748367E+01 -0.25321348546E+01  0.44276155744E+01  0.51100000000E-03 0.  1.
        -12    1    4    4    0    0  0.44931007379E+01  0.11024628017E+02 -0.15096491942E+02  0.19225879593E+02  0.00000000000E+00 0.  1.
</event>
<event>
 8    1  0.4042158E-011  0.9118800E+02  0.7816164E-02  0.1184000E+00
        -11   -1    0    0    0    0  0.00000000000E+00  0.00000000000E+00  0.45593999997E+02  0.45594000000E+02  0.51100000000E-03 0. -1.
         11   -1    0    0    0    0 -0.00000000000E+00 -0.00000000000E+00 -0.45593999997E+02  0.45594000000E+02  0.51100000000E-03 0.  1.
         23    2    1    2    0    0 -0.35527136788E-14  0.00000000000E+00  0.35527136788E-14  0.91188000000E+02  0.91188000000E+02 0.  0.
    9900012    2    3    3    0    0 -0.31318174192E+02 -0.17629507421E+02  0.24330960063E+02  0.47787272077E+02  0.20000004710E+02 0.  0.
        -12    1    3    3    0    0  0.31318174192E+02  0.17629507421E+02 -0.24330960063E+02  0.43400727923E+02  0.00000000000E+00 0.  1.
         11    1    4    4    0    0 -0.11053480032E+02 -0.76326130803E+01  0.61471410875E+01  0.14772391379E+02  0.51100000000E-03 0. -1.
        -11    1    4    4    0    0 -0.18482232514E+02 -0.34606532213E+01  0.18300638009E+02  0.26238947982E+02  0.51100000000E-03 0.  1.
        -12    1    4    4    0    0 -0.17824616458E+01 -0.65362411189E+01 -0.11681903296E+00  0.67759327159E+01  0.00000000000E+00 0.  1.
</event>
<event>
 8    1  0.4042158E-011  0.9118800E+02  0.7816164E-02  0.1184000E+00
        -11   -1    0    0    0    0  0.00000000000E+00  0.00000000000E+00  0.45593999997E+02  0.45594000000E+02  0.51100000000E-03 0. -1.
         11   -1    0    0    0    0 -0.00000000000E+00 -0.00000000000E+00 -0.45593999997E+02  0.45594000000E+02  0.51100000000E-03 0.  1.
         23    2    1    2    0    0 -0.94368957093E-15  0.00000000000E+00 -0.71054273576E-14  0.91188000000E+02  0.91188000000E+02 0.  0.
    9900012    2    3    3    0    0  0.23934898750E+00 -0.21165759326E+02  0.37889002572E+02  0.47787272221E+02  0.20000005367E+02 0.  0.
        -12    1    3    3    0    0 -0.23934898750E+00  0.21165759326E+02 -0.37889002572E+02  0.43400727779E+02  0.00000000000E+00 0.  1.
         11    1    4    4    0    0  0.15451004212E+01 -0.48548864761E+01  0.94081740109E+01  0.10699111949E+02  0.51100000000E-03 0. -1.
        -11    1    4    4    0    0 -0.57058633756E+01  0.89606598245E+00  0.49482494108E+01  0.76055889712E+01  0.51100000000E-03 0.  1.
        -12    1    4    4    0    0  0.44001119419E+01 -0.17206938832E+02  0.23532579151E+02  0.29482571302E+02  0.00000000000E+00 0.  1.
</event>
<event>
 8    1  0.4042158E-011  0.9118800E+02  0.7816164E-02  0.1184000E+00
        -11   -1    0    0    0    0  0.00000000000E+00  0.00000000000E+00  0.45593999997E+02  0.45594000000E+02  0.51100000000E-03 0. -1.
         11   -1    0    0    0    0 -0.00000000000E+00 -0.00000000000E+00 -0.45593999997E+02  0.45594000000E+02  0.51100000000E-03 0.  1.
         23    2    1    2    0    0  0.00000000000E+00  0.00000000000E+00  0.00000000000E+00  0.91188000000E+02  0.91188000000E+02 0.  0.
    9900012    2    3    3    0    0 -0.14589957821E+02 -0.23400980625E+02 -0.33513443348E+02  0.47787266729E+02  0.19999980326E+02 0.  0.
         12    1    3    3    0    0  0.14589957821E+02  0.23400980625E+02  0.33513443348E+02  0.43400733271E+02  0.00000000000E+00 0. -1.
         11    1    4    4    0    0 -0.36431227917E+01  0.18241035021E+01 -0.24612037564E+01  0.47599602365E+01  0.51100000000E-03 0. -1.
        -11    1    4    4    0    0 -0.84914629389E+01 -0.59981679036E+01 -0.10466766136E+02  0.14752496557E+02  0.51100000000E-03 0.  1.
        -12    1    4    4    0    0 -0.24553720906E+01 -0.19226916223E+02 -0.20585473455E+02  0.28274809936E+02  0.00000000000E+00 0.  1.
</event>
<event>
 8    1  0.4042158E-011  0.9118800E+02  0.7816164E-02  0.1184000E+00
        -11   -1    0    0    0    0  0.00000000000E+00  0.00000000000E+00  0.45593999997E+02  0.45594000000E+02  0.51100000000E-03 0. -1.
         11   -1    0    0    0    0 -0.00000000000E+00 -0.00000000000E+00 -0.45593999997E+02  0.45594000000E+02  0.51100000000E-03 0.  1.
         23    2    1    2    0    0  0.00000000000E+00  0.00000000000E+00 -0.35527136788E-14  0.91188000000E+02  0.91188000000E+02 0.  0.
    9900012    2    3    3    0    0 -0.70944051324E+01 -0.35223463794E+02  0.24343382272E+02  0.47787271363E+02  0.20000001451E+02 0.  0.
        -12    1    3    3    0    0  0.70944051324E+01  0.35223463794E+02 -0.24343382272E+02  0.43400728637E+02  0.00000000000E+00 0.  1.
         11    1    4    4    0    0 -0.77117167655E+01 -0.16866223174E+02  0.62197868492E+01  0.19560823304E+02  0.51100000000E-03 0. -1.
        -11    1    4    4    0    0  0.12954860229E+01  0.82023994466E+00 -0.36851623225E+00  0.15769851226E+01  0.51100000000E-03 0.  1.
         12    1    4    4    0    0 -0.67817438990E+00 -0.19177480564E+02  0.18492111655E+02  0.26649462936E+02  0.00000000000E+00 0. -1.
</event>
<event>
 8    1  0.4042158E-011  0.9118800E+02  0.7816164E-02  0.1184000E+00
        -11   -1    0    0    0    0  0.00000000000E+00  0.00000000000E+00  0.45593999997E+02  0.45594000000E+02  0.51100000000E-03 0. -1.
         11   -1    0    0    0    0 -0.00000000000E+00 -0.00000000000E+00 -0.45593999997E+02  0.45594000000E+02  0.51100000000E-03 0.  1.
         23    2    1    2    0    0  0.35527136788E-14 -0.35527136788E-14  0.00000000000E+00  0.91188000000E+02  0.91188000000E+02 0.  0.
    9900012    2    3    3    0    0 -0.25821772549E+02  0.13571586940E+02 -0.32135206708E+02  0.47787269363E+02  0.19999992334E+02 0.  0.
         12    1    3    3    0    0  0.25821772549E+02 -0.13571586940E+02  0.32135206708E+02  0.43400730637E+02  0.00000000000E+00 0. -1.
         11    1    4    4    0    0 -0.13579055967E+02  0.63781118975E+00 -0.14174070075E+02  0.19639292931E+02  0.51100000000E-03 0. -1.
        -11    1    4    4    0    0 -0.14282601771E+02  0.11220063315E+02 -0.17873648868E+02  0.25482344050E+02  0.51100000000E-03 0.  1.
        -12    1    4    4    0    0  0.20398851884E+01  0.17137124352E+01 -0.87487764887E-01  0.26656323831E+01  0.00000000000E+00 0.  1.
</event>
<event>
 8    1  0.4042158E-011  0.9118800E+02  0.7816164E-02  0.1184000E+00
        -11   -1    0    0    0    0  0.00000000000E+00  0.00000000000E+00  0.45593999997E+02  0.45594000000E+02  0.51100000000E-03 0. -1.
         11   -1    0    0    0    0 -0.00000000000E+00 -0.00000000000E+00 -0.45593999997E+02  0.45594000000E+02  0.51100000000E-03 0.  1.
         23    2    1    2    0    0 -0.17763568394E-14  0.00000000000E+00  0.00000000000E+00  0.91188000000E+02  0.91188000000E+02 0.  0.
    9900012    2    3    3    0    0 -0.15011674735E+02  0.40687769665E+01  0.40518116922E+02  0.47787272779E+02  0.20000007910E+02 0.  0.
        -12    1    3    3    0    0  0.15011674735E+02 -0.40687769665E+01 -0.40518116922E+02  0.43400727221E+02  0.00000000000E+00 0.  1.
         11    1    4    4    0    0 -0.11161758989E+02 -0.29369369580E+01  0.24662564696E+02  0.27229626513E+02  0.51100000000E-03 0. -1.
        -11    1    4    4    0    0 -0.42281398165E+01  0.56864300597E+00  0.12663155609E+02  0.13362485975E+02  0.51100000000E-03 0.  1.
        -12    1    4    4    0    0  0.37822407027E+00  0.64370709186E+01  0.31923966176E+01  0.71951602916E+01  0.00000000000E+00 0.  1.
</event>
<event>
 8    1  0.4042158E-011  0.9118800E+02  0.7816164E-02  0.1184000E+00
        -11   -1    0    0    0    0  0.00000000000E+00  0.00000000000E+00  0.45593999997E+02  0.45594000000E+02  0.51100000000E-03 0. -1.
         11   -1    0    0    0    0 -0.00000000000E+00 -0.00000000000E+00 -0.45593999997E+02  0.45594000000E+02  0.51100000000E-03 0.  1.
         23    2    1    2    0    0  0.35527136788E-14  0.00000000000E+00  0.00000000000E+00  0.91188000000E+02  0.91188000000E+02 0.  0.
    9900012    2    3    3    0    0 -0.24448902465E+02  0.17736547297E+02  0.31165515164E+02  0.47787271006E+02  0.19999999827E+02 0.  0.
        -12    1    3    3    0    0  0.24448902465E+02 -0.17736547297E+02 -0.31165515164E+02  0.43400728994E+02  0.00000000000E+00 0.  1.
         11    1    4    4    0    0 -0.73517981237E+01  0.24987578815E+01  0.15737958688E+02  0.17549247008E+02  0.51100000000E-03 0. -1.
        -11    1    4    4    0    0 -0.12293168938E+02  0.28926338345E+01  0.60191072788E+01  0.13989960177E+02  0.51100000000E-03 0.  1.
         12    1    4    4    0    0 -0.48039354025E+01  0.12345155581E+02  0.94084491964E+01  0.16248063822E+02  0.00000000000E+00 0. -1.
</event>
<event>
 8    1  0.4042158E-011  0.9118800E+02  0.7816164E-02  0.1184000E+00
        -11   -1    0    0    0    0  0.00000000000E+00  0.00000000000E+00  0.45593999997E+02  0.45594000000E+02  0.51100000000E-03 0. -1.
         11   -1    0    0    0    0 -0.00000000000E+00 -0.00000000000E+00 -0.45593999997E+02  0.45594000000E+02  0.51100000000E-03 0.  1.
         23    2    1    2    0    0  0.00000000000E+00  0.17763568394E-14  0.35527136788E-14  0.91188000000E+02  0.91188000000E+02 0.  0.
    9900012    2    3    3    0    0  0.35118460036E+02  0.11114101118E+02  0.22951982672E+02  0.47787274343E+02  0.20000015040E+02 0.  0.
        -12    1    3    3    0    0 -0.35118460036E+02 -0.11114101118E+02 -0.22951982672E+02  0.43400725657E+02  0.00000000000E+00 0.  1.
         11    1    4    4    0    0  0.10353340508E+02  0.49971022583E+01  0.79716145061E+01  0.13989615032E+02  0.51100000000E-03 0. -1.
        -11    1    4    4    0    0  0.18945511471E+02  0.11634473630E+02  0.11805685145E+02  0.25172754787E+02  0.51100000000E-03 0.  1.
        -12    1    4    4    0    0  0.58196080565E+01 -0.55174747697E+01  0.31746830207E+01  0.86249045240E+01  0.00000000000E+00 0.  1.
</event>
<event>
 8    1  0.4042158E-011  0.9118800E+02  0.7816164E-02  0.1184000E+00
        -11   -1    0    0    0    0  0.00000000000E+00  0.00000000000E+00  0.45593999997E+02  0.45594000000E+02  0.51100000000E-03 0. -1.
         11   -1    0    0    0    0 -0.00000000000E+00 -0.00000000000E+00 -0.45593999997E+02  0.45594000000E+02  0.51100000000E-03 0.  1.
         23    2    1    2    0    0  0.00000000000E+00 -0.35527136788E-14  0.00000000000E+00  0.91188000000E+02  0.91188000000E+02 0.  0.
    9900012    2    3    3    0    0  0.35445068521E+02  0.82146525835E+01  0.23659880541E+02  0.47787270205E+02  0.19999996174E+02 0.  0.
        -12    1    3    3    0    0 -0.35445068521E+02 -0.82146525835E+01 -0.23659880541E+02  0.43400729795E+02  0.00000000000E+00 0.  1.
         11    1    4    4    0    0  0.22211973857E+01 -0.42177004846E+01  0.14264085895E+01  0.49756765298E+01  0.51100000000E-03 0. -1.
        -11    1    4    4    0    0  0.71094574389E+00 -0.54739718871E+00 -0.54075505878E+00  0.10476181688E+01  0.51100000000E-03 0.  1.
        -12    1    4    4    0    0  0.32512925391E+02  0.12979750257E+02  0.22774227010E+02  0.41763975507E+02  0.00000000000E+00 0.  1.
</event>
<event>
 8    1  0.4042158E-011  0.9118800E+02  0.7816164E-02  0.1184000E+00
        -11   -1    0    0    0    0  0.00000000000E+00  0.00000000000E+00  0.45593999997E+02  0.45594000000E+02  0.51100000000E-03 0. -1.
         11   -1    0    0    0    0 -0.00000000000E+00 -0.00000000000E+00 -0.45593999997E+02  0.45594000000E+02  0.51100000000E-03 0.  1.
         23    2    1    2    0    0  0.00000000000E+00  0.44408920985E-15  0.00000000000E+00  0.91188000000E+02  0.91188000000E+02 0.  0.
    9900012    2    3    3    0    0  0.29788429573E+02  0.31649281156E+01 -0.31404721901E+02  0.47787264245E+02  0.19999968997E+02 0.  0.
         12    1    3    3    0    0 -0.29788429573E+02 -0.31649281156E+01  0.31404721901E+02  0.43400735755E+02  0.00000000000E+00 0. -1.
         11    1    4    4    0    0  0.30133394717E+01  0.29774730219E+01 -0.31232817238E+01  0.52631216360E+01  0.51100000000E-03 0. -1.
        -11    1    4    4    0    0  0.22668887718E+02  0.34611833316E+01 -0.29267121480E+02  0.37180944857E+02  0.51100000000E-03 0.  1.
        -12    1    4    4    0    0  0.41062023831E+01 -0.32737282379E+01  0.98568130257E+00  0.53431977520E+01  0.00000000000E+00 0.  1.
</event>
<event>
 8    1  0.4042158E-011  0.9118800E+02  0.7816164E-02  0.1184000E+00
        -11   -1    0    0    0    0  0.00000000000E+00  0.00000000000E+00  0.45593999997E+02  0.45594000000E+02  0.51100000000E-03 0. -1.
         11   -1    0    0    0    0 -0.00000000000E+00 -0.00000000000E+00 -0.45593999997E+02  0.45594000000E+02  0.51100000000E-03 0.  1.
         23    2    1    2    0    0  0.00000000000E+00  0.00000000000E+00  0.00000000000E+00  0.91188000000E+02  0.91188000000E+02 0.  0.
    9900012    2    3    3    0    0  0.32245658264E+02  0.12308411947E+02 -0.26312431327E+02  0.47787268164E+02  0.19999986867E+02 0.  0.
         12    1    3    3    0    0 -0.32245658264E+02 -0.12308411947E+02  0.26312431327E+02  0.43400731836E+02  0.00000000000E+00 0. -1.
         11    1    4    4    0    0  0.13539845789E+02  0.11400893541E+01 -0.11024300464E+02  0.17497497784E+02  0.51100000000E-03 0. -1.
        -11    1    4    4    0    0  0.13316295571E+02  0.48417069455E+01 -0.16655381337E+02  0.21867043276E+02  0.51100000000E-03 0.  1.
         12    1    4    4    0    0  0.53895169039E+01  0.63266156477E+01  0.13672504735E+01  0.84227271040E+01  0.00000000000E+00 0. -1.
</event>
<event>
 8    1  0.4042158E-011  0.9118800E+02  0.7816164E-02  0.1184000E+00
        -11   -1    0    0    0    0  0.00000000000E+00  0.00000000000E+00  0.45593999997E+02  0.45594000000E+02  0.51100000000E-03 0. -1.
         11   -1    0    0    0    0 -0.00000000000E+00 -0.00000000000E+00 -0.45593999997E+02  0.45594000000E+02  0.51100000000E-03 0.  1.
         23    2    1    2    0    0  0.00000000000E+00  0.88817841970E-15  0.00000000000E+00  0.91188000000E+02  0.91188000000E+02 0.  0.
    9900012    2    3    3    0    0  0.99803504193E+01 -0.77854115457E+01 -0.41513886771E+02  0.47787276247E+02  0.20000023722E+02 0.  0.
         12    1    3    3    0    0 -0.99803504193E+01  0.77854115457E+01  0.41513886771E+02  0.43400723753E+02  0.00000000000E+00 0. -1.
         11    1    4    4    0    0  0.83425256657E+00 -0.44639491037E+01 -0.34745680914E+01  0.57179928846E+01  0.51100000000E-03 0. -1.
        -11    1    4    4    0    0  0.30460370140E+01  0.48403682044E+01 -0.53597751169E+01  0.78380287962E+01  0.51100000000E-03 0.  1.
        -12    1    4    4    0    0  0.61000608387E+01 -0.81618306465E+01 -0.32679543563E+02  0.34231254567E+02  0.00000000000E+00 0.  1.
</event>
<event>
 8    1  0.4042158E-011  0.9118800E+02  0.7816164E-02  0.1184000E+00
        -11   -1    0    0    0    0  0.00000000000E+00  0.00000000000E+00  0.45593999997E+02  0.45594000000E+02  0.51100000000E-03 0.  1.
         11   -1    0    0    0    0 -0.00000000000E+00 -0.00000000000E+00 -0.45593999997E+02  0.45594000000E+02  0.51100000000E-03 0. -1.
         23    2    1    2    0    0  0.00000000000E+00 -0.88817841970E-15  0.35527136788E-14  0.91188000000E+02  0.91188000000E+02 0.  0.
    9900012    2    3    3    0    0  0.31370001199E+02 -0.45694399430E+01  0.29642326405E+02  0.47787259554E+02  0.19999947609E+02 0.  0.
        -12    1    3    3    0    0 -0.31370001199E+02  0.45694399430E+01 -0.29642326405E+02  0.43400740446E+02  0.00000000000E+00 0.  1.
         11    1    4    4    0    0 -0.13515541183E+01 -0.32278705019E+01  0.17687721881E+01  0.39210205082E+01  0.51100000000E-03 0. -1.
        -11    1    4    4    0    0  0.39816620104E+01  0.22230265331E+01  0.61880718273E+01  0.76868532270E+01  0.51100000000E-03 0.  1.
         12    1    4    4    0    0  0.28739893307E+02 -0.35645959742E+01  0.21685482389E+02  0.36179385818E+02  0.00000000000E+00 0. -1.
</event>
<event>
 8    1  0.4042158E-011  0.9118800E+02  0.7816164E-02  0.1184000E+00
        -11   -1    0    0    0    0  0.00000000000E+00  0.00000000000E+00  0.45593999997E+02  0.45594000000E+02  0.51100000000E-03 0. -1.
         11   -1    0    0    0    0 -0.00000000000E+00 -0.00000000000E+00 -0.45593999997E+02  0.45594000000E+02  0.51100000000E-03 0.  1.
         23    2    1    2    0    0  0.00000000000E+00 -0.35527136788E-14  0.35527136788E-14  0.91188000000E+02  0.91188000000E+02 0.  0.
    9900012    2    3    3    0    0 -0.12761730981E+02 -0.26868898158E+02  0.31604173451E+02  0.47787271372E+02  0.20000001495E+02 0.  0.
        -12    1    3    3    0    0  0.12761730981E+02  0.26868898158E+02 -0.31604173451E+02  0.43400728628E+02  0.00000000000E+00 0.  1.
         11    1    4    4    0    0 -0.55001563661E+01 -0.78793622270E+01  0.58484648124E+01  0.11249027073E+02  0.51100000000E-03 0. -1.
        -11    1    4    4    0    0 -0.41734100644E+01  0.19024304531E+01  0.29368055011E+01  0.54462298893E+01  0.51100000000E-03 0.  1.
         12    1    4    4    0    0 -0.30881645508E+01 -0.20891966384E+02  0.22818903138E+02  0.31092014411E+02  0.00000000000E+00 0. -1.
</event>
<event>
 8    1  0.4042158E-011  0.9118800E+02  0.7816164E-02  0.1184000E+00
        -11   -1    0    0    0    0  0.00000000000E+00  0.00000000000E+00  0.45593999997E+02  0.45594000000E+02  0.51100000000E-03 0. -1.
         11   -1    0    0    0    0 -0.00000000000E+00 -0.00000000000E+00 -0.45593999997E+02  0.45594000000E+02  0.51100000000E-03 0.  1.
         23    2    1    2    0    0  0.00000000000E+00  0.71054273576E-14  0.00000000000E+00  0.91188000000E+02  0.91188000000E+02 0.  0.
    9900012    2    3    3    0    0  0.12589666525E+02 -0.39962222754E+02  0.11320081435E+02  0.47787271961E+02  0.20000004178E+02 0.  0.
         12    1    3    3    0    0 -0.12589666525E+02  0.39962222754E+02 -0.11320081435E+02  0.43400728039E+02  0.00000000000E+00 0. -1.
         11    1    4    4    0    0 -0.65370093245E+00 -0.79121383318E+01 -0.27392008553E+01  0.83983617139E+01  0.51100000000E-03 0. -1.
        -11    1    4    4    0    0  0.27548707152E+00 -0.12772473066E+02  0.89549567362E+01  0.15601384931E+02  0.51100000000E-03 0.  1.
        -12    1    4    4    0    0  0.12967880386E+02 -0.19277611356E+02  0.51043255542E+01  0.23787525316E+02  0.00000000000E+00 0.  1.
</event>
<event>
 8    1  0.4042158E-011  0.9118800E+02  0.7816164E-02  0.1184000E+00
        -11   -1    0    0    0    0  0.00000000000E+00  0.00000000000E+00  0.45593999997E+02  0.45594000000E+02  0.51100000000E-03 0. -1.
         11   -1    0    0    0    0 -0.00000000000E+00 -0.00000000000E+00 -0.45593999997E+02  0.45594000000E+02  0.51100000000E-03 0.  1.
         23    2    1    2    0    0  0.00000000000E+00 -0.88817841970E-15  0.71054273576E-14  0.91188000000E+02  0.91188000000E+02 0.  0.
    9900012    2    3    3    0    0 -0.12469874123E+02  0.59322635532E+01 -0.41145282553E+02  0.47787265123E+02  0.19999973002E+02 0.  0.
         12    1    3    3    0    0  0.12469874123E+02 -0.59322635532E+01  0.41145282553E+02  0.43400734877E+02  0.00000000000E+00 0. -1.
         11    1    4    4    0    0 -0.10544223915E+01  0.12298342062E+01  0.81361574315E+00  0.18128071031E+01  0.51100000000E-03 0. -1.
        -11    1    4    4    0    0 -0.68739099017E+01 -0.31526966893E+01 -0.88315368002E+01  0.11626959029E+02  0.51100000000E-03 0.  1.
        -12    1    4    4    0    0 -0.45415418296E+01  0.78551260362E+01 -0.33127361496E+02  0.34347498991E+02  0.00000000000E+00 0.  1.
</event>
<event>
 8    1  0.4042158E-011  0.9118800E+02  0.7816164E-02  0.1184000E+00
        -11   -1    0    0    0    0  0.00000000000E+00  0.00000000000E+00  0.45593999997E+02  0.45594000000E+02  0.51100000000E-03 0. -1.
         11   -1    0    0    0    0 -0.00000000000E+00 -0.00000000000E+00 -0.45593999997E+02  0.45594000000E+02  0.51100000000E-03 0.  1.
         23    2    1    2    0    0  0.00000000000E+00  0.00000000000E+00  0.00000000000E+00  0.91188000000E+02  0.91188000000E+02 0.  0.
    9900012    2    3    3    0    0 -0.99438719972E+01 -0.40782479365E+01 -0.42048893570E+02  0.47787284026E+02  0.20000059190E+02 0.  0.
         12    1    3    3    0    0  0.99438719972E+01  0.40782479365E+01  0.42048893570E+02  0.43400715974E+02  0.00000000000E+00 0. -1.
         11    1    4    4    0    0  0.30941760289E+00 -0.31288756250E+01 -0.43877912298E+01  0.53979916698E+01  0.51100000000E-03 0. -1.
        -11    1    4    4    0    0 -0.78141617620E+01 -0.34285911260E+01 -0.57511956675E+01  0.10290413647E+02  0.51100000000E-03 0.  1.
         12    1    4    4    0    0 -0.24391278380E+01  0.24792188145E+01 -0.31909906673E+02  0.32098878710E+02  0.00000000000E+00 0. -1.
</event>
<event>
 8    1  0.4042158E-011  0.9118800E+02  0.7816164E-02  0.1184000E+00
        -11   -1    0    0    0    0  0.00000000000E+00  0.00000000000E+00  0.45593999997E+02  0.45594000000E+02  0.51100000000E-03 0. -1.
         11   -1    0    0    0    0 -0.00000000000E+00 -0.00000000000E+00 -0.45593999997E+02  0.45594000000E+02  0.51100000000E-03 0.  1.
         23    2    1    2    0    0  0.00000000000E+00  0.00000000000E+00  0.88817841970E-15  0.91188000000E+02  0.91188000000E+02 0.  0.
    9900012    2    3    3    0    0  0.38341540908E+02 -0.19319531695E+02 -0.63487082015E+01  0.47787260837E+02  0.19999953459E+02 0.  0.
         12    1    3    3    0    0 -0.38341540908E+02  0.19319531695E+02  0.63487082015E+01  0.43400739163E+02  0.00000000000E+00 0. -1.
         11    1    4    4    0    0  0.38041608837E+01 -0.31066816346E+01  0.47088674416E+01  0.68041563512E+01  0.51100000000E-03 0. -1.
        -11    1    4    4    0    0  0.17291962960E+02 -0.12539500831E+02 -0.29028415010E+01  0.21556380798E+02  0.51100000000E-03 0.  1.
         12    1    4    4    0    0  0.17245417064E+02 -0.36733492297E+01 -0.81547341421E+01  0.19426723687E+02  0.00000000000E+00 0. -1.
</event>
<event>
 8    1  0.4042158E-011  0.9118800E+02  0.7816164E-02  0.1184000E+00
        -11   -1    0    0    0    0  0.00000000000E+00  0.00000000000E+00  0.45593999997E+02  0.45594000000E+02  0.51100000000E-03 0. -1.
         11   -1    0    0    0    0 -0.00000000000E+00 -0.00000000000E+00 -0.45593999997E+02  0.45594000000E+02  0.51100000000E-03 0.  1.
         23    2    1    2    0    0  0.17763568394E-14 -0.71054273576E-14  0.35527136788E-14  0.91188000000E+02  0.91188000000E+02 0.  0.
    9900012    2    3    3    0    0 -0.14977101000E+02  0.35062523854E+02 -0.20734731375E+02  0.47787271682E+02  0.20000002905E+02 0.  0.
         12    1    3    3    0    0  0.14977101000E+02 -0.35062523854E+02  0.20734731375E+02  0.43400728318E+02  0.00000000000E+00 0. -1.
         11    1    4    4    0    0 -0.97852167354E+01  0.69651503749E+01 -0.68460448222E+01  0.13825053934E+02  0.51100000000E-03 0. -1.
        -11    1    4    4    0    0 -0.84776373562E+01  0.13410040214E+02 -0.59297602120E+01  0.16936988224E+02  0.51100000000E-03 0.  1.
        -12    1    4    4    0    0  0.32857530918E+01  0.14687333265E+02 -0.79589263412E+01  0.17025229524E+02  0.00000000000E+00 0.  1.
</event>
<event>
 8    1  0.4042158E-011  0.9118800E+02  0.7816164E-02  0.1184000E+00
        -11   -1    0    0    0    0  0.00000000000E+00  0.00000000000E+00  0.45593999997E+02  0.45594000000E+02  0.51100000000E-03 0. -1.
         11   -1    0    0    0    0 -0.00000000000E+00 -0.00000000000E+00 -0.45593999997E+02  0.45594000000E+02  0.51100000000E-03 0.  1.
         23    2    1    2    0    0  0.00000000000E+00  0.00000000000E+00  0.00000000000E+00  0.91188000000E+02  0.91188000000E+02 0.  0.
    9900012    2    3    3    0    0  0.26147263586E+02 -0.29209020497E+02  0.18621943932E+02  0.47787273426E+02  0.20000010857E+02 0.  0.
        -12    1    3    3    0    0 -0.26147263586E+02  0.29209020497E+02 -0.18621943932E+02  0.43400726574E+02  0.00000000000E+00 0.  1.
         11    1    4    4    0    0  0.13350485155E+02 -0.75169404548E+01  0.18153181918E+01  0.15428390327E+02  0.51100000000E-03 0. -1.
        -11    1    4    4    0    0  0.30975758547E+01 -0.64963203747E+01 -0.69858643122E+00  0.72308490407E+01  0.51100000000E-03 0.  1.
         12    1    4    4    0    0  0.96992025759E+01 -0.15195759667E+02  0.17505212171E+02  0.25128034058E+02  0.00000000000E+00 0. -1.
</event>
<event>
 8    1  0.4042158E-011  0.9118800E+02  0.7816164E-02  0.1184000E+00
        -11   -1    0    0    0    0  0.00000000000E+00  0.00000000000E+00  0.45593999997E+02  0.45594000000E+02  0.51100000000E-03 0. -1.
         11   -1    0    0    0    0 -0.00000000000E+00 -0.00000000000E+00 -0.45593999997E+02  0.45594000000E+02  0.51100000000E-03 0.  1.
         23    2    1    2    0    0  0.00000000000E+00 -0.35527136788E-14  0.00000000000E+00  0.91188000000E+02  0.91188000000E+02 0.  0.
    9900012    2    3    3    0    0  0.83455960391E+01 -0.31821326255E+02  0.28308607161E+02  0.47787274001E+02  0.20000013479E+02 0.  0.
        -12    1    3    3    0    0 -0.83455960391E+01  0.31821326255E+02 -0.28308607161E+02  0.43400725999E+02  0.00000000000E+00 0.  1.
         11    1    4    4    0    0  0.38685020086E+01 -0.14074551622E+00  0.72384748799E+00  0.39381559819E+01  0.51100000000E-03 0. -1.
        -11    1    4    4    0    0 -0.19060579057E+01 -0.82408553263E+00  0.39423844560E+01  0.44558466272E+01  0.51100000000E-03 0.  1.
         12    1    4    4    0    0  0.63831519363E+01 -0.30856495206E+02  0.23642375217E+02  0.39393271392E+02  0.00000000000E+00 0. -1.
</event>
<event>
 8    1  0.4042158E-011  0.9118800E+02  0.7816164E-02  0.1184000E+00
        -11   -1    0    0    0    0  0.00000000000E+00  0.00000000000E+00  0.45593999997E+02  0.45594000000E+02  0.51100000000E-03 0. -1.
         11   -1    0    0    0    0 -0.00000000000E+00 -0.00000000000E+00 -0.45593999997E+02  0.45594000000E+02  0.51100000000E-03 0.  1.
         23    2    1    2    0    0  0.00000000000E+00  0.00000000000E+00  0.00000000000E+00  0.91188000000E+02  0.91188000000E+02 0.  0.
    9900012    2    3    3    0    0 -0.11654465291E+02 -0.18234561825E+02 -0.37620443900E+02  0.47787267225E+02  0.19999982587E+02 0.  0.
         12    1    3    3    0    0  0.11654465291E+02  0.18234561825E+02  0.37620443900E+02  0.43400732775E+02  0.00000000000E+00 0. -1.
         11    1    4    4    0    0  0.27508081281E+01  0.77654670706E+00 -0.41324925218E+01  0.50246855473E+01  0.51100000000E-03 0. -1.
        -11    1    4    4    0    0 -0.85171722503E+01 -0.45528537009E+01 -0.19675958632E+02  0.21918349580E+02  0.51100000000E-03 0.  1.
         12    1    4    4    0    0 -0.58881011693E+01 -0.14458254831E+02 -0.13811992746E+02  0.20844232098E+02  0.00000000000E+00 0. -1.
</event>
<event>
 8    1  0.4042158E-011  0.9118800E+02  0.7816164E-02  0.1184000E+00
        -11   -1    0    0    0    0  0.00000000000E+00  0.00000000000E+00  0.45593999997E+02  0.45594000000E+02  0.51100000000E-03 0. -1.
         11   -1    0    0    0    0 -0.00000000000E+00 -0.00000000000E+00 -0.45593999997E+02  0.45594000000E+02  0.51100000000E-03 0.  1.
         23    2    1    2    0    0  0.88817841970E-15  0.00000000000E+00 -0.71054273576E-14  0.91188000000E+02  0.91188000000E+02 0.  0.
    9900012    2    3    3    0    0 -0.54501343535E+01 -0.27118649534E+02 -0.33443955139E+02  0.47787271293E+02  0.20000001131E+02 0.  0.
         12    1    3    3    0    0  0.54501343535E+01  0.27118649534E+02  0.33443955139E+02  0.43400728707E+02  0.00000000000E+00 0. -1.
         11    1    4    4    0    0 -0.42809773746E+01 -0.12700781958E+01 -0.16933515852E+01  0.47756995045E+01  0.51100000000E-03 0. -1.
        -11    1    4    4    0    0 -0.45053450522E+01 -0.17326840479E+02 -0.12930100239E+02  0.22084044636E+02  0.51100000000E-03 0.  1.
         12    1    4    4    0    0  0.33361880733E+01 -0.85217308588E+01 -0.18820503315E+02  0.20927527152E+02  0.00000000000E+00 0. -1.
</event>
<event>
 8    1  0.4042158E-011  0.9118800E+02  0.7816164E-02  0.1184000E+00
        -11   -1    0    0    0    0  0.00000000000E+00  0.00000000000E+00  0.45593999997E+02  0.45594000000E+02  0.51100000000E-03 0. -1.
         11   -1    0    0    0    0 -0.00000000000E+00 -0.00000000000E+00 -0.45593999997E+02  0.45594000000E+02  0.51100000000E-03 0.  1.
         23    2    1    2    0    0  0.00000000000E+00  0.71054273576E-14 -0.17763568394E-14  0.91188000000E+02  0.91188000000E+02 0.  0.
    9900012    2    3    3    0    0  0.19181875944E+02 -0.36264956567E+02 -0.14160923211E+02  0.47787272060E+02  0.20000004631E+02 0.  0.
         12    1    3    3    0    0 -0.19181875944E+02  0.36264956567E+02  0.14160923211E+02  0.43400727940E+02  0.00000000000E+00 0. -1.
         11    1    4    4    0    0  0.75259814758E+01 -0.14350036479E+02 -0.44699650986E+01  0.16809061020E+02  0.51100000000E-03 0. -1.
        -11    1    4    4    0    0  0.13614792807E+02 -0.89626286855E+01 -0.59906055950E+01  0.17366020033E+02  0.51100000000E-03 0.  1.
         12    1    4    4    0    0 -0.19588983386E+01 -0.12952291402E+02 -0.37003525173E+01  0.13612191007E+02  0.00000000000E+00 0. -1.
</event>
<event>
 8    1  0.4042158E-011  0.9118800E+02  0.7816164E-02  0.1184000E+00
        -11   -1    0    0    0    0  0.00000000000E+00  0.00000000000E+00  0.45593999997E+02  0.45594000000E+02  0.51100000000E-03 0. -1.
         11   -1    0    0    0    0 -0.00000000000E+00 -0.00000000000E+00 -0.45593999997E+02  0.45594000000E+02  0.51100000000E-03 0.  1.
         23    2    1    2    0    0 -0.16653345369E-15  0.00000000000E+00  0.00000000000E+00  0.91188000000E+02  0.91188000000E+02 0.  0.
    9900012    2    3    3    0    0 -0.38177831564E+00 -0.77718840094E+01 -0.42697484434E+02  0.47787272901E+02  0.20000008467E+02 0.  0.
         12    1    3    3    0    0  0.38177831564E+00  0.77718840094E+01  0.42697484434E+02  0.43400727099E+02  0.00000000000E+00 0. -1.
         11    1    4    4    0    0 -0.20735497690E+01 -0.50996113040E+01 -0.12689769729E+02  0.13832422063E+02  0.51100000000E-03 0.  1.
        -11    1    4    4    0    0  0.26924586777E+01  0.36710480154E+00 -0.30583162082E+02  0.30703646410E+02  0.51100000000E-03 0. -1.
         12    1    4    4    0    0 -0.10006872243E+01 -0.30393775070E+01  0.57544737754E+00  0.32512044284E+01  0.00000000000E+00 0. -1.
</event>
<event>
 8    1  0.4042158E-011  0.9118800E+02  0.7816164E-02  0.1184000E+00
        -11   -1    0    0    0    0  0.00000000000E+00  0.00000000000E+00  0.45593999997E+02  0.45594000000E+02  0.51100000000E-03 0. -1.
         11   -1    0    0    0    0 -0.00000000000E+00 -0.00000000000E+00 -0.45593999997E+02  0.45594000000E+02  0.51100000000E-03 0.  1.
         23    2    1    2    0    0  0.17763568394E-14 -0.55511151231E-15  0.71054273576E-14  0.91188000000E+02  0.91188000000E+02 0.  0.
    9900012    2    3    3    0    0 -0.86334901030E+01  0.83862014164E+00 -0.42525084117E+02  0.47787271732E+02  0.20000003133E+02 0.  0.
         12    1    3    3    0    0  0.86334901030E+01 -0.83862014164E+00  0.42525084117E+02  0.43400728268E+02  0.00000000000E+00 0. -1.
         11    1    4    4    0    0 -0.78886492044E+01 -0.95344232570E+00 -0.14543830429E+02  0.16572955148E+02  0.51100000000E-03 0. -1.
        -11    1    4    4    0    0 -0.71050322949E+01  0.22533796618E+01 -0.15425423305E+02  0.17131925993E+02  0.51100000000E-03 0.  1.
         12    1    4    4    0    0  0.63601913963E+01 -0.46131719443E+00 -0.12555830383E+02  0.14082390591E+02  0.00000000000E+00 0. -1.
</event>
<event>
 8    1  0.4042158E-011  0.9118800E+02  0.7816164E-02  0.1184000E+00
        -11   -1    0    0    0    0  0.00000000000E+00  0.00000000000E+00  0.45593999997E+02  0.45594000000E+02  0.51100000000E-03 0. -1.
         11   -1    0    0    0    0 -0.00000000000E+00 -0.00000000000E+00 -0.45593999997E+02  0.45594000000E+02  0.51100000000E-03 0.  1.
         23    2    1    2    0    0  0.17763568394E-14 -0.17763568394E-14  0.00000000000E+00  0.91188000000E+02  0.91188000000E+02 0.  0.
    9900012    2    3    3    0    0 -0.15313321374E+02  0.15938804965E+02 -0.37350765533E+02  0.47787274187E+02  0.20000014327E+02 0.  0.
         12    1    3    3    0    0  0.15313321374E+02 -0.15938804965E+02  0.37350765533E+02  0.43400725813E+02  0.00000000000E+00 0. -1.
         11    1    4    4    0    0 -0.82281750710E+01 -0.10097306907E+01 -0.17161967138E+02  0.19059263821E+02  0.51100000000E-03 0. -1.
        -11    1    4    4    0    0 -0.54133095566E+01  0.36038238712E+01 -0.96731262241E+01  0.11655935744E+02  0.51100000000E-03 0.  1.
        -12    1    4    4    0    0 -0.16718367467E+01  0.13344711785E+02 -0.10515672170E+02  0.17072074623E+02  0.00000000000E+00 0.  1.
</event>
<event>
 8    1  0.4042158E-011  0.9118800E+02  0.7816164E-02  0.1184000E+00
        -11   -1    0    0    0    0  0.00000000000E+00  0.00000000000E+00  0.45593999997E+02  0.45594000000E+02  0.51100000000E-03 0. -1.
         11   -1    0    0    0    0 -0.00000000000E+00 -0.00000000000E+00 -0.45593999997E+02  0.45594000000E+02  0.51100000000E-03 0.  1.
         23    2    1    2    0    0 -0.71054273576E-14  0.71054273576E-14  0.00000000000E+00  0.91188000000E+02  0.91188000000E+02 0.  0.
    9900012    2    3    3    0    0 -0.20231910067E+02  0.33144645566E+02 -0.19383639354E+02  0.47787272019E+02  0.20000004444E+02 0.  0.
         12    1    3    3    0    0  0.20231910067E+02 -0.33144645566E+02  0.19383639354E+02  0.43400727981E+02  0.00000000000E+00 0. -1.
         11    1    4    4    0    0 -0.10191867652E+02  0.14486388033E+02 -0.70325706190E+01  0.19057456657E+02  0.51100000000E-03 0. -1.
        -11    1    4    4    0    0 -0.10006049850E+02  0.20936246837E+02 -0.94839964590E+01  0.25067781200E+02  0.51100000000E-03 0.  1.
         12    1    4    4    0    0 -0.33992564989E-01 -0.22779893039E+01 -0.28670722760E+01  0.36620341613E+01  0.00000000000E+00 0. -1.
</event>
<event>
 8    1  0.4042158E-011  0.9118800E+02  0.7816164E-02  0.1184000E+00
        -11   -1    0    0    0    0  0.00000000000E+00  0.00000000000E+00  0.45593999997E+02  0.45594000000E+02  0.51100000000E-03 0. -1.
         11   -1    0    0    0    0 -0.00000000000E+00 -0.00000000000E+00 -0.45593999997E+02  0.45594000000E+02  0.51100000000E-03 0.  1.
         23    2    1    2    0    0  0.00000000000E+00  0.17763568394E-14 -0.71054273576E-14  0.91188000000E+02  0.91188000000E+02 0.  0.
    9900012    2    3    3    0    0 -0.29145172310E+02  0.45873157887E+01 -0.31829840457E+02  0.47787270990E+02  0.19999999750E+02 0.  0.
         12    1    3    3    0    0  0.29145172310E+02 -0.45873157887E+01  0.31829840457E+02  0.43400729010E+02  0.00000000000E+00 0. -1.
         11    1    4    4    0    0 -0.61398561532E+01 -0.59037166997E+01 -0.60650717223E+01  0.10456423849E+02  0.51100000000E-03 0.  1.
        -11    1    4    4    0    0 -0.12516678224E+02  0.28818693848E+01 -0.73023222247E+01  0.14774854146E+02  0.51100000000E-03 0. -1.
        -12    1    4    4    0    0 -0.10488637933E+02  0.76091631036E+01 -0.18462446510E+02  0.22555992994E+02  0.00000000000E+00 0.  1.
</event>
<event>
 8    1  0.4042158E-011  0.9118800E+02  0.7816164E-02  0.1184000E+00
        -11   -1    0    0    0    0  0.00000000000E+00  0.00000000000E+00  0.45593999997E+02  0.45594000000E+02  0.51100000000E-03 0. -1.
         11   -1    0    0    0    0 -0.00000000000E+00 -0.00000000000E+00 -0.45593999997E+02  0.45594000000E+02  0.51100000000E-03 0.  1.
         23    2    1    2    0    0 -0.32526065175E-16  0.00000000000E+00 -0.35527136788E-14  0.91188000000E+02  0.91188000000E+02 0.  0.
    9900012    2    3    3    0    0 -0.22401281521E-02  0.37904597731E+02 -0.21139171831E+02  0.47787272818E+02  0.20000008087E+02 0.  0.
         12    1    3    3    0    0  0.22401281521E-02 -0.37904597731E+02  0.21139171831E+02  0.43400727182E+02  0.00000000000E+00 0. -1.
         11    1    4    4    0    0 -0.39973966371E+01  0.71620154422E+01 -0.91337433890E+01  0.12275948584E+02  0.51100000000E-03 0. -1.
        -11    1    4    4    0    0  0.36736917866E+00  0.17206889195E+02 -0.12840549399E+02  0.21473046011E+02  0.51100000000E-03 0.  1.
         12    1    4    4    0    0  0.36277873303E+01  0.13535693095E+02  0.83512095629E+00  0.14038278223E+02  0.00000000000E+00 0. -1.
</event>
<event>
 8    1  0.4042158E-011  0.9118800E+02  0.7816164E-02  0.1184000E+00
        -11   -1    0    0    0    0  0.00000000000E+00  0.00000000000E+00  0.45593999997E+02  0.45594000000E+02  0.51100000000E-03 0. -1.
         11   -1    0    0    0    0 -0.00000000000E+00 -0.00000000000E+00 -0.45593999997E+02  0.45594000000E+02  0.51100000000E-03 0.  1.
         23    2    1    2    0    0  0.00000000000E+00 -0.13322676296E-14  0.00000000000E+00  0.91188000000E+02  0.91188000000E+02 0.  0.
    9900012    2    3    3    0    0  0.17020199772E+02 -0.30235775409E+01  0.39809475113E+02  0.47787268092E+02  0.19999986539E+02 0.  0.
        -12    1    3    3    0    0 -0.17020199772E+02  0.30235775409E+01 -0.39809475113E+02  0.43400731908E+02  0.00000000000E+00 0.  1.
         11    1    4    4    0    0  0.27556201731E+01  0.40103500444E+01  0.22485078990E+00  0.48710274231E+01  0.51100000000E-03 0. -1.
        -11    1    4    4    0    0  0.52412362049E+00 -0.89590068968E+00  0.63352522633E+01  0.64197169031E+01  0.51100000000E-03 0.  1.
         12    1    4    4    0    0  0.13740455978E+02 -0.61380268957E+01  0.33249372059E+02  0.36496523766E+02  0.00000000000E+00 0. -1.
</event>
<event>
 8    1  0.4042158E-011  0.9118800E+02  0.7816164E-02  0.1184000E+00
        -11   -1    0    0    0    0  0.00000000000E+00  0.00000000000E+00  0.45593999997E+02  0.45594000000E+02  0.51100000000E-03 0. -1.
         11   -1    0    0    0    0 -0.00000000000E+00 -0.00000000000E+00 -0.45593999997E+02  0.45594000000E+02  0.51100000000E-03 0.  1.
         23    2    1    2    0    0  0.00000000000E+00  0.88817841970E-15  0.00000000000E+00  0.91188000000E+02  0.91188000000E+02 0.  0.
    9900012    2    3    3    0    0 -0.40717805246E+02 -0.50490480279E+01  0.14148857346E+02  0.47787277492E+02  0.20000029396E+02 0.  0.
        -12    1    3    3    0    0  0.40717805246E+02  0.50490480279E+01 -0.14148857346E+02  0.43400722508E+02  0.00000000000E+00 0.  1.
         11    1    4    4    0    0 -0.48864408742E+01 -0.30244721581E+01  0.67098639355E+01  0.88344219136E+01  0.51100000000E-03 0. -1.
        -11    1    4    4    0    0 -0.15887400721E+01  0.25098781716E+01 -0.14213776504E+01  0.32930074612E+01  0.51100000000E-03 0.  1.
        -12    1    4    4    0    0 -0.34242624300E+02 -0.45344540415E+01  0.88603710612E+01  0.35659848117E+02  0.00000000000E+00 0.  1.
</event>
<event>
 8    1  0.4042158E-011  0.9118800E+02  0.7816164E-02  0.1184000E+00
        -11   -1    0    0    0    0  0.00000000000E+00  0.00000000000E+00  0.45593999997E+02  0.45594000000E+02  0.51100000000E-03 0. -1.
         11   -1    0    0    0    0 -0.00000000000E+00 -0.00000000000E+00 -0.45593999997E+02  0.45594000000E+02  0.51100000000E-03 0.  1.
         23    2    1    2    0    0 -0.53290705182E-14  0.35527136788E-14  0.00000000000E+00  0.91188000000E+02  0.91188000000E+02 0.  0.
    9900012    2    3    3    0    0  0.13770243135E+02  0.25628008765E+02 -0.32205726802E+02  0.47787271111E+02  0.20000000304E+02 0.  0.
         12    1    3    3    0    0 -0.13770243135E+02 -0.25628008765E+02  0.32205726802E+02  0.43400728889E+02  0.00000000000E+00 0. -1.
         11    1    4    4    0    0  0.54776461052E+01  0.12889331494E+02 -0.56788499696E+01  0.15112538187E+02  0.51100000000E-03 0. -1.
        -11    1    4    4    0    0  0.10421261308E+02  0.11634935486E+02 -0.18073060972E+02  0.23887443232E+02  0.51100000000E-03 0.  1.
        -12    1    4    4    0    0 -0.21286642778E+01  0.11037417851E+01 -0.84538158600E+01  0.87872896919E+01  0.00000000000E+00 0.  1.
</event>
<event>
 8    1  0.4042158E-011  0.9118800E+02  0.7816164E-02  0.1184000E+00
        -11   -1    0    0    0    0  0.00000000000E+00  0.00000000000E+00  0.45593999997E+02  0.45594000000E+02  0.51100000000E-03 0. -1.
         11   -1    0    0    0    0 -0.00000000000E+00 -0.00000000000E+00 -0.45593999997E+02  0.45594000000E+02  0.51100000000E-03 0.  1.
         23    2    1    2    0    0  0.00000000000E+00  0.35527136788E-14  0.71054273576E-14  0.91188000000E+02  0.91188000000E+02 0.  0.
    9900012    2    3    3    0    0 -0.23642666849E+01  0.27783456935E+02  0.33258283259E+02  0.47787266809E+02  0.19999980688E+02 0.  0.
        -12    1    3    3    0    0  0.23642666849E+01 -0.27783456935E+02 -0.33258283259E+02  0.43400733191E+02  0.00000000000E+00 0.  1.
         11    1    4    4    0    0 -0.19244569729E+01  0.18123061794E+02  0.16238997093E+02  0.24410119424E+02  0.51100000000E-03 0. -1.
        -11    1    4    4    0    0 -0.63318552265E+01  0.55301973336E+01  0.11798286987E+02  0.14487064894E+02  0.51100000000E-03 0.  1.
         12    1    4    4    0    0  0.58920455145E+01  0.41301978069E+01  0.52209991783E+01  0.88900824905E+01  0.00000000000E+00 0. -1.
</event>
<event>
 8    1  0.4042158E-011  0.9118800E+02  0.7816164E-02  0.1184000E+00
        -11   -1    0    0    0    0  0.00000000000E+00  0.00000000000E+00  0.45593999997E+02  0.45594000000E+02  0.51100000000E-03 0. -1.
         11   -1    0    0    0    0 -0.00000000000E+00 -0.00000000000E+00 -0.45593999997E+02  0.45594000000E+02  0.51100000000E-03 0.  1.
         23    2    1    2    0    0 -0.17763568394E-14  0.17763568394E-14  0.71054273576E-14  0.91188000000E+02  0.91188000000E+02 0.  0.
    9900012    2    3    3    0    0 -0.11306141911E+02  0.79302179127E+01  0.41144939893E+02  0.47787270976E+02  0.19999999687E+02 0.  0.
        -12    1    3    3    0    0  0.11306141911E+02 -0.79302179127E+01 -0.41144939893E+02  0.43400729024E+02  0.00000000000E+00 0.  1.
         11    1    4    4    0    0 -0.19714930582E+01  0.45759765261E+01  0.88167325336E+01  0.10127246362E+02  0.51100000000E-03 0.  1.
        -11    1    4    4    0    0 -0.88940721858E+01 -0.54069761049E+01  0.19750428829E+02  0.22325307385E+02  0.51100000000E-03 0. -1.
         12    1    4    4    0    0 -0.44057666695E+00  0.87612174915E+01  0.12577778530E+02  0.15334717228E+02  0.00000000000E+00 0. -1.
</event>
<event>
 8    1  0.4042158E-011  0.9118800E+02  0.7816164E-02  0.1184000E+00
        -11   -1    0    0    0    0  0.00000000000E+00  0.00000000000E+00  0.45593999997E+02  0.45594000000E+02  0.51100000000E-03 0. -1.
         11   -1    0    0    0    0 -0.00000000000E+00 -0.00000000000E+00 -0.45593999997E+02  0.45594000000E+02  0.51100000000E-03 0.  1.
         23    2    1    2    0    0  0.00000000000E+00 -0.17763568394E-14  0.00000000000E+00  0.91188000000E+02  0.91188000000E+02 0.  0.
    9900012    2    3    3    0    0  0.12965144862E+02  0.15390755715E+02  0.38453314738E+02  0.47787219395E+02  0.19999764508E+02 0.  0.
        -12    1    3    3    0    0 -0.12965144862E+02 -0.15390755715E+02 -0.38453314738E+02  0.43400780605E+02  0.00000000000E+00 0.  1.
         11    1    4    4    0    0  0.11330358496E+01  0.47883490759E+01  0.26861060932E+02  0.27308032733E+02  0.51100000000E-03 0. -1.
        -11    1    4    4    0    0  0.10919732091E+01 -0.62511461687E+00  0.36547906708E+00  0.13102476801E+01  0.51100000000E-03 0.  1.
        -12    1    4    4    0    0  0.10740135804E+02  0.11227521256E+02  0.11226774739E+02  0.19168938981E+02  0.00000000000E+00 0.  1.
</event>
<event>
 8    1  0.4042158E-011  0.9118800E+02  0.7816164E-02  0.1184000E+00
        -11   -1    0    0    0    0  0.00000000000E+00  0.00000000000E+00  0.45593999997E+02  0.45594000000E+02  0.51100000000E-03 0. -1.
         11   -1    0    0    0    0 -0.00000000000E+00 -0.00000000000E+00 -0.45593999997E+02  0.45594000000E+02  0.51100000000E-03 0.  1.
         23    2    1    2    0    0  0.00000000000E+00  0.00000000000E+00  0.00000000000E+00  0.91188000000E+02  0.91188000000E+02 0.  0.
    9900012    2    3    3    0    0 -0.17659808065E+02 -0.96131972045E+01 -0.38462198703E+02  0.47787272927E+02  0.20000008582E+02 0.  0.
         12    1    3    3    0    0  0.17659808065E+02  0.96131972045E+01  0.38462198703E+02  0.43400727073E+02  0.00000000000E+00 0. -1.
         11    1    4    4    0    0 -0.69827352448E-01 -0.19192307336E+01 -0.21154378317E+01  0.28571664195E+01  0.51100000000E-03 0. -1.
        -11    1    4    4    0    0 -0.16458797124E+02 -0.12971684620E+02 -0.27641931932E+02  0.34687649183E+02  0.51100000000E-03 0.  1.
         12    1    4    4    0    0 -0.11311835889E+01  0.52777181490E+01 -0.87048289397E+01  0.10242457324E+02  0.00000000000E+00 0. -1.
</event>
<event>
 8    1  0.4042158E-011  0.9118800E+02  0.7816164E-02  0.1184000E+00
        -11   -1    0    0    0    0  0.00000000000E+00  0.00000000000E+00  0.45593999997E+02  0.45594000000E+02  0.51100000000E-03 0. -1.
         11   -1    0    0    0    0 -0.00000000000E+00 -0.00000000000E+00 -0.45593999997E+02  0.45594000000E+02  0.51100000000E-03 0.  1.
         23    2    1    2    0    0  0.00000000000E+00  0.00000000000E+00  0.22204460493E-15  0.91188000000E+02  0.91188000000E+02 0.  0.
    9900012    2    3    3    0    0  0.12381421555E+01  0.43342490855E+02 -0.18758739973E+01  0.47787269444E+02  0.19999992705E+02 0.  0.
         12    1    3    3    0    0 -0.12381421555E+01 -0.43342490855E+02  0.18758739973E+01  0.43400730556E+02  0.00000000000E+00 0. -1.
         11    1    4    4    0    0 -0.16432280605E+01 -0.48111864534E+00  0.19674813528E+01  0.26081903199E+01  0.51100000000E-03 0. -1.
        -11    1    4    4    0    0  0.42886178942E+01  0.13016356125E+02  0.18168581564E+01  0.13824570302E+02  0.51100000000E-03 0.  1.
         12    1    4    4    0    0 -0.14072476782E+01  0.30807253376E+02 -0.56602135065E+01  0.31354508823E+02  0.00000000000E+00 0. -1.
</event>
<event>
 8    1  0.4042158E-011  0.9118800E+02  0.7816164E-02  0.1184000E+00
        -11   -1    0    0    0    0  0.00000000000E+00  0.00000000000E+00  0.45593999997E+02  0.45594000000E+02  0.51100000000E-03 0. -1.
         11   -1    0    0    0    0 -0.00000000000E+00 -0.00000000000E+00 -0.45593999997E+02  0.45594000000E+02  0.51100000000E-03 0.  1.
         23    2    1    2    0    0  0.00000000000E+00  0.00000000000E+00  0.00000000000E+00  0.91188000000E+02  0.91188000000E+02 0.  0.
    9900012    2    3    3    0    0  0.22262228453E+02  0.36337864284E+02  0.82204559771E+01  0.47787273130E+02  0.20000009509E+02 0.  0.
        -12    1    3    3    0    0 -0.22262228453E+02 -0.36337864284E+02 -0.82204559771E+01  0.43400726870E+02  0.00000000000E+00 0.  1.
         11    1    4    4    0    0  0.15931345522E+01  0.32385381673E+01  0.42460920259E+01  0.55727466223E+01  0.51100000000E-03 0. -1.
        -11    1    4    4    0    0 -0.11430421711E+01 -0.40232921913E-01  0.22256570243E+01  0.25023416121E+01  0.51100000000E-03 0.  1.
        -12    1    4    4    0    0  0.21812136072E+02  0.33139559038E+02  0.17487069270E+01  0.39712184896E+02  0.00000000000E+00 0.  1.
</event>
<event>
 8    1  0.4042158E-011  0.9118800E+02  0.7816164E-02  0.1184000E+00
        -11   -1    0    0    0    0  0.00000000000E+00  0.00000000000E+00  0.45593999997E+02  0.45594000000E+02  0.51100000000E-03 0. -1.
         11   -1    0    0    0    0 -0.00000000000E+00 -0.00000000000E+00 -0.45593999997E+02  0.45594000000E+02  0.51100000000E-03 0.  1.
         23    2    1    2    0    0  0.00000000000E+00 -0.35527136788E-14 -0.35527136788E-14  0.91188000000E+02  0.91188000000E+02 0.  0.
    9900012    2    3    3    0    0  0.34898609494E+02 -0.18407217608E+02 -0.18079954849E+02  0.47787269913E+02  0.19999994844E+02 0.  0.
         12    1    3    3    0    0 -0.34898609494E+02  0.18407217608E+02  0.18079954849E+02  0.43400730087E+02  0.00000000000E+00 0. -1.
         11    1    4    4    0    0 -0.13184256126E+00  0.73975146989E+00  0.66693647300E-01  0.75436264613E+00  0.51100000000E-03 0. -1.
        -11    1    4    4    0    0  0.21273720514E+02 -0.20472545551E+02 -0.11342094849E+02  0.31628142874E+02  0.51100000000E-03 0.  1.
        -12    1    4    4    0    0  0.13756731541E+02  0.13255764722E+01 -0.68045536472E+01  0.15404764393E+02  0.00000000000E+00 0.  1.
</event>
<event>
 8    1  0.4042158E-011  0.9118800E+02  0.7816164E-02  0.1184000E+00
        -11   -1    0    0    0    0  0.00000000000E+00  0.00000000000E+00  0.45593999997E+02  0.45594000000E+02  0.51100000000E-03 0. -1.
         11   -1    0    0    0    0 -0.00000000000E+00 -0.00000000000E+00 -0.45593999997E+02  0.45594000000E+02  0.51100000000E-03 0.  1.
         23    2    1    2    0    0  0.17763568394E-14  0.00000000000E+00  0.00000000000E+00  0.91188000000E+02  0.91188000000E+02 0.  0.
    9900012    2    3    3    0    0  0.43095537454E+01  0.15483769273E+02  0.40315056682E+02  0.47787272360E+02  0.20000005998E+02 0.  0.
        -12    1    3    3    0    0 -0.43095537454E+01 -0.15483769273E+02 -0.40315056682E+02  0.43400727640E+02  0.00000000000E+00 0.  1.
         11    1    4    4    0    0  0.44275929483E+01  0.67960803070E+00  0.30608846161E+01  0.54253535632E+01  0.51100000000E-03 0. -1.
        -11    1    4    4    0    0  0.29638668954E+01  0.94354449931E+01  0.87876443743E+01  0.13230072679E+02  0.51100000000E-03 0.  1.
        -12    1    4    4    0    0 -0.30819060983E+01  0.53687162492E+01  0.28466527692E+02  0.29131846117E+02  0.00000000000E+00 0.  1.
</event>
<event>
 8    1  0.4042158E-011  0.9118800E+02  0.7816164E-02  0.1184000E+00
        -11   -1    0    0    0    0  0.00000000000E+00  0.00000000000E+00  0.45593999997E+02  0.45594000000E+02  0.51100000000E-03 0.  1.
         11   -1    0    0    0    0 -0.00000000000E+00 -0.00000000000E+00 -0.45593999997E+02  0.45594000000E+02  0.51100000000E-03 0. -1.
         23    2    1    2    0    0 -0.44408920985E-15  0.00000000000E+00  0.22204460493E-15  0.91188000000E+02  0.91188000000E+02 0.  0.
    9900012    2    3    3    0    0 -0.21111527000E+01 -0.43341415478E+02 -0.82952119085E+00  0.47787269975E+02  0.19999995123E+02 0.  0.
         12    1    3    3    0    0  0.21111527000E+01  0.43341415478E+02  0.82952119085E+00  0.43400730025E+02  0.00000000000E+00 0. -1.
         11    1    4    4    0    0  0.28335338367E+01 -0.28059357870E+02 -0.46454682819E+01  0.28582107233E+02  0.51100000000E-03 0. -1.
        -11    1    4    4    0    0  0.16342382115E+01 -0.10196580429E+02  0.34279789054E+01  0.10880810016E+02  0.51100000000E-03 0.  1.
         12    1    4    4    0    0 -0.65789247482E+01 -0.50854771786E+01  0.38796818556E+00  0.83243527249E+01  0.00000000000E+00 0. -1.
</event>
<event>
 8    1  0.4042158E-011  0.9118800E+02  0.7816164E-02  0.1184000E+00
        -11   -1    0    0    0    0  0.00000000000E+00  0.00000000000E+00  0.45593999997E+02  0.45594000000E+02  0.51100000000E-03 0. -1.
         11   -1    0    0    0    0 -0.00000000000E+00 -0.00000000000E+00 -0.45593999997E+02  0.45594000000E+02  0.51100000000E-03 0.  1.
         23    2    1    2    0    0  0.44408920985E-15  0.11102230246E-14  0.00000000000E+00  0.91188000000E+02  0.91188000000E+02 0.  0.
    9900012    2    3    3    0    0  0.36483029363E+01  0.10553058406E+01 -0.43234226227E+02  0.47787284543E+02  0.20000061544E+02 0.  0.
         12    1    3    3    0    0 -0.36483029363E+01 -0.10553058406E+01  0.43234226227E+02  0.43400715457E+02  0.00000000000E+00 0. -1.
         11    1    4    4    0    0  0.75095472790E+00  0.71311959053E+01 -0.16244127088E+02  0.17756394711E+02  0.51100000000E-03 0. -1.
        -11    1    4    4    0    0  0.34929767141E+01 -0.17857315379E+00 -0.14066968567E+01  0.37698237364E+01  0.51100000000E-03 0.  1.
        -12    1    4    4    0    0 -0.59562850564E+00 -0.58973169109E+01 -0.25583402283E+02  0.26261066095E+02  0.00000000000E+00 0.  1.
</event>
<event>
 8    1  0.4042158E-011  0.9118800E+02  0.7816164E-02  0.1184000E+00
        -11   -1    0    0    0    0  0.00000000000E+00  0.00000000000E+00  0.45593999997E+02  0.45594000000E+02  0.51100000000E-03 0. -1.
         11   -1    0    0    0    0 -0.00000000000E+00 -0.00000000000E+00 -0.45593999997E+02  0.45594000000E+02  0.51100000000E-03 0.  1.
         23    2    1    2    0    0  0.00000000000E+00  0.00000000000E+00  0.00000000000E+00  0.91188000000E+02  0.91188000000E+02 0.  0.
    9900012    2    3    3    0    0 -0.24623364652E+02 -0.53885353461E+01  0.35330960129E+02  0.47787272545E+02  0.20000006843E+02 0.  0.
        -12    1    3    3    0    0  0.24623364652E+02  0.53885353461E+01 -0.35330960129E+02  0.43400727455E+02  0.00000000000E+00 0.  1.
         11    1    4    4    0    0 -0.21757314325E+01 -0.18191519392E+01  0.19586317417E+01  0.34466446879E+01  0.51100000000E-03 0. -1.
        -11    1    4    4    0    0 -0.10290104297E+02 -0.48022163463E+00  0.19193578939E+01  0.10478587416E+02  0.51100000000E-03 0.  1.
         12    1    4    4    0    0 -0.12157528923E+02 -0.30891617723E+01  0.31452970494E+02  0.33862040441E+02  0.00000000000E+00 0. -1.
</event>
<event>
 8    1  0.4042158E-011  0.9118800E+02  0.7816164E-02  0.1184000E+00
        -11   -1    0    0    0    0  0.00000000000E+00  0.00000000000E+00  0.45593999997E+02  0.45594000000E+02  0.51100000000E-03 0.  1.
         11   -1    0    0    0    0 -0.00000000000E+00 -0.00000000000E+00 -0.45593999997E+02  0.45594000000E+02  0.51100000000E-03 0. -1.
         23    2    1    2    0    0  0.00000000000E+00  0.71054273576E-14  0.17763568394E-14  0.91188000000E+02  0.91188000000E+02 0.  0.
    9900012    2    3    3    0    0 -0.24916536645E+02  0.32392997918E+02  0.14611054150E+02  0.47787274017E+02  0.20000013552E+02 0.  0.
        -12    1    3    3    0    0  0.24916536645E+02 -0.32392997918E+02 -0.14611054150E+02  0.43400725983E+02  0.00000000000E+00 0.  1.
         11    1    4    4    0    0 -0.48467701040E+01  0.17422966325E+01  0.16136104728E+01  0.53972694037E+01  0.51100000000E-03 0. -1.
        -11    1    4    4    0    0  0.26797248257E+01  0.68791476676E+01  0.14827644227E+01  0.75300855485E+01  0.51100000000E-03 0.  1.
         12    1    4    4    0    0 -0.22749491366E+02  0.23771553618E+02  0.11514679254E+02  0.34859919065E+02  0.00000000000E+00 0. -1.
</event>
<event>
 8    1  0.4042158E-011  0.9118800E+02  0.7816164E-02  0.1184000E+00
        -11   -1    0    0    0    0  0.00000000000E+00  0.00000000000E+00  0.45593999997E+02  0.45594000000E+02  0.51100000000E-03 0. -1.
         11   -1    0    0    0    0 -0.00000000000E+00 -0.00000000000E+00 -0.45593999997E+02  0.45594000000E+02  0.51100000000E-03 0.  1.
         23    2    1    2    0    0  0.00000000000E+00  0.00000000000E+00  0.00000000000E+00  0.91188000000E+02  0.91188000000E+02 0.  0.
    9900012    2    3    3    0    0  0.13449710742E+02  0.57053470016E+01  0.40867805789E+02  0.47787271279E+02  0.20000001072E+02 0.  0.
        -12    1    3    3    0    0 -0.13449710742E+02 -0.57053470016E+01 -0.40867805789E+02  0.43400728721E+02  0.00000000000E+00 0.  1.
         11    1    4    4    0    0  0.46340865174E+01  0.33806539101E+01  0.32359226557E+01  0.65859528093E+01  0.51100000000E-03 0. -1.
        -11    1    4    4    0    0  0.44949069390E+01  0.72881268056E+01  0.12023533642E+02  0.14760973621E+02  0.51100000000E-03 0.  1.
         12    1    4    4    0    0  0.43207172857E+01 -0.49634337141E+01  0.25608349491E+02  0.26440344850E+02  0.00000000000E+00 0. -1.
</event>
<event>
 8    1  0.4042158E-011  0.9118800E+02  0.7816164E-02  0.1184000E+00
        -11   -1    0    0    0    0  0.00000000000E+00  0.00000000000E+00  0.45593999997E+02  0.45594000000E+02  0.51100000000E-03 0. -1.
         11   -1    0    0    0    0 -0.00000000000E+00 -0.00000000000E+00 -0.45593999997E+02  0.45594000000E+02  0.51100000000E-03 0.  1.
         23    2    1    2    0    0  0.17763568394E-14  0.00000000000E+00  0.71054273576E-14  0.91188000000E+02  0.91188000000E+02 0.  0.
    9900012    2    3    3    0    0 -0.14330778267E+02  0.25173693064E+02 -0.32319298384E+02  0.47787273321E+02  0.20000010382E+02 0.  0.
         12    1    3    3    0    0  0.14330778267E+02 -0.25173693064E+02  0.32319298384E+02  0.43400726679E+02  0.00000000000E+00 0. -1.
         11    1    4    4    0    0 -0.13592728618E+02  0.91980284817E+01 -0.21219405190E+02  0.26825904572E+02  0.51100000000E-03 0. -1.
        -11    1    4    4    0    0 -0.28092467260E+01  0.10743428890E+02 -0.37841003936E+01  0.11731689884E+02  0.51100000000E-03 0.  1.
        -12    1    4    4    0    0  0.20711970765E+01  0.52322356918E+01 -0.73157928003E+01  0.92296788656E+01  0.00000000000E+00 0.  1.
</event>
<event>
 8    1  0.4042158E-011  0.9118800E+02  0.7816164E-02  0.1184000E+00
        -11   -1    0    0    0    0  0.00000000000E+00  0.00000000000E+00  0.45593999997E+02  0.45594000000E+02  0.51100000000E-03 0. -1.
         11   -1    0    0    0    0 -0.00000000000E+00 -0.00000000000E+00 -0.45593999997E+02  0.45594000000E+02  0.51100000000E-03 0.  1.
         23    2    1    2    0    0  0.00000000000E+00  0.00000000000E+00  0.00000000000E+00  0.91188000000E+02  0.91188000000E+02 0.  0.
    9900012    2    3    3    0    0 -0.10460156819E+02 -0.32768268969E+02 -0.26465995012E+02  0.47787271620E+02  0.20000002625E+02 0.  0.
         12    1    3    3    0    0  0.10460156819E+02  0.32768268969E+02  0.26465995012E+02  0.43400728380E+02  0.00000000000E+00 0. -1.
         11    1    4    4    0    0 -0.17164281573E+01 -0.16235373547E+02 -0.39638975739E+01  0.16800177501E+02  0.51100000000E-03 0. -1.
        -11    1    4    4    0    0 -0.20437530102E+01 -0.71976221377E+01 -0.24447695877E+01  0.78714413802E+01  0.51100000000E-03 0.  1.
         12    1    4    4    0    0 -0.66999756514E+01 -0.93352732845E+01 -0.20057327851E+02  0.23115652739E+02  0.00000000000E+00 0. -1.
</event>
<event>
 8    1  0.4042158E-011  0.9118800E+02  0.7816164E-02  0.1184000E+00
        -11   -1    0    0    0    0  0.00000000000E+00  0.00000000000E+00  0.45593999997E+02  0.45594000000E+02  0.51100000000E-03 0. -1.
         11   -1    0    0    0    0 -0.00000000000E+00 -0.00000000000E+00 -0.45593999997E+02  0.45594000000E+02  0.51100000000E-03 0.  1.
         23    2    1    2    0    0  0.35527136788E-14  0.00000000000E+00 -0.35527136788E-14  0.91188000000E+02  0.91188000000E+02 0.  0.
    9900012    2    3    3    0    0 -0.26970433215E+02  0.26942961216E+02 -0.20743569878E+02  0.47787272838E+02  0.20000008177E+02 0.  0.
         12    1    3    3    0    0  0.26970433215E+02 -0.26942961216E+02  0.20743569878E+02  0.43400727162E+02  0.00000000000E+00 0. -1.
         11    1    4    4    0    0 -0.15903232650E+02  0.12383321513E+02 -0.12227239615E+02  0.23574665412E+02  0.51100000000E-03 0.  1.
        -11    1    4    4    0    0 -0.20698085407E+01  0.54406243860E+01 -0.97367227626E+01  0.11344085310E+02  0.51100000000E-03 0. -1.
        -12    1    4    4    0    0 -0.89973920246E+01  0.91190153172E+01  0.12203924995E+01  0.12868522116E+02  0.00000000000E+00 0.  1.
</event>
<event>
 8    1  0.4042158E-011  0.9118800E+02  0.7816164E-02  0.1184000E+00
        -11   -1    0    0    0    0  0.00000000000E+00  0.00000000000E+00  0.45593999997E+02  0.45594000000E+02  0.51100000000E-03 0. -1.
         11   -1    0    0    0    0 -0.00000000000E+00 -0.00000000000E+00 -0.45593999997E+02  0.45594000000E+02  0.51100000000E-03 0.  1.
         23    2    1    2    0    0 -0.17763568394E-14  0.44408920985E-15  0.00000000000E+00  0.91188000000E+02  0.91188000000E+02 0.  0.
    9900012    2    3    3    0    0 -0.96197201252E+01  0.24468064802E+01 -0.42250410391E+02  0.47787273560E+02  0.20000011471E+02 0.  0.
         12    1    3    3    0    0  0.96197201252E+01 -0.24468064802E+01  0.42250410391E+02  0.43400726440E+02  0.00000000000E+00 0. -1.
         11    1    4    4    0    0  0.42668537796E+01 -0.62987244841E+00 -0.16389035776E+02  0.16947072738E+02  0.51100000000E-03 0. -1.
        -11    1    4    4    0    0 -0.73148090455E+00  0.33205077666E+01 -0.33969577802E+01  0.48062624318E+01  0.51100000000E-03 0.  1.
        -12    1    4    4    0    0 -0.13155093000E+02 -0.24382883794E+00 -0.22464416836E+02  0.26033938390E+02  0.00000000000E+00 0.  1.
</event>
<event>
 8    1  0.4042158E-011  0.9118800E+02  0.7816164E-02  0.1184000E+00
        -11   -1    0    0    0    0  0.00000000000E+00  0.00000000000E+00  0.45593999997E+02  0.45594000000E+02  0.51100000000E-03 0. -1.
         11   -1    0    0    0    0 -0.00000000000E+00 -0.00000000000E+00 -0.45593999997E+02  0.45594000000E+02  0.51100000000E-03 0.  1.
         23    2    1    2    0    0  0.00000000000E+00 -0.88817841970E-15 -0.71054273576E-14  0.91188000000E+02  0.91188000000E+02 0.  0.
    9900012    2    3    3    0    0 -0.24992227693E+02 -0.66368445824E+01  0.34856311583E+02  0.47787290234E+02  0.20000087492E+02 0.  0.
        -12    1    3    3    0    0  0.24992227693E+02  0.66368445824E+01 -0.34856311583E+02  0.43400709766E+02  0.00000000000E+00 0.  1.
         11    1    4    4    0    0 -0.14484830553E+02 -0.95808282509E+01  0.19750985270E+02  0.26300266263E+02  0.51100000000E-03 0. -1.
        -11    1    4    4    0    0 -0.55624651011E+01 -0.97173769704E+00  0.13983390314E+02  0.15080467403E+02  0.51100000000E-03 0.  1.
        -12    1    4    4    0    0 -0.49449320382E+01  0.39157213655E+01  0.11219359993E+01  0.64065565682E+01  0.00000000000E+00 0.  1.
</event>
<event>
 8    1  0.4042158E-011  0.9118800E+02  0.7816164E-02  0.1184000E+00
        -11   -1    0    0    0    0  0.00000000000E+00  0.00000000000E+00  0.45593999997E+02  0.45594000000E+02  0.51100000000E-03 0. -1.
         11   -1    0    0    0    0 -0.00000000000E+00 -0.00000000000E+00 -0.45593999997E+02  0.45594000000E+02  0.51100000000E-03 0.  1.
         23    2    1    2    0    0 -0.71054273576E-14  0.00000000000E+00  0.00000000000E+00  0.91188000000E+02  0.91188000000E+02 0.  0.
    9900012    2    3    3    0    0  0.41785697771E+02 -0.80651882353E+01 -0.85165399888E+01  0.47787271286E+02  0.20000001104E+02 0.  0.
         12    1    3    3    0    0 -0.41785697771E+02  0.80651882353E+01  0.85165399888E+01  0.43400728714E+02  0.00000000000E+00 0. -1.
         11    1    4    4    0    0 -0.10756495567E+01  0.78205044612E+00  0.50881631685E+00  0.14239098197E+01  0.51100000000E-03 0. -1.
        -11    1    4    4    0    0  0.37209479873E+02 -0.47341564884E+01 -0.39330131059E+01  0.37715066252E+02  0.51100000000E-03 0.  1.
         12    1    4    4    0    0  0.56518674551E+01 -0.41130821931E+01 -0.50923431997E+01  0.86482952147E+01  0.00000000000E+00 0. -1.
</event>
<event>
 8    1  0.4042158E-011  0.9118800E+02  0.7816164E-02  0.1184000E+00
        -11   -1    0    0    0    0  0.00000000000E+00  0.00000000000E+00  0.45593999997E+02  0.45594000000E+02  0.51100000000E-03 0. -1.
         11   -1    0    0    0    0 -0.00000000000E+00 -0.00000000000E+00 -0.45593999997E+02  0.45594000000E+02  0.51100000000E-03 0.  1.
         23    2    1    2    0    0  0.00000000000E+00  0.00000000000E+00  0.00000000000E+00  0.91188000000E+02  0.91188000000E+02 0.  0.
    9900012    2    3    3    0    0  0.10101235784E+02  0.27539159850E+01 -0.42118919447E+02  0.47787281192E+02  0.20000046268E+02 0.  0.
         12    1    3    3    0    0 -0.10101235784E+02 -0.27539159850E+01  0.42118919447E+02  0.43400718808E+02  0.00000000000E+00 0. -1.
         11    1    4    4    0    0  0.61625340250E+01 -0.29047183894E+01 -0.67780448115E+01  0.96102084400E+01  0.51100000000E-03 0. -1.
        -11    1    4    4    0    0  0.82562243801E+01  0.50177462600E+01 -0.19746171427E+02  0.21983045849E+02  0.51100000000E-03 0.  1.
         12    1    4    4    0    0 -0.43175226210E+01  0.64088811435E+00 -0.15594703209E+02  0.16194026903E+02  0.00000000000E+00 0. -1.
</event>
<event>
 8    1  0.4042158E-011  0.9118800E+02  0.7816164E-02  0.1184000E+00
        -11   -1    0    0    0    0  0.00000000000E+00  0.00000000000E+00  0.45593999997E+02  0.45594000000E+02  0.51100000000E-03 0. -1.
         11   -1    0    0    0    0 -0.00000000000E+00 -0.00000000000E+00 -0.45593999997E+02  0.45594000000E+02  0.51100000000E-03 0.  1.
         23    2    1    2    0    0  0.00000000000E+00  0.00000000000E+00  0.00000000000E+00  0.91188000000E+02  0.91188000000E+02 0.  0.
    9900012    2    3    3    0    0 -0.16219168878E+02  0.21762046397E+02 -0.33867018956E+02  0.47787273331E+02  0.20000010424E+02 0.  0.
         12    1    3    3    0    0  0.16219168878E+02 -0.21762046397E+02  0.33867018956E+02  0.43400726669E+02  0.00000000000E+00 0. -1.
         11    1    4    4    0    0  0.39030753267E+01  0.28527998289E+01 -0.30876399031E+01  0.57363737938E+01  0.51100000000E-03 0. -1.
        -11    1    4    4    0    0 -0.53685381902E+01  0.94985914318E+01 -0.14530204248E+02  0.18170615764E+02  0.51100000000E-03 0.  1.
         12    1    4    4    0    0 -0.14753706015E+02  0.94106551360E+01 -0.16249174805E+02  0.23880283773E+02  0.00000000000E+00 0. -1.
</event>
<event>
 8    1  0.4042158E-011  0.9118800E+02  0.7816164E-02  0.1184000E+00
        -11   -1    0    0    0    0  0.00000000000E+00  0.00000000000E+00  0.45593999997E+02  0.45594000000E+02  0.51100000000E-03 0. -1.
         11   -1    0    0    0    0 -0.00000000000E+00 -0.00000000000E+00 -0.45593999997E+02  0.45594000000E+02  0.51100000000E-03 0.  1.
         23    2    1    2    0    0 -0.71054273576E-14  0.00000000000E+00  0.00000000000E+00  0.91188000000E+02  0.91188000000E+02 0.  0.
    9900012    2    3    3    0    0 -0.27288261784E+02  0.26648848308E+02  0.20707869690E+02  0.47787237168E+02  0.19999845542E+02 0.  0.
        -12    1    3    3    0    0  0.27288261784E+02 -0.26648848308E+02 -0.20707869690E+02  0.43400762832E+02  0.00000000000E+00 0.  1.
         11    1    4    4    0    0 -0.10825989368E+02  0.47007507894E+01  0.11865405114E+02  0.16735798234E+02  0.51100000000E-03 0. -1.
        -11    1    4    4    0    0 -0.56100572004E+01  0.85638054685E+00  0.37175304648E+01  0.67842584304E+01  0.51100000000E-03 0.  1.
        -12    1    4    4    0    0 -0.10852215216E+02  0.21091716972E+02  0.51249341118E+01  0.24267180503E+02  0.00000000000E+00 0.  1.
</event>
<event>
 8    1  0.4042158E-011  0.9118800E+02  0.7816164E-02  0.1184000E+00
        -11   -1    0    0    0    0  0.00000000000E+00  0.00000000000E+00  0.45593999997E+02  0.45594000000E+02  0.51100000000E-03 0. -1.
         11   -1    0    0    0    0 -0.00000000000E+00 -0.00000000000E+00 -0.45593999997E+02  0.45594000000E+02  0.51100000000E-03 0.  1.
         23    2    1    2    0    0  0.88817841970E-15 -0.44408920985E-15  0.00000000000E+00  0.91188000000E+02  0.91188000000E+02 0.  0.
    9900012    2    3    3    0    0 -0.77661644357E+01  0.26636511101E+01  0.42617074982E+02  0.47787269277E+02  0.19999991940E+02 0.  0.
        -12    1    3    3    0    0  0.77661644357E+01 -0.26636511101E+01 -0.42617074982E+02  0.43400730723E+02  0.00000000000E+00 0.  1.
         11    1    4    4    0    0  0.60420195788E+00  0.70516433074E+00 -0.85509931444E+00  0.12623437875E+01  0.51100000000E-03 0. -1.
        -11    1    4    4    0    0  0.52209085952E+00  0.64454171782E+01  0.14159587102E+02  0.15566306197E+02  0.51100000000E-03 0.  1.
         12    1    4    4    0    0 -0.88924572531E+01 -0.44869303989E+01  0.29312587195E+02  0.30958619292E+02  0.00000000000E+00 0. -1.
</event>
<event>
 8    1  0.4042158E-011  0.9118800E+02  0.7816164E-02  0.1184000E+00
        -11   -1    0    0    0    0  0.00000000000E+00  0.00000000000E+00  0.45593999997E+02  0.45594000000E+02  0.51100000000E-03 0. -1.
         11   -1    0    0    0    0 -0.00000000000E+00 -0.00000000000E+00 -0.45593999997E+02  0.45594000000E+02  0.51100000000E-03 0.  1.
         23    2    1    2    0    0  0.00000000000E+00  0.00000000000E+00  0.00000000000E+00  0.91188000000E+02  0.91188000000E+02 0.  0.
    9900012    2    3    3    0    0  0.12047547879E+02  0.19772715251E+02  0.36708576986E+02  0.47787270713E+02  0.19999998490E+02 0.  0.
        -12    1    3    3    0    0 -0.12047547879E+02 -0.19772715251E+02 -0.36708576986E+02  0.43400729287E+02  0.00000000000E+00 0.  1.
         11    1    4    4    0    0  0.43664391186E+01  0.68121521706E+01  0.72572778755E+01  0.10869189951E+02  0.51100000000E-03 0. -1.
        -11    1    4    4    0    0 -0.28981235761E+01  0.29905734322E+01  0.10171528099E+00  0.41656927365E+01  0.51100000000E-03 0.  1.
         12    1    4    4    0    0  0.10579232336E+02  0.99699896479E+01  0.29349583830E+02  0.32752388025E+02  0.00000000000E+00 0. -1.
</event>
<event>
 8    1  0.4042158E-011  0.9118800E+02  0.7816164E-02  0.1184000E+00
        -11   -1    0    0    0    0  0.00000000000E+00  0.00000000000E+00  0.45593999997E+02  0.45594000000E+02  0.51100000000E-03 0. -1.
         11   -1    0    0    0    0 -0.00000000000E+00 -0.00000000000E+00 -0.45593999997E+02  0.45594000000E+02  0.51100000000E-03 0.  1.
         23    2    1    2    0    0  0.35527136788E-14  0.00000000000E+00  0.00000000000E+00  0.91188000000E+02  0.91188000000E+02 0.  0.
    9900012    2    3    3    0    0 -0.23966854877E+02  0.28955311620E+02 -0.21698000063E+02  0.47787269471E+02  0.19999992827E+02 0.  0.
         12    1    3    3    0    0  0.23966854877E+02 -0.28955311620E+02  0.21698000063E+02  0.43400730529E+02  0.00000000000E+00 0. -1.
         11    1    4    4    0    0 -0.22851701872E+02  0.19644138572E+02 -0.99423171090E+01  0.31732351448E+02  0.51100000000E-03 0.  1.
        -11    1    4    4    0    0  0.33126846770E+00 -0.72210499917E+00 -0.75820215212E+00  0.10982008888E+01  0.51100000000E-03 0. -1.
        -12    1    4    4    0    0 -0.14464214730E+01  0.10033278048E+02 -0.10997480801E+02  0.14956717135E+02  0.00000000000E+00 0.  1.
</event>
<event>
 8    1  0.4042158E-011  0.9118800E+02  0.7816164E-02  0.1184000E+00
        -11   -1    0    0    0    0  0.00000000000E+00  0.00000000000E+00  0.45593999997E+02  0.45594000000E+02  0.51100000000E-03 0. -1.
         11   -1    0    0    0    0 -0.00000000000E+00 -0.00000000000E+00 -0.45593999997E+02  0.45594000000E+02  0.51100000000E-03 0.  1.
         23    2    1    2    0    0  0.00000000000E+00  0.00000000000E+00  0.00000000000E+00  0.91188000000E+02  0.91188000000E+02 0.  0.
    9900012    2    3    3    0    0  0.28943997575E+02 -0.12459983496E+02 -0.29843212169E+02  0.47787268475E+02  0.19999988283E+02 0.  0.
         12    1    3    3    0    0 -0.28943997575E+02  0.12459983496E+02  0.29843212169E+02  0.43400731525E+02  0.00000000000E+00 0. -1.
         11    1    4    4    0    0  0.15049492556E+02 -0.41713289588E+01 -0.78948208848E+01  0.17499011645E+02  0.51100000000E-03 0. -1.
        -11    1    4    4    0    0  0.96862456049E+01  0.10509975680E+01 -0.63599476185E+01  0.11635157230E+02  0.51100000000E-03 0.  1.
        -12    1    4    4    0    0  0.42082594144E+01 -0.93396521051E+01 -0.15588443666E+02  0.18653099600E+02  0.00000000000E+00 0.  1.
</event>
<event>
 8    1  0.4042158E-011  0.9118800E+02  0.7816164E-02  0.1184000E+00
        -11   -1    0    0    0    0  0.00000000000E+00  0.00000000000E+00  0.45593999997E+02  0.45594000000E+02  0.51100000000E-03 0.  1.
         11   -1    0    0    0    0 -0.00000000000E+00 -0.00000000000E+00 -0.45593999997E+02  0.45594000000E+02  0.51100000000E-03 0. -1.
         23    2    1    2    0    0  0.00000000000E+00  0.00000000000E+00  0.00000000000E+00  0.91188000000E+02  0.91188000000E+02 0.  0.
    9900012    2    3    3    0    0 -0.22497821317E+02 -0.30326974807E+02 -0.21395057533E+02  0.47787241345E+02  0.19999864589E+02 0.  0.
         12    1    3    3    0    0  0.22497821317E+02  0.30326974807E+02  0.21395057533E+02  0.43400758655E+02  0.00000000000E+00 0. -1.
         11    1    4    4    0    0 -0.45063958791E+00 -0.12900129636E+02 -0.78054512636E+01  0.15084478458E+02  0.51100000000E-03 0. -1.
        -11    1    4    4    0    0 -0.46669490913E+01 -0.39581276246E+01  0.11565158601E+01  0.62277377361E+01  0.51100000000E-03 0.  1.
         12    1    4    4    0    0 -0.17380232637E+02 -0.13468717546E+02 -0.14746122130E+02  0.26475025151E+02  0.00000000000E+00 0. -1.
</event>
<event>
 8    1  0.4042158E-011  0.9118800E+02  0.7816164E-02  0.1184000E+00
        -11   -1    0    0    0    0  0.00000000000E+00  0.00000000000E+00  0.45593999997E+02  0.45594000000E+02  0.51100000000E-03 0. -1.
         11   -1    0    0    0    0 -0.00000000000E+00 -0.00000000000E+00 -0.45593999997E+02  0.45594000000E+02  0.51100000000E-03 0.  1.
         23    2    1    2    0    0  0.00000000000E+00  0.00000000000E+00 -0.35527136788E-14  0.91188000000E+02  0.91188000000E+02 0.  0.
    9900012    2    3    3    0    0 -0.24740774331E+02  0.22971742642E+02 -0.27272988701E+02  0.47787276651E+02  0.20000025564E+02 0.  0.
         12    1    3    3    0    0  0.24740774331E+02 -0.22971742642E+02  0.27272988701E+02  0.43400723349E+02  0.00000000000E+00 0. -1.
         11    1    4    4    0    0 -0.80526043372E+01  0.53578581557E+01 -0.18491790143E+01  0.98473622822E+01  0.51100000000E-03 0. -1.
        -11    1    4    4    0    0 -0.31686862498E+01  0.99391896198E+01 -0.33804795232E+01  0.10966116218E+02  0.51100000000E-03 0.  1.
        -12    1    4    4    0    0 -0.13519483744E+02  0.76746948669E+01 -0.22043330163E+02  0.26973798151E+02  0.00000000000E+00 0.  1.
</event>
<event>
 8    1  0.4042158E-011  0.9118800E+02  0.7816164E-02  0.1184000E+00
        -11   -1    0    0    0    0  0.00000000000E+00  0.00000000000E+00  0.45593999997E+02  0.45594000000E+02  0.51100000000E-03 0. -1.
         11   -1    0    0    0    0 -0.00000000000E+00 -0.00000000000E+00 -0.45593999997E+02  0.45594000000E+02  0.51100000000E-03 0.  1.
         23    2    1    2    0    0  0.00000000000E+00  0.00000000000E+00  0.00000000000E+00  0.91188000000E+02  0.91188000000E+02 0.  0.
    9900012    2    3    3    0    0  0.16349185525E+02  0.24131645378E+02  0.32155714382E+02  0.47787284068E+02  0.20000059381E+02 0.  0.
        -12    1    3    3    0    0 -0.16349185525E+02 -0.24131645378E+02 -0.32155714382E+02  0.43400715932E+02  0.00000000000E+00 0.  1.
         11    1    4    4    0    0  0.60932179518E+00  0.14556893010E+02  0.16926908061E+02  0.22333710482E+02  0.51100000000E-03 0. -1.
        -11    1    4    4    0    0  0.61194064553E+00 -0.45925040141E+00  0.40781331894E+01  0.41492834148E+01  0.51100000000E-03 0.  1.
        -12    1    4    4    0    0  0.15127923084E+02  0.10034002770E+02  0.11150673132E+02  0.21304290171E+02  0.00000000000E+00 0.  1.
</event>
<event>
 8    1  0.4042158E-011  0.9118800E+02  0.7816164E-02  0.1184000E+00
        -11   -1    0    0    0    0  0.00000000000E+00  0.00000000000E+00  0.45593999997E+02  0.45594000000E+02  0.51100000000E-03 0. -1.
         11   -1    0    0    0    0 -0.00000000000E+00 -0.00000000000E+00 -0.45593999997E+02  0.45594000000E+02  0.51100000000E-03 0.  1.
         23    2    1    2    0    0  0.00000000000E+00  0.71054273576E-14  0.00000000000E+00  0.91188000000E+02  0.91188000000E+02 0.  0.
    9900012    2    3    3    0    0  0.43336127259E+01  0.36978485263E+02  0.22303187613E+02  0.47787300129E+02  0.20000132607E+02 0.  0.
        -12    1    3    3    0    0 -0.43336127259E+01 -0.36978485263E+02 -0.22303187613E+02  0.43400699871E+02  0.00000000000E+00 0.  1.
         11    1    4    4    0    0 -0.40528623088E+01  0.57684378428E+01  0.45682377126E+01  0.84005573685E+01  0.51100000000E-03 0.  1.
        -11    1    4    4    0    0  0.43903802643E+01  0.51929209697E+01 -0.12738048914E+01  0.69184135628E+01  0.51100000000E-03 0. -1.
         12    1    4    4    0    0  0.39960947704E+01  0.26017126450E+02  0.19008754792E+02  0.32468329198E+02  0.00000000000E+00 0. -1.
</event>
<event>
 8    1  0.4042158E-011  0.9118800E+02  0.7816164E-02  0.1184000E+00
        -11   -1    0    0    0    0  0.00000000000E+00  0.00000000000E+00  0.45593999997E+02  0.45594000000E+02  0.51100000000E-03 0. -1.
         11   -1    0    0    0    0 -0.00000000000E+00 -0.00000000000E+00 -0.45593999997E+02  0.45594000000E+02  0.51100000000E-03 0.  1.
         23    2    1    2    0    0  0.00000000000E+00  0.00000000000E+00  0.00000000000E+00  0.91188000000E+02  0.91188000000E+02 0.  0.
    9900012    2    3    3    0    0 -0.33884933371E+02 -0.19831864101E+02  0.18496854720E+02  0.47787249110E+02  0.19999899991E+02 0.  0.
        -12    1    3    3    0    0  0.33884933371E+02  0.19831864101E+02 -0.18496854720E+02  0.43400750890E+02  0.00000000000E+00 0.  1.
         11    1    4    4    0    0 -0.52671235159E+01 -0.10616868558E+02  0.18764327042E+01  0.11999228644E+02  0.51100000000E-03 0. -1.
        -11    1    4    4    0    0 -0.63813789607E+01 -0.15010235150E+00  0.80893928215E+01  0.10304504095E+02  0.51100000000E-03 0.  1.
         12    1    4    4    0    0 -0.22236430895E+02 -0.90648931913E+01  0.85310291947E+01  0.25483516371E+02  0.00000000000E+00 0. -1.
</event>
<event>
 8    1  0.4042158E-011  0.9118800E+02  0.7816164E-02  0.1184000E+00
        -11   -1    0    0    0    0  0.00000000000E+00  0.00000000000E+00  0.45593999997E+02  0.45594000000E+02  0.51100000000E-03 0. -1.
         11   -1    0    0    0    0 -0.00000000000E+00 -0.00000000000E+00 -0.45593999997E+02  0.45594000000E+02  0.51100000000E-03 0.  1.
         23    2    1    2    0    0 -0.88817841970E-15  0.00000000000E+00  0.71054273576E-14  0.91188000000E+02  0.91188000000E+02 0.  0.
    9900012    2    3    3    0    0  0.44099224358E+01  0.25671330143E+02  0.34715394174E+02  0.47787271897E+02  0.20000003885E+02 0.  0.
        -12    1    3    3    0    0 -0.44099224358E+01 -0.25671330143E+02 -0.34715394174E+02  0.43400728103E+02  0.00000000000E+00 0.  1.
         11    1    4    4    0    0  0.51583713697E+01  0.13061308019E+02  0.95390139029E+01  0.16976435104E+02  0.51100000000E-03 0. -1.
        -11    1    4    4    0    0  0.12122667375E+01  0.56490390129E+01  0.13804826955E+01  0.59402832547E+01  0.51100000000E-03 0.  1.
         12    1    4    4    0    0 -0.19607156714E+01  0.69609831117E+01  0.23795897576E+02  0.24870553538E+02  0.00000000000E+00 0. -1.
</event>
<event>
 8    1  0.4042158E-011  0.9118800E+02  0.7816164E-02  0.1184000E+00
        -11   -1    0    0    0    0  0.00000000000E+00  0.00000000000E+00  0.45593999997E+02  0.45594000000E+02  0.51100000000E-03 0. -1.
         11   -1    0    0    0    0 -0.00000000000E+00 -0.00000000000E+00 -0.45593999997E+02  0.45594000000E+02  0.51100000000E-03 0.  1.
         23    2    1    2    0    0 -0.17763568394E-14  0.00000000000E+00  0.00000000000E+00  0.91188000000E+02  0.91188000000E+02 0.  0.
    9900012    2    3    3    0    0 -0.13394032891E+02  0.19274896765E+02  0.36506184350E+02  0.47787271225E+02  0.20000000824E+02 0.  0.
        -12    1    3    3    0    0  0.13394032891E+02 -0.19274896765E+02 -0.36506184350E+02  0.43400728775E+02  0.00000000000E+00 0.  1.
         11    1    4    4    0    0  0.14228048667E+01  0.41987294309E+01  0.17330987232E+01  0.47599720554E+01  0.51100000000E-03 0. -1.
        -11    1    4    4    0    0 -0.89485357824E+00  0.89910507359E+01  0.72325362695E+01  0.11573648405E+02  0.51100000000E-03 0.  1.
         12    1    4    4    0    0 -0.13921984179E+02  0.60851165983E+01  0.27540549357E+02  0.31453650764E+02  0.00000000000E+00 0. -1.
</event>
<event>
 8    1  0.4042158E-011  0.9118800E+02  0.7816164E-02  0.1184000E+00
        -11   -1    0    0    0    0  0.00000000000E+00  0.00000000000E+00  0.45593999997E+02  0.45594000000E+02  0.51100000000E-03 0. -1.
         11   -1    0    0    0    0 -0.00000000000E+00 -0.00000000000E+00 -0.45593999997E+02  0.45594000000E+02  0.51100000000E-03 0.  1.
         23    2    1    2    0    0  0.00000000000E+00 -0.17763568394E-14  0.00000000000E+00  0.91188000000E+02  0.91188000000E+02 0.  0.
    9900012    2    3    3    0    0  0.19236950699E+02 -0.90930622074E+01  0.37826963618E+02  0.47787271561E+02  0.20000002354E+02 0.  0.
        -12    1    3    3    0    0 -0.19236950699E+02  0.90930622074E+01 -0.37826963618E+02  0.43400728439E+02  0.00000000000E+00 0.  1.
         11    1    4    4    0    0  0.33041623549E+01 -0.28709665242E+01  0.15284767439E+01  0.46363972078E+01  0.51100000000E-03 0.  1.
        -11    1    4    4    0    0  0.14254231136E+02 -0.62261672444E+01  0.14427549703E+02  0.21215618175E+02  0.51100000000E-03 0. -1.
         12    1    4    4    0    0  0.16785572086E+01  0.40715611850E-02  0.21870937171E+02  0.21935256178E+02  0.00000000000E+00 0. -1.
</event>
<event>
 8    1  0.4042158E-011  0.9118800E+02  0.7816164E-02  0.1184000E+00
        -11   -1    0    0    0    0  0.00000000000E+00  0.00000000000E+00  0.45593999997E+02  0.45594000000E+02  0.51100000000E-03 0.  1.
         11   -1    0    0    0    0 -0.00000000000E+00 -0.00000000000E+00 -0.45593999997E+02  0.45594000000E+02  0.51100000000E-03 0. -1.
         23    2    1    2    0    0  0.88817841970E-15 -0.71054273576E-14  0.35527136788E-14  0.91188000000E+02  0.91188000000E+02 0.  0.
    9900012    2    3    3    0    0  0.70878161170E+01 -0.35991890958E+02  0.23194167277E+02  0.47787277106E+02  0.20000027639E+02 0.  0.
        -12    1    3    3    0    0 -0.70878161170E+01  0.35991890958E+02 -0.23194167277E+02  0.43400722894E+02  0.00000000000E+00 0.  1.
         11    1    4    4    0    0  0.32027020133E+01 -0.26782212974E+02  0.98396790585E+01  0.28711731334E+02  0.51100000000E-03 0. -1.
        -11    1    4    4    0    0 -0.18406252478E+01 -0.64291311236E+01  0.95545495652E+01  0.11662377372E+02  0.51100000000E-03 0.  1.
        -12    1    4    4    0    0  0.57257393516E+01 -0.27805468600E+01  0.37999386532E+01  0.74131684003E+01  0.00000000000E+00 0.  1.
</event>
<event>
 8    1  0.4042158E-011  0.9118800E+02  0.7816164E-02  0.1184000E+00
        -11   -1    0    0    0    0  0.00000000000E+00  0.00000000000E+00  0.45593999997E+02  0.45594000000E+02  0.51100000000E-03 0. -1.
         11   -1    0    0    0    0 -0.00000000000E+00 -0.00000000000E+00 -0.45593999997E+02  0.45594000000E+02  0.51100000000E-03 0.  1.
         23    2    1    2    0    0  0.00000000000E+00  0.00000000000E+00 -0.17763568394E-14  0.91188000000E+02  0.91188000000E+02 0.  0.
    9900012    2    3    3    0    0 -0.27822360151E+02  0.29255500578E+02  0.15926564766E+02  0.47787268397E+02  0.19999987930E+02 0.  0.
        -12    1    3    3    0    0  0.27822360151E+02 -0.29255500578E+02 -0.15926564766E+02  0.43400731603E+02  0.00000000000E+00 0.  1.
         11    1    4    4    0    0  0.55336617079E+00  0.25079769099E+01  0.47920582508E+00  0.26126233528E+01  0.51100000000E-03 0. -1.
        -11    1    4    4    0    0 -0.91814653641E+01  0.14207407620E+02  0.14413383737E+02  0.22223756850E+02  0.51100000000E-03 0.  1.
         12    1    4    4    0    0 -0.19194260957E+02  0.12540116048E+02  0.10339752045E+01  0.22950888195E+02  0.00000000000E+00 0. -1.
</event>
<event>
 8    1  0.4383859E-011  0.9118800E+02  0.7816164E-02  0.1184000E+00
        -11   -1    0    0    0    0  0.00000000000E+00  0.00000000000E+00  0.45593999997E+02  0.45594000000E+02  0.51100000000E-03 0.  1.
         11   -1    0    0    0    0 -0.00000000000E+00 -0.00000000000E+00 -0.45593999997E+02  0.45594000000E+02  0.51100000000E-03 0. -1.
         23    2    1    2    0    0  0.35527136788E-14  0.35527136788E-14  0.35527136788E-14  0.91188000000E+02  0.91188000000E+02 0.  0.
    9900012    2    3    3    0    0  0.24973003358E+02  0.18689977353E+02  0.30177098599E+02  0.47787269245E+02  0.19999991798E+02 0.  0.
        -12    1    3    3    0    0 -0.24973003358E+02 -0.18689977353E+02 -0.30177098599E+02  0.43400730755E+02  0.00000000000E+00 0.  1.
         11    1    4    4    0    0  0.96348431356E+01  0.14996548403E+02  0.11647282397E+02  0.21292859219E+02  0.51100000000E-03 0. -1.
        -11    1    4    4    0    0  0.47688399236E+01  0.61871546339E+01  0.99763514338E+01  0.12670844679E+02  0.51100000000E-03 0.  1.
        -12    1    4    4    0    0  0.10569320299E+02 -0.24937256840E+01  0.85534647687E+01  0.13823565347E+02  0.00000000000E+00 0.  1.
</event>
<event>
 8    1  0.4042158E-011  0.9118800E+02  0.7816164E-02  0.1184000E+00
        -11   -1    0    0    0    0  0.00000000000E+00  0.00000000000E+00  0.45593999997E+02  0.45594000000E+02  0.51100000000E-03 0. -1.
         11   -1    0    0    0    0 -0.00000000000E+00 -0.00000000000E+00 -0.45593999997E+02  0.45594000000E+02  0.51100000000E-03 0.  1.
         23    2    1    2    0    0  0.00000000000E+00  0.00000000000E+00  0.00000000000E+00  0.91188000000E+02  0.91188000000E+02 0.  0.
    9900012    2    3    3    0    0 -0.60036379487E+01 -0.29712905614E+02  0.31059982301E+02  0.47787275016E+02  0.20000018107E+02 0.  0.
        -12    1    3    3    0    0  0.60036379487E+01  0.29712905614E+02 -0.31059982301E+02  0.43400724984E+02  0.00000000000E+00 0.  1.
         11    1    4    4    0    0 -0.10103156922E+01 -0.24514571514E+01 -0.12077214248E+01  0.29135839209E+01  0.51100000000E-03 0. -1.
        -11    1    4    4    0    0 -0.55843158578E+01 -0.51254121820E+01  0.29516743675E+01  0.81342987078E+01  0.51100000000E-03 0.  1.
         12    1    4    4    0    0  0.59099360133E+00 -0.22136036281E+02  0.29316029358E+02  0.36739392387E+02  0.00000000000E+00 0. -1.
</event>
<event>
 8    1  0.4042158E-011  0.9118800E+02  0.7816164E-02  0.1184000E+00
        -11   -1    0    0    0    0  0.00000000000E+00  0.00000000000E+00  0.45593999997E+02  0.45594000000E+02  0.51100000000E-03 0. -1.
         11   -1    0    0    0    0 -0.00000000000E+00 -0.00000000000E+00 -0.45593999997E+02  0.45594000000E+02  0.51100000000E-03 0.  1.
         23    2    1    2    0    0  0.00000000000E+00 -0.88817841970E-15  0.00000000000E+00  0.91188000000E+02  0.91188000000E+02 0.  0.
    9900012    2    3    3    0    0 -0.41653231052E+02  0.70487691505E+01  0.99471988075E+01  0.47787267659E+02  0.19999984566E+02 0.  0.
        -12    1    3    3    0    0  0.41653231052E+02 -0.70487691505E+01 -0.99471988075E+01  0.43400732341E+02  0.00000000000E+00 0.  1.
         11    1    4    4    0    0 -0.41935635377E+01  0.14928229665E+01  0.24066392147E+01  0.50602774751E+01  0.51100000000E-03 0. -1.
        -11    1    4    4    0    0 -0.51367037686E+01  0.63954561361E+01  0.63459781446E+01  0.10371066660E+02  0.51100000000E-03 0.  1.
        -12    1    4    4    0    0 -0.32322963746E+02 -0.83950995216E+00  0.11945814483E+01  0.32355923524E+02  0.00000000000E+00 0.  1.
</event>
<event>
 8    1  0.4042158E-011  0.9118800E+02  0.7816164E-02  0.1184000E+00
        -11   -1    0    0    0    0  0.00000000000E+00  0.00000000000E+00  0.45593999997E+02  0.45594000000E+02  0.51100000000E-03 0. -1.
         11   -1    0    0    0    0 -0.00000000000E+00 -0.00000000000E+00 -0.45593999997E+02  0.45594000000E+02  0.51100000000E-03 0.  1.
         23    2    1    2    0    0  0.35527136788E-14  0.00000000000E+00 -0.71054273576E-14  0.91188000000E+02  0.91188000000E+02 0.  0.
    9900012    2    3    3    0    0  0.16342644852E+02  0.86858432400E+01 -0.39256820072E+02  0.47787264572E+02  0.19999970489E+02 0.  0.
         12    1    3    3    0    0 -0.16342644852E+02 -0.86858432400E+01  0.39256820072E+02  0.43400735428E+02  0.00000000000E+00 0. -1.
         11    1    4    4    0    0  0.50810372022E+01  0.12323252456E+01 -0.29759990201E+02  0.30215767103E+02  0.51100000000E-03 0. -1.
        -11    1    4    4    0    0  0.99477774058E+01  0.46277136631E+01 -0.94097605591E+01  0.14453982258E+02  0.51100000000E-03 0.  1.
         12    1    4    4    0    0  0.13138302443E+01  0.28258043312E+01 -0.87069311406E-01  0.31175152115E+01  0.00000000000E+00 0. -1.
</event>
<event>
 8    1  0.4042158E-011  0.9118800E+02  0.7816164E-02  0.1184000E+00
        -11   -1    0    0    0    0  0.00000000000E+00  0.00000000000E+00  0.45593999997E+02  0.45594000000E+02  0.51100000000E-03 0.  1.
         11   -1    0    0    0    0 -0.00000000000E+00 -0.00000000000E+00 -0.45593999997E+02  0.45594000000E+02  0.51100000000E-03 0. -1.
         23    2    1    2    0    0  0.00000000000E+00  0.00000000000E+00 -0.35527136788E-14  0.91188000000E+02  0.91188000000E+02 0.  0.
    9900012    2    3    3    0    0 -0.10134178804E+02  0.38501480326E+02  0.17278825160E+02  0.47787269980E+02  0.19999995148E+02 0.  0.
         12    1    3    3    0    0  0.10134178804E+02 -0.38501480326E+02 -0.17278825160E+02  0.43400730020E+02  0.00000000000E+00 0. -1.
         11    1    4    4    0    0 -0.30970172008E+01  0.31881098259E+01  0.24664610303E+00  0.44515608909E+01  0.51100000000E-03 0. -1.
        -11    1    4    4    0    0 -0.32435652326E+01  0.17346118409E+02  0.17654531990E+02  0.24961791589E+02  0.51100000000E-03 0.  1.
         12    1    4    4    0    0 -0.37935963709E+01  0.17967252091E+02 -0.62235293305E+00  0.18373917500E+02  0.00000000000E+00 0. -1.
</event>
<event>
 8    1  0.4042158E-011  0.9118800E+02  0.7816164E-02  0.1184000E+00
        -11   -1    0    0    0    0  0.00000000000E+00  0.00000000000E+00  0.45593999997E+02  0.45594000000E+02  0.51100000000E-03 0.  1.
         11   -1    0    0    0    0 -0.00000000000E+00 -0.00000000000E+00 -0.45593999997E+02  0.45594000000E+02  0.51100000000E-03 0. -1.
         23    2    1    2    0    0  0.00000000000E+00  0.17763568394E-14  0.35527136788E-14  0.91188000000E+02  0.91188000000E+02 0.  0.
    9900012    2    3    3    0    0  0.30005014194E+02 -0.13259928631E+02  0.28416488984E+02  0.47787269243E+02  0.19999991787E+02 0.  0.
        -12    1    3    3    0    0 -0.30005014194E+02  0.13259928631E+02 -0.28416488984E+02  0.43400730757E+02  0.00000000000E+00 0.  1.
         11    1    4    4    0    0  0.12737987727E+02 -0.84976196080E+01  0.94463135807E+01  0.17991628911E+02  0.51100000000E-03 0. -1.
        -11    1    4    4    0    0  0.39916782575E+01 -0.82047350927E+01  0.91974347594E+01  0.12955461384E+02  0.51100000000E-03 0.  1.
         12    1    4    4    0    0  0.13275348210E+02  0.34424260701E+01  0.97727406435E+01  0.16840178949E+02  0.00000000000E+00 0. -1.
</event>
<event>
 8    1  0.4042158E-011  0.9118800E+02  0.7816164E-02  0.1184000E+00
        -11   -1    0    0    0    0  0.00000000000E+00  0.00000000000E+00  0.45593999997E+02  0.45594000000E+02  0.51100000000E-03 0. -1.
         11   -1    0    0    0    0 -0.00000000000E+00 -0.00000000000E+00 -0.45593999997E+02  0.45594000000E+02  0.51100000000E-03 0.  1.
         23    2    1    2    0    0  0.00000000000E+00  0.00000000000E+00 -0.17763568394E-14  0.91188000000E+02  0.91188000000E+02 0.  0.
    9900012    2    3    3    0    0  0.41176510844E+02  0.52115739195E+01 -0.12686903630E+02  0.47787273374E+02  0.20000010619E+02 0.  0.
         12    1    3    3    0    0 -0.41176510844E+02 -0.52115739195E+01  0.12686903630E+02  0.43400726626E+02  0.00000000000E+00 0. -1.
         11    1    4    4    0    0  0.11801133755E+02 -0.51455307202E+01 -0.25309124349E+01  0.13120547333E+02  0.51100000000E-03 0. -1.
        -11    1    4    4    0    0  0.23357084456E+02  0.37097679187E+01 -0.45266540191E+01  0.24079168781E+02  0.51100000000E-03 0.  1.
        -12    1    4    4    0    0  0.60182926327E+01  0.66473367210E+01 -0.56293371760E+01  0.10587557260E+02  0.00000000000E+00 0.  1.
</event>
<event>
 8    1  0.4042158E-011  0.9118800E+02  0.7816164E-02  0.1184000E+00
        -11   -1    0    0    0    0  0.00000000000E+00  0.00000000000E+00  0.45593999997E+02  0.45594000000E+02  0.51100000000E-03 0. -1.
         11   -1    0    0    0    0 -0.00000000000E+00 -0.00000000000E+00 -0.45593999997E+02  0.45594000000E+02  0.51100000000E-03 0.  1.
         23    2    1    2    0    0 -0.35527136788E-14  0.00000000000E+00  0.00000000000E+00  0.91188000000E+02  0.91188000000E+02 0.  0.
    9900012    2    3    3    0    0  0.26215749691E+02 -0.27639687737E+02  0.20794369030E+02  0.47787266671E+02  0.19999980060E+02 0.  0.
        -12    1    3    3    0    0 -0.26215749691E+02  0.27639687737E+02 -0.20794369030E+02  0.43400733329E+02  0.00000000000E+00 0.  1.
         11    1    4    4    0    0  0.23159858208E+01 -0.92688689332E+00  0.77400525721E+00  0.26118947211E+01  0.51100000000E-03 0. -1.
        -11    1    4    4    0    0  0.16980199869E+01  0.28489996021E+01  0.30117534929E+01  0.44800368270E+01  0.51100000000E-03 0.  1.
         12    1    4    4    0    0  0.22201743884E+02 -0.29561800446E+02  0.17008610280E+02  0.40695335123E+02  0.00000000000E+00 0. -1.
</event>
<event>
 8    1  0.4843659E-011  0.9118800E+02  0.7816164E-02  0.1184000E+00
        -11   -1    0    0    0    0  0.00000000000E+00  0.00000000000E+00  0.45593999997E+02  0.45594000000E+02  0.51100000000E-03 0. -1.
         11   -1    0    0    0    0 -0.00000000000E+00 -0.00000000000E+00 -0.45593999997E+02  0.45594000000E+02  0.51100000000E-03 0.  1.
         23    2    1    2    0    0  0.66613381478E-15  0.44408920985E-15  0.00000000000E+00  0.91188000000E+02  0.91188000000E+02 0.  0.
    9900012    2    3    3    0    0 -0.14286806131E+01 -0.16583619114E+01  0.43345489288E+02  0.47787277263E+02  0.20000028352E+02 0.  0.
        -12    1    3    3    0    0  0.14286806131E+01  0.16583619114E+01 -0.43345489288E+02  0.43400722737E+02  0.00000000000E+00 0.  1.
         11    1    4    4    0    0  0.44023553819E+01  0.23643086876E+01  0.26882941108E+02  0.27343430863E+02  0.51100000000E-03 0. -1.
        -11    1    4    4    0    0 -0.12414916229E+01  0.20369385153E+01  0.10542542524E+02  0.10809052830E+02  0.51100000000E-03 0.  1.
        -12    1    4    4    0    0 -0.45895443721E+01 -0.60596091143E+01  0.59200056560E+01  0.96347935696E+01  0.00000000000E+00 0.  1.
</event>
<event>
 8    1  0.4042158E-011  0.9118800E+02  0.7816164E-02  0.1184000E+00
        -11   -1    0    0    0    0  0.00000000000E+00  0.00000000000E+00  0.45593999997E+02  0.45594000000E+02  0.51100000000E-03 0. -1.
         11   -1    0    0    0    0 -0.00000000000E+00 -0.00000000000E+00 -0.45593999997E+02  0.45594000000E+02  0.51100000000E-03 0.  1.
         23    2    1    2    0    0  0.00000000000E+00  0.00000000000E+00  0.00000000000E+00  0.91188000000E+02  0.91188000000E+02 0.  0.
    9900012    2    3    3    0    0  0.66752339754E+01  0.11151799955E+02 -0.41408961319E+02  0.47787268804E+02  0.19999989785E+02 0.  0.
         12    1    3    3    0    0 -0.66752339754E+01 -0.11151799955E+02  0.41408961319E+02  0.43400731196E+02  0.00000000000E+00 0. -1.
         11    1    4    4    0    0  0.40508088438E+01 -0.52002866278E+01 -0.12317544770E+02  0.13970466804E+02  0.51100000000E-03 0.  1.
        -11    1    4    4    0    0  0.12869989628E+01  0.63598408245E+01 -0.16202397990E+02  0.17453413492E+02  0.51100000000E-03 0. -1.
        -12    1    4    4    0    0  0.13374261688E+01  0.99922457582E+01 -0.12889018559E+02  0.16363388508E+02  0.00000000000E+00 0.  1.
</event>
<event>
 8    1  0.4042158E-011  0.9118800E+02  0.7816164E-02  0.1184000E+00
        -11   -1    0    0    0    0  0.00000000000E+00  0.00000000000E+00  0.45593999997E+02  0.45594000000E+02  0.51100000000E-03 0. -1.
         11   -1    0    0    0    0 -0.00000000000E+00 -0.00000000000E+00 -0.45593999997E+02  0.45594000000E+02  0.51100000000E-03 0.  1.
         23    2    1    2    0    0  0.00000000000E+00  0.35527136788E-14  0.35527136788E-14  0.91188000000E+02  0.91188000000E+02 0.  0.
    9900012    2    3    3    0    0  0.22768241118E+02  0.29475902585E+02  0.22280061869E+02  0.47787276576E+02  0.20000025222E+02 0.  0.
        -12    1    3    3    0    0 -0.22768241118E+02 -0.29475902585E+02 -0.22280061869E+02  0.43400723424E+02  0.00000000000E+00 0.  1.
         11    1    4    4    0    0 -0.11451159284E+01  0.66881066087E+01  0.28167446012E+01  0.73468436018E+01  0.51100000000E-03 0. -1.
        -11    1    4    4    0    0 -0.68937724337E-02 -0.97608073606E+00  0.25249278939E+01  0.27070356957E+01  0.51100000000E-03 0.  1.
        -12    1    4    4    0    0  0.23920250818E+02  0.23763876712E+02  0.16938389374E+02  0.37733397279E+02  0.00000000000E+00 0.  1.
</event>
<event>
 8    1  0.4042158E-011  0.9118800E+02  0.7816164E-02  0.1184000E+00
        -11   -1    0    0    0    0  0.00000000000E+00  0.00000000000E+00  0.45593999997E+02  0.45594000000E+02  0.51100000000E-03 0. -1.
         11   -1    0    0    0    0 -0.00000000000E+00 -0.00000000000E+00 -0.45593999997E+02  0.45594000000E+02  0.51100000000E-03 0.  1.
         23    2    1    2    0    0  0.00000000000E+00  0.00000000000E+00  0.00000000000E+00  0.91188000000E+02  0.91188000000E+02 0.  0.
    9900012    2    3    3    0    0 -0.21135643751E+02  0.10404038575E+02  0.36450837494E+02  0.47787274091E+02  0.20000013892E+02 0.  0.
        -12    1    3    3    0    0  0.21135643751E+02 -0.10404038575E+02 -0.36450837494E+02  0.43400725909E+02  0.00000000000E+00 0.  1.
         11    1    4    4    0    0 -0.93057894224E+01 -0.13070076831E+01  0.79120936294E+01  0.12284429646E+02  0.51100000000E-03 0. -1.
        -11    1    4    4    0    0 -0.52068865032E+01  0.23075336704E+01  0.11682267973E+01  0.58138741652E+01  0.51100000000E-03 0.  1.
         12    1    4    4    0    0 -0.66229678250E+01  0.94035125876E+01  0.27370517067E+02  0.29688970280E+02  0.00000000000E+00 0. -1.
</event>
<event>
 8    1  0.4042158E-011  0.9118800E+02  0.7816164E-02  0.1184000E+00
        -11   -1    0    0    0    0  0.00000000000E+00  0.00000000000E+00  0.45593999997E+02  0.45594000000E+02  0.51100000000E-03 0. -1.
         11   -1    0    0    0    0 -0.00000000000E+00 -0.00000000000E+00 -0.45593999997E+02  0.45594000000E+02  0.51100000000E-03 0.  1.
         23    2    1    2    0    0 -0.88817841970E-15 -0.17763568394E-14  0.71054273576E-14  0.91188000000E+02  0.91188000000E+02 0.  0.
    9900012    2    3    3    0    0  0.46653274463E+01  0.13605653312E+02 -0.40948068133E+02  0.47787269982E+02  0.19999995156E+02 0.  0.
         12    1    3    3    0    0 -0.46653274463E+01 -0.13605653312E+02  0.40948068133E+02  0.43400730018E+02  0.00000000000E+00 0. -1.
         11    1    4    4    0    0  0.58507506307E+01  0.67492039070E+01 -0.78682525082E+01  0.11903463114E+02  0.51100000000E-03 0. -1.
        -11    1    4    4    0    0  0.31271205350E+00 -0.25886685760E+01 -0.17837774375E+01  0.31592492831E+01  0.51100000000E-03 0.  1.
        -12    1    4    4    0    0 -0.14981352380E+01  0.94451179813E+01 -0.31296038188E+02  0.32724557585E+02  0.00000000000E+00 0.  1.
</event>
<event>
 8    1  0.4042158E-011  0.9118800E+02  0.7816164E-02  0.1184000E+00
        -11   -1    0    0    0    0  0.00000000000E+00  0.00000000000E+00  0.45593999997E+02  0.45594000000E+02  0.51100000000E-03 0. -1.
         11   -1    0    0    0    0 -0.00000000000E+00 -0.00000000000E+00 -0.45593999997E+02  0.45594000000E+02  0.51100000000E-03 0.  1.
         23    2    1    2    0    0  0.00000000000E+00  0.00000000000E+00  0.00000000000E+00  0.91188000000E+02  0.91188000000E+02 0.  0.
    9900012    2    3    3    0    0 -0.10385724416E+02  0.27259115121E+02  0.32135662352E+02  0.47787269319E+02  0.19999992135E+02 0.  0.
        -12    1    3    3    0    0  0.10385724416E+02 -0.27259115121E+02 -0.32135662352E+02  0.43400730681E+02  0.00000000000E+00 0.  1.
         11    1    4    4    0    0 -0.31940936965E+01  0.44255468322E+01  0.11176666764E+02  0.12438069766E+02  0.51100000000E-03 0. -1.
        -11    1    4    4    0    0 -0.10266191882E+02  0.72187685590E+01  0.91088781310E+01  0.15507320088E+02  0.51100000000E-03 0.  1.
         12    1    4    4    0    0  0.30745611620E+01  0.15614799730E+02  0.11850117457E+02  0.19841879465E+02  0.00000000000E+00 0. -1.
</event>
<event>
 8    1  0.4042158E-011  0.9118800E+02  0.7816164E-02  0.1184000E+00
        -11   -1    0    0    0    0  0.00000000000E+00  0.00000000000E+00  0.45593999997E+02  0.45594000000E+02  0.51100000000E-03 0. -1.
         11   -1    0    0    0    0 -0.00000000000E+00 -0.00000000000E+00 -0.45593999997E+02  0.45594000000E+02  0.51100000000E-03 0.  1.
         23    2    1    2    0    0  0.00000000000E+00  0.00000000000E+00  0.35527136788E-14  0.91188000000E+02  0.91188000000E+02 0.  0.
    9900012    2    3    3    0    0 -0.21333411622E+02 -0.28014424097E+02 -0.25371260646E+02  0.47787271024E+02  0.19999999905E+02 0.  0.
         12    1    3    3    0    0  0.21333411622E+02  0.28014424097E+02  0.25371260646E+02  0.43400728976E+02  0.00000000000E+00 0. -1.
         11    1    4    4    0    0 -0.15744678242E+01  0.14148827799E+01 -0.66409951560E+00  0.22185289356E+01  0.51100000000E-03 0. -1.
        -11    1    4    4    0    0 -0.15868603119E+02 -0.11359952432E+02 -0.15482848317E+02  0.24911436660E+02  0.51100000000E-03 0.  1.
        -12    1    4    4    0    0 -0.38903406784E+01 -0.18069354445E+02 -0.92243128132E+01  0.20657305428E+02  0.00000000000E+00 0.  1.
</event>
<event>
 8    1  0.4042158E-011  0.9118800E+02  0.7816164E-02  0.1184000E+00
        -11   -1    0    0    0    0  0.00000000000E+00  0.00000000000E+00  0.45593999997E+02  0.45594000000E+02  0.51100000000E-03 0. -1.
         11   -1    0    0    0    0 -0.00000000000E+00 -0.00000000000E+00 -0.45593999997E+02  0.45594000000E+02  0.51100000000E-03 0.  1.
         23    2    1    2    0    0  0.35527136788E-14 -0.13877787808E-16  0.00000000000E+00  0.91188000000E+02  0.91188000000E+02 0.  0.
    9900012    2    3    3    0    0 -0.29456300506E+02 -0.93144476653E-01 -0.31873826010E+02  0.47787273049E+02  0.20000009138E+02 0.  0.
         12    1    3    3    0    0  0.29456300506E+02  0.93144476653E-01  0.31873826010E+02  0.43400726951E+02  0.00000000000E+00 0. -1.
         11    1    4    4    0    0  0.54832695552E+00 -0.39040619198E+00 -0.81147014168E+01  0.81425707728E+01  0.51100000000E-03 0. -1.
        -11    1    4    4    0    0 -0.10636757620E+02  0.30614883633E+00 -0.14992816125E+02  0.18385289646E+02  0.51100000000E-03 0.  1.
        -12    1    4    4    0    0 -0.19367869842E+02 -0.88871210007E-02 -0.87663084686E+01  0.21259412629E+02  0.00000000000E+00 0.  1.
</event>
<event>
 8    1  0.4042158E-011  0.9118800E+02  0.7816164E-02  0.1184000E+00
        -11   -1    0    0    0    0  0.00000000000E+00  0.00000000000E+00  0.45593999997E+02  0.45594000000E+02  0.51100000000E-03 0. -1.
         11   -1    0    0    0    0 -0.00000000000E+00 -0.00000000000E+00 -0.45593999997E+02  0.45594000000E+02  0.51100000000E-03 0.  1.
         23    2    1    2    0    0  0.00000000000E+00 -0.71054273576E-14 -0.88817841970E-15  0.91188000000E+02  0.91188000000E+02 0.  0.
    9900012    2    3    3    0    0  0.18351054470E+02  0.38646334909E+02  0.73022043494E+01  0.47787278918E+02  0.20000035900E+02 0.  0.
         12    1    3    3    0    0 -0.18351054470E+02 -0.38646334909E+02 -0.73022043494E+01  0.43400721082E+02  0.00000000000E+00 0. -1.
         11    1    4    4    0    0 -0.36321348155E+00  0.57805292808E+01  0.23160955721E+01  0.62378475262E+01  0.51100000000E-03 0. -1.
        -11    1    4    4    0    0  0.14736003772E+02  0.24644863310E+02 -0.36922414764E+01  0.28950850456E+02  0.51100000000E-03 0.  1.
        -12    1    4    4    0    0  0.39782641795E+01  0.82209423182E+01  0.86783502537E+01  0.12598580936E+02  0.00000000000E+00 0.  1.
</event>
<event>
 8    1  0.4042158E-011  0.9118800E+02  0.7816164E-02  0.1184000E+00
        -11   -1    0    0    0    0  0.00000000000E+00  0.00000000000E+00  0.45593999997E+02  0.45594000000E+02  0.51100000000E-03 0. -1.
         11   -1    0    0    0    0 -0.00000000000E+00 -0.00000000000E+00 -0.45593999997E+02  0.45594000000E+02  0.51100000000E-03 0.  1.
         23    2    1    2    0    0  0.00000000000E+00  0.00000000000E+00  0.00000000000E+00  0.91188000000E+02  0.91188000000E+02 0.  0.
    9900012    2    3    3    0    0 -0.98113216605E+01 -0.57418520219E+01 -0.41885467355E+02  0.47787271056E+02  0.20000000051E+02 0.  0.
         12    1    3    3    0    0  0.98113216605E+01  0.57418520219E+01  0.41885467355E+02  0.43400728944E+02  0.00000000000E+00 0. -1.
         11    1    4    4    0    0 -0.87905751905E+00  0.14601830674E+01 -0.16933274481E+02  0.17018832558E+02  0.51100000000E-03 0.  1.
        -11    1    4    4    0    0  0.21397515947E+01  0.20387748871E+01 -0.17072324397E+01  0.34131778142E+01  0.51100000000E-03 0. -1.
        -12    1    4    4    0    0 -0.11072015736E+02 -0.92408099764E+01 -0.23244960434E+02  0.27355260683E+02  0.00000000000E+00 0.  1.
</event>
<event>
 8    1  0.4042158E-011  0.9118800E+02  0.7816164E-02  0.1184000E+00
        -11   -1    0    0    0    0  0.00000000000E+00  0.00000000000E+00  0.45593999997E+02  0.45594000000E+02  0.51100000000E-03 0. -1.
         11   -1    0    0    0    0 -0.00000000000E+00 -0.00000000000E+00 -0.45593999997E+02  0.45594000000E+02  0.51100000000E-03 0.  1.
         23    2    1    2    0    0  0.00000000000E+00  0.88817841970E-15  0.00000000000E+00  0.91188000000E+02  0.91188000000E+02 0.  0.
    9900012    2    3    3    0    0  0.15552252153E+02 -0.50271349888E+01 -0.40205400425E+02  0.47787321935E+02  0.20000232028E+02 0.  0.
         12    1    3    3    0    0 -0.15552252153E+02  0.50271349888E+01  0.40205400425E+02  0.43400678065E+02  0.00000000000E+00 0. -1.
         11    1    4    4    0    0  0.79698260016E+01 -0.59504753678E+01 -0.79955945078E+01  0.12761497380E+02  0.51100000000E-03 0. -1.
        -11    1    4    4    0    0  0.22994494857E+01 -0.57601089384E+00 -0.19633488545E-01  0.23705784572E+01  0.51100000000E-03 0.  1.
        -12    1    4    4    0    0  0.52829766656E+01  0.14993512729E+01 -0.32190172428E+02  0.32655246097E+02  0.00000000000E+00 0.  1.
</event>
<event>
 8    1  0.4042158E-011  0.9118800E+02  0.7816164E-02  0.1184000E+00
        -11   -1    0    0    0    0  0.00000000000E+00  0.00000000000E+00  0.45593999997E+02  0.45594000000E+02  0.51100000000E-03 0. -1.
         11   -1    0    0    0    0 -0.00000000000E+00 -0.00000000000E+00 -0.45593999997E+02  0.45594000000E+02  0.51100000000E-03 0.  1.
         23    2    1    2    0    0  0.00000000000E+00 -0.17763568394E-14  0.00000000000E+00  0.91188000000E+02  0.91188000000E+02 0.  0.
    9900012    2    3    3    0    0  0.14221877079E+02  0.12536981008E+02 -0.39040813900E+02  0.47787276153E+02  0.20000023293E+02 0.  0.
         12    1    3    3    0    0 -0.14221877079E+02 -0.12536981008E+02  0.39040813900E+02  0.43400723847E+02  0.00000000000E+00 0. -1.
         11    1    4    4    0    0  0.24809864715E+00  0.25790743543E+01 -0.81526545780E+00  0.27162171289E+01  0.51100000000E-03 0. -1.
        -11    1    4    4    0    0  0.85610983757E+01  0.11380209332E+02 -0.13166874614E+02  0.19395054967E+02  0.51100000000E-03 0.  1.
         12    1    4    4    0    0  0.54126800562E+01 -0.14223026774E+01 -0.25058673828E+02  0.25676004057E+02  0.00000000000E+00 0. -1.
</event>
<event>
 8    1  0.4042158E-011  0.9118800E+02  0.7816164E-02  0.1184000E+00
        -11   -1    0    0    0    0  0.00000000000E+00  0.00000000000E+00  0.45593999997E+02  0.45594000000E+02  0.51100000000E-03 0. -1.
         11   -1    0    0    0    0 -0.00000000000E+00 -0.00000000000E+00 -0.45593999997E+02  0.45594000000E+02  0.51100000000E-03 0.  1.
         23    2    1    2    0    0  0.35527136788E-14  0.00000000000E+00  0.35527136788E-14  0.91188000000E+02  0.91188000000E+02 0.  0.
    9900012    2    3    3    0    0 -0.22830811024E+02 -0.22304936941E+02 -0.29408627770E+02  0.47787268079E+02  0.19999986482E+02 0.  0.
         12    1    3    3    0    0  0.22830811024E+02  0.22304936941E+02  0.29408627770E+02  0.43400731921E+02  0.00000000000E+00 0. -1.
         11    1    4    4    0    0 -0.93959500275E+00  0.27047054828E+00 -0.20277018950E+01  0.22511260122E+01  0.51100000000E-03 0. -1.
        -11    1    4    4    0    0 -0.18673346745E+02 -0.12122307273E+02 -0.87272975917E+01  0.23912547664E+02  0.51100000000E-03 0.  1.
        -12    1    4    4    0    0 -0.32178692768E+01 -0.10453100216E+02 -0.18653628283E+02  0.21623594404E+02  0.00000000000E+00 0.  1.
</event>
<event>
 8    1  0.4042158E-011  0.9118800E+02  0.7816164E-02  0.1184000E+00
        -11   -1    0    0    0    0  0.00000000000E+00  0.00000000000E+00  0.45593999997E+02  0.45594000000E+02  0.51100000000E-03 0. -1.
         11   -1    0    0    0    0 -0.00000000000E+00 -0.00000000000E+00 -0.45593999997E+02  0.45594000000E+02  0.51100000000E-03 0.  1.
         23    2    1    2    0    0  0.00000000000E+00 -0.44408920985E-15  0.00000000000E+00  0.91188000000E+02  0.91188000000E+02 0.  0.
    9900012    2    3    3    0    0 -0.24667085392E+02  0.35526595624E+01  0.35532231832E+02  0.47787239746E+02  0.19999857297E+02 0.  0.
        -12    1    3    3    0    0  0.24667085392E+02 -0.35526595624E+01 -0.35532231832E+02  0.43400760254E+02  0.00000000000E+00 0.  1.
         11    1    4    4    0    0  0.10744460222E+01 -0.18229056858E+01 -0.24586567423E+00  0.21302275900E+01  0.51100000000E-03 0.  1.
        -11    1    4    4    0    0 -0.53032301762E+01  0.48629891135E+01  0.14275566482E+02  0.15986391464E+02  0.51100000000E-03 0. -1.
         12    1    4    4    0    0 -0.20438301238E+02  0.51257613474E+00  0.21502531024E+02  0.29670620692E+02  0.00000000000E+00 0. -1.
</event>
<event>
 8    1  0.4042158E-011  0.9118800E+02  0.7816164E-02  0.1184000E+00
        -11   -1    0    0    0    0  0.00000000000E+00  0.00000000000E+00  0.45593999997E+02  0.45594000000E+02  0.51100000000E-03 0. -1.
         11   -1    0    0    0    0 -0.00000000000E+00 -0.00000000000E+00 -0.45593999997E+02  0.45594000000E+02  0.51100000000E-03 0.  1.
         23    2    1    2    0    0  0.00000000000E+00  0.00000000000E+00  0.00000000000E+00  0.91188000000E+02  0.91188000000E+02 0.  0.
    9900012    2    3    3    0    0 -0.40970936394E+01 -0.37315492575E+02  0.21780519847E+02  0.47787271812E+02  0.20000003499E+02 0.  0.
        -12    1    3    3    0    0  0.40970936394E+01  0.37315492575E+02 -0.21780519847E+02  0.43400728188E+02  0.00000000000E+00 0.  1.
         11    1    4    4    0    0 -0.18247419780E+01 -0.36354093374E+00  0.14991229192E+01  0.23893963851E+01  0.51100000000E-03 0. -1.
        -11    1    4    4    0    0 -0.66099158466E+01 -0.56742631117E+01  0.68544018270E+01  0.11084722551E+02  0.51100000000E-03 0.  1.
         12    1    4    4    0    0  0.43375641853E+01 -0.31277688530E+02  0.13426995101E+02  0.34313152876E+02  0.00000000000E+00 0. -1.
</event>
<event>
 8    1  0.4042158E-011  0.9118800E+02  0.7816164E-02  0.1184000E+00
        -11   -1    0    0    0    0  0.00000000000E+00  0.00000000000E+00  0.45593999997E+02  0.45594000000E+02  0.51100000000E-03 0. -1.
         11   -1    0    0    0    0 -0.00000000000E+00 -0.00000000000E+00 -0.45593999997E+02  0.45594000000E+02  0.51100000000E-03 0.  1.
         23    2    1    2    0    0  0.00000000000E+00  0.00000000000E+00  0.71054273576E-14  0.91188000000E+02  0.91188000000E+02 0.  0.
    9900012    2    3    3    0    0 -0.87568526461E+01 -0.97315604245E+01  0.41379190846E+02  0.47787272223E+02  0.20000005372E+02 0.  0.
        -12    1    3    3    0    0  0.87568526461E+01  0.97315604245E+01 -0.41379190846E+02  0.43400727777E+02  0.00000000000E+00 0.  1.
         11    1    4    4    0    0 -0.80793259480E+00  0.30922556621E+01  0.72605424342E+01  0.79328605721E+01  0.51100000000E-03 0.  1.
        -11    1    4    4    0    0  0.13953765781E+01  0.80403982997E+00  0.12705194544E+02  0.12806854591E+02  0.51100000000E-03 0. -1.
        -12    1    4    4    0    0 -0.93442966294E+01 -0.13627855917E+02  0.21413453867E+02  0.27047557060E+02  0.00000000000E+00 0.  1.
</event>
<event>
 8    1  0.4042158E-011  0.9118800E+02  0.7816164E-02  0.1184000E+00
        -11   -1    0    0    0    0  0.00000000000E+00  0.00000000000E+00  0.45593999997E+02  0.45594000000E+02  0.51100000000E-03 0. -1.
         11   -1    0    0    0    0 -0.00000000000E+00 -0.00000000000E+00 -0.45593999997E+02  0.45594000000E+02  0.51100000000E-03 0.  1.
         23    2    1    2    0    0  0.00000000000E+00  0.00000000000E+00  0.00000000000E+00  0.91188000000E+02  0.91188000000E+02 0.  0.
    9900012    2    3    3    0    0  0.18955164914E+02 -0.29546348692E+02  0.25521330433E+02  0.47787270685E+02  0.19999998362E+02 0.  0.
        -12    1    3    3    0    0 -0.18955164914E+02  0.29546348692E+02 -0.25521330433E+02  0.43400729315E+02  0.00000000000E+00 0.  1.
         11    1    4    4    0    0  0.11537747768E+02 -0.14155421536E+02  0.16392062207E+02  0.24539667603E+02  0.51100000000E-03 0. -1.
        -11    1    4    4    0    0  0.17446604098E+01 -0.30510400048E+00  0.67223174853E+01  0.69517250399E+01  0.51100000000E-03 0.  1.
         12    1    4    4    0    0  0.56727567363E+01 -0.15085823156E+02  0.24069507411E+01  0.16295878042E+02  0.00000000000E+00 0. -1.
</event>
<event>
 8    1  0.4788813E-011  0.9118800E+02  0.7816164E-02  0.1184000E+00
        -11   -1    0    0    0    0  0.00000000000E+00  0.00000000000E+00  0.45593999997E+02  0.45594000000E+02  0.51100000000E-03 0. -1.
         11   -1    0    0    0    0 -0.00000000000E+00 -0.00000000000E+00 -0.45593999997E+02  0.45594000000E+02  0.51100000000E-03 0.  1.
         23    2    1    2    0    0 -0.44408920985E-15  0.00000000000E+00  0.00000000000E+00  0.91188000000E+02  0.91188000000E+02 0.  0.
    9900012    2    3    3    0    0 -0.36243383727E+01 -0.90868229140E+01  0.42283766986E+02  0.47787272704E+02  0.20000007567E+02 0.  0.
        -12    1    3    3    0    0  0.36243383727E+01  0.90868229140E+01 -0.42283766986E+02  0.43400727296E+02  0.00000000000E+00 0.  1.
         11    1    4    4    0    0 -0.79628257100E+01 -0.49106967827E+01  0.25317184548E+02  0.26990394030E+02  0.51100000000E-03 0. -1.
        -11    1    4    4    0    0 -0.17257703350E+01 -0.41349613809E+00 -0.56984893323E+00  0.18638643656E+01  0.51100000000E-03 0.  1.
        -12    1    4    4    0    0  0.60642576723E+01 -0.37626299932E+01  0.17536431371E+02  0.18933014309E+02  0.00000000000E+00 0.  1.
</event>
<event>
 8    1  0.4042158E-011  0.9118800E+02  0.7816164E-02  0.1184000E+00
        -11   -1    0    0    0    0  0.00000000000E+00  0.00000000000E+00  0.45593999997E+02  0.45594000000E+02  0.51100000000E-03 0. -1.
         11   -1    0    0    0    0 -0.00000000000E+00 -0.00000000000E+00 -0.45593999997E+02  0.45594000000E+02  0.51100000000E-03 0.  1.
         23    2    1    2    0    0  0.00000000000E+00  0.00000000000E+00 -0.71054273576E-14  0.91188000000E+02  0.91188000000E+02 0.  0.
    9900012    2    3    3    0    0 -0.11394361693E+02 -0.10781252868E+02  0.40466734499E+02  0.47787268522E+02  0.19999988500E+02 0.  0.
        -12    1    3    3    0    0  0.11394361693E+02  0.10781252868E+02 -0.40466734499E+02  0.43400731478E+02  0.00000000000E+00 0.  1.
         11    1    4    4    0    0  0.22757105765E+00 -0.52495810081E+01  0.17539048462E+01  0.55395010441E+01  0.51100000000E-03 0. -1.
        -11    1    4    4    0    0 -0.79671780922E+00 -0.10114180188E+01 -0.45137968408E+00  0.13643568289E+01  0.51100000000E-03 0.  1.
         12    1    4    4    0    0 -0.10825214941E+02 -0.45202538407E+01  0.39164209337E+02  0.40883410649E+02  0.00000000000E+00 0. -1.
</event>
<event>
 8    1  0.4042158E-011  0.9118800E+02  0.7816164E-02  0.1184000E+00
        -11   -1    0    0    0    0  0.00000000000E+00  0.00000000000E+00  0.45593999997E+02  0.45594000000E+02  0.51100000000E-03 0. -1.
         11   -1    0    0    0    0 -0.00000000000E+00 -0.00000000000E+00 -0.45593999997E+02  0.45594000000E+02  0.51100000000E-03 0.  1.
         23    2    1    2    0    0  0.00000000000E+00  0.00000000000E+00 -0.71054273576E-14  0.91188000000E+02  0.91188000000E+02 0.  0.
    9900012    2    3    3    0    0 -0.25221442812E+02 -0.76878033046E+01 -0.34473118536E+02  0.47787315688E+02  0.20000203547E+02 0.  0.
         12    1    3    3    0    0  0.25221442812E+02  0.76878033046E+01  0.34473118536E+02  0.43400684312E+02  0.00000000000E+00 0. -1.
         11    1    4    4    0    0  0.23579712854E+00 -0.19579639854E+01 -0.15692528145E+01  0.25202733802E+01  0.51100000000E-03 0. -1.
        -11    1    4    4    0    0 -0.15303339623E+02 -0.57682394753E+01 -0.76635695950E+01  0.18060871780E+02  0.51100000000E-03 0.  1.
         12    1    4    4    0    0 -0.10153900317E+02  0.38400156017E-01 -0.25240296126E+02  0.27206170527E+02  0.00000000000E+00 0. -1.
</event>
<event>
 8    1  0.4042158E-011  0.9118800E+02  0.7816164E-02  0.1184000E+00
        -11   -1    0    0    0    0  0.00000000000E+00  0.00000000000E+00  0.45593999997E+02  0.45594000000E+02  0.51100000000E-03 0.  1.
         11   -1    0    0    0    0 -0.00000000000E+00 -0.00000000000E+00 -0.45593999997E+02  0.45594000000E+02  0.51100000000E-03 0. -1.
         23    2    1    2    0    0  0.00000000000E+00  0.00000000000E+00  0.17763568394E-14  0.91188000000E+02  0.91188000000E+02 0.  0.
    9900012    2    3    3    0    0 -0.49933697659E+01 -0.40975283390E+02  0.13405798236E+02  0.47787274005E+02  0.20000013499E+02 0.  0.
         12    1    3    3    0    0  0.49933697659E+01  0.40975283390E+02 -0.13405798236E+02  0.43400725995E+02  0.00000000000E+00 0. -1.
         11    1    4    4    0    0 -0.80937191231E+01 -0.12320515072E+02  0.93474796197E+01  0.17455049596E+02  0.51100000000E-03 0. -1.
        -11    1    4    4    0    0  0.26482000179E-01 -0.17138588175E+02  0.61930360741E+01  0.18223216017E+02  0.51100000000E-03 0.  1.
        -12    1    4    4    0    0  0.30738673570E+01 -0.11516180143E+02 -0.21347174580E+01  0.12109008392E+02  0.00000000000E+00 0.  1.
</event>
<event>
 8    1  0.4042158E-011  0.9118800E+02  0.7816164E-02  0.1184000E+00
        -11   -1    0    0    0    0  0.00000000000E+00  0.00000000000E+00  0.45593999997E+02  0.45594000000E+02  0.51100000000E-03 0. -1.
         11   -1    0    0    0    0 -0.00000000000E+00 -0.00000000000E+00 -0.45593999997E+02  0.45594000000E+02  0.51100000000E-03 0.  1.
         23    2    1    2    0    0 -0.35527136788E-14  0.00000000000E+00  0.00000000000E+00  0.91188000000E+02  0.91188000000E+02 0.  0.
    9900012    2    3    3    0    0 -0.17644119574E+02 -0.35813447386E+02  0.17020730980E+02  0.47787271293E+02  0.20000001133E+02 0.  0.
         12    1    3    3    0    0  0.17644119574E+02  0.35813447386E+02 -0.17020730980E+02  0.43400728707E+02  0.00000000000E+00 0. -1.
         11    1    4    4    0    0 -0.88765255881E+01 -0.83420052146E+01  0.17954616539E+01  0.12312816101E+02  0.51100000000E-03 0. -1.
        -11    1    4    4    0    0  0.66350601417E+00 -0.40246096047E+01 -0.23350725992E+01  0.47000305324E+01  0.51100000000E-03 0.  1.
        -12    1    4    4    0    0 -0.94311000001E+01 -0.23446832566E+02  0.17560341925E+02  0.30774424660E+02  0.00000000000E+00 0.  1.
</event>
<event>
 8    1  0.4042158E-011  0.9118800E+02  0.7816164E-02  0.1184000E+00
        -11   -1    0    0    0    0  0.00000000000E+00  0.00000000000E+00  0.45593999997E+02  0.45594000000E+02  0.51100000000E-03 0. -1.
         11   -1    0    0    0    0 -0.00000000000E+00 -0.00000000000E+00 -0.45593999997E+02  0.45594000000E+02  0.51100000000E-03 0.  1.
         23    2    1    2    0    0 -0.71054273576E-14  0.00000000000E+00  0.00000000000E+00  0.91188000000E+02  0.91188000000E+02 0.  0.
    9900012    2    3    3    0    0 -0.33103851826E+02 -0.35068812720E+01 -0.27847083865E+02  0.47787270723E+02  0.19999998533E+02 0.  0.
         12    1    3    3    0    0  0.33103851826E+02  0.35068812720E+01  0.27847083865E+02  0.43400729277E+02  0.00000000000E+00 0. -1.
         11    1    4    4    0    0 -0.12520699089E+02  0.25264237064E+01 -0.42191235424E+01  0.13451829844E+02  0.51100000000E-03 0. -1.
        -11    1    4    4    0    0 -0.11924451560E+02 -0.38775789617E+01 -0.46663021531E+01  0.13379183071E+02  0.51100000000E-03 0.  1.
         12    1    4    4    0    0 -0.86587011774E+01 -0.21557260167E+01 -0.18961658170E+02  0.20956257807E+02  0.00000000000E+00 0. -1.
</event>
<event>
 8    1  0.4042158E-011  0.9118800E+02  0.7816164E-02  0.1184000E+00
        -11   -1    0    0    0    0  0.00000000000E+00  0.00000000000E+00  0.45593999997E+02  0.45594000000E+02  0.51100000000E-03 0. -1.
         11   -1    0    0    0    0 -0.00000000000E+00 -0.00000000000E+00 -0.45593999997E+02  0.45594000000E+02  0.51100000000E-03 0.  1.
         23    2    1    2    0    0 -0.44408920985E-15  0.00000000000E+00  0.00000000000E+00  0.91188000000E+02  0.91188000000E+02 0.  0.
    9900012    2    3    3    0    0  0.27882419345E+01  0.20448104984E+02 -0.38180078827E+02  0.47787335146E+02  0.20000292263E+02 0.  0.
         12    1    3    3    0    0 -0.27882419345E+01 -0.20448104984E+02  0.38180078827E+02  0.43400664854E+02  0.00000000000E+00 0. -1.
         11    1    4    4    0    0  0.60617670710E+00 -0.19713179823E+01 -0.18119889235E+01  0.27453322035E+01  0.51100000000E-03 0. -1.
        -11    1    4    4    0    0  0.29270156410E+01 -0.22848228350E+00 -0.11280186048E+01  0.31451631039E+01  0.51100000000E-03 0.  1.
        -12    1    4    4    0    0 -0.74495041356E+00  0.22647905249E+02 -0.35240071299E+02  0.41896839839E+02  0.00000000000E+00 0.  1.
</event>
<event>
 8    1  0.4042158E-011  0.9118800E+02  0.7816164E-02  0.1184000E+00
        -11   -1    0    0    0    0  0.00000000000E+00  0.00000000000E+00  0.45593999997E+02  0.45594000000E+02  0.51100000000E-03 0. -1.
         11   -1    0    0    0    0 -0.00000000000E+00 -0.00000000000E+00 -0.45593999997E+02  0.45594000000E+02  0.51100000000E-03 0.  1.
         23    2    1    2    0    0  0.00000000000E+00  0.00000000000E+00  0.00000000000E+00  0.91188000000E+02  0.91188000000E+02 0.  0.
    9900012    2    3    3    0    0 -0.36347096209E+02 -0.19996713747E+02 -0.12753167044E+02  0.47787271513E+02  0.20000002136E+02 0.  0.
         12    1    3    3    0    0  0.36347096209E+02  0.19996713747E+02  0.12753167044E+02  0.43400728487E+02  0.00000000000E+00 0. -1.
         11    1    4    4    0    0 -0.14567480830E+01 -0.20248471119E+01 -0.41035350652E+01  0.48021996102E+01  0.51100000000E-03 0. -1.
        -11    1    4    4    0    0 -0.83139256332E+01 -0.10955912295E+02 -0.70417000166E+01  0.15451178371E+02  0.51100000000E-03 0.  1.
        -12    1    4    4    0    0 -0.26576422493E+02 -0.70159543400E+01 -0.16079319627E+01  0.27533893532E+02  0.00000000000E+00 0.  1.
</event>
<event>
 8    1  0.4042158E-011  0.9118800E+02  0.7816164E-02  0.1184000E+00
        -11   -1    0    0    0    0  0.00000000000E+00  0.00000000000E+00  0.45593999997E+02  0.45594000000E+02  0.51100000000E-03 0. -1.
         11   -1    0    0    0    0 -0.00000000000E+00 -0.00000000000E+00 -0.45593999997E+02  0.45594000000E+02  0.51100000000E-03 0.  1.
         23    2    1    2    0    0 -0.17763568394E-14  0.00000000000E+00  0.00000000000E+00  0.91188000000E+02  0.91188000000E+02 0.  0.
    9900012    2    3    3    0    0 -0.14690466733E+02 -0.38617438690E+02 -0.13285584312E+02  0.47787272653E+02  0.20000007332E+02 0.  0.
         12    1    3    3    0    0  0.14690466733E+02  0.38617438690E+02  0.13285584312E+02  0.43400727347E+02  0.00000000000E+00 0. -1.
         11    1    4    4    0    0 -0.63465511095E+01 -0.12133156907E+02 -0.92334112922E+01  0.16515086796E+02  0.51100000000E-03 0. -1.
        -11    1    4    4    0    0 -0.40984972688E+01 -0.26072741299E+02 -0.50974533816E+01  0.26880653823E+02  0.51100000000E-03 0.  1.
        -12    1    4    4    0    0 -0.42454183545E+01 -0.41154048396E+00  0.10452803614E+01  0.43915320344E+01  0.00000000000E+00 0.  1.
</event>
<event>
 8    1  0.4042158E-011  0.9118800E+02  0.7816164E-02  0.1184000E+00
        -11   -1    0    0    0    0  0.00000000000E+00  0.00000000000E+00  0.45593999997E+02  0.45594000000E+02  0.51100000000E-03 0. -1.
         11   -1    0    0    0    0 -0.00000000000E+00 -0.00000000000E+00 -0.45593999997E+02  0.45594000000E+02  0.51100000000E-03 0.  1.
         23    2    1    2    0    0  0.00000000000E+00  0.00000000000E+00 -0.35527136788E-14  0.91188000000E+02  0.91188000000E+02 0.  0.
    9900012    2    3    3    0    0  0.28008980823E+02  0.18524852337E+02 -0.27494537970E+02  0.47787276745E+02  0.20000025993E+02 0.  0.
         12    1    3    3    0    0 -0.28008980823E+02 -0.18524852337E+02  0.27494537970E+02  0.43400723255E+02  0.00000000000E+00 0. -1.
         11    1    4    4    0    0  0.46335603852E+01  0.75205944933E+01 -0.83371432169E+00  0.88726717063E+01  0.51100000000E-03 0. -1.
        -11    1    4    4    0    0  0.13806581645E+02  0.11611827211E+02 -0.13049779720E+02  0.22265510973E+02  0.51100000000E-03 0.  1.
        -12    1    4    4    0    0  0.95688387925E+01 -0.60756936790E+00 -0.13611043929E+02  0.16649094066E+02  0.00000000000E+00 0.  1.
</event>
<event>
 8    1  0.4042158E-011  0.9118800E+02  0.7816164E-02  0.1184000E+00
        -11   -1    0    0    0    0  0.00000000000E+00  0.00000000000E+00  0.45593999997E+02  0.45594000000E+02  0.51100000000E-03 0. -1.
         11   -1    0    0    0    0 -0.00000000000E+00 -0.00000000000E+00 -0.45593999997E+02  0.45594000000E+02  0.51100000000E-03 0.  1.
         23    2    1    2    0    0 -0.35527136788E-14 -0.88817841970E-15 -0.71054273576E-14  0.91188000000E+02  0.91188000000E+02 0.  0.
    9900012    2    3    3    0    0 -0.26687401185E+02 -0.67099203911E+01 -0.33561626037E+02  0.47787272404E+02  0.20000006197E+02 0.  0.
         12    1    3    3    0    0  0.26687401185E+02  0.67099203911E+01  0.33561626037E+02  0.43400727596E+02  0.00000000000E+00 0. -1.
         11    1    4    4    0    0 -0.36090521083E+01 -0.51628151573E+01 -0.17768211921E+02  0.18851771073E+02  0.51100000000E-03 0. -1.
        -11    1    4    4    0    0 -0.18579089906E+02 -0.11417456203E+01 -0.15803572804E+02  0.24418007257E+02  0.51100000000E-03 0.  1.
        -12    1    4    4    0    0 -0.44992591710E+01 -0.40535961349E+00  0.10158687552E-01  0.45174940733E+01  0.00000000000E+00 0.  1.
</event>
<event>
 8    1  0.4042158E-011  0.9118800E+02  0.7816164E-02  0.1184000E+00
        -11   -1    0    0    0    0  0.00000000000E+00  0.00000000000E+00  0.45593999997E+02  0.45594000000E+02  0.51100000000E-03 0.  1.
         11   -1    0    0    0    0 -0.00000000000E+00 -0.00000000000E+00 -0.45593999997E+02  0.45594000000E+02  0.51100000000E-03 0. -1.
         23    2    1    2    0    0  0.00000000000E+00  0.00000000000E+00  0.00000000000E+00  0.91188000000E+02  0.91188000000E+02 0.  0.
    9900012    2    3    3    0    0  0.57403855492E+01  0.20950864845E+02 -0.37573063823E+02  0.47787240916E+02  0.19999862634E+02 0.  0.
         12    1    3    3    0    0 -0.57403855492E+01 -0.20950864845E+02  0.37573063823E+02  0.43400759084E+02  0.00000000000E+00 0. -1.
         11    1    4    4    0    0 -0.24011904413E+01  0.10398930283E+02 -0.16055923042E+02  0.19279422490E+02  0.51100000000E-03 0. -1.
        -11    1    4    4    0    0  0.21929433730E+01  0.10686062362E+02 -0.73830165645E+01  0.13172314273E+02  0.51100000000E-03 0.  1.
         12    1    4    4    0    0  0.59486326174E+01 -0.13412779984E+00 -0.14134124216E+02  0.15335504154E+02  0.00000000000E+00 0. -1.
</event>
<event>
 8    1  0.4042158E-011  0.9118800E+02  0.7816164E-02  0.1184000E+00
        -11   -1    0    0    0    0  0.00000000000E+00  0.00000000000E+00  0.45593999997E+02  0.45594000000E+02  0.51100000000E-03 0. -1.
         11   -1    0    0    0    0 -0.00000000000E+00 -0.00000000000E+00 -0.45593999997E+02  0.45594000000E+02  0.51100000000E-03 0.  1.
         23    2    1    2    0    0  0.00000000000E+00  0.00000000000E+00  0.00000000000E+00  0.91188000000E+02  0.91188000000E+02 0.  0.
    9900012    2    3    3    0    0  0.13911715875E+02  0.36057862724E+02 -0.19746341926E+02  0.47787270487E+02  0.19999997457E+02 0.  0.
         12    1    3    3    0    0 -0.13911715875E+02 -0.36057862724E+02  0.19746341926E+02  0.43400729513E+02  0.00000000000E+00 0. -1.
         11    1    4    4    0    0  0.19748515628E+01  0.19670768494E+02 -0.23712187408E+01  0.19911349789E+02  0.51100000000E-03 0. -1.
        -11    1    4    4    0    0  0.73101723017E+01  0.11817564359E+02 -0.68218652270E+01  0.15480028808E+02  0.51100000000E-03 0.  1.
         12    1    4    4    0    0  0.46266920105E+01  0.45695298713E+01 -0.10553257958E+02  0.12395891890E+02  0.00000000000E+00 0. -1.
</event>
<event>
 8    1  0.4042158E-011  0.9118800E+02  0.7816164E-02  0.1184000E+00
        -11   -1    0    0    0    0  0.00000000000E+00  0.00000000000E+00  0.45593999997E+02  0.45594000000E+02  0.51100000000E-03 0. -1.
         11   -1    0    0    0    0 -0.00000000000E+00 -0.00000000000E+00 -0.45593999997E+02  0.45594000000E+02  0.51100000000E-03 0.  1.
         23    2    1    2    0    0  0.35527136788E-14 -0.35527136788E-14  0.00000000000E+00  0.91188000000E+02  0.91188000000E+02 0.  0.
    9900012    2    3    3    0    0  0.19833648971E+02  0.26735167639E+02  0.27847451515E+02  0.47787269867E+02  0.19999994632E+02 0.  0.
        -12    1    3    3    0    0 -0.19833648971E+02 -0.26735167639E+02 -0.27847451515E+02  0.43400730133E+02  0.00000000000E+00 0.  1.
         11    1    4    4    0    0  0.29357480410E+01  0.14236538882E+00  0.28188131833E+01  0.40724185060E+01  0.51100000000E-03 0. -1.
        -11    1    4    4    0    0  0.15715543801E+02  0.17594835910E+02  0.89118922789E+01  0.25218612014E+02  0.51100000000E-03 0.  1.
         12    1    4    4    0    0  0.11823571284E+01  0.89979663400E+01  0.16116746053E+02  0.18496239347E+02  0.00000000000E+00 0. -1.
</event>
<event>
 8    1  0.4042158E-011  0.9118800E+02  0.7816164E-02  0.1184000E+00
        -11   -1    0    0    0    0  0.00000000000E+00  0.00000000000E+00  0.45593999997E+02  0.45594000000E+02  0.51100000000E-03 0. -1.
         11   -1    0    0    0    0 -0.00000000000E+00 -0.00000000000E+00 -0.45593999997E+02  0.45594000000E+02  0.51100000000E-03 0.  1.
         23    2    1    2    0    0  0.00000000000E+00 -0.66613381478E-15  0.00000000000E+00  0.91188000000E+02  0.91188000000E+02 0.  0.
    9900012    2    3    3    0    0 -0.40968353783E+02 -0.59917576187E+00  0.14312867296E+02  0.47787271970E+02  0.20000004222E+02 0.  0.
        -12    1    3    3    0    0  0.40968353783E+02  0.59917576187E+00 -0.14312867296E+02  0.43400728030E+02  0.00000000000E+00 0.  1.
         11    1    4    4    0    0 -0.19402855003E+02 -0.62561422790E+01  0.12283670039E+02  0.23801232077E+02  0.51100000000E-03 0. -1.
        -11    1    4    4    0    0 -0.60072930498E+01 -0.18041646950E+01  0.24300395091E+01  0.67266390055E+01  0.51100000000E-03 0.  1.
        -12    1    4    4    0    0 -0.15558205730E+02  0.74611312121E+01 -0.40084225250E+00  0.17259400888E+02  0.00000000000E+00 0.  1.
</event>
<event>
 8    1  0.4042158E-011  0.9118800E+02  0.7816164E-02  0.1184000E+00
        -11   -1    0    0    0    0  0.00000000000E+00  0.00000000000E+00  0.45593999997E+02  0.45594000000E+02  0.51100000000E-03 0. -1.
         11   -1    0    0    0    0 -0.00000000000E+00 -0.00000000000E+00 -0.45593999997E+02  0.45594000000E+02  0.51100000000E-03 0.  1.
         23    2    1    2    0    0 -0.24980018054E-15  0.22204460493E-15  0.71054273576E-14  0.91188000000E+02  0.91188000000E+02 0.  0.
    9900012    2    3    3    0    0  0.90210200041E-01 -0.16461863657E+01  0.43369403504E+02  0.47787271576E+02  0.20000002422E+02 0.  0.
        -12    1    3    3    0    0 -0.90210200041E-01  0.16461863657E+01 -0.43369403504E+02  0.43400728424E+02  0.00000000000E+00 0.  1.
         11    1    4    4    0    0 -0.61705528136E+00 -0.31831502450E+01  0.58196611390E+01  0.66619560743E+01  0.51100000000E-03 0. -1.
        -11    1    4    4    0    0 -0.22220489529E+01  0.39099125413E+01  0.37050630770E+02  0.37322569021E+02  0.51100000000E-03 0.  1.
        -12    1    4    4    0    0  0.29293144343E+01 -0.23729486619E+01  0.49911159549E+00  0.38027464801E+01  0.00000000000E+00 0.  1.
</event>
<event>
 8    1  0.4042158E-011  0.9118800E+02  0.7816164E-02  0.1184000E+00
        -11   -1    0    0    0    0  0.00000000000E+00  0.00000000000E+00  0.45593999997E+02  0.45594000000E+02  0.51100000000E-03 0. -1.
         11   -1    0    0    0    0 -0.00000000000E+00 -0.00000000000E+00 -0.45593999997E+02  0.45594000000E+02  0.51100000000E-03 0.  1.
         23    2    1    2    0    0 -0.22204460493E-15  0.00000000000E+00  0.00000000000E+00  0.91188000000E+02  0.91188000000E+02 0.  0.
    9900012    2    3    3    0    0 -0.13731042519E+01 -0.33712636348E+02 -0.27298287107E+02  0.47787265631E+02  0.19999975317E+02 0.  0.
         12    1    3    3    0    0  0.13731042519E+01  0.33712636348E+02  0.27298287107E+02  0.43400734369E+02  0.00000000000E+00 0. -1.
         11    1    4    4    0    0  0.18768460843E+01 -0.29145574396E+01 -0.10778300291E+02  0.11322056073E+02  0.51100000000E-03 0. -1.
        -11    1    4    4    0    0 -0.30369856724E+01 -0.16053101335E+02 -0.13977613241E+02  0.21501139891E+02  0.51100000000E-03 0.  1.
        -12    1    4    4    0    0 -0.21296466378E+00 -0.14744977573E+02 -0.25423735746E+01  0.14964069666E+02  0.00000000000E+00 0.  1.
</event>
<event>
 8    1  0.4042158E-011  0.9118800E+02  0.7816164E-02  0.1184000E+00
        -11   -1    0    0    0    0  0.00000000000E+00  0.00000000000E+00  0.45593999997E+02  0.45594000000E+02  0.51100000000E-03 0. -1.
         11   -1    0    0    0    0 -0.00000000000E+00 -0.00000000000E+00 -0.45593999997E+02  0.45594000000E+02  0.51100000000E-03 0.  1.
         23    2    1    2    0    0  0.00000000000E+00  0.14210854715E-13  0.00000000000E+00  0.91188000000E+02  0.91188000000E+02 0.  0.
    9900012    2    3    3    0    0  0.50020684995E+01  0.42843454027E+02  0.48001032942E+01  0.47787271506E+02  0.20000002103E+02 0.  0.
        -12    1    3    3    0    0 -0.50020684995E+01 -0.42843454027E+02 -0.48001032942E+01  0.43400728494E+02  0.00000000000E+00 0.  1.
         11    1    4    4    0    0  0.37610788727E+01  0.13487517070E+02  0.54212838502E+01  0.15014964197E+02  0.51100000000E-03 0. -1.
        -11    1    4    4    0    0 -0.32878051444E+00  0.29923543980E+02  0.16300801156E+01  0.29969713752E+02  0.51100000000E-03 0.  1.
        -12    1    4    4    0    0  0.15697701412E+01 -0.56760702348E+00 -0.22512606716E+01  0.28025935561E+01  0.00000000000E+00 0.  1.
</event>
<event>
 8    1  0.4986602E-011  0.9118800E+02  0.7816164E-02  0.1184000E+00
        -11   -1    0    0    0    0  0.00000000000E+00  0.00000000000E+00  0.45593999997E+02  0.45594000000E+02  0.51100000000E-03 0. -1.
         11   -1    0    0    0    0 -0.00000000000E+00 -0.00000000000E+00 -0.45593999997E+02  0.45594000000E+02  0.51100000000E-03 0.  1.
         23    2    1    2    0    0  0.17763568394E-14  0.35527136788E-14  0.35527136788E-14  0.91188000000E+02  0.91188000000E+02 0.  0.
    9900012    2    3    3    0    0  0.11569983239E+02  0.29156290874E+02  0.29994492755E+02  0.47787269530E+02  0.19999993097E+02 0.  0.
        -12    1    3    3    0    0 -0.11569983239E+02 -0.29156290874E+02 -0.29994492755E+02  0.43400730470E+02  0.00000000000E+00 0.  1.
         11    1    4    4    0    0  0.92036211906E+01  0.18283065246E+02  0.22959564942E+02  0.30759043229E+02  0.51100000000E-03 0. -1.
        -11    1    4    4    0    0  0.57185756768E+01  0.24142897305E+01  0.42118994704E+01  0.75013998750E+01  0.51100000000E-03 0.  1.
        -12    1    4    4    0    0 -0.33522136288E+01  0.84589358977E+01  0.28230283430E+01  0.95268264265E+01  0.00000000000E+00 0.  1.
</event>
<event>
 8    1  0.4042158E-011  0.9118800E+02  0.7816164E-02  0.1184000E+00
        -11   -1    0    0    0    0  0.00000000000E+00  0.00000000000E+00  0.45593999997E+02  0.45594000000E+02  0.51100000000E-03 0. -1.
         11   -1    0    0    0    0 -0.00000000000E+00 -0.00000000000E+00 -0.45593999997E+02  0.45594000000E+02  0.51100000000E-03 0.  1.
         23    2    1    2    0    0  0.17763568394E-14  0.00000000000E+00 -0.35527136788E-14  0.91188000000E+02  0.91188000000E+02 0.  0.
    9900012    2    3    3    0    0  0.10485791095E+02 -0.33681563697E+02  0.25282879267E+02  0.47787268071E+02  0.19999986441E+02 0.  0.
        -12    1    3    3    0    0 -0.10485791095E+02  0.33681563697E+02 -0.25282879267E+02  0.43400731929E+02  0.00000000000E+00 0.  1.
         11    1    4    4    0    0 -0.20073142410E+01 -0.36313130649E+01  0.42740938452E+01  0.59568131997E+01  0.51100000000E-03 0. -1.
        -11    1    4    4    0    0 -0.11036832037E+01 -0.17844133893E+02  0.96618879294E+01  0.20321990789E+02  0.51100000000E-03 0.  1.
        -12    1    4    4    0    0  0.13596788540E+02 -0.12206116739E+02  0.11346897493E+02  0.21508464082E+02  0.00000000000E+00 0.  1.
</event>
<event>
 8    1  0.4042158E-011  0.9118800E+02  0.7816164E-02  0.1184000E+00
        -11   -1    0    0    0    0  0.00000000000E+00  0.00000000000E+00  0.45593999997E+02  0.45594000000E+02  0.51100000000E-03 0.  1.
         11   -1    0    0    0    0 -0.00000000000E+00 -0.00000000000E+00 -0.45593999997E+02  0.45594000000E+02  0.51100000000E-03 0. -1.
         23    2    1    2    0    0 -0.17763568394E-14  0.00000000000E+00 -0.35527136788E-14  0.91188000000E+02  0.91188000000E+02 0.  0.
    9900012    2    3    3    0    0  0.10891634353E+02 -0.34465326048E+02 -0.24023662329E+02  0.47787277078E+02  0.20000027508E+02 0.  0.
         12    1    3    3    0    0 -0.10891634353E+02  0.34465326048E+02  0.24023662329E+02  0.43400722922E+02  0.00000000000E+00 0. -1.
         11    1    4    4    0    0  0.84025038378E+01 -0.16513920709E+02 -0.16810157472E+02  0.25017854472E+02  0.51100000000E-03 0. -1.
        -11    1    4    4    0    0  0.40748526827E+01 -0.19128657367E+02 -0.70421147125E+01  0.20787047335E+02  0.51100000000E-03 0.  1.
         12    1    4    4    0    0 -0.15857221675E+01  0.11772520276E+01 -0.17139014504E+00  0.19823752699E+01  0.00000000000E+00 0. -1.
</event>
<event>
 8    1  0.4042158E-011  0.9118800E+02  0.7816164E-02  0.1184000E+00
        -11   -1    0    0    0    0  0.00000000000E+00  0.00000000000E+00  0.45593999997E+02  0.45594000000E+02  0.51100000000E-03 0. -1.
         11   -1    0    0    0    0 -0.00000000000E+00 -0.00000000000E+00 -0.45593999997E+02  0.45594000000E+02  0.51100000000E-03 0.  1.
         23    2    1    2    0    0 -0.35527136788E-14  0.00000000000E+00  0.71054273576E-14  0.91188000000E+02  0.91188000000E+02 0.  0.
    9900012    2    3    3    0    0 -0.21450015362E+02  0.35656611112E+01  0.37560699476E+02  0.47787271396E+02  0.20000001604E+02 0.  0.
        -12    1    3    3    0    0  0.21450015362E+02 -0.35656611112E+01 -0.37560699476E+02  0.43400728604E+02  0.00000000000E+00 0.  1.
         11    1    4    4    0    0 -0.31657703246E+01 -0.22729457903E+01  0.83909238932E+00  0.39865349130E+01  0.51100000000E-03 0. -1.
        -11    1    4    4    0    0  0.15691709750E+01 -0.79121935467E+00  0.84116291653E+01  0.85932433395E+01  0.51100000000E-03 0.  1.
        -12    1    4    4    0    0 -0.19853416013E+02  0.66298262562E+01  0.28309977921E+02  0.35207493144E+02  0.00000000000E+00 0.  1.
</event>
<event>
 8    1  0.4042158E-011  0.9118800E+02  0.7816164E-02  0.1184000E+00
        -11   -1    0    0    0    0  0.00000000000E+00  0.00000000000E+00  0.45593999997E+02  0.45594000000E+02  0.51100000000E-03 0. -1.
         11   -1    0    0    0    0 -0.00000000000E+00 -0.00000000000E+00 -0.45593999997E+02  0.45594000000E+02  0.51100000000E-03 0.  1.
         23    2    1    2    0    0 -0.88817841970E-15 -0.17763568394E-14  0.14210854715E-13  0.91188000000E+02  0.91188000000E+02 0.  0.
    9900012    2    3    3    0    0  0.34620452501E+01 -0.12447558417E+02  0.41433030712E+02  0.47787268418E+02  0.19999988025E+02 0.  0.
        -12    1    3    3    0    0 -0.34620452501E+01  0.12447558417E+02 -0.41433030712E+02  0.43400731582E+02  0.00000000000E+00 0.  1.
         11    1    4    4    0    0  0.86644058457E+00 -0.80932109197E+01  0.13175792711E+02  0.15487165528E+02  0.51100000000E-03 0.  1.
        -11    1    4    4    0    0 -0.53803289724E+01 -0.31982958443E+01  0.19110147172E+02  0.20109071618E+02  0.51100000000E-03 0. -1.
         12    1    4    4    0    0  0.79759336379E+01 -0.11560516527E+01  0.91470908296E+01  0.12191031272E+02  0.00000000000E+00 0. -1.
</event>
<event>
 8    1  0.4042158E-011  0.9118800E+02  0.7816164E-02  0.1184000E+00
        -11   -1    0    0    0    0  0.00000000000E+00  0.00000000000E+00  0.45593999997E+02  0.45594000000E+02  0.51100000000E-03 0. -1.
         11   -1    0    0    0    0 -0.00000000000E+00 -0.00000000000E+00 -0.45593999997E+02  0.45594000000E+02  0.51100000000E-03 0.  1.
         23    2    1    2    0    0  0.35527136788E-14 -0.17763568394E-14  0.00000000000E+00  0.91188000000E+02  0.91188000000E+02 0.  0.
    9900012    2    3    3    0    0 -0.25991395711E+02  0.93972350266E+01  0.33462852555E+02  0.47787272146E+02  0.20000005022E+02 0.  0.
        -12    1    3    3    0    0  0.25991395711E+02 -0.93972350266E+01 -0.33462852555E+02  0.43400727854E+02  0.00000000000E+00 0.  1.
         11    1    4    4    0    0 -0.57260809836E+01  0.72698957069E+01  0.92787823368E+01  0.13104777332E+02  0.51100000000E-03 0. -1.
        -11    1    4    4    0    0 -0.11976408835E+02  0.56841133867E+01  0.63542380465E+01  0.14701015441E+02  0.51100000000E-03 0.  1.
        -12    1    4    4    0    0 -0.82889058926E+01 -0.35567740670E+01  0.17829832172E+02  0.19981479373E+02  0.00000000000E+00 0.  1.
</event>
<event>
 8    1  0.4042158E-011  0.9118800E+02  0.7816164E-02  0.1184000E+00
        -11   -1    0    0    0    0  0.00000000000E+00  0.00000000000E+00  0.45593999997E+02  0.45594000000E+02  0.51100000000E-03 0. -1.
         11   -1    0    0    0    0 -0.00000000000E+00 -0.00000000000E+00 -0.45593999997E+02  0.45594000000E+02  0.51100000000E-03 0.  1.
         23    2    1    2    0    0  0.22204460493E-15  0.00000000000E+00  0.00000000000E+00  0.91188000000E+02  0.91188000000E+02 0.  0.
    9900012    2    3    3    0    0  0.14664030257E+01 -0.32272210834E+02 -0.28982355909E+02  0.47787275536E+02  0.20000020479E+02 0.  0.
         12    1    3    3    0    0 -0.14664030257E+01  0.32272210834E+02  0.28982355909E+02  0.43400724464E+02  0.00000000000E+00 0. -1.
         11    1    4    4    0    0  0.62375531612E+01 -0.70544981767E+01 -0.59389815369E+01  0.11133037138E+02  0.51100000000E-03 0. -1.
        -11    1    4    4    0    0  0.33598693857E+00 -0.16866912949E+02 -0.79138927716E+01  0.18634251762E+02  0.51100000000E-03 0.  1.
         12    1    4    4    0    0 -0.51071370742E+01 -0.83507997080E+01 -0.15129481601E+02  0.18019986636E+02  0.00000000000E+00 0. -1.
</event>
<event>
 8    1  0.4042158E-011  0.9118800E+02  0.7816164E-02  0.1184000E+00
        -11   -1    0    0    0    0  0.00000000000E+00  0.00000000000E+00  0.45593999997E+02  0.45594000000E+02  0.51100000000E-03 0. -1.
         11   -1    0    0    0    0 -0.00000000000E+00 -0.00000000000E+00 -0.45593999997E+02  0.45594000000E+02  0.51100000000E-03 0.  1.
         23    2    1    2    0    0  0.00000000000E+00  0.88817841970E-15  0.00000000000E+00  0.91188000000E+02  0.91188000000E+02 0.  0.
    9900012    2    3    3    0    0 -0.36351888702E+02  0.59120539995E+01  0.22961077577E+02  0.47787270995E+02  0.19999999776E+02 0.  0.
        -12    1    3    3    0    0  0.36351888702E+02 -0.59120539995E+01 -0.22961077577E+02  0.43400729005E+02  0.00000000000E+00 0.  1.
         11    1    4    4    0    0 -0.89606029044E+01  0.94826034871E+01  0.61923511071E+01  0.14441516049E+02  0.51100000000E-03 0. -1.
        -11    1    4    4    0    0 -0.11516895634E+02  0.82198158067E+00  0.31349637216E+01  0.11964219012E+02  0.51100000000E-03 0.  1.
         12    1    4    4    0    0 -0.15874390163E+02 -0.43925310682E+01  0.13633762748E+02  0.21381535934E+02  0.00000000000E+00 0. -1.
</event>
<event>
 8    1  0.4042158E-011  0.9118800E+02  0.7816164E-02  0.1184000E+00
        -11   -1    0    0    0    0  0.00000000000E+00  0.00000000000E+00  0.45593999997E+02  0.45594000000E+02  0.51100000000E-03 0. -1.
         11   -1    0    0    0    0 -0.00000000000E+00 -0.00000000000E+00 -0.45593999997E+02  0.45594000000E+02  0.51100000000E-03 0.  1.
         23    2    1    2    0    0  0.00000000000E+00  0.17763568394E-14  0.00000000000E+00  0.91188000000E+02  0.91188000000E+02 0.  0.
    9900012    2    3    3    0    0 -0.31255650905E+02 -0.10008566243E+02  0.28399585047E+02  0.47787267949E+02  0.19999985886E+02 0.  0.
        -12    1    3    3    0    0  0.31255650905E+02  0.10008566243E+02 -0.28399585047E+02  0.43400732051E+02  0.00000000000E+00 0.  1.
         11    1    4    4    0    0 -0.34301699624E+01 -0.45332444263E+01  0.10865631859E+02  0.12262884121E+02  0.51100000000E-03 0. -1.
        -11    1    4    4    0    0 -0.46838850931E+01 -0.49552139053E+01  0.60177151146E+00  0.68450751366E+01  0.51100000000E-03 0.  1.
         12    1    4    4    0    0 -0.23141595850E+02 -0.52010791172E+00  0.16932181676E+02  0.28679308691E+02  0.00000000000E+00 0. -1.
</event>
<event>
 8    1  0.4042158E-011  0.9118800E+02  0.7816164E-02  0.1184000E+00
        -11   -1    0    0    0    0  0.00000000000E+00  0.00000000000E+00  0.45593999997E+02  0.45594000000E+02  0.51100000000E-03 0. -1.
         11   -1    0    0    0    0 -0.00000000000E+00 -0.00000000000E+00 -0.45593999997E+02  0.45594000000E+02  0.51100000000E-03 0.  1.
         23    2    1    2    0    0  0.00000000000E+00 -0.88817841970E-15  0.00000000000E+00  0.91188000000E+02  0.91188000000E+02 0.  0.
    9900012    2    3    3    0    0  0.26112394565E+02  0.41403162572E+01  0.34418362012E+02  0.47787274059E+02  0.20000013743E+02 0.  0.
        -12    1    3    3    0    0 -0.26112394565E+02 -0.41403162572E+01 -0.34418362012E+02  0.43400725941E+02  0.00000000000E+00 0.  1.
         11    1    4    4    0    0  0.11908220323E+02  0.30185504982E+01  0.53066525154E+01  0.13381999834E+02  0.51100000000E-03 0. -1.
        -11    1    4    4    0    0  0.54527739548E+01  0.12902290765E-01  0.18598517709E+01  0.57612463185E+01  0.51100000000E-03 0.  1.
        -12    1    4    4    0    0  0.87514002872E+01  0.11088634683E+01  0.27251857726E+02  0.28644027906E+02  0.00000000000E+00 0.  1.
</event>
<event>
 8    1  0.4042158E-011  0.9118800E+02  0.7816164E-02  0.1184000E+00
        -11   -1    0    0    0    0  0.00000000000E+00  0.00000000000E+00  0.45593999997E+02  0.45594000000E+02  0.51100000000E-03 0. -1.
         11   -1    0    0    0    0 -0.00000000000E+00 -0.00000000000E+00 -0.45593999997E+02  0.45594000000E+02  0.51100000000E-03 0.  1.
         23    2    1    2    0    0 -0.44408920985E-15  0.00000000000E+00  0.00000000000E+00  0.91188000000E+02  0.91188000000E+02 0.  0.
    9900012    2    3    3    0    0  0.39186982120E+01 -0.31322173308E+02 -0.29785707167E+02  0.47787273188E+02  0.20000009772E+02 0.  0.
         12    1    3    3    0    0 -0.39186982120E+01  0.31322173308E+02  0.29785707167E+02  0.43400726812E+02  0.00000000000E+00 0. -1.
         11    1    4    4    0    0  0.67191516736E+00 -0.81967445326E+01 -0.10212600919E+01  0.82874038975E+01  0.51100000000E-03 0. -1.
        -11    1    4    4    0    0  0.65059659045E+01 -0.43510211296E+01 -0.63380066363E+01  0.10071211725E+02  0.51100000000E-03 0.  1.
        -12    1    4    4    0    0 -0.32591828599E+01 -0.18774407646E+02 -0.22426440439E+02  0.29428657565E+02  0.00000000000E+00 0.  1.
</event>
<event>
 8    1  0.4042158E-011  0.9118800E+02  0.7816164E-02  0.1184000E+00
        -11   -1    0    0    0    0  0.00000000000E+00  0.00000000000E+00  0.45593999997E+02  0.45594000000E+02  0.51100000000E-03 0. -1.
         11   -1    0    0    0    0 -0.00000000000E+00 -0.00000000000E+00 -0.45593999997E+02  0.45594000000E+02  0.51100000000E-03 0.  1.
         23    2    1    2    0    0  0.17763568394E-14  0.00000000000E+00  0.00000000000E+00  0.91188000000E+02  0.91188000000E+02 0.  0.
    9900012    2    3    3    0    0  0.13350586668E+02 -0.37560857865E+01 -0.41125137002E+02  0.47787271455E+02  0.20000001871E+02 0.  0.
         12    1    3    3    0    0 -0.13350586668E+02  0.37560857865E+01  0.41125137002E+02  0.43400728545E+02  0.00000000000E+00 0. -1.
         11    1    4    4    0    0 -0.20181233058E+01  0.97036408641E+00 -0.94447635748E+00  0.24303217870E+01  0.51100000000E-03 0. -1.
        -11    1    4    4    0    0  0.23869310430E+01  0.44616174802E+01 -0.11443778846E+02  0.12512535510E+02  0.51100000000E-03 0.  1.
         12    1    4    4    0    0  0.12981778931E+02 -0.91880673531E+01 -0.28736881798E+02  0.32844414158E+02  0.00000000000E+00 0. -1.
</event>
<event>
 8    1  0.4042158E-011  0.9118800E+02  0.7816164E-02  0.1184000E+00
        -11   -1    0    0    0    0  0.00000000000E+00  0.00000000000E+00  0.45593999997E+02  0.45594000000E+02  0.51100000000E-03 0. -1.
         11   -1    0    0    0    0 -0.00000000000E+00 -0.00000000000E+00 -0.45593999997E+02  0.45594000000E+02  0.51100000000E-03 0.  1.
         23    2    1    2    0    0  0.00000000000E+00  0.35527136788E-14 -0.71054273576E-14  0.91188000000E+02  0.91188000000E+02 0.  0.
    9900012    2    3    3    0    0  0.28052267035E+02 -0.21848211892E+02 -0.24886727921E+02  0.47787271027E+02  0.19999999922E+02 0.  0.
         12    1    3    3    0    0 -0.28052267035E+02  0.21848211892E+02  0.24886727921E+02  0.43400728973E+02  0.00000000000E+00 0. -1.
         11    1    4    4    0    0  0.76610539843E+01 -0.91860318260E+01 -0.10832115655E+02  0.16137213473E+02  0.51100000000E-03 0. -1.
        -11    1    4    4    0    0  0.12689486658E+02 -0.94556655921E+01 -0.16593396084E+02  0.22929750921E+02  0.51100000000E-03 0.  1.
         12    1    4    4    0    0  0.77017263930E+01 -0.32065144743E+01  0.25387838174E+01  0.87203066333E+01  0.00000000000E+00 0. -1.
</event>
<event>
 8    1  0.4042158E-011  0.9118800E+02  0.7816164E-02  0.1184000E+00
        -11   -1    0    0    0    0  0.00000000000E+00  0.00000000000E+00  0.45593999997E+02  0.45594000000E+02  0.51100000000E-03 0. -1.
         11   -1    0    0    0    0 -0.00000000000E+00 -0.00000000000E+00 -0.45593999997E+02  0.45594000000E+02  0.51100000000E-03 0.  1.
         23    2    1    2    0    0  0.88817841970E-15  0.88817841970E-15  0.71054273576E-14  0.91188000000E+02  0.91188000000E+02 0.  0.
    9900012    2    3    3    0    0  0.67381597882E+01 -0.71446764646E+01 -0.42274981194E+02  0.47787271503E+02  0.20000002091E+02 0.  0.
         12    1    3    3    0    0 -0.67381597882E+01  0.71446764646E+01  0.42274981194E+02  0.43400728497E+02  0.00000000000E+00 0. -1.
         11    1    4    4    0    0 -0.21247417378E+01 -0.15571296652E+00 -0.11910470355E+01  0.24407718620E+01  0.51100000000E-03 0. -1.
        -11    1    4    4    0    0 -0.41072826330E+01 -0.32014320661E+01 -0.73564048599E+01  0.90130810839E+01  0.51100000000E-03 0.  1.
         12    1    4    4    0    0  0.12970184159E+02 -0.37875314320E+01 -0.33727529299E+02  0.36333418557E+02  0.00000000000E+00 0. -1.
</event>
<event>
 8    1  0.4761608E-011  0.9118800E+02  0.7816164E-02  0.1184000E+00
        -11   -1    0    0    0    0  0.00000000000E+00  0.00000000000E+00  0.45593999997E+02  0.45594000000E+02  0.51100000000E-03 0. -1.
         11   -1    0    0    0    0 -0.00000000000E+00 -0.00000000000E+00 -0.45593999997E+02  0.45594000000E+02  0.51100000000E-03 0.  1.
         23    2    1    2    0    0  0.00000000000E+00  0.00000000000E+00  0.35527136788E-14  0.91188000000E+02  0.91188000000E+02 0.  0.
    9900012    2    3    3    0    0  0.22034531841E+02 -0.27507631363E+02  0.25326533923E+02  0.47787266167E+02  0.19999977763E+02 0.  0.
        -12    1    3    3    0    0 -0.22034531841E+02  0.27507631363E+02 -0.25326533923E+02  0.43400733833E+02  0.00000000000E+00 0.  1.
         11    1    4    4    0    0  0.11118731981E+02 -0.68297848779E+01  0.59240043715E+01  0.14330596303E+02  0.51100000000E-03 0. -1.
        -11    1    4    4    0    0  0.13513168034E+02 -0.20610265414E+02  0.17842894975E+02  0.30426265826E+02  0.51100000000E-03 0.  1.
        -12    1    4    4    0    0 -0.25973681731E+01 -0.67581071468E-01  0.15596345763E+01  0.30304040390E+01  0.00000000000E+00 0.  1.
</event>
<event>
 8    1  0.4042158E-011  0.9118800E+02  0.7816164E-02  0.1184000E+00
        -11   -1    0    0    0    0  0.00000000000E+00  0.00000000000E+00  0.45593999997E+02  0.45594000000E+02  0.51100000000E-03 0. -1.
         11   -1    0    0    0    0 -0.00000000000E+00 -0.00000000000E+00 -0.45593999997E+02  0.45594000000E+02  0.51100000000E-03 0.  1.
         23    2    1    2    0    0  0.35527136788E-14 -0.26645352591E-14  0.00000000000E+00  0.91188000000E+02  0.91188000000E+02 0.  0.
    9900012    2    3    3    0    0  0.31396349877E+02 -0.42992410352E+01 -0.29654829415E+02  0.47787272279E+02  0.20000005630E+02 0.  0.
         12    1    3    3    0    0 -0.31396349877E+02  0.42992410352E+01  0.29654829415E+02  0.43400727721E+02  0.00000000000E+00 0. -1.
         11    1    4    4    0    0  0.13778181779E+00 -0.28797674105E+01 -0.30171674364E+01  0.41731695111E+01  0.51100000000E-03 0. -1.
        -11    1    4    4    0    0  0.22056963552E+02 -0.67749794102E+01 -0.22389537361E+02  0.32151226580E+02  0.51100000000E-03 0.  1.
         12    1    4    4    0    0  0.92016045072E+01  0.53555057855E+01 -0.42481246179E+01  0.11462876188E+02  0.00000000000E+00 0. -1.
</event>
<event>
 8    1  0.4042158E-011  0.9118800E+02  0.7816164E-02  0.1184000E+00
        -11   -1    0    0    0    0  0.00000000000E+00  0.00000000000E+00  0.45593999997E+02  0.45594000000E+02  0.51100000000E-03 0. -1.
         11   -1    0    0    0    0 -0.00000000000E+00 -0.00000000000E+00 -0.45593999997E+02  0.45594000000E+02  0.51100000000E-03 0.  1.
         23    2    1    2    0    0  0.00000000000E+00  0.00000000000E+00  0.35527136788E-14  0.91188000000E+02  0.91188000000E+02 0.  0.
    9900012    2    3    3    0    0 -0.12691672344E+02 -0.36025960119E+02 -0.20607639812E+02  0.47787272263E+02  0.20000005558E+02 0.  0.
         12    1    3    3    0    0  0.12691672344E+02  0.36025960119E+02  0.20607639812E+02  0.43400727737E+02  0.00000000000E+00 0. -1.
         11    1    4    4    0    0 -0.30881155200E+01 -0.22342016603E+01 -0.33669997252E+01  0.50857449734E+01  0.51100000000E-03 0.  1.
        -11    1    4    4    0    0 -0.88257883974E+01 -0.67201241182E+01 -0.93082226971E+01  0.14480939853E+02  0.51100000000E-03 0. -1.
         12    1    4    4    0    0 -0.77776842690E+00 -0.27071634341E+02 -0.79324173902E+01  0.28220587437E+02  0.00000000000E+00 0. -1.
</event>
<event>
 8    1  0.4042158E-011  0.9118800E+02  0.7816164E-02  0.1184000E+00
        -11   -1    0    0    0    0  0.00000000000E+00  0.00000000000E+00  0.45593999997E+02  0.45594000000E+02  0.51100000000E-03 0. -1.
         11   -1    0    0    0    0 -0.00000000000E+00 -0.00000000000E+00 -0.45593999997E+02  0.45594000000E+02  0.51100000000E-03 0.  1.
         23    2    1    2    0    0 -0.17763568394E-14  0.00000000000E+00  0.00000000000E+00  0.91188000000E+02  0.91188000000E+02 0.  0.
    9900012    2    3    3    0    0  0.46855020188E+01 -0.43129026544E+02 -0.12475336798E+01  0.47787271895E+02  0.20000003876E+02 0.  0.
         12    1    3    3    0    0 -0.46855020188E+01  0.43129026544E+02  0.12475336798E+01  0.43400728105E+02  0.00000000000E+00 0. -1.
         11    1    4    4    0    0  0.40327672906E+01 -0.81911476379E+01 -0.30680273492E+01  0.96317653482E+01  0.51100000000E-03 0. -1.
        -11    1    4    4    0    0  0.57975443034E+01 -0.27367873244E+02 -0.23970733610E+01  0.28077712991E+02  0.51100000000E-03 0.  1.
         12    1    4    4    0    0 -0.51448095752E+01 -0.75700056620E+01  0.42175670303E+01  0.10077793555E+02  0.00000000000E+00 0. -1.
</event>
<event>
 8    1  0.4042158E-011  0.9118800E+02  0.7816164E-02  0.1184000E+00
        -11   -1    0    0    0    0  0.00000000000E+00  0.00000000000E+00  0.45593999997E+02  0.45594000000E+02  0.51100000000E-03 0. -1.
         11   -1    0    0    0    0 -0.00000000000E+00 -0.00000000000E+00 -0.45593999997E+02  0.45594000000E+02  0.51100000000E-03 0.  1.
         23    2    1    2    0    0  0.00000000000E+00 -0.88817841970E-15 -0.35527136788E-14  0.91188000000E+02  0.91188000000E+02 0.  0.
    9900012    2    3    3    0    0 -0.29698921585E+02 -0.42741245796E+01 -0.31358079932E+02  0.47787271190E+02  0.20000000665E+02 0.  0.
         12    1    3    3    0    0  0.29698921585E+02  0.42741245796E+01  0.31358079932E+02  0.43400728810E+02  0.00000000000E+00 0. -1.
         11    1    4    4    0    0 -0.23223664910E+01 -0.46471534823E+01 -0.51276815941E+01  0.72994890505E+01  0.51100000000E-03 0. -1.
        -11    1    4    4    0    0 -0.10728352201E+02 -0.65412491608E+01 -0.82808671232E+01  0.15048529566E+02  0.51100000000E-03 0.  1.
         12    1    4    4    0    0 -0.16648202893E+02  0.69142780636E+01 -0.17949531214E+02  0.25439252574E+02  0.00000000000E+00 0. -1.
</event>
<event>
 8    1  0.4042158E-011  0.9118800E+02  0.7816164E-02  0.1184000E+00
        -11   -1    0    0    0    0  0.00000000000E+00  0.00000000000E+00  0.45593999997E+02  0.45594000000E+02  0.51100000000E-03 0. -1.
         11   -1    0    0    0    0 -0.00000000000E+00 -0.00000000000E+00 -0.45593999997E+02  0.45594000000E+02  0.51100000000E-03 0.  1.
         23    2    1    2    0    0 -0.44408920985E-15  0.66613381478E-15  0.00000000000E+00  0.91188000000E+02  0.91188000000E+02 0.  0.
    9900012    2    3    3    0    0  0.21731736840E+01  0.10113551306E+01 -0.43334487438E+02  0.47787270460E+02  0.19999997337E+02 0.  0.
         12    1    3    3    0    0 -0.21731736840E+01 -0.10113551306E+01  0.43334487438E+02  0.43400729540E+02  0.00000000000E+00 0. -1.
         11    1    4    4    0    0  0.45170282610E+01 -0.54066663874E+01 -0.96016885801E+01  0.11909156544E+02  0.51100000000E-03 0. -1.
        -11    1    4    4    0    0  0.38769839969E+01  0.28759380522E+01 -0.10276709963E+02  0.11353976947E+02  0.51100000000E-03 0.  1.
         12    1    4    4    0    0 -0.62208385739E+01  0.35420834658E+01 -0.23456088895E+02  0.24524136969E+02  0.00000000000E+00 0. -1.
</event>
<event>
 8    1  0.4042158E-011  0.9118800E+02  0.7816164E-02  0.1184000E+00
        -11   -1    0    0    0    0  0.00000000000E+00  0.00000000000E+00  0.45593999997E+02  0.45594000000E+02  0.51100000000E-03 0. -1.
         11   -1    0    0    0    0 -0.00000000000E+00 -0.00000000000E+00 -0.45593999997E+02  0.45594000000E+02  0.51100000000E-03 0.  1.
         23    2    1    2    0    0  0.00000000000E+00  0.88817841970E-15  0.00000000000E+00  0.91188000000E+02  0.91188000000E+02 0.  0.
    9900012    2    3    3    0    0  0.10361964511E+02 -0.50546819309E+01 -0.41841403883E+02  0.47787271932E+02  0.20000004048E+02 0.  0.
         12    1    3    3    0    0 -0.10361964511E+02  0.50546819309E+01  0.41841403883E+02  0.43400728068E+02  0.00000000000E+00 0. -1.
         11    1    4    4    0    0  0.14884563623E+01 -0.79934851024E+01 -0.81717186682E+01  0.11527718451E+02  0.51100000000E-03 0. -1.
        -11    1    4    4    0    0 -0.21002592502E+01  0.76351834609E+00 -0.46814042955E+01  0.51874459633E+01  0.51100000000E-03 0.  1.
        -12    1    4    4    0    0  0.10973767398E+02  0.21752848254E+01 -0.28988280919E+02  0.31072107518E+02  0.00000000000E+00 0.  1.
</event>
<event>
 8    1  0.4042158E-011  0.9118800E+02  0.7816164E-02  0.1184000E+00
        -11   -1    0    0    0    0  0.00000000000E+00  0.00000000000E+00  0.45593999997E+02  0.45594000000E+02  0.51100000000E-03 0. -1.
         11   -1    0    0    0    0 -0.00000000000E+00 -0.00000000000E+00 -0.45593999997E+02  0.45594000000E+02  0.51100000000E-03 0.  1.
         23    2    1    2    0    0  0.11102230246E-15 -0.17763568394E-14 -0.71054273576E-14  0.91188000000E+02  0.91188000000E+02 0.  0.
    9900012    2    3    3    0    0  0.72034983664E+00  0.15387874056E+02  0.40574848990E+02  0.47787263343E+02  0.19999964885E+02 0.  0.
        -12    1    3    3    0    0 -0.72034983664E+00 -0.15387874056E+02 -0.40574848990E+02  0.43400736657E+02  0.00000000000E+00 0.  1.
         11    1    4    4    0    0  0.12440173872E+01  0.87598480063E+00  0.23300239346E+01  0.27827936373E+01  0.51100000000E-03 0. -1.
        -11    1    4    4    0    0 -0.18833750055E+01  0.27479935944E+00 -0.17152349424E+01  0.25621567610E+01  0.51100000000E-03 0.  1.
        -12    1    4    4    0    0  0.13597074549E+01  0.14237089895E+02  0.39960059998E+02  0.42442312944E+02  0.00000000000E+00 0.  1.
</event>
<event>
 8    1  0.4042158E-011  0.9118800E+02  0.7816164E-02  0.1184000E+00
        -11   -1    0    0    0    0  0.00000000000E+00  0.00000000000E+00  0.45593999997E+02  0.45594000000E+02  0.51100000000E-03 0. -1.
         11   -1    0    0    0    0 -0.00000000000E+00 -0.00000000000E+00 -0.45593999997E+02  0.45594000000E+02  0.51100000000E-03 0.  1.
         23    2    1    2    0    0  0.00000000000E+00  0.35527136788E-14  0.00000000000E+00  0.91188000000E+02  0.91188000000E+02 0.  0.
    9900012    2    3    3    0    0  0.36119053978E+02  0.20038054072E+02  0.13323451887E+02  0.47787262202E+02  0.19999959683E+02 0.  0.
        -12    1    3    3    0    0 -0.36119053978E+02 -0.20038054072E+02 -0.13323451887E+02  0.43400737798E+02  0.00000000000E+00 0.  1.
         11    1    4    4    0    0  0.10933401683E+02  0.15330194219E+02  0.11458490481E+02  0.22042031021E+02  0.51100000000E-03 0. -1.
        -11    1    4    4    0    0  0.43646540290E+01  0.71005769051E+00 -0.30852056578E+00  0.44327837661E+01  0.51100000000E-03 0.  1.
         12    1    4    4    0    0  0.20820998266E+02  0.39978021617E+01  0.21734819716E+01  0.21312447415E+02  0.00000000000E+00 0. -1.
</event>
<event>
 8    1  0.4042158E-011  0.9118800E+02  0.7816164E-02  0.1184000E+00
        -11   -1    0    0    0    0  0.00000000000E+00  0.00000000000E+00  0.45593999997E+02  0.45594000000E+02  0.51100000000E-03 0.  1.
         11   -1    0    0    0    0 -0.00000000000E+00 -0.00000000000E+00 -0.45593999997E+02  0.45594000000E+02  0.51100000000E-03 0. -1.
         23    2    1    2    0    0  0.00000000000E+00  0.00000000000E+00  0.00000000000E+00  0.91188000000E+02  0.91188000000E+02 0.  0.
    9900012    2    3    3    0    0 -0.20470682643E+01 -0.43025177183E+02 -0.53166249653E+01  0.47787275800E+02  0.20000021681E+02 0.  0.
        -12    1    3    3    0    0  0.20470682643E+01  0.43025177183E+02  0.53166249653E+01  0.43400724200E+02  0.00000000000E+00 0.  1.
         11    1    4    4    0    0 -0.51242075522E+01 -0.33615207557E+02 -0.66382087270E+01  0.34645425347E+02  0.51100000000E-03 0. -1.
        -11    1    4    4    0    0  0.23317653375E+01 -0.59139170570E+00 -0.25290503306E+01  0.34904110896E+01  0.51100000000E-03 0.  1.
        -12    1    4    4    0    0  0.74537395051E+00 -0.88185779200E+01  0.38506340923E+01  0.96514393626E+01  0.00000000000E+00 0.  1.
</event>
<event>
 8    1  0.4042158E-011  0.9118800E+02  0.7816164E-02  0.1184000E+00
        -11   -1    0    0    0    0  0.00000000000E+00  0.00000000000E+00  0.45593999997E+02  0.45594000000E+02  0.51100000000E-03 0. -1.
         11   -1    0    0    0    0 -0.00000000000E+00 -0.00000000000E+00 -0.45593999997E+02  0.45594000000E+02  0.51100000000E-03 0.  1.
         23    2    1    2    0    0  0.00000000000E+00 -0.88817841970E-15  0.00000000000E+00  0.91188000000E+02  0.91188000000E+02 0.  0.
    9900012    2    3    3    0    0 -0.35876944950E+02  0.72725648086E+01  0.23314757056E+02  0.47787271038E+02  0.19999999970E+02 0.  0.
        -12    1    3    3    0    0  0.35876944950E+02 -0.72725648086E+01 -0.23314757056E+02  0.43400728962E+02  0.00000000000E+00 0.  1.
         11    1    4    4    0    0 -0.16477245455E+02 -0.19696857921E+01  0.99209508255E+01  0.19334025588E+02  0.51100000000E-03 0. -1.
        -11    1    4    4    0    0 -0.36358366824E+01 -0.33333943079E+01  0.23964023305E+01  0.54839374890E+01  0.51100000000E-03 0.  1.
         12    1    4    4    0    0 -0.15763862813E+02  0.12575644909E+02  0.10997403900E+02  0.22969307961E+02  0.00000000000E+00 0. -1.
</event>
<event>
 8    1  0.4042158E-011  0.9118800E+02  0.7816164E-02  0.1184000E+00
        -11   -1    0    0    0    0  0.00000000000E+00  0.00000000000E+00  0.45593999997E+02  0.45594000000E+02  0.51100000000E-03 0. -1.
         11   -1    0    0    0    0 -0.00000000000E+00 -0.00000000000E+00 -0.45593999997E+02  0.45594000000E+02  0.51100000000E-03 0.  1.
         23    2    1    2    0    0  0.00000000000E+00  0.35527136788E-14  0.00000000000E+00  0.91188000000E+02  0.91188000000E+02 0.  0.
    9900012    2    3    3    0    0  0.32426182448E+02 -0.26054776899E+02 -0.12382035617E+02  0.47787268285E+02  0.19999987417E+02 0.  0.
         12    1    3    3    0    0 -0.32426182448E+02  0.26054776899E+02  0.12382035617E+02  0.43400731715E+02  0.00000000000E+00 0. -1.
         11    1    4    4    0    0  0.97709770736E+01 -0.15492326190E+01 -0.77427504398E+01  0.12562734548E+02  0.51100000000E-03 0. -1.
        -11    1    4    4    0    0  0.16034309277E+02 -0.98051267856E+01 -0.25819947209E+01  0.18971196121E+02  0.51100000000E-03 0.  1.
         12    1    4    4    0    0  0.66208960979E+01 -0.14700417494E+02 -0.20572904560E+01  0.16253337616E+02  0.00000000000E+00 0. -1.
</event>
<event>
 8    1  0.4042158E-011  0.9118800E+02  0.7816164E-02  0.1184000E+00
        -11   -1    0    0    0    0  0.00000000000E+00  0.00000000000E+00  0.45593999997E+02  0.45594000000E+02  0.51100000000E-03 0. -1.
         11   -1    0    0    0    0 -0.00000000000E+00 -0.00000000000E+00 -0.45593999997E+02  0.45594000000E+02  0.51100000000E-03 0.  1.
         23    2    1    2    0    0 -0.71054273576E-14  0.26645352591E-14 -0.17763568394E-14  0.91188000000E+02  0.91188000000E+02 0.  0.
    9900012    2    3    3    0    0 -0.40414461651E+02  0.51972304187E+01 -0.14942669410E+02  0.47787270932E+02  0.19999999488E+02 0.  0.
         12    1    3    3    0    0  0.40414461651E+02 -0.51972304187E+01  0.14942669410E+02  0.43400729068E+02  0.00000000000E+00 0. -1.
         11    1    4    4    0    0 -0.10304555379E+02  0.67586039610E+01 -0.45948929471E+00  0.12331817374E+02  0.51100000000E-03 0. -1.
        -11    1    4    4    0    0 -0.10276737941E+02  0.20821789007E+01  0.23858564528E+00  0.10488266541E+02  0.51100000000E-03 0.  1.
         12    1    4    4    0    0 -0.19833168331E+02 -0.36435524430E+01 -0.14721765760E+02  0.24967187017E+02  0.00000000000E+00 0. -1.
</event>
<event>
 8    1  0.4042158E-011  0.9118800E+02  0.7816164E-02  0.1184000E+00
        -11   -1    0    0    0    0  0.00000000000E+00  0.00000000000E+00  0.45593999997E+02  0.45594000000E+02  0.51100000000E-03 0. -1.
         11   -1    0    0    0    0 -0.00000000000E+00 -0.00000000000E+00 -0.45593999997E+02  0.45594000000E+02  0.51100000000E-03 0.  1.
         23    2    1    2    0    0  0.00000000000E+00  0.00000000000E+00  0.00000000000E+00  0.91188000000E+02  0.91188000000E+02 0.  0.
    9900012    2    3    3    0    0 -0.20062255866E+01  0.27781334156E+02  0.33283567633E+02  0.47787270249E+02  0.19999996371E+02 0.  0.
        -12    1    3    3    0    0  0.20062255866E+01 -0.27781334156E+02 -0.33283567633E+02  0.43400729751E+02  0.00000000000E+00 0.  1.
         11    1    4    4    0    0  0.24519403574E+00  0.25055805126E+01 -0.92988119339E+00  0.26837908106E+01  0.51100000000E-03 0. -1.
        -11    1    4    4    0    0 -0.17323421240E+01 -0.78520005895E+00 -0.22213589218E+00  0.19149133095E+01  0.51100000000E-03 0.  1.
         12    1    4    4    0    0 -0.51907749830E+00  0.26060953702E+02  0.34435584718E+02  0.43188566128E+02  0.00000000000E+00 0. -1.
</event>
<event>
 8    1  0.4042158E-011  0.9118800E+02  0.7816164E-02  0.1184000E+00
        -11   -1    0    0    0    0  0.00000000000E+00  0.00000000000E+00  0.45593999997E+02  0.45594000000E+02  0.51100000000E-03 0. -1.
         11   -1    0    0    0    0 -0.00000000000E+00 -0.00000000000E+00 -0.45593999997E+02  0.45594000000E+02  0.51100000000E-03 0.  1.
         23    2    1    2    0    0  0.35527136788E-14 -0.17763568394E-14  0.00000000000E+00  0.91188000000E+02  0.91188000000E+02 0.  0.
    9900012    2    3    3    0    0 -0.21773390615E+02  0.15290428041E+02 -0.34289146269E+02  0.47787270969E+02  0.19999999658E+02 0.  0.
         12    1    3    3    0    0  0.21773390615E+02 -0.15290428041E+02  0.34289146269E+02  0.43400729031E+02  0.00000000000E+00 0. -1.
         11    1    4    4    0    0 -0.80664299805E+01  0.17656992460E+01 -0.31827971149E+01  0.88495866680E+01  0.51100000000E-03 0. -1.
        -11    1    4    4    0    0  0.62750202796E+00  0.16457081144E+01  0.84868555949E+00  0.19550911572E+01  0.51100000000E-03 0.  1.
        -12    1    4    4    0    0 -0.14334462663E+02  0.11879020681E+02 -0.31955034713E+02  0.36982593144E+02  0.00000000000E+00 0.  1.
</event>
<event>
 8    1  0.4042158E-011  0.9118800E+02  0.7816164E-02  0.1184000E+00
        -11   -1    0    0    0    0  0.00000000000E+00  0.00000000000E+00  0.45593999997E+02  0.45594000000E+02  0.51100000000E-03 0. -1.
         11   -1    0    0    0    0 -0.00000000000E+00 -0.00000000000E+00 -0.45593999997E+02  0.45594000000E+02  0.51100000000E-03 0.  1.
         23    2    1    2    0    0  0.00000000000E+00  0.00000000000E+00  0.00000000000E+00  0.91188000000E+02  0.91188000000E+02 0.  0.
    9900012    2    3    3    0    0  0.28554076977E+02 -0.25413762877E+02 -0.20553056990E+02  0.47787276420E+02  0.20000024511E+02 0.  0.
         12    1    3    3    0    0 -0.28554076977E+02  0.25413762877E+02  0.20553056990E+02  0.43400723580E+02  0.00000000000E+00 0. -1.
         11    1    4    4    0    0  0.36102325945E+01 -0.10081743159E+02 -0.51912548771E+01  0.11900607210E+02  0.51100000000E-03 0. -1.
        -11    1    4    4    0    0  0.68199970554E+01 -0.12283668745E+02 -0.63713174039E+01  0.15427072418E+02  0.51100000000E-03 0.  1.
         12    1    4    4    0    0  0.18123847327E+02 -0.30483509733E+01 -0.89904847093E+01  0.20459596792E+02  0.00000000000E+00 0. -1.
</event>
<event>
 8    1  0.4042158E-011  0.9118800E+02  0.7816164E-02  0.1184000E+00
        -11   -1    0    0    0    0  0.00000000000E+00  0.00000000000E+00  0.45593999997E+02  0.45594000000E+02  0.51100000000E-03 0.  1.
         11   -1    0    0    0    0 -0.00000000000E+00 -0.00000000000E+00 -0.45593999997E+02  0.45594000000E+02  0.51100000000E-03 0. -1.
         23    2    1    2    0    0  0.00000000000E+00 -0.35527136788E-14 -0.88817841970E-15  0.91188000000E+02  0.91188000000E+02 0.  0.
    9900012    2    3    3    0    0 -0.28742582474E+02  0.31903970253E+02 -0.62947553251E+01  0.47787270631E+02  0.19999998113E+02 0.  0.
        -12    1    3    3    0    0  0.28742582474E+02 -0.31903970253E+02  0.62947553251E+01  0.43400729369E+02  0.00000000000E+00 0.  1.
         11    1    4    4    0    0 -0.10310057758E+02  0.99022491849E+01 -0.67863049284E+01  0.15824214506E+02  0.51100000000E-03 0. -1.
        -11    1    4    4    0    0 -0.28406784428E+01 -0.12742007625E+01 -0.22092489820E+01  0.38175676712E+01  0.51100000000E-03 0.  1.
        -12    1    4    4    0    0 -0.15591846274E+02  0.23275921831E+02  0.27007985854E+01  0.28145488454E+02  0.00000000000E+00 0.  1.
</event>
<event>
 8    1  0.4042158E-011  0.9118800E+02  0.7816164E-02  0.1184000E+00
        -11   -1    0    0    0    0  0.00000000000E+00  0.00000000000E+00  0.45593999997E+02  0.45594000000E+02  0.51100000000E-03 0. -1.
         11   -1    0    0    0    0 -0.00000000000E+00 -0.00000000000E+00 -0.45593999997E+02  0.45594000000E+02  0.51100000000E-03 0.  1.
         23    2    1    2    0    0 -0.71054273576E-14 -0.35527136788E-14  0.00000000000E+00  0.91188000000E+02  0.91188000000E+02 0.  0.
    9900012    2    3    3    0    0 -0.32982836203E+02 -0.27985146508E+02 -0.35478025248E+01  0.47787276367E+02  0.20000024270E+02 0.  0.
         12    1    3    3    0    0  0.32982836203E+02  0.27985146508E+02  0.35478025248E+01  0.43400723633E+02  0.00000000000E+00 0. -1.
         11    1    4    4    0    0 -0.24896039759E+02 -0.12387970761E+02 -0.13430266138E+01  0.27840228735E+02  0.51100000000E-03 0. -1.
        -11    1    4    4    0    0 -0.90069722722E+01 -0.77697344403E+01 -0.64336681941E+00  0.11912524666E+02  0.51100000000E-03 0.  1.
        -12    1    4    4    0    0  0.92017582772E+00 -0.78274413064E+01 -0.15614090916E+01  0.80345229672E+01  0.00000000000E+00 0.  1.
</event>
<event>
 8    1  0.4042158E-011  0.9118800E+02  0.7816164E-02  0.1184000E+00
        -11   -1    0    0    0    0  0.00000000000E+00  0.00000000000E+00  0.45593999997E+02  0.45594000000E+02  0.51100000000E-03 0. -1.
         11   -1    0    0    0    0 -0.00000000000E+00 -0.00000000000E+00 -0.45593999997E+02  0.45594000000E+02  0.51100000000E-03 0.  1.
         23    2    1    2    0    0  0.00000000000E+00  0.00000000000E+00 -0.71054273576E-14  0.91188000000E+02  0.91188000000E+02 0.  0.
    9900012    2    3    3    0    0 -0.17382088332E+02  0.22160640169E+02 -0.33021091928E+02  0.47787268674E+02  0.19999989194E+02 0.  0.
         12    1    3    3    0    0  0.17382088332E+02 -0.22160640169E+02  0.33021091928E+02  0.43400731326E+02  0.00000000000E+00 0. -1.
         11    1    4    4    0    0 -0.62129938563E+01  0.47988093960E+01 -0.16042693922E+02  0.17860512110E+02  0.51100000000E-03 0. -1.
        -11    1    4    4    0    0 -0.91862595136E+01  0.15167425493E+02 -0.19268568678E+02  0.26186177634E+02  0.51100000000E-03 0.  1.
         12    1    4    4    0    0 -0.19828349625E+01  0.21944052806E+01  0.22901706727E+01  0.37405789303E+01  0.00000000000E+00 0. -1.
</event>
<event>
 8    1  0.4042158E-011  0.9118800E+02  0.7816164E-02  0.1184000E+00
        -11   -1    0    0    0    0  0.00000000000E+00  0.00000000000E+00  0.45593999997E+02  0.45594000000E+02  0.51100000000E-03 0. -1.
         11   -1    0    0    0    0 -0.00000000000E+00 -0.00000000000E+00 -0.45593999997E+02  0.45594000000E+02  0.51100000000E-03 0.  1.
         23    2    1    2    0    0 -0.35527136788E-14 -0.22204460493E-15 -0.71054273576E-14  0.91188000000E+02  0.91188000000E+02 0.  0.
    9900012    2    3    3    0    0 -0.24943143621E+02  0.14590954152E+01 -0.35487092353E+02  0.47787273084E+02  0.20000009301E+02 0.  0.
         12    1    3    3    0    0  0.24943143621E+02 -0.14590954152E+01  0.35487092353E+02  0.43400726916E+02  0.00000000000E+00 0. -1.
         11    1    4    4    0    0 -0.81507787055E+01  0.49165773151E+01 -0.10475628787E+02  0.14154388886E+02  0.51100000000E-03 0. -1.
        -11    1    4    4    0    0 -0.14506958867E+02 -0.19928553993E+01 -0.85654882142E+01  0.16964401457E+02  0.51100000000E-03 0.  1.
         12    1    4    4    0    0 -0.22854060484E+01 -0.14646265007E+01 -0.16445975352E+02  0.16668482741E+02  0.00000000000E+00 0. -1.
</event>
<event>
 8    1  0.4042158E-011  0.9118800E+02  0.7816164E-02  0.1184000E+00
        -11   -1    0    0    0    0  0.00000000000E+00  0.00000000000E+00  0.45593999997E+02  0.45594000000E+02  0.51100000000E-03 0. -1.
         11   -1    0    0    0    0 -0.00000000000E+00 -0.00000000000E+00 -0.45593999997E+02  0.45594000000E+02  0.51100000000E-03 0.  1.
         23    2    1    2    0    0 -0.35527136788E-14  0.35527136788E-14 -0.35527136788E-14  0.91188000000E+02  0.91188000000E+02 0.  0.
    9900012    2    3    3    0    0  0.25730557604E+02 -0.22260050764E+02  0.26945346805E+02  0.47787272252E+02  0.20000005505E+02 0.  0.
        -12    1    3    3    0    0 -0.25730557604E+02  0.22260050764E+02 -0.26945346805E+02  0.43400727748E+02  0.00000000000E+00 0.  1.
         11    1    4    4    0    0  0.10033585136E+01 -0.35701419808E+00 -0.11264499612E+01  0.15501861890E+01  0.51100000000E-03 0.  1.
        -11    1    4    4    0    0  0.15376813663E+02 -0.38449447526E+01  0.16320380378E+02  0.22750490424E+02  0.51100000000E-03 0. -1.
         12    1    4    4    0    0  0.93503854274E+01 -0.18058091813E+02  0.11751416388E+02  0.23486595639E+02  0.00000000000E+00 0. -1.
</event>
<event>
 8    1  0.4042158E-011  0.9118800E+02  0.7816164E-02  0.1184000E+00
        -11   -1    0    0    0    0  0.00000000000E+00  0.00000000000E+00  0.45593999997E+02  0.45594000000E+02  0.51100000000E-03 0. -1.
         11   -1    0    0    0    0 -0.00000000000E+00 -0.00000000000E+00 -0.45593999997E+02  0.45594000000E+02  0.51100000000E-03 0.  1.
         23    2    1    2    0    0  0.00000000000E+00  0.00000000000E+00  0.00000000000E+00  0.91188000000E+02  0.91188000000E+02 0.  0.
    9900012    2    3    3    0    0  0.18759140337E+02 -0.87795954578E+01 -0.38139694502E+02  0.47787274898E+02  0.20000017572E+02 0.  0.
         12    1    3    3    0    0 -0.18759140337E+02  0.87795954578E+01  0.38139694502E+02  0.43400725102E+02  0.00000000000E+00 0. -1.
         11    1    4    4    0    0  0.98348094116E+01 -0.10120855474E+01 -0.21770454625E+02  0.23910259056E+02  0.51100000000E-03 0. -1.
        -11    1    4    4    0    0  0.84903975123E+01  0.96173201808E+00 -0.68271200725E+01  0.10937154435E+02  0.51100000000E-03 0.  1.
         12    1    4    4    0    0  0.43393341343E+00 -0.87292419285E+01 -0.95421198054E+01  0.12939861407E+02  0.00000000000E+00 0. -1.
</event>
<event>
 8    1  0.4042158E-011  0.9118800E+02  0.7816164E-02  0.1184000E+00
        -11   -1    0    0    0    0  0.00000000000E+00  0.00000000000E+00  0.45593999997E+02  0.45594000000E+02  0.51100000000E-03 0. -1.
         11   -1    0    0    0    0 -0.00000000000E+00 -0.00000000000E+00 -0.45593999997E+02  0.45594000000E+02  0.51100000000E-03 0.  1.
         23    2    1    2    0    0  0.00000000000E+00  0.00000000000E+00  0.00000000000E+00  0.91188000000E+02  0.91188000000E+02 0.  0.
    9900012    2    3    3    0    0 -0.51070375918E+01  0.20095983339E+02 -0.38127326727E+02  0.47787269330E+02  0.19999992185E+02 0.  0.
         12    1    3    3    0    0  0.51070375918E+01 -0.20095983339E+02  0.38127326727E+02  0.43400730670E+02  0.00000000000E+00 0. -1.
         11    1    4    4    0    0  0.54585672322E+01  0.16705771441E+01 -0.27521952302E+01  0.63372993514E+01  0.51100000000E-03 0. -1.
        -11    1    4    4    0    0 -0.16241450446E+01  0.64547712892E+01 -0.11351563249E+02  0.13159023823E+02  0.51100000000E-03 0.  1.
         12    1    4    4    0    0 -0.89414597794E+01  0.11970634905E+02 -0.24023568248E+02  0.28290946155E+02  0.00000000000E+00 0. -1.
</event>
<event>
 8    1  0.4042158E-011  0.9118800E+02  0.7816164E-02  0.1184000E+00
        -11   -1    0    0    0    0  0.00000000000E+00  0.00000000000E+00  0.45593999997E+02  0.45594000000E+02  0.51100000000E-03 0. -1.
         11   -1    0    0    0    0 -0.00000000000E+00 -0.00000000000E+00 -0.45593999997E+02  0.45594000000E+02  0.51100000000E-03 0.  1.
         23    2    1    2    0    0  0.00000000000E+00  0.17763568394E-14  0.71054273576E-14  0.91188000000E+02  0.91188000000E+02 0.  0.
    9900012    2    3    3    0    0  0.23529674536E+02  0.14177089300E+02  0.33600417910E+02  0.47787268111E+02  0.19999986624E+02 0.  0.
        -12    1    3    3    0    0 -0.23529674536E+02 -0.14177089300E+02 -0.33600417910E+02  0.43400731889E+02  0.00000000000E+00 0.  1.
         11    1    4    4    0    0  0.47729912327E+01  0.12006106902E+01  0.11379341782E+02  0.12398077713E+02  0.51100000000E-03 0.  1.
        -11    1    4    4    0    0  0.13439439161E+01  0.97104364156E+01  0.86231985449E+01  0.13055968522E+02  0.51100000000E-03 0. -1.
        -12    1    4    4    0    0  0.17412739387E+02  0.32660421942E+01  0.13597877584E+02  0.22333221876E+02  0.00000000000E+00 0.  1.
</event>
<event>
 8    1  0.4042158E-011  0.9118800E+02  0.7816164E-02  0.1184000E+00
        -11   -1    0    0    0    0  0.00000000000E+00  0.00000000000E+00  0.45593999997E+02  0.45594000000E+02  0.51100000000E-03 0. -1.
         11   -1    0    0    0    0 -0.00000000000E+00 -0.00000000000E+00 -0.45593999997E+02  0.45594000000E+02  0.51100000000E-03 0.  1.
         23    2    1    2    0    0  0.88817841970E-15 -0.35527136788E-14  0.00000000000E+00  0.91188000000E+02  0.91188000000E+02 0.  0.
    9900012    2    3    3    0    0  0.67791484495E+01 -0.14249464089E+02 -0.40430421439E+02  0.47787273529E+02  0.20000011327E+02 0.  0.
         12    1    3    3    0    0 -0.67791484495E+01  0.14249464089E+02  0.40430421439E+02  0.43400726471E+02  0.00000000000E+00 0. -1.
         11    1    4    4    0    0  0.69977975677E+01 -0.61439332407E+01 -0.10586919858E+02  0.14099643925E+02  0.51100000000E-03 0. -1.
        -11    1    4    4    0    0  0.22964729030E+01 -0.99383620531E+01 -0.12824129050E+02  0.16386064635E+02  0.51100000000E-03 0.  1.
         12    1    4    4    0    0 -0.25151220211E+01  0.18328312050E+01 -0.17019372531E+02  0.17301564968E+02  0.00000000000E+00 0. -1.
</event>
<event>
 8    1  0.4042158E-011  0.9118800E+02  0.7816164E-02  0.1184000E+00
        -11   -1    0    0    0    0  0.00000000000E+00  0.00000000000E+00  0.45593999997E+02  0.45594000000E+02  0.51100000000E-03 0. -1.
         11   -1    0    0    0    0 -0.00000000000E+00 -0.00000000000E+00 -0.45593999997E+02  0.45594000000E+02  0.51100000000E-03 0.  1.
         23    2    1    2    0    0  0.00000000000E+00 -0.17763568394E-14  0.00000000000E+00  0.91188000000E+02  0.91188000000E+02 0.  0.
    9900012    2    3    3    0    0 -0.19802192844E+02  0.11595698919E+02  0.36837972697E+02  0.47787270660E+02  0.19999998247E+02 0.  0.
        -12    1    3    3    0    0  0.19802192844E+02 -0.11595698919E+02 -0.36837972697E+02  0.43400729340E+02  0.00000000000E+00 0.  1.
         11    1    4    4    0    0 -0.15441948156E+02  0.95013208977E+01  0.32169530075E+02  0.36927056844E+02  0.51100000000E-03 0.  1.
        -11    1    4    4    0    0 -0.20178128029E+01  0.37757383700E+01  0.62468727869E+01  0.75730567556E+01  0.51100000000E-03 0. -1.
        -12    1    4    4    0    0 -0.23424318843E+01 -0.16813603483E+01 -0.15784301651E+01  0.32871570603E+01  0.00000000000E+00 0.  1.
</event>
<event>
 8    1  0.4042158E-011  0.9118800E+02  0.7816164E-02  0.1184000E+00
        -11   -1    0    0    0    0  0.00000000000E+00  0.00000000000E+00  0.45593999997E+02  0.45594000000E+02  0.51100000000E-03 0. -1.
         11   -1    0    0    0    0 -0.00000000000E+00 -0.00000000000E+00 -0.45593999997E+02  0.45594000000E+02  0.51100000000E-03 0.  1.
         23    2    1    2    0    0  0.00000000000E+00  0.00000000000E+00  0.35527136788E-14  0.91188000000E+02  0.91188000000E+02 0.  0.
    9900012    2    3    3    0    0 -0.64423455216E+01  0.34788601868E+02 -0.25137084912E+02  0.47787266439E+02  0.19999979001E+02 0.  0.
         12    1    3    3    0    0  0.64423455216E+01 -0.34788601868E+02  0.25137084912E+02  0.43400733561E+02  0.00000000000E+00 0. -1.
         11    1    4    4    0    0 -0.62215833938E+01  0.11590335084E+02 -0.31147340844E+01  0.13518340725E+02  0.51100000000E-03 0. -1.
        -11    1    4    4    0    0 -0.81053886674E+00  0.77206877315E+01 -0.53569750501E+00  0.77815785275E+01  0.51100000000E-03 0.  1.
         12    1    4    4    0    0  0.58977673897E+00  0.15477579052E+02 -0.21486653323E+02  0.26487347186E+02  0.00000000000E+00 0. -1.
</event>
<event>
 8    1  0.4042158E-011  0.9118800E+02  0.7816164E-02  0.1184000E+00
        -11   -1    0    0    0    0  0.00000000000E+00  0.00000000000E+00  0.45593999997E+02  0.45594000000E+02  0.51100000000E-03 0. -1.
         11   -1    0    0    0    0 -0.00000000000E+00 -0.00000000000E+00 -0.45593999997E+02  0.45594000000E+02  0.51100000000E-03 0.  1.
         23    2    1    2    0    0  0.35527136788E-14  0.00000000000E+00  0.00000000000E+00  0.91188000000E+02  0.91188000000E+02 0.  0.
    9900012    2    3    3    0    0  0.25982027302E+02 -0.39021862727E+01  0.34544619104E+02  0.47787268331E+02  0.19999987627E+02 0.  0.
        -12    1    3    3    0    0 -0.25982027302E+02  0.39021862727E+01 -0.34544619104E+02  0.43400731669E+02  0.00000000000E+00 0.  1.
         11    1    4    4    0    0  0.10915250868E+02  0.26086116880E+01  0.17906684655E+02  0.21132839659E+02  0.51100000000E-03 0.  1.
        -11    1    4    4    0    0  0.12194370724E+02  0.95965880334E+00  0.13040240319E+02  0.17879359334E+02  0.51100000000E-03 0. -1.
        -12    1    4    4    0    0  0.28724057105E+01 -0.74704567640E+01  0.35976941294E+01  0.87750693375E+01  0.00000000000E+00 0.  1.
</event>
<event>
 8    1  0.4042158E-011  0.9118800E+02  0.7816164E-02  0.1184000E+00
        -11   -1    0    0    0    0  0.00000000000E+00  0.00000000000E+00  0.45593999997E+02  0.45594000000E+02  0.51100000000E-03 0. -1.
         11   -1    0    0    0    0 -0.00000000000E+00 -0.00000000000E+00 -0.45593999997E+02  0.45594000000E+02  0.51100000000E-03 0.  1.
         23    2    1    2    0    0  0.16098233857E-14  0.35527136788E-14  0.00000000000E+00  0.91188000000E+02  0.91188000000E+02 0.  0.
    9900012    2    3    3    0    0  0.14087308380E+00  0.24449448031E+02  0.35858400296E+02  0.47787306157E+02  0.20000160091E+02 0.  0.
        -12    1    3    3    0    0 -0.14087308380E+00 -0.24449448031E+02 -0.35858400296E+02  0.43400693843E+02  0.00000000000E+00 0.  1.
         11    1    4    4    0    0 -0.22160092461E+01  0.44372975354E+01  0.57111952423E+01  0.75642618776E+01  0.51100000000E-03 0. -1.
        -11    1    4    4    0    0  0.78239517767E+01  0.12477637435E+02  0.93699677479E+01  0.17455714056E+02  0.51100000000E-03 0.  1.
        -12    1    4    4    0    0 -0.54670694469E+01  0.75345130610E+01  0.20777237306E+02  0.22767330223E+02  0.00000000000E+00 0.  1.
</event>
<event>
 8    1  0.4042158E-011  0.9118800E+02  0.7816164E-02  0.1184000E+00
        -11   -1    0    0    0    0  0.00000000000E+00  0.00000000000E+00  0.45593999997E+02  0.45594000000E+02  0.51100000000E-03 0.  1.
         11   -1    0    0    0    0 -0.00000000000E+00 -0.00000000000E+00 -0.45593999997E+02  0.45594000000E+02  0.51100000000E-03 0. -1.
         23    2    1    2    0    0  0.00000000000E+00 -0.35527136788E-14  0.00000000000E+00  0.91188000000E+02  0.91188000000E+02 0.  0.
    9900012    2    3    3    0    0 -0.32505222696E+02  0.25577956228E+02 -0.13145418671E+02  0.47787269829E+02  0.19999994460E+02 0.  0.
         12    1    3    3    0    0  0.32505222696E+02 -0.25577956228E+02  0.13145418671E+02  0.43400730171E+02  0.00000000000E+00 0. -1.
         11    1    4    4    0    0 -0.30772246221E+01  0.27637884459E+01 -0.39906807729E+01  0.57474665063E+01  0.51100000000E-03 0. -1.
        -11    1    4    4    0    0 -0.12468809376E+02  0.18820880435E+02 -0.49142503150E+00  0.22581812293E+02  0.51100000000E-03 0.  1.
         12    1    4    4    0    0 -0.16959188698E+02  0.39932873474E+01 -0.86633128662E+01  0.19457991030E+02  0.00000000000E+00 0. -1.
</event>
<event>
 8    1  0.4042158E-011  0.9118800E+02  0.7816164E-02  0.1184000E+00
        -11   -1    0    0    0    0  0.00000000000E+00  0.00000000000E+00  0.45593999997E+02  0.45594000000E+02  0.51100000000E-03 0. -1.
         11   -1    0    0    0    0 -0.00000000000E+00 -0.00000000000E+00 -0.45593999997E+02  0.45594000000E+02  0.51100000000E-03 0.  1.
         23    2    1    2    0    0  0.00000000000E+00 -0.38857805862E-15  0.00000000000E+00  0.91188000000E+02  0.91188000000E+02 0.  0.
    9900012    2    3    3    0    0 -0.42501904273E+02  0.18092579157E+00 -0.87851093761E+01  0.47787277106E+02  0.20000027637E+02 0.  0.
         12    1    3    3    0    0  0.42501904273E+02 -0.18092579157E+00  0.87851093761E+01  0.43400722894E+02  0.00000000000E+00 0. -1.
         11    1    4    4    0    0 -0.58835689265E+01 -0.69401671235E+01 -0.55195912577E+00  0.91152049978E+01  0.51100000000E-03 0. -1.
        -11    1    4    4    0    0 -0.13037387102E+02  0.72044729234E-01 -0.44199838145E+01  0.13766441446E+02  0.51100000000E-03 0.  1.
        -12    1    4    4    0    0 -0.23580948244E+02  0.70490481858E+01 -0.38131664358E+01  0.24905630662E+02  0.00000000000E+00 0.  1.
</event>
<event>
 8    1  0.4042158E-011  0.9118800E+02  0.7816164E-02  0.1184000E+00
        -11   -1    0    0    0    0  0.00000000000E+00  0.00000000000E+00  0.45593999997E+02  0.45594000000E+02  0.51100000000E-03 0. -1.
         11   -1    0    0    0    0 -0.00000000000E+00 -0.00000000000E+00 -0.45593999997E+02  0.45594000000E+02  0.51100000000E-03 0.  1.
         23    2    1    2    0    0  0.00000000000E+00  0.00000000000E+00  0.17763568394E-14  0.91188000000E+02  0.91188000000E+02 0.  0.
    9900012    2    3    3    0    0 -0.41292796492E+01  0.40896718399E+02 -0.13929493846E+02  0.47787270455E+02  0.19999997312E+02 0.  0.
         12    1    3    3    0    0  0.41292796492E+01 -0.40896718399E+02  0.13929493846E+02  0.43400729545E+02  0.00000000000E+00 0. -1.
         11    1    4    4    0    0 -0.90408520299E+01  0.34766152551E+02 -0.12102707980E+02  0.37906436252E+02  0.51100000000E-03 0. -1.
        -11    1    4    4    0    0  0.11651134511E+01  0.50541943255E+01 -0.27561466513E+01  0.58735606117E+01  0.51100000000E-03 0.  1.
         12    1    4    4    0    0  0.37464589295E+01  0.10763715226E+01  0.92936078492E+00  0.40072735911E+01  0.00000000000E+00 0. -1.
</event>
<event>
 8    1  0.4042158E-011  0.9118800E+02  0.7816164E-02  0.1184000E+00
        -11   -1    0    0    0    0  0.00000000000E+00  0.00000000000E+00  0.45593999997E+02  0.45594000000E+02  0.51100000000E-03 0.  1.
         11   -1    0    0    0    0 -0.00000000000E+00 -0.00000000000E+00 -0.45593999997E+02  0.45594000000E+02  0.51100000000E-03 0. -1.
         23    2    1    2    0    0  0.00000000000E+00  0.00000000000E+00  0.44408920985E-15  0.91188000000E+02  0.91188000000E+02 0.  0.
    9900012    2    3    3    0    0 -0.43057070944E+02 -0.54132889037E+01 -0.64329550526E+00  0.47787206411E+02  0.19999705308E+02 0.  0.
         12    1    3    3    0    0  0.43057070944E+02  0.54132889037E+01  0.64329550526E+00  0.43400793589E+02  0.00000000000E+00 0. -1.
         11    1    4    4    0    0 -0.61418927029E+01 -0.16963356176E+01  0.56286949325E+01  0.85019178663E+01  0.51100000000E-03 0. -1.
        -11    1    4    4    0    0 -0.11353487724E+02  0.54330168527E+00  0.30109644350E+01  0.11758518925E+02  0.51100000000E-03 0.  1.
        -12    1    4    4    0    0 -0.25561690517E+02 -0.42602549714E+01 -0.92829548727E+01  0.27526769619E+02  0.00000000000E+00 0.  1.
</event>
<event>
 8    1  0.4042158E-011  0.9118800E+02  0.7816164E-02  0.1184000E+00
        -11   -1    0    0    0    0  0.00000000000E+00  0.00000000000E+00  0.45593999997E+02  0.45594000000E+02  0.51100000000E-03 0. -1.
         11   -1    0    0    0    0 -0.00000000000E+00 -0.00000000000E+00 -0.45593999997E+02  0.45594000000E+02  0.51100000000E-03 0.  1.
         23    2    1    2    0    0  0.00000000000E+00  0.00000000000E+00  0.00000000000E+00  0.91188000000E+02  0.91188000000E+02 0.  0.
    9900012    2    3    3    0    0 -0.85433578892E+01 -0.22586349317E+02 -0.36062321552E+02  0.47787272181E+02  0.20000005183E+02 0.  0.
         12    1    3    3    0    0  0.85433578892E+01  0.22586349317E+02  0.36062321552E+02  0.43400727819E+02  0.00000000000E+00 0. -1.
         11    1    4    4    0    0 -0.87033491906E+00  0.84081764480E+00 -0.15266818468E+01  0.19481311315E+01  0.51100000000E-03 0. -1.
        -11    1    4    4    0    0  0.44602370132E+01 -0.14217466083E+02 -0.17613907712E+02  0.23071189852E+02  0.51100000000E-03 0.  1.
         12    1    4    4    0    0 -0.12133259983E+02 -0.92097008787E+01 -0.16921731993E+02  0.22767951198E+02  0.00000000000E+00 0. -1.
</event>
<event>
 8    1  0.4042158E-011  0.9118800E+02  0.7816164E-02  0.1184000E+00
        -11   -1    0    0    0    0  0.00000000000E+00  0.00000000000E+00  0.45593999997E+02  0.45594000000E+02  0.51100000000E-03 0. -1.
         11   -1    0    0    0    0 -0.00000000000E+00 -0.00000000000E+00 -0.45593999997E+02  0.45594000000E+02  0.51100000000E-03 0.  1.
         23    2    1    2    0    0  0.35527136788E-14  0.88817841970E-15  0.00000000000E+00  0.91188000000E+02  0.91188000000E+02 0.  0.
    9900012    2    3    3    0    0  0.25781878654E+02  0.14771934637E+01 -0.34881742930E+02  0.47787270083E+02  0.19999995617E+02 0.  0.
         12    1    3    3    0    0 -0.25781878654E+02 -0.14771934637E+01  0.34881742930E+02  0.43400729917E+02  0.00000000000E+00 0. -1.
         11    1    4    4    0    0  0.54641542167E+01 -0.14679560701E+01 -0.12040261335E+02  0.13303374369E+02  0.51100000000E-03 0. -1.
        -11    1    4    4    0    0  0.71329206895E+01 -0.61976746875E+01 -0.11240159468E+02  0.14684376535E+02  0.51100000000E-03 0.  1.
         12    1    4    4    0    0  0.13184803748E+02  0.91428242213E+01 -0.11601322127E+02  0.19799519178E+02  0.00000000000E+00 0. -1.
</event>
<event>
 8    1  0.4042158E-011  0.9118800E+02  0.7816164E-02  0.1184000E+00
        -11   -1    0    0    0    0  0.00000000000E+00  0.00000000000E+00  0.45593999997E+02  0.45594000000E+02  0.51100000000E-03 0. -1.
         11   -1    0    0    0    0 -0.00000000000E+00 -0.00000000000E+00 -0.45593999997E+02  0.45594000000E+02  0.51100000000E-03 0.  1.
         23    2    1    2    0    0  0.00000000000E+00  0.00000000000E+00  0.17763568394E-14  0.91188000000E+02  0.91188000000E+02 0.  0.
    9900012    2    3    3    0    0 -0.38160956555E+02  0.17309168147E+02  0.11302984059E+02  0.47787270101E+02  0.19999995697E+02 0.  0.
        -12    1    3    3    0    0  0.38160956555E+02 -0.17309168147E+02 -0.11302984059E+02  0.43400729899E+02  0.00000000000E+00 0.  1.
         11    1    4    4    0    0 -0.14786113303E+02  0.85066782109E+01  0.47755114215E+00  0.17065191946E+02  0.51100000000E-03 0. -1.
        -11    1    4    4    0    0 -0.12826141102E+02  0.11891643313E+02  0.45814830732E+01  0.18080682057E+02  0.51100000000E-03 0.  1.
        -12    1    4    4    0    0 -0.10548702150E+02 -0.30891533770E+01  0.62439498440E+01  0.12641396097E+02  0.00000000000E+00 0.  1.
</event>
<event>
 8    1  0.4042158E-011  0.9118800E+02  0.7816164E-02  0.1184000E+00
        -11   -1    0    0    0    0  0.00000000000E+00  0.00000000000E+00  0.45593999997E+02  0.45594000000E+02  0.51100000000E-03 0.  1.
         11   -1    0    0    0    0 -0.00000000000E+00 -0.00000000000E+00 -0.45593999997E+02  0.45594000000E+02  0.51100000000E-03 0. -1.
         23    2    1    2    0    0  0.14210854715E-13  0.00000000000E+00 -0.17763568394E-14  0.91188000000E+02  0.91188000000E+02 0.  0.
    9900012    2    3    3    0    0 -0.40587759226E+02 -0.10093185937E+02  0.11592442851E+02  0.47787270368E+02  0.19999996914E+02 0.  0.
         12    1    3    3    0    0  0.40587759226E+02  0.10093185937E+02 -0.11592442851E+02  0.43400729632E+02  0.00000000000E+00 0. -1.
         11    1    4    4    0    0 -0.93739569693E+01 -0.98785843824E+00 -0.18308150838E+01  0.96020215418E+01  0.51100000000E-03 0. -1.
        -11    1    4    4    0    0 -0.30414675139E+02 -0.82376763181E+01  0.78297348937E+01  0.32468700678E+02  0.51100000000E-03 0.  1.
         12    1    4    4    0    0 -0.79912711826E+00 -0.86765118046E+00  0.55935230410E+01  0.57165481483E+01  0.00000000000E+00 0. -1.
</event>
<event>
 8    1  0.4042158E-011  0.9118800E+02  0.7816164E-02  0.1184000E+00
        -11   -1    0    0    0    0  0.00000000000E+00  0.00000000000E+00  0.45593999997E+02  0.45594000000E+02  0.51100000000E-03 0. -1.
         11   -1    0    0    0    0 -0.00000000000E+00 -0.00000000000E+00 -0.45593999997E+02  0.45594000000E+02  0.51100000000E-03 0.  1.
         23    2    1    2    0    0  0.00000000000E+00 -0.35527136788E-14  0.00000000000E+00  0.91188000000E+02  0.91188000000E+02 0.  0.
    9900012    2    3    3    0    0  0.15219338099E+02  0.25018621804E+02  0.32032227994E+02  0.47787270520E+02  0.19999997609E+02 0.  0.
        -12    1    3    3    0    0 -0.15219338099E+02 -0.25018621804E+02 -0.32032227994E+02  0.43400729480E+02  0.00000000000E+00 0.  1.
         11    1    4    4    0    0 -0.38861102709E+00  0.18976735315E+01 -0.13273864831E+01  0.23482202834E+01  0.51100000000E-03 0. -1.
        -11    1    4    4    0    0  0.67567086565E+01  0.86942879967E+01  0.43224608544E+01  0.11829092262E+02  0.51100000000E-03 0.  1.
         12    1    4    4    0    0  0.88512404695E+01  0.14426660276E+02  0.29037153623E+02  0.33609957975E+02  0.00000000000E+00 0. -1.
</event>
<event>
 8    1  0.4042158E-011  0.9118800E+02  0.7816164E-02  0.1184000E+00
        -11   -1    0    0    0    0  0.00000000000E+00  0.00000000000E+00  0.45593999997E+02  0.45594000000E+02  0.51100000000E-03 0. -1.
         11   -1    0    0    0    0 -0.00000000000E+00 -0.00000000000E+00 -0.45593999997E+02  0.45594000000E+02  0.51100000000E-03 0.  1.
         23    2    1    2    0    0 -0.44408920985E-15  0.00000000000E+00  0.00000000000E+00  0.91188000000E+02  0.91188000000E+02 0.  0.
    9900012    2    3    3    0    0 -0.12035416260E+01 -0.36342297796E+02 -0.23694127123E+02  0.47787276715E+02  0.20000025856E+02 0.  0.
         12    1    3    3    0    0  0.12035416260E+01  0.36342297796E+02  0.23694127123E+02  0.43400723285E+02  0.00000000000E+00 0. -1.
         11    1    4    4    0    0 -0.14123924691E+01 -0.16023037546E+01  0.77051463719E+00  0.22706657342E+01  0.51100000000E-03 0. -1.
        -11    1    4    4    0    0 -0.44593689617E+01 -0.16910049272E+01 -0.14894146399E+01  0.49963812336E+01  0.51100000000E-03 0.  1.
        -12    1    4    4    0    0  0.46682198049E+01 -0.33048989114E+02 -0.22975227120E+02  0.40520229748E+02  0.00000000000E+00 0.  1.
</event>
<event>
 8    1  0.4042158E-011  0.9118800E+02  0.7816164E-02  0.1184000E+00
        -11   -1    0    0    0    0  0.00000000000E+00  0.00000000000E+00  0.45593999997E+02  0.45594000000E+02  0.51100000000E-03 0. -1.
         11   -1    0    0    0    0 -0.00000000000E+00 -0.00000000000E+00 -0.45593999997E+02  0.45594000000E+02  0.51100000000E-03 0.  1.
         23    2    1    2    0    0  0.71054273576E-14  0.35527136788E-14 -0.17763568394E-14  0.91188000000E+02  0.91188000000E+02 0.  0.
    9900012    2    3    3    0    0 -0.30347742917E+02 -0.27765166269E+02  0.13846836182E+02  0.47787253113E+02  0.19999918244E+02 0.  0.
        -12    1    3    3    0    0  0.30347742917E+02  0.27765166269E+02 -0.13846836182E+02  0.43400746887E+02  0.00000000000E+00 0.  1.
         11    1    4    4    0    0 -0.12480880745E+02 -0.47959672255E+01  0.83927641299E+01  0.15786455454E+02  0.51100000000E-03 0. -1.
        -11    1    4    4    0    0 -0.12728225401E+02 -0.83834577211E+01 -0.93225546688E+00  0.15269550935E+02  0.51100000000E-03 0.  1.
        -12    1    4    4    0    0 -0.51386367703E+01 -0.14585741322E+02  0.63863275186E+01  0.16731246724E+02  0.00000000000E+00 0.  1.
</event>
<event>
 8    1  0.4042158E-011  0.9118800E+02  0.7816164E-02  0.1184000E+00
        -11   -1    0    0    0    0  0.00000000000E+00  0.00000000000E+00  0.45593999997E+02  0.45594000000E+02  0.51100000000E-03 0. -1.
         11   -1    0    0    0    0 -0.00000000000E+00 -0.00000000000E+00 -0.45593999997E+02  0.45594000000E+02  0.51100000000E-03 0.  1.
         23    2    1    2    0    0  0.00000000000E+00  0.00000000000E+00  0.71054273576E-14  0.91188000000E+02  0.91188000000E+02 0.  0.
    9900012    2    3    3    0    0  0.53489635664E+01 -0.93031499263E+01 -0.42053098240E+02  0.47787273262E+02  0.20000010111E+02 0.  0.
         12    1    3    3    0    0 -0.53489635664E+01  0.93031499263E+01  0.42053098240E+02  0.43400726738E+02  0.00000000000E+00 0. -1.
         11    1    4    4    0    0 -0.12239709970E+01 -0.26591502652E+01 -0.18982939557E+00  0.29334656288E+01  0.51100000000E-03 0. -1.
        -11    1    4    4    0    0 -0.82354032125E+00 -0.67258525672E+01 -0.95815561722E+01  0.11735481684E+02  0.51100000000E-03 0.  1.
        -12    1    4    4    0    0  0.73964748846E+01  0.81852906113E-01 -0.32281712672E+02  0.33118325949E+02  0.00000000000E+00 0.  1.
</event>
<event>
 8    1  0.4354022E-011  0.9118800E+02  0.7816164E-02  0.1184000E+00
        -11   -1    0    0    0    0  0.00000000000E+00  0.00000000000E+00  0.45593999997E+02  0.45594000000E+02  0.51100000000E-03 0. -1.
         11   -1    0    0    0    0 -0.00000000000E+00 -0.00000000000E+00 -0.45593999997E+02  0.45594000000E+02  0.51100000000E-03 0.  1.
         23    2    1    2    0    0  0.17763568394E-14  0.00000000000E+00 -0.71054273576E-14  0.91188000000E+02  0.91188000000E+02 0.  0.
    9900012    2    3    3    0    0  0.14396091465E+02 -0.65031309953E+01  0.40423820656E+02  0.47787269147E+02  0.19999991348E+02 0.  0.
        -12    1    3    3    0    0 -0.14396091465E+02  0.65031309953E+01 -0.40423820656E+02  0.43400730853E+02  0.00000000000E+00 0.  1.
         11    1    4    4    0    0  0.61505445323E+01 -0.18377679465E+01  0.84632776137E+01  0.10622318829E+02  0.51100000000E-03 0. -1.
        -11    1    4    4    0    0  0.12745930087E+01  0.32074249225E+01  0.23265797732E+02  0.23520406169E+02  0.51100000000E-03 0.  1.
        -12    1    4    4    0    0  0.69709539236E+01 -0.78727879713E+01  0.86947453100E+01  0.13644544150E+02  0.00000000000E+00 0.  1.
</event>
<event>
 8    1  0.4042158E-011  0.9118800E+02  0.7816164E-02  0.1184000E+00
        -11   -1    0    0    0    0  0.00000000000E+00  0.00000000000E+00  0.45593999997E+02  0.45594000000E+02  0.51100000000E-03 0. -1.
         11   -1    0    0    0    0 -0.00000000000E+00 -0.00000000000E+00 -0.45593999997E+02  0.45594000000E+02  0.51100000000E-03 0.  1.
         23    2    1    2    0    0  0.00000000000E+00  0.00000000000E+00  0.00000000000E+00  0.91188000000E+02  0.91188000000E+02 0.  0.
    9900012    2    3    3    0    0  0.11941471631E+02  0.19484240708E+02 -0.36897004324E+02  0.47787270642E+02  0.19999998166E+02 0.  0.
         12    1    3    3    0    0 -0.11941471631E+02 -0.19484240708E+02  0.36897004324E+02  0.43400729358E+02  0.00000000000E+00 0. -1.
         11    1    4    4    0    0  0.18213478973E+01  0.34642900142E+01 -0.41466239614E+01  0.57020263069E+01  0.51100000000E-03 0. -1.
        -11    1    4    4    0    0  0.15565262414E+02  0.12235528312E+02 -0.24377877355E+02  0.31404879424E+02  0.51100000000E-03 0.  1.
         12    1    4    4    0    0 -0.54451386802E+01  0.37844223821E+01 -0.83725030080E+01  0.10680364911E+02  0.00000000000E+00 0. -1.
</event>
<event>
 8    1  0.4042158E-011  0.9118800E+02  0.7816164E-02  0.1184000E+00
        -11   -1    0    0    0    0  0.00000000000E+00  0.00000000000E+00  0.45593999997E+02  0.45594000000E+02  0.51100000000E-03 0.  1.
         11   -1    0    0    0    0 -0.00000000000E+00 -0.00000000000E+00 -0.45593999997E+02  0.45594000000E+02  0.51100000000E-03 0. -1.
         23    2    1    2    0    0  0.00000000000E+00 -0.71054273576E-14  0.00000000000E+00  0.91188000000E+02  0.91188000000E+02 0.  0.
    9900012    2    3    3    0    0  0.19099826003E+02  0.31753859741E+02 -0.22594507643E+02  0.47787277224E+02  0.20000028177E+02 0.  0.
         12    1    3    3    0    0 -0.19099826003E+02 -0.31753859741E+02  0.22594507643E+02  0.43400722776E+02  0.00000000000E+00 0. -1.
         11    1    4    4    0    0  0.22564426453E+01  0.16622194219E+01  0.24265161503E+01  0.37070861478E+01  0.51100000000E-03 0. -1.
        -11    1    4    4    0    0  0.11052745949E+02  0.18890571431E+02 -0.89323381001E+01  0.23639025915E+02  0.51100000000E-03 0.  1.
         12    1    4    4    0    0  0.57906374089E+01  0.11201068888E+02 -0.16088685694E+02  0.20441165162E+02  0.00000000000E+00 0. -1.
</event>
<event>
 8    1  0.4042158E-011  0.9118800E+02  0.7816164E-02  0.1184000E+00
        -11   -1    0    0    0    0  0.00000000000E+00  0.00000000000E+00  0.45593999997E+02  0.45594000000E+02  0.51100000000E-03 0. -1.
         11   -1    0    0    0    0 -0.00000000000E+00 -0.00000000000E+00 -0.45593999997E+02  0.45594000000E+02  0.51100000000E-03 0.  1.
         23    2    1    2    0    0  0.00000000000E+00  0.00000000000E+00  0.00000000000E+00  0.91188000000E+02  0.91188000000E+02 0.  0.
    9900012    2    3    3    0    0  0.21765152143E+02 -0.23132265204E+02 -0.29577013948E+02  0.47787270797E+02  0.19999998870E+02 0.  0.
         12    1    3    3    0    0 -0.21765152143E+02  0.23132265204E+02  0.29577013948E+02  0.43400729203E+02  0.00000000000E+00 0. -1.
         11    1    4    4    0    0  0.11681734682E+00 -0.65123859894E+01 -0.74912888382E+01  0.99269444587E+01  0.51100000000E-03 0. -1.
        -11    1    4    4    0    0  0.14149693568E+01 -0.85760538571E+01 -0.40602580663E+01  0.95935673170E+01  0.51100000000E-03 0.  1.
        -12    1    4    4    0    0  0.20233365440E+02 -0.80438253572E+01 -0.18025467044E+02  0.28266759021E+02  0.00000000000E+00 0.  1.
</event>
<event>
 8    1  0.4042158E-011  0.9118800E+02  0.7816164E-02  0.1184000E+00
        -11   -1    0    0    0    0  0.00000000000E+00  0.00000000000E+00  0.45593999997E+02  0.45594000000E+02  0.51100000000E-03 0. -1.
         11   -1    0    0    0    0 -0.00000000000E+00 -0.00000000000E+00 -0.45593999997E+02  0.45594000000E+02  0.51100000000E-03 0.  1.
         23    2    1    2    0    0  0.00000000000E+00  0.88817841970E-15  0.00000000000E+00  0.91188000000E+02  0.91188000000E+02 0.  0.
    9900012    2    3    3    0    0 -0.19127922591E+02 -0.64139366840E+01 -0.38426651900E+02  0.47787267487E+02  0.19999983779E+02 0.  0.
         12    1    3    3    0    0  0.19127922591E+02  0.64139366840E+01  0.38426651900E+02  0.43400732513E+02  0.00000000000E+00 0. -1.
         11    1    4    4    0    0 -0.17907288780E+01  0.43466316907E+00 -0.14646384774E+02  0.14761850466E+02  0.51100000000E-03 0. -1.
        -11    1    4    4    0    0 -0.35530567725E+01 -0.83102460365E+01 -0.87607649851E+01  0.12587112655E+02  0.51100000000E-03 0.  1.
         12    1    4    4    0    0 -0.13784136940E+02  0.14616461834E+01 -0.15019502142E+02  0.20438304365E+02  0.00000000000E+00 0. -1.
</event>
<event>
 8    1  0.4042158E-011  0.9118800E+02  0.7816164E-02  0.1184000E+00
        -11   -1    0    0    0    0  0.00000000000E+00  0.00000000000E+00  0.45593999997E+02  0.45594000000E+02  0.51100000000E-03 0. -1.
         11   -1    0    0    0    0 -0.00000000000E+00 -0.00000000000E+00 -0.45593999997E+02  0.45594000000E+02  0.51100000000E-03 0.  1.
         23    2    1    2    0    0 -0.88817841970E-15 -0.71054273576E-14  0.00000000000E+00  0.91188000000E+02  0.91188000000E+02 0.  0.
    9900012    2    3    3    0    0  0.56352030828E+01  0.32329174014E+02  0.28402297977E+02  0.47787291059E+02  0.20000091256E+02 0.  0.
        -12    1    3    3    0    0 -0.56352030828E+01 -0.32329174014E+02 -0.28402297977E+02  0.43400708941E+02  0.00000000000E+00 0.  1.
         11    1    4    4    0    0 -0.33576186981E+01  0.65211700226E+01  0.72253965012E+01  0.10295902906E+02  0.51100000000E-03 0.  1.
        -11    1    4    4    0    0  0.25980256815E+01 -0.12633358607E+01  0.76265100926E+00  0.29878741208E+01  0.51100000000E-03 0. -1.
         12    1    4    4    0    0  0.63947960993E+01  0.27071339852E+02  0.20414250466E+02  0.34503514033E+02  0.00000000000E+00 0. -1.
</event>
<event>
 8    1  0.4042158E-011  0.9118800E+02  0.7816164E-02  0.1184000E+00
        -11   -1    0    0    0    0  0.00000000000E+00  0.00000000000E+00  0.45593999997E+02  0.45594000000E+02  0.51100000000E-03 0. -1.
         11   -1    0    0    0    0 -0.00000000000E+00 -0.00000000000E+00 -0.45593999997E+02  0.45594000000E+02  0.51100000000E-03 0.  1.
         23    2    1    2    0    0  0.00000000000E+00  0.35527136788E-14  0.00000000000E+00  0.91188000000E+02  0.91188000000E+02 0.  0.
    9900012    2    3    3    0    0 -0.67196130032E+01  0.26476998530E+02 -0.33725933485E+02  0.47787271441E+02  0.20000001806E+02 0.  0.
         12    1    3    3    0    0  0.67196130032E+01 -0.26476998530E+02  0.33725933485E+02  0.43400728559E+02  0.00000000000E+00 0. -1.
         11    1    4    4    0    0 -0.61920379877E+01  0.95891524376E+01 -0.66709900398E+01  0.13221016878E+02  0.51100000000E-03 0. -1.
        -11    1    4    4    0    0 -0.36310736726E+01  0.17749049718E+02 -0.24411473526E+02  0.30399564173E+02  0.51100000000E-03 0.  1.
         12    1    4    4    0    0  0.31034986570E+01 -0.86120362506E+00 -0.26434699184E+01  0.41666903902E+01  0.00000000000E+00 0. -1.
</event>
<event>
 8    1  0.4042158E-011  0.9118800E+02  0.7816164E-02  0.1184000E+00
        -11   -1    0    0    0    0  0.00000000000E+00  0.00000000000E+00  0.45593999997E+02  0.45594000000E+02  0.51100000000E-03 0. -1.
         11   -1    0    0    0    0 -0.00000000000E+00 -0.00000000000E+00 -0.45593999997E+02  0.45594000000E+02  0.51100000000E-03 0.  1.
         23    2    1    2    0    0  0.00000000000E+00 -0.88817841970E-15  0.00000000000E+00  0.91188000000E+02  0.91188000000E+02 0.  0.
    9900012    2    3    3    0    0  0.37039774453E+02 -0.64047242995E+01 -0.21694647338E+02  0.47787272955E+02  0.20000008713E+02 0.  0.
         12    1    3    3    0    0 -0.37039774453E+02  0.64047242995E+01  0.21694647338E+02  0.43400727045E+02  0.00000000000E+00 0. -1.
         11    1    4    4    0    0  0.11918022961E+01  0.42756843398E+01 -0.21782044866E+01  0.49443345693E+01  0.51100000000E-03 0.  1.
        -11    1    4    4    0    0  0.82845416652E+01 -0.11971960401E+01 -0.13030494306E+01  0.84714135208E+01  0.51100000000E-03 0. -1.
        -12    1    4    4    0    0  0.27563430491E+02 -0.94832125992E+01 -0.18213393421E+02  0.34371524865E+02  0.00000000000E+00 0.  1.
</event>
<event>
 8    1  0.4042158E-011  0.9118800E+02  0.7816164E-02  0.1184000E+00
        -11   -1    0    0    0    0  0.00000000000E+00  0.00000000000E+00  0.45593999997E+02  0.45594000000E+02  0.51100000000E-03 0. -1.
         11   -1    0    0    0    0 -0.00000000000E+00 -0.00000000000E+00 -0.45593999997E+02  0.45594000000E+02  0.51100000000E-03 0.  1.
         23    2    1    2    0    0  0.00000000000E+00  0.00000000000E+00  0.00000000000E+00  0.91188000000E+02  0.91188000000E+02 0.  0.
    9900012    2    3    3    0    0 -0.76999374323E+01  0.66421093470E+01  0.42192612508E+02  0.47787271857E+02  0.20000003706E+02 0.  0.
        -12    1    3    3    0    0  0.76999374323E+01 -0.66421093470E+01 -0.42192612508E+02  0.43400728143E+02  0.00000000000E+00 0.  1.
         11    1    4    4    0    0 -0.33662954903E+01 -0.24320683152E+01  0.99459576523E+01  0.10778171250E+02  0.51100000000E-03 0. -1.
        -11    1    4    4    0    0 -0.89399726894E+01  0.47148257249E+01  0.11478057779E+02  0.15293740678E+02  0.51100000000E-03 0.  1.
         12    1    4    4    0    0  0.46063307474E+01  0.43593519372E+01  0.20768597077E+02  0.21715359928E+02  0.00000000000E+00 0. -1.
</event>
<event>
 8    1  0.4042158E-011  0.9118800E+02  0.7816164E-02  0.1184000E+00
        -11   -1    0    0    0    0  0.00000000000E+00  0.00000000000E+00  0.45593999997E+02  0.45594000000E+02  0.51100000000E-03 0. -1.
         11   -1    0    0    0    0 -0.00000000000E+00 -0.00000000000E+00 -0.45593999997E+02  0.45594000000E+02  0.51100000000E-03 0.  1.
         23    2    1    2    0    0  0.35527136788E-14  0.35527136788E-14  0.00000000000E+00  0.91188000000E+02  0.91188000000E+02 0.  0.
    9900012    2    3    3    0    0 -0.27605838840E+02 -0.28081271090E+02  0.18247825223E+02  0.47787271326E+02  0.20000001285E+02 0.  0.
        -12    1    3    3    0    0  0.27605838840E+02  0.28081271090E+02 -0.18247825223E+02  0.43400728674E+02  0.00000000000E+00 0.  1.
         11    1    4    4    0    0 -0.15851703681E+02 -0.97460381479E+01  0.17148851697E+02  0.25305036731E+02  0.51100000000E-03 0.  1.
        -11    1    4    4    0    0 -0.34123590718E+01 -0.73946531860E+01  0.28169124928E+01  0.86174292239E+01  0.51100000000E-03 0. -1.
        -12    1    4    4    0    0 -0.83417760869E+01 -0.10940579756E+02 -0.17179389674E+01  0.13864805371E+02  0.00000000000E+00 0.  1.
</event>
<event>
 8    1  0.4042158E-011  0.9118800E+02  0.7816164E-02  0.1184000E+00
        -11   -1    0    0    0    0  0.00000000000E+00  0.00000000000E+00  0.45593999997E+02  0.45594000000E+02  0.51100000000E-03 0. -1.
         11   -1    0    0    0    0 -0.00000000000E+00 -0.00000000000E+00 -0.45593999997E+02  0.45594000000E+02  0.51100000000E-03 0.  1.
         23    2    1    2    0    0 -0.88817841970E-15  0.00000000000E+00  0.00000000000E+00  0.91188000000E+02  0.91188000000E+02 0.  0.
    9900012    2    3    3    0    0  0.58425348464E+01 -0.23664052553E+02  0.35909614345E+02  0.47787274210E+02  0.20000014434E+02 0.  0.
        -12    1    3    3    0    0 -0.58425348464E+01  0.23664052553E+02 -0.35909614345E+02  0.43400725790E+02  0.00000000000E+00 0.  1.
         11    1    4    4    0    0 -0.90647297894E+00 -0.18049591023E+02  0.23234036878E+02  0.29435181319E+02  0.51100000000E-03 0. -1.
        -11    1    4    4    0    0  0.16302445355E+01 -0.49848766718E+01  0.12068872183E+02  0.13159193315E+02  0.51100000000E-03 0.  1.
        -12    1    4    4    0    0  0.51187632898E+01 -0.62958485816E+00  0.60670528470E+00  0.51928995766E+01  0.00000000000E+00 0.  1.
</event>
<event>
 8    1  0.4042158E-011  0.9118800E+02  0.7816164E-02  0.1184000E+00
        -11   -1    0    0    0    0  0.00000000000E+00  0.00000000000E+00  0.45593999997E+02  0.45594000000E+02  0.51100000000E-03 0. -1.
         11   -1    0    0    0    0 -0.00000000000E+00 -0.00000000000E+00 -0.45593999997E+02  0.45594000000E+02  0.51100000000E-03 0.  1.
         23    2    1    2    0    0  0.14210854715E-13 -0.17763568394E-14  0.26645352591E-14  0.91188000000E+02  0.91188000000E+02 0.  0.
    9900012    2    3    3    0    0  0.40130513423E+02  0.14621114880E+02  0.77063674282E+01  0.47787271816E+02  0.20000003520E+02 0.  0.
        -12    1    3    3    0    0 -0.40130513423E+02 -0.14621114880E+02 -0.77063674282E+01  0.43400728184E+02  0.00000000000E+00 0.  1.
         11    1    4    4    0    0  0.37507041177E+00  0.10147424179E+01  0.16175404083E+01  0.19459746201E+01  0.51100000000E-03 0. -1.
        -11    1    4    4    0    0  0.39779836894E+02  0.14367121722E+02  0.86492653472E+01  0.43170121626E+02  0.51100000000E-03 0.  1.
        -12    1    4    4    0    0 -0.24393883002E-01 -0.76074926028E+00 -0.25604383273E+01  0.26711755701E+01  0.00000000000E+00 0.  1.
</event>
<event>
 8    1  0.4042158E-011  0.9118800E+02  0.7816164E-02  0.1184000E+00
        -11   -1    0    0    0    0  0.00000000000E+00  0.00000000000E+00  0.45593999997E+02  0.45594000000E+02  0.51100000000E-03 0. -1.
         11   -1    0    0    0    0 -0.00000000000E+00 -0.00000000000E+00 -0.45593999997E+02  0.45594000000E+02  0.51100000000E-03 0.  1.
         23    2    1    2    0    0  0.35527136788E-14  0.00000000000E+00  0.00000000000E+00  0.91188000000E+02  0.91188000000E+02 0.  0.
    9900012    2    3    3    0    0 -0.21561992277E+02 -0.20658568393E+02  0.31494875524E+02  0.47787272549E+02  0.20000006858E+02 0.  0.
        -12    1    3    3    0    0  0.21561992277E+02  0.20658568393E+02 -0.31494875524E+02  0.43400727451E+02  0.00000000000E+00 0.  1.
         11    1    4    4    0    0  0.15829819728E+01 -0.64541326533E+01  0.12378957454E+02  0.14049919863E+02  0.51100000000E-03 0. -1.
        -11    1    4    4    0    0 -0.32351245462E+01 -0.12047660254E+01  0.39624240825E+00  0.34748381707E+01  0.51100000000E-03 0.  1.
         12    1    4    4    0    0 -0.19909849703E+02 -0.12999669715E+02  0.18719675662E+02  0.30262514515E+02  0.00000000000E+00 0. -1.
</event>
<event>
 8    1  0.4042158E-011  0.9118800E+02  0.7816164E-02  0.1184000E+00
        -11   -1    0    0    0    0  0.00000000000E+00  0.00000000000E+00  0.45593999997E+02  0.45594000000E+02  0.51100000000E-03 0. -1.
         11   -1    0    0    0    0 -0.00000000000E+00 -0.00000000000E+00 -0.45593999997E+02  0.45594000000E+02  0.51100000000E-03 0.  1.
         23    2    1    2    0    0  0.17763568394E-14  0.00000000000E+00  0.00000000000E+00  0.91188000000E+02  0.91188000000E+02 0.  0.
    9900012    2    3    3    0    0  0.11745370819E+02  0.56536614599E+01 -0.41396928151E+02  0.47787270929E+02  0.19999999473E+02 0.  0.
         12    1    3    3    0    0 -0.11745370819E+02 -0.56536614599E+01  0.41396928151E+02  0.43400729071E+02  0.00000000000E+00 0. -1.
         11    1    4    4    0    0  0.59947889001E+01  0.54374490812E+01 -0.21663312361E+02  0.23125796185E+02  0.51100000000E-03 0. -1.
        -11    1    4    4    0    0 -0.32680932744E+01  0.38654913418E+01 -0.67942644389E+01  0.84725726017E+01  0.51100000000E-03 0.  1.
         12    1    4    4    0    0  0.90186751938E+01 -0.36492789631E+01 -0.12939351351E+02  0.16188902142E+02  0.00000000000E+00 0. -1.
</event>
<event>
 8    1  0.4042158E-011  0.9118800E+02  0.7816164E-02  0.1184000E+00
        -11   -1    0    0    0    0  0.00000000000E+00  0.00000000000E+00  0.45593999997E+02  0.45594000000E+02  0.51100000000E-03 0. -1.
         11   -1    0    0    0    0 -0.00000000000E+00 -0.00000000000E+00 -0.45593999997E+02  0.45594000000E+02  0.51100000000E-03 0.  1.
         23    2    1    2    0    0 -0.71054273576E-14  0.00000000000E+00  0.00000000000E+00  0.91188000000E+02  0.91188000000E+02 0.  0.
    9900012    2    3    3    0    0 -0.40297862233E+02  0.96388022400E+01 -0.12915063126E+02  0.47787273454E+02  0.20000010987E+02 0.  0.
         12    1    3    3    0    0  0.40297862233E+02 -0.96388022400E+01  0.12915063126E+02  0.43400726546E+02  0.00000000000E+00 0. -1.
         11    1    4    4    0    0 -0.19730604709E+02 -0.16228861234E+01 -0.71398018134E+01  0.21045362713E+02  0.51100000000E-03 0. -1.
        -11    1    4    4    0    0 -0.18872277477E+02  0.63414765087E+01 -0.14268126148E+01  0.19960284967E+02  0.51100000000E-03 0.  1.
         12    1    4    4    0    0 -0.16949800468E+01  0.49202118547E+01 -0.43484486975E+01  0.67816257733E+01  0.00000000000E+00 0. -1.
</event>
<event>
 8    1  0.4042158E-011  0.9118800E+02  0.7816164E-02  0.1184000E+00
        -11   -1    0    0    0    0  0.00000000000E+00  0.00000000000E+00  0.45593999997E+02  0.45594000000E+02  0.51100000000E-03 0. -1.
         11   -1    0    0    0    0 -0.00000000000E+00 -0.00000000000E+00 -0.45593999997E+02  0.45594000000E+02  0.51100000000E-03 0.  1.
         23    2    1    2    0    0  0.88817841970E-15  0.17763568394E-14 -0.71054273576E-14  0.91188000000E+02  0.91188000000E+02 0.  0.
    9900012    2    3    3    0    0 -0.42663541904E+01 -0.13088703633E+02  0.41159535718E+02  0.47787270498E+02  0.19999997506E+02 0.  0.
        -12    1    3    3    0    0  0.42663541904E+01  0.13088703633E+02 -0.41159535718E+02  0.43400729502E+02  0.00000000000E+00 0.  1.
         11    1    4    4    0    0  0.48923266529E+01 -0.43379246274E+01  0.13558660451E+02  0.15052897516E+02  0.51100000000E-03 0. -1.
        -11    1    4    4    0    0 -0.34750976708E+01  0.20012708228E+00  0.18306433160E+02  0.18634426473E+02  0.51100000000E-03 0.  1.
         12    1    4    4    0    0 -0.56835831725E+01 -0.89509060876E+01  0.92944421069E+01  0.14099946509E+02  0.00000000000E+00 0. -1.
</event>
<event>
 8    1  0.4042158E-011  0.9118800E+02  0.7816164E-02  0.1184000E+00
        -11   -1    0    0    0    0  0.00000000000E+00  0.00000000000E+00  0.45593999997E+02  0.45594000000E+02  0.51100000000E-03 0. -1.
         11   -1    0    0    0    0 -0.00000000000E+00 -0.00000000000E+00 -0.45593999997E+02  0.45594000000E+02  0.51100000000E-03 0.  1.
         23    2    1    2    0    0 -0.17763568394E-14  0.00000000000E+00  0.00000000000E+00  0.91188000000E+02  0.91188000000E+02 0.  0.
    9900012    2    3    3    0    0  0.12149581094E+02 -0.28435580106E+02  0.30453672857E+02  0.47787300383E+02  0.20000133766E+02 0.  0.
        -12    1    3    3    0    0 -0.12149581094E+02  0.28435580106E+02 -0.30453672857E+02  0.43400699617E+02  0.00000000000E+00 0.  1.
         11    1    4    4    0    0  0.58687808955E+01 -0.15826806412E+02  0.95809388982E+01  0.19409399291E+02  0.51100000000E-03 0. -1.
        -11    1    4    4    0    0 -0.35921518445E+01 -0.31648598809E+01  0.22734422210E+01  0.52998521425E+01  0.51100000000E-03 0.  1.
         12    1    4    4    0    0  0.98729520434E+01 -0.94439138128E+01  0.18599291738E+02  0.23078048949E+02  0.00000000000E+00 0. -1.
</event>
<event>
 8    1  0.4042158E-011  0.9118800E+02  0.7816164E-02  0.1184000E+00
        -11   -1    0    0    0    0  0.00000000000E+00  0.00000000000E+00  0.45593999997E+02  0.45594000000E+02  0.51100000000E-03 0. -1.
         11   -1    0    0    0    0 -0.00000000000E+00 -0.00000000000E+00 -0.45593999997E+02  0.45594000000E+02  0.51100000000E-03 0.  1.
         23    2    1    2    0    0 -0.35527136788E-14  0.00000000000E+00 -0.35527136788E-14  0.91188000000E+02  0.91188000000E+02 0.  0.
    9900012    2    3    3    0    0  0.26614242275E+02  0.13207722665E+02 -0.31636400806E+02  0.47787266298E+02  0.19999978361E+02 0.  0.
         12    1    3    3    0    0 -0.26614242275E+02 -0.13207722665E+02  0.31636400806E+02  0.43400733702E+02  0.00000000000E+00 0. -1.
         11    1    4    4    0    0  0.30001012745E+01 -0.30813572853E+01 -0.33073237969E+00  0.43133229122E+01  0.51100000000E-03 0. -1.
        -11    1    4    4    0    0  0.17904406318E+02  0.93111541271E+01 -0.16185354946E+02  0.25869500802E+02  0.51100000000E-03 0.  1.
        -12    1    4    4    0    0  0.57097346824E+01  0.69779258230E+01 -0.15120313481E+02  0.17604442584E+02  0.00000000000E+00 0.  1.
</event>
<event>
 8    1  0.4042158E-011  0.9118800E+02  0.7816164E-02  0.1184000E+00
        -11   -1    0    0    0    0  0.00000000000E+00  0.00000000000E+00  0.45593999997E+02  0.45594000000E+02  0.51100000000E-03 0.  1.
         11   -1    0    0    0    0 -0.00000000000E+00 -0.00000000000E+00 -0.45593999997E+02  0.45594000000E+02  0.51100000000E-03 0. -1.
         23    2    1    2    0    0  0.00000000000E+00  0.00000000000E+00  0.00000000000E+00  0.91188000000E+02  0.91188000000E+02 0.  0.
    9900012    2    3    3    0    0  0.35328714594E+02  0.17970149290E+02  0.17679932783E+02  0.47787258490E+02  0.19999942758E+02 0.  0.
        -12    1    3    3    0    0 -0.35328714594E+02 -0.17970149290E+02 -0.17679932783E+02  0.43400741510E+02  0.00000000000E+00 0.  1.
         11    1    4    4    0    0  0.69005622280E+01  0.18011907722E+01 -0.20987642198E+00  0.71348507787E+01  0.51100000000E-03 0. -1.
        -11    1    4    4    0    0  0.45006312409E+01  0.39066999300E+01 -0.29358889303E+01  0.66436006790E+01  0.51100000000E-03 0.  1.
         12    1    4    4    0    0  0.23927521125E+02  0.12262258588E+02  0.20825698136E+02  0.34008807032E+02  0.00000000000E+00 0. -1.
</event>
<event>
 8    1  0.4042158E-011  0.9118800E+02  0.7816164E-02  0.1184000E+00
        -11   -1    0    0    0    0  0.00000000000E+00  0.00000000000E+00  0.45593999997E+02  0.45594000000E+02  0.51100000000E-03 0. -1.
         11   -1    0    0    0    0 -0.00000000000E+00 -0.00000000000E+00 -0.45593999997E+02  0.45594000000E+02  0.51100000000E-03 0.  1.
         23    2    1    2    0    0  0.44408920985E-15  0.35527136788E-14  0.71054273576E-14  0.91188000000E+02  0.91188000000E+02 0.  0.
    9900012    2    3    3    0    0  0.35088907841E+01  0.20143481563E+02  0.38282529358E+02  0.47787260167E+02  0.19999950407E+02 0.  0.
        -12    1    3    3    0    0 -0.35088907841E+01 -0.20143481563E+02 -0.38282529358E+02  0.43400739833E+02  0.00000000000E+00 0.  1.
         11    1    4    4    0    0  0.16665078114E+01  0.15834335619E+02  0.20711322996E+02  0.26123980043E+02  0.51100000000E-03 0. -1.
        -11    1    4    4    0    0  0.64410080624E+01  0.37526730724E+01  0.74828932670E+01  0.10562330801E+02  0.51100000000E-03 0.  1.
        -12    1    4    4    0    0 -0.45986250897E+01  0.55647287095E+00  0.10088313095E+02  0.11100949323E+02  0.00000000000E+00 0.  1.
</event>
<event>
 8    1  0.4042158E-011  0.9118800E+02  0.7816164E-02  0.1184000E+00
        -11   -1    0    0    0    0  0.00000000000E+00  0.00000000000E+00  0.45593999997E+02  0.45594000000E+02  0.51100000000E-03 0.  1.
         11   -1    0    0    0    0 -0.00000000000E+00 -0.00000000000E+00 -0.45593999997E+02  0.45594000000E+02  0.51100000000E-03 0. -1.
         23    2    1    2    0    0  0.00000000000E+00 -0.88817841970E-15 -0.17763568394E-14  0.91188000000E+02  0.91188000000E+02 0.  0.
    9900012    2    3    3    0    0 -0.40346904184E+02 -0.73612203506E+01 -0.14197295854E+02  0.47787268994E+02  0.19999990651E+02 0.  0.
         12    1    3    3    0    0  0.40346904184E+02  0.73612203506E+01  0.14197295854E+02  0.43400731006E+02  0.00000000000E+00 0. -1.
         11    1    4    4    0    0 -0.10769840778E+01  0.91067986163E+00 -0.13604057492E+01  0.19595756117E+01  0.51100000000E-03 0. -1.
        -11    1    4    4    0    0 -0.47074426385E+01  0.10920536623E+01  0.39860971150E+01  0.62643090495E+01  0.51100000000E-03 0.  1.
         12    1    4    4    0    0 -0.34562477468E+02 -0.93639538745E+01 -0.16822987220E+02  0.39563384333E+02  0.00000000000E+00 0. -1.
</event>
<event>
 8    1  0.4042158E-011  0.9118800E+02  0.7816164E-02  0.1184000E+00
        -11   -1    0    0    0    0  0.00000000000E+00  0.00000000000E+00  0.45593999997E+02  0.45594000000E+02  0.51100000000E-03 0. -1.
         11   -1    0    0    0    0 -0.00000000000E+00 -0.00000000000E+00 -0.45593999997E+02  0.45594000000E+02  0.51100000000E-03 0.  1.
         23    2    1    2    0    0  0.35527136788E-14  0.00000000000E+00  0.00000000000E+00  0.91188000000E+02  0.91188000000E+02 0.  0.
    9900012    2    3    3    0    0 -0.22288118030E+02 -0.11713372848E+02  0.35350529950E+02  0.47787271014E+02  0.19999999860E+02 0.  0.
        -12    1    3    3    0    0  0.22288118030E+02  0.11713372848E+02 -0.35350529950E+02  0.43400728986E+02  0.00000000000E+00 0.  1.
         11    1    4    4    0    0  0.45237465033E+00 -0.42777772767E+00  0.17228369948E+01  0.18318854168E+01  0.51100000000E-03 0. -1.
        -11    1    4    4    0    0 -0.18825142448E+02  0.24123631093E+00  0.23558773588E+02  0.30157254457E+02  0.51100000000E-03 0.  1.
        -12    1    4    4    0    0 -0.39153502318E+01 -0.11526831431E+02  0.10068919368E+02  0.15798131140E+02  0.00000000000E+00 0.  1.
</event>
<event>
 8    1  0.4042158E-011  0.9118800E+02  0.7816164E-02  0.1184000E+00
        -11   -1    0    0    0    0  0.00000000000E+00  0.00000000000E+00  0.45593999997E+02  0.45594000000E+02  0.51100000000E-03 0. -1.
         11   -1    0    0    0    0 -0.00000000000E+00 -0.00000000000E+00 -0.45593999997E+02  0.45594000000E+02  0.51100000000E-03 0.  1.
         23    2    1    2    0    0  0.00000000000E+00  0.17763568394E-14  0.35527136788E-14  0.91188000000E+02  0.91188000000E+02 0.  0.
    9900012    2    3    3    0    0  0.35230533183E+02 -0.14915292897E+02 -0.20493090556E+02  0.47787271998E+02  0.20000004348E+02 0.  0.
         12    1    3    3    0    0 -0.35230533183E+02  0.14915292897E+02  0.20493090556E+02  0.43400728002E+02  0.00000000000E+00 0. -1.
         11    1    4    4    0    0  0.83131838326E+00  0.24882118114E+01 -0.22451587288E+01  0.34529735376E+01  0.51100000000E-03 0. -1.
        -11    1    4    4    0    0  0.14561740792E+02 -0.46117819599E+01 -0.14090270490E+01  0.15339432363E+02  0.51100000000E-03 0.  1.
         12    1    4    4    0    0  0.19837474008E+02 -0.12791722749E+02 -0.16838904778E+02  0.28994866098E+02  0.00000000000E+00 0. -1.
</event>
<event>
 8    1  0.4042158E-011  0.9118800E+02  0.7816164E-02  0.1184000E+00
        -11   -1    0    0    0    0  0.00000000000E+00  0.00000000000E+00  0.45593999997E+02  0.45594000000E+02  0.51100000000E-03 0.  1.
         11   -1    0    0    0    0 -0.00000000000E+00 -0.00000000000E+00 -0.45593999997E+02  0.45594000000E+02  0.51100000000E-03 0. -1.
         23    2    1    2    0    0 -0.22204460493E-15 -0.71054273576E-14  0.00000000000E+00  0.91188000000E+02  0.91188000000E+02 0.  0.
    9900012    2    3    3    0    0 -0.11783419373E+01  0.43306742155E+02 -0.25999121867E+01  0.47787286306E+02  0.20000069582E+02 0.  0.
         12    1    3    3    0    0  0.11783419373E+01 -0.43306742155E+02  0.25999121867E+01  0.43400713694E+02  0.00000000000E+00 0. -1.
         11    1    4    4    0    0 -0.21876525911E+01  0.10719175169E+02 -0.53213433594E+01  0.12165658041E+02  0.51100000000E-03 0. -1.
        -11    1    4    4    0    0  0.35380884062E+01  0.23937561784E+02 -0.38044659994E+01  0.24494874883E+02  0.51100000000E-03 0.  1.
         12    1    4    4    0    0 -0.25287777525E+01  0.86500052016E+01  0.65258971721E+01  0.11126753381E+02  0.00000000000E+00 0. -1.
</event>
<event>
 8    1  0.4042158E-011  0.9118800E+02  0.7816164E-02  0.1184000E+00
        -11   -1    0    0    0    0  0.00000000000E+00  0.00000000000E+00  0.45593999997E+02  0.45594000000E+02  0.51100000000E-03 0. -1.
         11   -1    0    0    0    0 -0.00000000000E+00 -0.00000000000E+00 -0.45593999997E+02  0.45594000000E+02  0.51100000000E-03 0.  1.
         23    2    1    2    0    0  0.00000000000E+00 -0.88817841970E-15  0.00000000000E+00  0.91188000000E+02  0.91188000000E+02 0.  0.
    9900012    2    3    3    0    0  0.35235601896E+02 -0.72941269238E+01 -0.24266670665E+02  0.47787271507E+02  0.20000002110E+02 0.  0.
         12    1    3    3    0    0 -0.35235601896E+02  0.72941269238E+01  0.24266670665E+02  0.43400728493E+02  0.00000000000E+00 0. -1.
         11    1    4    4    0    0  0.21640514623E+02 -0.28557822816E+01 -0.18759447632E+02  0.28781665020E+02  0.51100000000E-03 0.  1.
        -11    1    4    4    0    0  0.41315584183E+01  0.24997233702E+01 -0.54359460218E+01  0.72710316534E+01  0.51100000000E-03 0. -1.
        -12    1    4    4    0    0  0.94635288545E+01 -0.69380680123E+01 -0.71277010953E-01  0.11734574834E+02  0.00000000000E+00 0.  1.
</event>
<event>
 8    1  0.4042158E-011  0.9118800E+02  0.7816164E-02  0.1184000E+00
        -11   -1    0    0    0    0  0.00000000000E+00  0.00000000000E+00  0.45593999997E+02  0.45594000000E+02  0.51100000000E-03 0. -1.
         11   -1    0    0    0    0 -0.00000000000E+00 -0.00000000000E+00 -0.45593999997E+02  0.45594000000E+02  0.51100000000E-03 0.  1.
         23    2    1    2    0    0 -0.88817841970E-15  0.00000000000E+00 -0.71054273576E-14  0.91188000000E+02  0.91188000000E+02 0.  0.
    9900012    2    3    3    0    0  0.71727010001E+01  0.81350262796E+01 -0.42023773577E+02  0.47787264547E+02  0.19999970378E+02 0.  0.
         12    1    3    3    0    0 -0.71727010001E+01 -0.81350262796E+01  0.42023773577E+02  0.43400735453E+02  0.00000000000E+00 0. -1.
         11    1    4    4    0    0 -0.36820939349E+01  0.63292762947E+01 -0.15607102514E+02  0.17239466444E+02  0.51100000000E-03 0. -1.
        -11    1    4    4    0    0  0.55979137395E+01  0.52747210956E+01 -0.20542991240E+02  0.21935674373E+02  0.51100000000E-03 0.  1.
         12    1    4    4    0    0  0.52568811955E+01 -0.34689711106E+01 -0.58736798230E+01  0.86121237296E+01  0.00000000000E+00 0. -1.
</event>
<event>
 8    1  0.4042158E-011  0.9118800E+02  0.7816164E-02  0.1184000E+00
        -11   -1    0    0    0    0  0.00000000000E+00  0.00000000000E+00  0.45593999997E+02  0.45594000000E+02  0.51100000000E-03 0. -1.
         11   -1    0    0    0    0 -0.00000000000E+00 -0.00000000000E+00 -0.45593999997E+02  0.45594000000E+02  0.51100000000E-03 0.  1.
         23    2    1    2    0    0  0.17763568394E-14  0.00000000000E+00  0.00000000000E+00  0.91188000000E+02  0.91188000000E+02 0.  0.
    9900012    2    3    3    0    0  0.14813603555E+02 -0.17106611538E+02  0.37034363817E+02  0.47787272910E+02  0.20000008508E+02 0.  0.
        -12    1    3    3    0    0 -0.14813603555E+02  0.17106611538E+02 -0.37034363817E+02  0.43400727090E+02  0.00000000000E+00 0.  1.
         11    1    4    4    0    0  0.87806307132E+01 -0.27785308066E+01  0.19897631157E+02  0.21925679809E+02  0.51100000000E-03 0. -1.
        -11    1    4    4    0    0  0.59548323174E+01 -0.13002892245E+02  0.18870706864E+02  0.23677812663E+02  0.51100000000E-03 0.  1.
         12    1    4    4    0    0  0.78140524351E-01 -0.13251884857E+01 -0.17339742042E+01  0.21837804388E+01  0.00000000000E+00 0. -1.
</event>
<event>
 8    1  0.4042158E-011  0.9118800E+02  0.7816164E-02  0.1184000E+00
        -11   -1    0    0    0    0  0.00000000000E+00  0.00000000000E+00  0.45593999997E+02  0.45594000000E+02  0.51100000000E-03 0. -1.
         11   -1    0    0    0    0 -0.00000000000E+00 -0.00000000000E+00 -0.45593999997E+02  0.45594000000E+02  0.51100000000E-03 0.  1.
         23    2    1    2    0    0  0.00000000000E+00  0.35527136788E-14  0.00000000000E+00  0.91188000000E+02  0.91188000000E+02 0.  0.
    9900012    2    3    3    0    0  0.20732643066E+02 -0.16740394930E+02  0.34256971283E+02  0.47787269679E+02  0.19999993775E+02 0.  0.
        -12    1    3    3    0    0 -0.20732643066E+02  0.16740394930E+02 -0.34256971283E+02  0.43400730321E+02  0.00000000000E+00 0.  1.
         11    1    4    4    0    0  0.14219899550E+02 -0.12549751829E+02  0.21319691261E+02  0.28534734096E+02  0.51100000000E-03 0. -1.
        -11    1    4    4    0    0  0.31949074063E+01 -0.35240189662E+01 -0.10419818764E+01  0.48694834943E+01  0.51100000000E-03 0.  1.
         12    1    4    4    0    0  0.33178361099E+01 -0.66662413448E+00  0.13979261898E+02  0.14383052089E+02  0.00000000000E+00 0. -1.
</event>
<event>
 8    1  0.4042158E-011  0.9118800E+02  0.7816164E-02  0.1184000E+00
        -11   -1    0    0    0    0  0.00000000000E+00  0.00000000000E+00  0.45593999997E+02  0.45594000000E+02  0.51100000000E-03 0. -1.
         11   -1    0    0    0    0 -0.00000000000E+00 -0.00000000000E+00 -0.45593999997E+02  0.45594000000E+02  0.51100000000E-03 0.  1.
         23    2    1    2    0    0  0.00000000000E+00 -0.35527136788E-14  0.71054273576E-14  0.91188000000E+02  0.91188000000E+02 0.  0.
    9900012    2    3    3    0    0 -0.11376221611E+02  0.23955330017E+02 -0.34356178250E+02  0.47787271454E+02  0.20000001868E+02 0.  0.
         12    1    3    3    0    0  0.11376221611E+02 -0.23955330017E+02  0.34356178250E+02  0.43400728546E+02  0.00000000000E+00 0. -1.
         11    1    4    4    0    0 -0.12010389459E+02  0.24817026816E+02 -0.30653896566E+02  0.41228578073E+02  0.51100000000E-03 0.  1.
        -11    1    4    4    0    0 -0.15906363564E+01 -0.37780795065E+00 -0.39436636531E+01  0.42691153810E+01  0.51100000000E-03 0. -1.
        -12    1    4    4    0    0  0.22248042044E+01 -0.48388884786E+00  0.24138196972E+00  0.22895780005E+01  0.00000000000E+00 0.  1.
</event>
<event>
 8    1  0.4042158E-011  0.9118800E+02  0.7816164E-02  0.1184000E+00
        -11   -1    0    0    0    0  0.00000000000E+00  0.00000000000E+00  0.45593999997E+02  0.45594000000E+02  0.51100000000E-03 0. -1.
         11   -1    0    0    0    0 -0.00000000000E+00 -0.00000000000E+00 -0.45593999997E+02  0.45594000000E+02  0.51100000000E-03 0.  1.
         23    2    1    2    0    0  0.00000000000E+00  0.00000000000E+00  0.00000000000E+00  0.91188000000E+02  0.91188000000E+02 0.  0.
    9900012    2    3    3    0    0  0.34779400309E+02 -0.57132361610E+01 -0.25325392583E+02  0.47787271173E+02  0.20000000584E+02 0.  0.
         12    1    3    3    0    0 -0.34779400309E+02  0.57132361610E+01  0.25325392583E+02  0.43400728827E+02  0.00000000000E+00 0. -1.
         11    1    4    4    0    0 -0.23778786440E+01 -0.44143032266E+00 -0.11793986071E+01  0.26907524804E+01  0.51100000000E-03 0. -1.
        -11    1    4    4    0    0  0.71254493552E+01 -0.36581988407E+01 -0.53031387667E+01  0.96061297259E+01  0.51100000000E-03 0.  1.
        -12    1    4    4    0    0  0.30031829598E+02 -0.16136069976E+01 -0.18842855209E+02  0.35490388966E+02  0.00000000000E+00 0.  1.
</event>
<event>
 8    1  0.4042158E-011  0.9118800E+02  0.7816164E-02  0.1184000E+00
        -11   -1    0    0    0    0  0.00000000000E+00  0.00000000000E+00  0.45593999997E+02  0.45594000000E+02  0.51100000000E-03 0. -1.
         11   -1    0    0    0    0 -0.00000000000E+00 -0.00000000000E+00 -0.45593999997E+02  0.45594000000E+02  0.51100000000E-03 0.  1.
         23    2    1    2    0    0  0.00000000000E+00  0.00000000000E+00  0.00000000000E+00  0.91188000000E+02  0.91188000000E+02 0.  0.
    9900012    2    3    3    0    0 -0.12768125027E+02 -0.34470623852E+02  0.23073240858E+02  0.47787269947E+02  0.19999994998E+02 0.  0.
        -12    1    3    3    0    0  0.12768125027E+02  0.34470623852E+02 -0.23073240858E+02  0.43400730053E+02  0.00000000000E+00 0.  1.
         11    1    4    4    0    0 -0.42636639075E+01 -0.16120023999E+01  0.31833792719E+01  0.55597918579E+01  0.51100000000E-03 0. -1.
        -11    1    4    4    0    0  0.31465319586E+01 -0.12011383754E+02  0.11472678917E+02  0.16905512854E+02  0.51100000000E-03 0.  1.
         12    1    4    4    0    0 -0.11650993078E+02 -0.20847237697E+02  0.84171826689E+01  0.25321965235E+02  0.00000000000E+00 0. -1.
</event>
<event>
 8    1  0.4042158E-011  0.9118800E+02  0.7816164E-02  0.1184000E+00
        -11   -1    0    0    0    0  0.00000000000E+00  0.00000000000E+00  0.45593999997E+02  0.45594000000E+02  0.51100000000E-03 0. -1.
         11   -1    0    0    0    0 -0.00000000000E+00 -0.00000000000E+00 -0.45593999997E+02  0.45594000000E+02  0.51100000000E-03 0.  1.
         23    2    1    2    0    0 -0.88817841970E-15  0.00000000000E+00  0.00000000000E+00  0.91188000000E+02  0.91188000000E+02 0.  0.
    9900012    2    3    3    0    0  0.17837334166E+01 -0.13453225266E+02 -0.41224409161E+02  0.47787275517E+02  0.20000020391E+02 0.  0.
         12    1    3    3    0    0 -0.17837334166E+01  0.13453225266E+02  0.41224409161E+02  0.43400724483E+02  0.00000000000E+00 0. -1.
         11    1    4    4    0    0  0.78700222656E+00 -0.19275452079E+01 -0.85337837152E+01  0.87840917454E+01  0.51100000000E-03 0. -1.
        -11    1    4    4    0    0  0.80024485398E+01 -0.71093247421E+00 -0.16129899868E+02  0.18019941110E+02  0.51100000000E-03 0.  1.
         12    1    4    4    0    0 -0.70057173498E+01 -0.10814747584E+02 -0.16560725579E+02  0.20983242661E+02  0.00000000000E+00 0. -1.
</event>
<event>
 8    1  0.4042158E-011  0.9118800E+02  0.7816164E-02  0.1184000E+00
        -11   -1    0    0    0    0  0.00000000000E+00  0.00000000000E+00  0.45593999997E+02  0.45594000000E+02  0.51100000000E-03 0. -1.
         11   -1    0    0    0    0 -0.00000000000E+00 -0.00000000000E+00 -0.45593999997E+02  0.45594000000E+02  0.51100000000E-03 0.  1.
         23    2    1    2    0    0  0.00000000000E+00  0.88817841970E-15  0.00000000000E+00  0.91188000000E+02  0.91188000000E+02 0.  0.
    9900012    2    3    3    0    0 -0.56194319606E+00 -0.77691924903E+01  0.42695984112E+02  0.47787271994E+02  0.20000004330E+02 0.  0.
        -12    1    3    3    0    0  0.56194319606E+00  0.77691924903E+01 -0.42695984112E+02  0.43400728006E+02  0.00000000000E+00 0.  1.
         11    1    4    4    0    0 -0.10607712911E+01 -0.42067406330E+01  0.29545633317E+01  0.52489377237E+01  0.51100000000E-03 0. -1.
        -11    1    4    4    0    0  0.21229193364E+01 -0.45758954240E+01  0.32586332081E+01  0.60053556169E+01  0.51100000000E-03 0.  1.
        -12    1    4    4    0    0 -0.16240912413E+01  0.10134435667E+01  0.36482787573E+02  0.36532978654E+02  0.00000000000E+00 0.  1.
</event>
<event>
 8    1  0.4042158E-011  0.9118800E+02  0.7816164E-02  0.1184000E+00
        -11   -1    0    0    0    0  0.00000000000E+00  0.00000000000E+00  0.45593999997E+02  0.45594000000E+02  0.51100000000E-03 0. -1.
         11   -1    0    0    0    0 -0.00000000000E+00 -0.00000000000E+00 -0.45593999997E+02  0.45594000000E+02  0.51100000000E-03 0.  1.
         23    2    1    2    0    0  0.00000000000E+00  0.00000000000E+00 -0.71054273576E-14  0.91188000000E+02  0.91188000000E+02 0.  0.
    9900012    2    3    3    0    0 -0.91600431975E+01 -0.13934805890E+02 -0.40069162968E+02  0.47787273882E+02  0.20000012939E+02 0.  0.
         12    1    3    3    0    0  0.91600431975E+01  0.13934805890E+02  0.40069162968E+02  0.43400726118E+02  0.00000000000E+00 0. -1.
         11    1    4    4    0    0 -0.66142971569E+01 -0.40064267036E+01 -0.15113913323E+02  0.16977360160E+02  0.51100000000E-03 0. -1.
        -11    1    4    4    0    0 -0.87244845595E+01 -0.58200957471E+01 -0.16601862212E+02  0.19637005233E+02  0.51100000000E-03 0.  1.
         12    1    4    4    0    0  0.61787385190E+01 -0.41082834392E+01 -0.83533874328E+01  0.11172908489E+02  0.00000000000E+00 0. -1.
</event>
<event>
 8    1  0.4042158E-011  0.9118800E+02  0.7816164E-02  0.1184000E+00
        -11   -1    0    0    0    0  0.00000000000E+00  0.00000000000E+00  0.45593999997E+02  0.45594000000E+02  0.51100000000E-03 0.  1.
         11   -1    0    0    0    0 -0.00000000000E+00 -0.00000000000E+00 -0.45593999997E+02  0.45594000000E+02  0.51100000000E-03 0. -1.
         23    2    1    2    0    0  0.00000000000E+00  0.00000000000E+00  0.00000000000E+00  0.91188000000E+02  0.91188000000E+02 0.  0.
    9900012    2    3    3    0    0 -0.24367457416E+02 -0.34918260390E+02 -0.84003370197E+01  0.47787267844E+02  0.19999985409E+02 0.  0.
        -12    1    3    3    0    0  0.24367457416E+02  0.34918260390E+02  0.84003370197E+01  0.43400732156E+02  0.00000000000E+00 0.  1.
         11    1    4    4    0    0 -0.33292211560E+01 -0.57079183997E+00 -0.17911610483E+01  0.38233198914E+01  0.51100000000E-03 0. -1.
        -11    1    4    4    0    0 -0.72053892449E+01 -0.12133147907E+02  0.54790916344E+01  0.15137746124E+02  0.51100000000E-03 0.  1.
         12    1    4    4    0    0 -0.13832847015E+02 -0.22214320643E+02 -0.12088267606E+02  0.28826201829E+02  0.00000000000E+00 0. -1.
</event>
<event>
 8    1  0.4042158E-011  0.9118800E+02  0.7816164E-02  0.1184000E+00
        -11   -1    0    0    0    0  0.00000000000E+00  0.00000000000E+00  0.45593999997E+02  0.45594000000E+02  0.51100000000E-03 0. -1.
         11   -1    0    0    0    0 -0.00000000000E+00 -0.00000000000E+00 -0.45593999997E+02  0.45594000000E+02  0.51100000000E-03 0.  1.
         23    2    1    2    0    0  0.00000000000E+00 -0.71054273576E-14 -0.35527136788E-14  0.91188000000E+02  0.91188000000E+02 0.  0.
    9900012    2    3    3    0    0 -0.11076461983E+02 -0.36512028613E+02 -0.20683494968E+02  0.47787271808E+02  0.20000003482E+02 0.  0.
         12    1    3    3    0    0  0.11076461983E+02  0.36512028613E+02  0.20683494968E+02  0.43400728192E+02  0.00000000000E+00 0. -1.
         11    1    4    4    0    0 -0.60987535254E+01 -0.17261128616E+02 -0.77082752394E+01  0.19863505811E+02  0.51100000000E-03 0. -1.
        -11    1    4    4    0    0  0.41837172530E+01 -0.12836091841E+02 -0.62901067232E+01  0.14894099055E+02  0.51100000000E-03 0.  1.
         12    1    4    4    0    0 -0.91614257109E+01 -0.64148081555E+01 -0.66851130058E+01  0.13029666942E+02  0.00000000000E+00 0. -1.
</event>
<event>
 8    1  0.4042158E-011  0.9118800E+02  0.7816164E-02  0.1184000E+00
        -11   -1    0    0    0    0  0.00000000000E+00  0.00000000000E+00  0.45593999997E+02  0.45594000000E+02  0.51100000000E-03 0. -1.
         11   -1    0    0    0    0 -0.00000000000E+00 -0.00000000000E+00 -0.45593999997E+02  0.45594000000E+02  0.51100000000E-03 0.  1.
         23    2    1    2    0    0 -0.44408920985E-15  0.71054273576E-14  0.00000000000E+00  0.91188000000E+02  0.91188000000E+02 0.  0.
    9900012    2    3    3    0    0 -0.33098970468E+01 -0.33406321710E+02 -0.27507923374E+02  0.47787267321E+02  0.19999983025E+02 0.  0.
         12    1    3    3    0    0  0.33098970468E+01  0.33406321710E+02  0.27507923374E+02  0.43400732679E+02  0.00000000000E+00 0. -1.
         11    1    4    4    0    0  0.41260464950E+01 -0.16611474246E+02 -0.22348252354E+02  0.28149772998E+02  0.51100000000E-03 0. -1.
        -11    1    4    4    0    0  0.18751503918E+00 -0.41423966849E+01 -0.15869076744E+01  0.44399198656E+01  0.51100000000E-03 0.  1.
         12    1    4    4    0    0 -0.76234585810E+01 -0.12652450780E+02 -0.35727633457E+01  0.15197574458E+02  0.00000000000E+00 0. -1.
</event>
<event>
 8    1  0.4042158E-011  0.9118800E+02  0.7816164E-02  0.1184000E+00
        -11   -1    0    0    0    0  0.00000000000E+00  0.00000000000E+00  0.45593999997E+02  0.45594000000E+02  0.51100000000E-03 0. -1.
         11   -1    0    0    0    0 -0.00000000000E+00 -0.00000000000E+00 -0.45593999997E+02  0.45594000000E+02  0.51100000000E-03 0.  1.
         23    2    1    2    0    0  0.00000000000E+00  0.00000000000E+00 -0.35527136788E-14  0.91188000000E+02  0.91188000000E+02 0.  0.
    9900012    2    3    3    0    0  0.92663564881E+01  0.35063065941E+02  0.23839871087E+02  0.47787269485E+02  0.19999992891E+02 0.  0.
        -12    1    3    3    0    0 -0.92663564881E+01 -0.35063065941E+02 -0.23839871087E+02  0.43400730515E+02  0.00000000000E+00 0.  1.
         11    1    4    4    0    0 -0.74814611870E+00  0.62529432938E+01 -0.58063561391E+00  0.63242517682E+01  0.51100000000E-03 0. -1.
        -11    1    4    4    0    0  0.82375108037E+01  0.52113193748E+01  0.57312346188E+01  0.11307585259E+02  0.51100000000E-03 0.  1.
         12    1    4    4    0    0  0.17769918031E+01  0.23598803273E+02  0.18689272082E+02  0.30155432458E+02  0.00000000000E+00 0. -1.
</event>
<event>
 8    1  0.4042158E-011  0.9118800E+02  0.7816164E-02  0.1184000E+00
        -11   -1    0    0    0    0  0.00000000000E+00  0.00000000000E+00  0.45593999997E+02  0.45594000000E+02  0.51100000000E-03 0. -1.
         11   -1    0    0    0    0 -0.00000000000E+00 -0.00000000000E+00 -0.45593999997E+02  0.45594000000E+02  0.51100000000E-03 0.  1.
         23    2    1    2    0    0 -0.35527136788E-14 -0.71054273576E-14  0.17763568394E-14  0.91188000000E+02  0.91188000000E+02 0.  0.
    9900012    2    3    3    0    0  0.24137784435E+02  0.33571884084E+02 -0.13187844242E+02  0.47787271042E+02  0.19999999987E+02 0.  0.
         12    1    3    3    0    0 -0.24137784435E+02 -0.33571884084E+02  0.13187844242E+02  0.43400728958E+02  0.00000000000E+00 0. -1.
         11    1    4    4    0    0  0.15169785114E+02  0.21698215500E+02 -0.35369229174E+01  0.26710386748E+02  0.51100000000E-03 0. -1.
        -11    1    4    4    0    0  0.60923273901E+01  0.13991921214E+01  0.41925182212E+00  0.62649791678E+01  0.51100000000E-03 0.  1.
        -12    1    4    4    0    0  0.28756719308E+01  0.10474476463E+02 -0.10070173147E+02  0.14811905125E+02  0.00000000000E+00 0.  1.
</event>
<event>
 8    1  0.4042158E-011  0.9118800E+02  0.7816164E-02  0.1184000E+00
        -11   -1    0    0    0    0  0.00000000000E+00  0.00000000000E+00  0.45593999997E+02  0.45594000000E+02  0.51100000000E-03 0. -1.
         11   -1    0    0    0    0 -0.00000000000E+00 -0.00000000000E+00 -0.45593999997E+02  0.45594000000E+02  0.51100000000E-03 0.  1.
         23    2    1    2    0    0  0.17763568394E-14 -0.35527136788E-14  0.00000000000E+00  0.91188000000E+02  0.91188000000E+02 0.  0.
    9900012    2    3    3    0    0 -0.15940297776E+02  0.20047287055E+02  0.35037639556E+02  0.47787274233E+02  0.20000014538E+02 0.  0.
        -12    1    3    3    0    0  0.15940297776E+02 -0.20047287055E+02 -0.35037639556E+02  0.43400725767E+02  0.00000000000E+00 0.  1.
         11    1    4    4    0    0 -0.25248595791E+01 -0.18630127980E+00  0.59372284398E+01  0.64544795195E+01  0.51100000000E-03 0. -1.
        -11    1    4    4    0    0  0.19450389124E+01  0.10452973122E+02  0.14565023648E+02  0.18032962529E+02  0.51100000000E-03 0.  1.
        -12    1    4    4    0    0 -0.15360477109E+02  0.97806152129E+01  0.14535387468E+02  0.23299832184E+02  0.00000000000E+00 0.  1.
</event>
<event>
 8    1  0.4042158E-011  0.9118800E+02  0.7816164E-02  0.1184000E+00
        -11   -1    0    0    0    0  0.00000000000E+00  0.00000000000E+00  0.45593999997E+02  0.45594000000E+02  0.51100000000E-03 0. -1.
         11   -1    0    0    0    0 -0.00000000000E+00 -0.00000000000E+00 -0.45593999997E+02  0.45594000000E+02  0.51100000000E-03 0.  1.
         23    2    1    2    0    0  0.35527136788E-14  0.00000000000E+00  0.35527136788E-14  0.91188000000E+02  0.91188000000E+02 0.  0.
    9900012    2    3    3    0    0  0.26617578502E+02 -0.19059874436E+02  0.28492958383E+02  0.47787274473E+02  0.20000015632E+02 0.  0.
        -12    1    3    3    0    0 -0.26617578502E+02  0.19059874436E+02 -0.28492958383E+02  0.43400725527E+02  0.00000000000E+00 0.  1.
         11    1    4    4    0    0  0.22945072081E+02 -0.12628233625E+02  0.27499061564E+02  0.37975610653E+02  0.51100000000E-03 0.  1.
        -11    1    4    4    0    0  0.63186909576E+00  0.55930481735E+00  0.19534728347E+01  0.21279419188E+01  0.51100000000E-03 0. -1.
        -12    1    4    4    0    0  0.30406373257E+01 -0.69909456284E+01 -0.95957601577E+00  0.76837219013E+01  0.00000000000E+00 0.  1.
</event>
<event>
 8    1  0.6013472E-011  0.9118800E+02  0.7816164E-02  0.1184000E+00
        -11   -1    0    0    0    0  0.00000000000E+00  0.00000000000E+00  0.45593999997E+02  0.45594000000E+02  0.51100000000E-03 0. -1.
         11   -1    0    0    0    0 -0.00000000000E+00 -0.00000000000E+00 -0.45593999997E+02  0.45594000000E+02  0.51100000000E-03 0.  1.
         23    2    1    2    0    0 -0.35527136788E-14  0.00000000000E+00 -0.35527136788E-14  0.91188000000E+02  0.91188000000E+02 0.  0.
    9900012    2    3    3    0    0  0.17244845568E+02  0.33524046323E+02  0.21502972123E+02  0.47787260483E+02  0.19999951844E+02 0.  0.
        -12    1    3    3    0    0 -0.17244845568E+02 -0.33524046323E+02 -0.21502972123E+02  0.43400739517E+02  0.00000000000E+00 0.  1.
         11    1    4    4    0    0  0.10857966178E+02  0.17241396198E+02  0.12110334006E+02  0.23702771196E+02  0.51100000000E-03 0. -1.
        -11    1    4    4    0    0 -0.46162947528E+00  0.11833688941E+02  0.10519848011E+02  0.15840344004E+02  0.51100000000E-03 0.  1.
        -12    1    4    4    0    0  0.68485088650E+01  0.44489611850E+01 -0.11272098946E+01  0.82441452830E+01  0.00000000000E+00 0.  1.
</event>
<event>
 8    1  0.4042158E-011  0.9118800E+02  0.7816164E-02  0.1184000E+00
        -11   -1    0    0    0    0  0.00000000000E+00  0.00000000000E+00  0.45593999997E+02  0.45594000000E+02  0.51100000000E-03 0. -1.
         11   -1    0    0    0    0 -0.00000000000E+00 -0.00000000000E+00 -0.45593999997E+02  0.45594000000E+02  0.51100000000E-03 0.  1.
         23    2    1    2    0    0  0.00000000000E+00 -0.35527136788E-14  0.88817841970E-15  0.91188000000E+02  0.91188000000E+02 0.  0.
    9900012    2    3    3    0    0  0.33743927794E+02 -0.26567425560E+02  0.62563821857E+01  0.47787273256E+02  0.20000010086E+02 0.  0.
        -12    1    3    3    0    0 -0.33743927794E+02  0.26567425560E+02 -0.62563821857E+01  0.43400726744E+02  0.00000000000E+00 0.  1.
         11    1    4    4    0    0  0.50707026995E+00 -0.95548127363E+01  0.40263326183E+01  0.10380892124E+02  0.51100000000E-03 0. -1.
        -11    1    4    4    0    0  0.61395785873E+01 -0.32350288164E+01  0.53886437212E+00  0.69606186323E+01  0.51100000000E-03 0.  1.
         12    1    4    4    0    0  0.27097278936E+02 -0.13777584007E+02  0.16911851953E+01  0.30445762500E+02  0.00000000000E+00 0. -1.
</event>
<event>
 8    1  0.4042158E-011  0.9118800E+02  0.7816164E-02  0.1184000E+00
        -11   -1    0    0    0    0  0.00000000000E+00  0.00000000000E+00  0.45593999997E+02  0.45594000000E+02  0.51100000000E-03 0. -1.
         11   -1    0    0    0    0 -0.00000000000E+00 -0.00000000000E+00 -0.45593999997E+02  0.45594000000E+02  0.51100000000E-03 0.  1.
         23    2    1    2    0    0  0.00000000000E+00  0.00000000000E+00  0.00000000000E+00  0.91188000000E+02  0.91188000000E+02 0.  0.
    9900012    2    3    3    0    0  0.30226230071E+02 -0.28428228351E+02  0.12721428442E+02  0.47787263911E+02  0.19999967476E+02 0.  0.
        -12    1    3    3    0    0 -0.30226230071E+02  0.28428228351E+02 -0.12721428442E+02  0.43400736089E+02  0.00000000000E+00 0.  1.
         11    1    4    4    0    0  0.31218104712E+01 -0.70543139911E+01 -0.19147889786E+01  0.79482994154E+01  0.51100000000E-03 0. -1.
        -11    1    4    4    0    0  0.62329989895E+01 -0.23970808839E+01 -0.21473758946E+01  0.70148055326E+01  0.51100000000E-03 0.  1.
        -12    1    4    4    0    0  0.20871420610E+02 -0.18976833476E+02  0.16783593315E+02  0.32824158963E+02  0.00000000000E+00 0.  1.
</event>
<event>
 8    1  0.4042158E-011  0.9118800E+02  0.7816164E-02  0.1184000E+00
        -11   -1    0    0    0    0  0.00000000000E+00  0.00000000000E+00  0.45593999997E+02  0.45594000000E+02  0.51100000000E-03 0.  1.
         11   -1    0    0    0    0 -0.00000000000E+00 -0.00000000000E+00 -0.45593999997E+02  0.45594000000E+02  0.51100000000E-03 0. -1.
         23    2    1    2    0    0  0.00000000000E+00  0.00000000000E+00  0.00000000000E+00  0.91188000000E+02  0.91188000000E+02 0.  0.
    9900012    2    3    3    0    0  0.17219239667E+02  0.39299488836E+02 -0.65322650004E+01  0.47787279689E+02  0.20000039415E+02 0.  0.
         12    1    3    3    0    0 -0.17219239667E+02 -0.39299488836E+02  0.65322650004E+01  0.43400720311E+02  0.00000000000E+00 0. -1.
         11    1    4    4    0    0 -0.17860189028E+01  0.30019213334E+01 -0.32226954216E+01  0.47525952126E+01  0.51100000000E-03 0. -1.
        -11    1    4    4    0    0  0.98181529088E+01  0.73396352048E+01 -0.31391222721E+01  0.12653871359E+02  0.51100000000E-03 0.  1.
        -12    1    4    4    0    0  0.91871056608E+01  0.28957932298E+02 -0.17044730672E+00  0.30380813117E+02  0.00000000000E+00 0.  1.
</event>
<event>
 8    1  0.4042158E-011  0.9118800E+02  0.7816164E-02  0.1184000E+00
        -11   -1    0    0    0    0  0.00000000000E+00  0.00000000000E+00  0.45593999997E+02  0.45594000000E+02  0.51100000000E-03 0. -1.
         11   -1    0    0    0    0 -0.00000000000E+00 -0.00000000000E+00 -0.45593999997E+02  0.45594000000E+02  0.51100000000E-03 0.  1.
         23    2    1    2    0    0  0.35527136788E-14  0.00000000000E+00  0.00000000000E+00  0.91188000000E+02  0.91188000000E+02 0.  0.
    9900012    2    3    3    0    0  0.31987906061E+02  0.64904117789E+01  0.28605453229E+02  0.47787268052E+02  0.19999986357E+02 0.  0.
        -12    1    3    3    0    0 -0.31987906061E+02 -0.64904117789E+01 -0.28605453229E+02  0.43400731948E+02  0.00000000000E+00 0.  1.
         11    1    4    4    0    0  0.11623027928E+02  0.90108013322E+01  0.14820728587E+02  0.20879255614E+02  0.51100000000E-03 0. -1.
        -11    1    4    4    0    0  0.60949743903E+01  0.29288917135E+01  0.82361291778E+01  0.10656497716E+02  0.51100000000E-03 0.  1.
        -12    1    4    4    0    0  0.14269903742E+02 -0.54492812667E+01  0.55485954635E+01  0.16251514722E+02  0.00000000000E+00 0.  1.
</event>
<event>
 8    1  0.4425195E-011  0.9118800E+02  0.7816164E-02  0.1184000E+00
        -11   -1    0    0    0    0  0.00000000000E+00  0.00000000000E+00  0.45593999997E+02  0.45594000000E+02  0.51100000000E-03 0. -1.
         11   -1    0    0    0    0 -0.00000000000E+00 -0.00000000000E+00 -0.45593999997E+02  0.45594000000E+02  0.51100000000E-03 0.  1.
         23    2    1    2    0    0  0.00000000000E+00  0.35527136788E-14  0.71054273576E-14  0.91188000000E+02  0.91188000000E+02 0.  0.
    9900012    2    3    3    0    0  0.10864219888E+02 -0.25568147586E+02  0.33344610369E+02  0.47787257087E+02  0.19999936361E+02 0.  0.
        -12    1    3    3    0    0 -0.10864219888E+02  0.25568147586E+02 -0.33344610369E+02  0.43400742913E+02  0.00000000000E+00 0.  1.
         11    1    4    4    0    0  0.54232656970E+00 -0.51613542366E+01  0.13615432009E+02  0.14570987775E+02  0.51100000000E-03 0. -1.
        -11    1    4    4    0    0  0.40521607528E+01 -0.18336487057E+02  0.18757870772E+02  0.26542503283E+02  0.51100000000E-03 0.  1.
        -12    1    4    4    0    0  0.62697325654E+01 -0.20703062925E+01  0.97130758810E+00  0.66737660295E+01  0.00000000000E+00 0.  1.
</event>
<event>
 8    1  0.5460463E-011  0.9118800E+02  0.7816164E-02  0.1184000E+00
        -11   -1    0    0    0    0  0.00000000000E+00  0.00000000000E+00  0.45593999997E+02  0.45594000000E+02  0.51100000000E-03 0. -1.
         11   -1    0    0    0    0 -0.00000000000E+00 -0.00000000000E+00 -0.45593999997E+02  0.45594000000E+02  0.51100000000E-03 0.  1.
         23    2    1    2    0    0  0.44408920985E-15  0.00000000000E+00  0.71054273576E-14  0.91188000000E+02  0.91188000000E+02 0.  0.
    9900012    2    3    3    0    0 -0.38719730674E+01  0.16251493967E+02  0.40056461248E+02  0.47787270521E+02  0.19999997614E+02 0.  0.
        -12    1    3    3    0    0  0.38719730674E+01 -0.16251493967E+02 -0.40056461248E+02  0.43400729479E+02  0.00000000000E+00 0.  1.
         11    1    4    4    0    0  0.21668467430E+00  0.88730371577E+01  0.23468763573E+02  0.25091046303E+02  0.51100000000E-03 0. -1.
        -11    1    4    4    0    0  0.15300146484E+01 -0.12648496088E+01  0.10579507009E+02  0.10764142240E+02  0.51100000000E-03 0.  1.
        -12    1    4    4    0    0 -0.56186723901E+01  0.86433064177E+01  0.60081906663E+01  0.11932081978E+02  0.00000000000E+00 0.  1.
</event>
<event>
 8    1  0.4042158E-011  0.9118800E+02  0.7816164E-02  0.1184000E+00
        -11   -1    0    0    0    0  0.00000000000E+00  0.00000000000E+00  0.45593999997E+02  0.45594000000E+02  0.51100000000E-03 0. -1.
         11   -1    0    0    0    0 -0.00000000000E+00 -0.00000000000E+00 -0.45593999997E+02  0.45594000000E+02  0.51100000000E-03 0.  1.
         23    2    1    2    0    0  0.00000000000E+00  0.00000000000E+00  0.00000000000E+00  0.91188000000E+02  0.91188000000E+02 0.  0.
    9900012    2    3    3    0    0  0.19357303804E+02 -0.11519768906E+01 -0.38827708992E+02  0.47787271355E+02  0.20000001415E+02 0.  0.
         12    1    3    3    0    0 -0.19357303804E+02  0.11519768906E+01  0.38827708992E+02  0.43400728645E+02  0.00000000000E+00 0. -1.
         11    1    4    4    0    0  0.10911486790E+02  0.43572708750E+00 -0.13602980971E+02  0.17443952924E+02  0.51100000000E-03 0. -1.
        -11    1    4    4    0    0  0.21722555398E+01  0.21300046150E+01  0.93773312370E+00  0.31835447951E+01  0.51100000000E-03 0.  1.
        -12    1    4    4    0    0  0.62735614745E+01 -0.37177085930E+01 -0.26162461145E+02  0.27159773635E+02  0.00000000000E+00 0.  1.
</event>
<event>
 8    1  0.4042158E-011  0.9118800E+02  0.7816164E-02  0.1184000E+00
        -11   -1    0    0    0    0  0.00000000000E+00  0.00000000000E+00  0.45593999997E+02  0.45594000000E+02  0.51100000000E-03 0. -1.
         11   -1    0    0    0    0 -0.00000000000E+00 -0.00000000000E+00 -0.45593999997E+02  0.45594000000E+02  0.51100000000E-03 0.  1.
         23    2    1    2    0    0  0.00000000000E+00  0.00000000000E+00  0.71054273576E-14  0.91188000000E+02  0.91188000000E+02 0.  0.
    9900012    2    3    3    0    0 -0.31272633055E+01 -0.90715695976E+01 -0.42326700862E+02  0.47787277004E+02  0.20000027171E+02 0.  0.
         12    1    3    3    0    0  0.31272633055E+01  0.90715695976E+01  0.42326700862E+02  0.43400722996E+02  0.00000000000E+00 0. -1.
         11    1    4    4    0    0  0.31573840689E+01  0.35058553330E-01 -0.14665068581E+02  0.15001151289E+02  0.51100000000E-03 0. -1.
        -11    1    4    4    0    0  0.19043371828E+00  0.33711786562E+01 -0.72999955617E+01  0.80430744118E+01  0.51100000000E-03 0.  1.
         12    1    4    4    0    0 -0.64750810927E+01 -0.12477806807E+02 -0.20361636719E+02  0.24743051303E+02  0.00000000000E+00 0. -1.
</event>
<event>
 8    1  0.4042158E-011  0.9118800E+02  0.7816164E-02  0.1184000E+00
        -11   -1    0    0    0    0  0.00000000000E+00  0.00000000000E+00  0.45593999997E+02  0.45594000000E+02  0.51100000000E-03 0. -1.
         11   -1    0    0    0    0 -0.00000000000E+00 -0.00000000000E+00 -0.45593999997E+02  0.45594000000E+02  0.51100000000E-03 0.  1.
         23    2    1    2    0    0  0.00000000000E+00  0.00000000000E+00 -0.71054273576E-14  0.91188000000E+02  0.91188000000E+02 0.  0.
    9900012    2    3    3    0    0  0.96345212033E+01  0.29666397030E+01  0.42213717938E+02  0.47787274982E+02  0.20000017953E+02 0.  0.
        -12    1    3    3    0    0 -0.96345212033E+01 -0.29666397030E+01 -0.42213717938E+02  0.43400725018E+02  0.00000000000E+00 0.  1.
         11    1    4    4    0    0  0.62708011471E+01 -0.53339793805E+00  0.34228874423E+02  0.34802633592E+02  0.51100000000E-03 0. -1.
        -11    1    4    4    0    0  0.45458763434E+01 -0.11411946101E-01  0.80881416059E+01  0.92781009296E+01  0.51100000000E-03 0.  1.
        -12    1    4    4    0    0 -0.11821562873E+01  0.35114495871E+01 -0.10329809118E+00  0.37065404606E+01  0.00000000000E+00 0.  1.
</event>
<event>
 8    1  0.4042158E-011  0.9118800E+02  0.7816164E-02  0.1184000E+00
        -11   -1    0    0    0    0  0.00000000000E+00  0.00000000000E+00  0.45593999997E+02  0.45594000000E+02  0.51100000000E-03 0. -1.
         11   -1    0    0    0    0 -0.00000000000E+00 -0.00000000000E+00 -0.45593999997E+02  0.45594000000E+02  0.51100000000E-03 0.  1.
         23    2    1    2    0    0  0.00000000000E+00 -0.35527136788E-14  0.00000000000E+00  0.91188000000E+02  0.91188000000E+02 0.  0.
    9900012    2    3    3    0    0 -0.17949737887E+02 -0.31035187650E+02 -0.24459093927E+02  0.47787271453E+02  0.20000001862E+02 0.  0.
         12    1    3    3    0    0  0.17949737887E+02  0.31035187650E+02  0.24459093927E+02  0.43400728547E+02  0.00000000000E+00 0. -1.
         11    1    4    4    0    0 -0.34900849648E+01  0.23944021191E+01 -0.12462932539E+01  0.44121538624E+01  0.51100000000E-03 0. -1.
        -11    1    4    4    0    0 -0.12287609696E+01 -0.61348646087E+01 -0.48606223414E+01  0.79228824990E+01  0.51100000000E-03 0.  1.
         12    1    4    4    0    0 -0.13230891953E+02 -0.27294725161E+02 -0.18352178331E+02  0.35452235091E+02  0.00000000000E+00 0. -1.
</event>
<event>
 8    1  0.4042158E-011  0.9118800E+02  0.7816164E-02  0.1184000E+00
        -11   -1    0    0    0    0  0.00000000000E+00  0.00000000000E+00  0.45593999997E+02  0.45594000000E+02  0.51100000000E-03 0. -1.
         11   -1    0    0    0    0 -0.00000000000E+00 -0.00000000000E+00 -0.45593999997E+02  0.45594000000E+02  0.51100000000E-03 0.  1.
         23    2    1    2    0    0  0.00000000000E+00 -0.35527136788E-14  0.35527136788E-14  0.91188000000E+02  0.91188000000E+02 0.  0.
    9900012    2    3    3    0    0  0.25560309432E+02  0.16622432505E+02 -0.30886705024E+02  0.47787271574E+02  0.20000002415E+02 0.  0.
         12    1    3    3    0    0 -0.25560309432E+02 -0.16622432505E+02  0.30886705024E+02  0.43400728426E+02  0.00000000000E+00 0. -1.
         11    1    4    4    0    0 -0.39623358608E+00 -0.11072896170E+01 -0.62198002143E+01  0.63300083979E+01  0.51100000000E-03 0. -1.
        -11    1    4    4    0    0  0.80157147685E+01  0.13810708967E+01 -0.23049525385E+01  0.84541023496E+01  0.51100000000E-03 0.  1.
        -12    1    4    4    0    0  0.17940828249E+02  0.16348651225E+02 -0.22361952272E+02  0.33003160827E+02  0.00000000000E+00 0.  1.
</event>
<event>
 8    1  0.4042158E-011  0.9118800E+02  0.7816164E-02  0.1184000E+00
        -11   -1    0    0    0    0  0.00000000000E+00  0.00000000000E+00  0.45593999997E+02  0.45594000000E+02  0.51100000000E-03 0. -1.
         11   -1    0    0    0    0 -0.00000000000E+00 -0.00000000000E+00 -0.45593999997E+02  0.45594000000E+02  0.51100000000E-03 0.  1.
         23    2    1    2    0    0  0.00000000000E+00  0.00000000000E+00  0.71054273576E-14  0.91188000000E+02  0.91188000000E+02 0.  0.
    9900012    2    3    3    0    0 -0.24321353378E+02  0.11454722719E+02 -0.34071750538E+02  0.47787273193E+02  0.20000009796E+02 0.  0.
         12    1    3    3    0    0  0.24321353378E+02 -0.11454722719E+02  0.34071750538E+02  0.43400726807E+02  0.00000000000E+00 0. -1.
         11    1    4    4    0    0 -0.12745838508E+02  0.11499894032E+02 -0.13919200111E+02  0.22100861838E+02  0.51100000000E-03 0. -1.
        -11    1    4    4    0    0 -0.54571968863E+01  0.54311847807E+01 -0.10335260403E+02  0.12887838214E+02  0.51100000000E-03 0.  1.
        -12    1    4    4    0    0 -0.61183179835E+01 -0.54763560941E+01 -0.98172900246E+01  0.12798573141E+02  0.00000000000E+00 0.  1.
</event>
<event>
 8    1  0.4042158E-011  0.9118800E+02  0.7816164E-02  0.1184000E+00
        -11   -1    0    0    0    0  0.00000000000E+00  0.00000000000E+00  0.45593999997E+02  0.45594000000E+02  0.51100000000E-03 0.  1.
         11   -1    0    0    0    0 -0.00000000000E+00 -0.00000000000E+00 -0.45593999997E+02  0.45594000000E+02  0.51100000000E-03 0. -1.
         23    2    1    2    0    0  0.00000000000E+00  0.00000000000E+00  0.00000000000E+00  0.91188000000E+02  0.91188000000E+02 0.  0.
    9900012    2    3    3    0    0 -0.72307780988E+01  0.31069434851E+02  0.29428379116E+02  0.47787269232E+02  0.19999991734E+02 0.  0.
        -12    1    3    3    0    0  0.72307780988E+01 -0.31069434851E+02 -0.29428379116E+02  0.43400730768E+02  0.00000000000E+00 0.  1.
         11    1    4    4    0    0 -0.16680681462E+01 -0.13293631449E+01  0.42271338063E+01  0.47347986429E+01  0.51100000000E-03 0. -1.
        -11    1    4    4    0    0  0.16607277954E+01  0.72048450230E-02  0.17701236162E+01  0.24272219919E+01  0.51100000000E-03 0.  1.
         12    1    4    4    0    0 -0.72234377480E+01  0.32391593151E+02  0.23431121693E+02  0.40625248597E+02  0.00000000000E+00 0. -1.
</event>
<event>
 8    1  0.4042158E-011  0.9118800E+02  0.7816164E-02  0.1184000E+00
        -11   -1    0    0    0    0  0.00000000000E+00  0.00000000000E+00  0.45593999997E+02  0.45594000000E+02  0.51100000000E-03 0. -1.
         11   -1    0    0    0    0 -0.00000000000E+00 -0.00000000000E+00 -0.45593999997E+02  0.45594000000E+02  0.51100000000E-03 0.  1.
         23    2    1    2    0    0  0.35527136788E-14  0.00000000000E+00  0.00000000000E+00  0.91188000000E+02  0.91188000000E+02 0.  0.
    9900012    2    3    3    0    0  0.21552468660E+02 -0.35633745686E+01  0.37502223040E+02  0.47787271013E+02  0.19999999855E+02 0.  0.
        -12    1    3    3    0    0 -0.21552468660E+02  0.35633745686E+01 -0.37502223040E+02  0.43400728987E+02  0.00000000000E+00 0.  1.
         11    1    4    4    0    0 -0.88520901264E+00  0.57042080495E+00  0.44887706665E+01  0.46106439082E+01  0.51100000000E-03 0. -1.
        -11    1    4    4    0    0 -0.24909663468E+01  0.26518980833E+00  0.26840641635E+01  0.36714356416E+01  0.51100000000E-03 0.  1.
        -12    1    4    4    0    0  0.24928644020E+02 -0.43989851818E+01  0.30329388210E+02  0.39505191463E+02  0.00000000000E+00 0.  1.
</event>
<event>
 8    1  0.4042158E-011  0.9118800E+02  0.7816164E-02  0.1184000E+00
        -11   -1    0    0    0    0  0.00000000000E+00  0.00000000000E+00  0.45593999997E+02  0.45594000000E+02  0.51100000000E-03 0.  1.
         11   -1    0    0    0    0 -0.00000000000E+00 -0.00000000000E+00 -0.45593999997E+02  0.45594000000E+02  0.51100000000E-03 0. -1.
         23    2    1    2    0    0  0.17763568394E-14  0.71054273576E-14 -0.17763568394E-14  0.91188000000E+02  0.91188000000E+02 0.  0.
    9900012    2    3    3    0    0 -0.10091900767E+02 -0.40541312425E+02 -0.11754941188E+02  0.47787272857E+02  0.20000008262E+02 0.  0.
         12    1    3    3    0    0  0.10091900767E+02  0.40541312425E+02  0.11754941188E+02  0.43400727143E+02  0.00000000000E+00 0. -1.
         11    1    4    4    0    0 -0.35796370539E+01 -0.92622496992E+01 -0.67019883525E+01  0.11979971580E+02  0.51100000000E-03 0. -1.
        -11    1    4    4    0    0 -0.17512313572E+01 -0.44392648290E+01 -0.70079147028E+01  0.84784876147E+01  0.51100000000E-03 0.  1.
        -12    1    4    4    0    0 -0.47610323561E+01 -0.26839797897E+02  0.19549618677E+01  0.27328813662E+02  0.00000000000E+00 0.  1.
</event>
<event>
 8    1  0.4042158E-011  0.9118800E+02  0.7816164E-02  0.1184000E+00
        -11   -1    0    0    0    0  0.00000000000E+00  0.00000000000E+00  0.45593999997E+02  0.45594000000E+02  0.51100000000E-03 0. -1.
         11   -1    0    0    0    0 -0.00000000000E+00 -0.00000000000E+00 -0.45593999997E+02  0.45594000000E+02  0.51100000000E-03 0.  1.
         23    2    1    2    0    0  0.00000000000E+00  0.00000000000E+00  0.00000000000E+00  0.91188000000E+02  0.91188000000E+02 0.  0.
    9900012    2    3    3    0    0 -0.10389459233E+02 -0.27915295756E+02  0.31566097276E+02  0.47787273076E+02  0.20000009261E+02 0.  0.
        -12    1    3    3    0    0  0.10389459233E+02  0.27915295756E+02 -0.31566097276E+02  0.43400726924E+02  0.00000000000E+00 0.  1.
         11    1    4    4    0    0  0.33996043684E+01  0.37499778734E+00  0.30565401168E+01  0.45869784116E+01  0.51100000000E-03 0. -1.
        -11    1    4    4    0    0 -0.62443784354E+01 -0.58471881765E+01  0.54113995202E+01  0.10122505453E+02  0.51100000000E-03 0.  1.
         12    1    4    4    0    0 -0.75446851663E+01 -0.22443105367E+02  0.23098157639E+02  0.33077789211E+02  0.00000000000E+00 0. -1.
</event>
<event>
 8    1  0.4042158E-011  0.9118800E+02  0.7816164E-02  0.1184000E+00
        -11   -1    0    0    0    0  0.00000000000E+00  0.00000000000E+00  0.45593999997E+02  0.45594000000E+02  0.51100000000E-03 0. -1.
         11   -1    0    0    0    0 -0.00000000000E+00 -0.00000000000E+00 -0.45593999997E+02  0.45594000000E+02  0.51100000000E-03 0.  1.
         23    2    1    2    0    0  0.00000000000E+00  0.88817841970E-15 -0.71054273576E-14  0.91188000000E+02  0.91188000000E+02 0.  0.
    9900012    2    3    3    0    0  0.71449204104E+01 -0.28543176948E+01  0.42713306958E+02  0.47787267189E+02  0.19999982423E+02 0.  0.
        -12    1    3    3    0    0 -0.71449204104E+01  0.28543176948E+01 -0.42713306958E+02  0.43400732811E+02  0.00000000000E+00 0.  1.
         11    1    4    4    0    0  0.65820449434E+01  0.60737800354E+01  0.12916551366E+02  0.15717869417E+02  0.51100000000E-03 0. -1.
        -11    1    4    4    0    0 -0.22062811828E+01 -0.52032560746E+00  0.11772408135E+02  0.11988661684E+02  0.51100000000E-03 0.  1.
        -12    1    4    4    0    0  0.27691566498E+01 -0.84077721227E+01  0.18024347457E+02  0.20080736089E+02  0.00000000000E+00 0.  1.
</event>
<event>
 8    1  0.4042158E-011  0.9118800E+02  0.7816164E-02  0.1184000E+00
        -11   -1    0    0    0    0  0.00000000000E+00  0.00000000000E+00  0.45593999997E+02  0.45594000000E+02  0.51100000000E-03 0. -1.
         11   -1    0    0    0    0 -0.00000000000E+00 -0.00000000000E+00 -0.45593999997E+02  0.45594000000E+02  0.51100000000E-03 0.  1.
         23    2    1    2    0    0  0.35527136788E-14  0.17763568394E-14  0.00000000000E+00  0.91188000000E+02  0.91188000000E+02 0.  0.
    9900012    2    3    3    0    0 -0.30474404037E+02 -0.88411605007E+01 -0.29610353473E+02  0.47787211375E+02  0.19999727942E+02 0.  0.
         12    1    3    3    0    0  0.30474404037E+02  0.88411605007E+01  0.29610353473E+02  0.43400788625E+02  0.00000000000E+00 0. -1.
         11    1    4    4    0    0 -0.47897359413E+01 -0.28461690788E+01 -0.18171081180E+01  0.58603865902E+01  0.51100000000E-03 0. -1.
        -11    1    4    4    0    0 -0.20714744098E+02 -0.43860691476E+00 -0.10788741163E+02  0.23360007175E+02  0.51100000000E-03 0.  1.
         12    1    4    4    0    0 -0.49699239984E+01 -0.55563845071E+01 -0.17004504193E+02  0.18566817611E+02  0.00000000000E+00 0. -1.
</event>
<event>
 8    1  0.4042158E-011  0.9118800E+02  0.7816164E-02  0.1184000E+00
        -11   -1    0    0    0    0  0.00000000000E+00  0.00000000000E+00  0.45593999997E+02  0.45594000000E+02  0.51100000000E-03 0. -1.
         11   -1    0    0    0    0 -0.00000000000E+00 -0.00000000000E+00 -0.45593999997E+02  0.45594000000E+02  0.51100000000E-03 0.  1.
         23    2    1    2    0    0  0.00000000000E+00  0.00000000000E+00  0.71054273576E-14  0.91188000000E+02  0.91188000000E+02 0.  0.
    9900012    2    3    3    0    0 -0.16038982632E+02 -0.18760735553E+02 -0.35698866230E+02  0.47787271751E+02  0.20000003224E+02 0.  0.
         12    1    3    3    0    0  0.16038982632E+02  0.18760735553E+02  0.35698866230E+02  0.43400728249E+02  0.00000000000E+00 0. -1.
         11    1    4    4    0    0 -0.52176330974E+01 -0.33225869751E+01 -0.11730944800E+02  0.13261913342E+02  0.51100000000E-03 0.  1.
        -11    1    4    4    0    0 -0.11719488379E+02 -0.10886516351E+02 -0.79758373319E+01  0.17873909129E+02  0.51100000000E-03 0. -1.
         12    1    4    4    0    0  0.89813884489E+00 -0.45516322274E+01 -0.15992084099E+02  0.16651449281E+02  0.00000000000E+00 0. -1.
</event>
<event>
 8    1  0.4042158E-011  0.9118800E+02  0.7816164E-02  0.1184000E+00
        -11   -1    0    0    0    0  0.00000000000E+00  0.00000000000E+00  0.45593999997E+02  0.45594000000E+02  0.51100000000E-03 0. -1.
         11   -1    0    0    0    0 -0.00000000000E+00 -0.00000000000E+00 -0.45593999997E+02  0.45594000000E+02  0.51100000000E-03 0.  1.
         23    2    1    2    0    0 -0.71054273576E-14 -0.17763568394E-14  0.00000000000E+00  0.91188000000E+02  0.91188000000E+02 0.  0.
    9900012    2    3    3    0    0 -0.36936195254E+02 -0.11450046291E+02  0.19703743808E+02  0.47787267288E+02  0.19999982872E+02 0.  0.
        -12    1    3    3    0    0  0.36936195254E+02  0.11450046291E+02 -0.19703743808E+02  0.43400732712E+02  0.00000000000E+00 0.  1.
         11    1    4    4    0    0 -0.22713089593E+02 -0.66408514782E+01  0.30612533315E+01  0.23861194845E+02  0.51100000000E-03 0. -1.
        -11    1    4    4    0    0 -0.11948800178E+02 -0.13461979391E+01  0.82980406675E+01  0.14609707518E+02  0.51100000000E-03 0.  1.
        -12    1    4    4    0    0 -0.22743054822E+01 -0.34629968740E+01  0.83444498094E+01  0.93163649240E+01  0.00000000000E+00 0.  1.
</event>
<event>
 8    1  0.4042158E-011  0.9118800E+02  0.7816164E-02  0.1184000E+00
        -11   -1    0    0    0    0  0.00000000000E+00  0.00000000000E+00  0.45593999997E+02  0.45594000000E+02  0.51100000000E-03 0. -1.
         11   -1    0    0    0    0 -0.00000000000E+00 -0.00000000000E+00 -0.45593999997E+02  0.45594000000E+02  0.51100000000E-03 0.  1.
         23    2    1    2    0    0  0.00000000000E+00  0.00000000000E+00  0.00000000000E+00  0.91188000000E+02  0.91188000000E+02 0.  0.
    9900012    2    3    3    0    0 -0.50647372897E+01 -0.21413169683E+02 -0.37409192589E+02  0.47787273164E+02  0.20000009665E+02 0.  0.
         12    1    3    3    0    0  0.50647372897E+01  0.21413169683E+02  0.37409192589E+02  0.43400726836E+02  0.00000000000E+00 0. -1.
         11    1    4    4    0    0  0.30809952819E+01 -0.11024942051E+02 -0.13435533396E+02  0.17650933036E+02  0.51100000000E-03 0. -1.
        -11    1    4    4    0    0 -0.74962803805E-01 -0.34342473928E+00 -0.13571732099E+02  0.13576283453E+02  0.51100000000E-03 0.  1.
        -12    1    4    4    0    0 -0.80707697678E+01 -0.10044802893E+02 -0.10401927094E+02  0.16560056675E+02  0.00000000000E+00 0.  1.
</event>
<event>
 8    1  0.4042158E-011  0.9118800E+02  0.7816164E-02  0.1184000E+00
        -11   -1    0    0    0    0  0.00000000000E+00  0.00000000000E+00  0.45593999997E+02  0.45594000000E+02  0.51100000000E-03 0.  1.
         11   -1    0    0    0    0 -0.00000000000E+00 -0.00000000000E+00 -0.45593999997E+02  0.45594000000E+02  0.51100000000E-03 0. -1.
         23    2    1    2    0    0 -0.35527136788E-14  0.00000000000E+00  0.44408920985E-15  0.91188000000E+02  0.91188000000E+02 0.  0.
    9900012    2    3    3    0    0 -0.21477444540E+02  0.37638015970E+02  0.23921644734E+01  0.47787270502E+02  0.19999997526E+02 0.  0.
        -12    1    3    3    0    0  0.21477444540E+02 -0.37638015970E+02 -0.23921644734E+01  0.43400729498E+02  0.00000000000E+00 0.  1.
         11    1    4    4    0    0 -0.46722198161E+01  0.77672484666E+01  0.63165702608E+01  0.11048024569E+02  0.51100000000E-03 0. -1.
        -11    1    4    4    0    0  0.19829530376E+01  0.23065194362E+01 -0.11996061444E+01  0.32697384944E+01  0.51100000000E-03 0.  1.
         12    1    4    4    0    0 -0.18788177761E+02  0.27564248067E+02 -0.27247996430E+01  0.33469507439E+02  0.00000000000E+00 0. -1.
</event>
<event>
 8    1  0.4042158E-011  0.9118800E+02  0.7816164E-02  0.1184000E+00
        -11   -1    0    0    0    0  0.00000000000E+00  0.00000000000E+00  0.45593999997E+02  0.45594000000E+02  0.51100000000E-03 0. -1.
         11   -1    0    0    0    0 -0.00000000000E+00 -0.00000000000E+00 -0.45593999997E+02  0.45594000000E+02  0.51100000000E-03 0.  1.
         23    2    1    2    0    0  0.00000000000E+00  0.88817841970E-15  0.00000000000E+00  0.91188000000E+02  0.91188000000E+02 0.  0.
    9900012    2    3    3    0    0  0.32307265680E+01 -0.62768957183E+01 -0.42822731698E+02  0.47787270005E+02  0.19999995262E+02 0.  0.
         12    1    3    3    0    0 -0.32307265680E+01  0.62768957183E+01  0.42822731698E+02  0.43400729995E+02  0.00000000000E+00 0. -1.
         11    1    4    4    0    0  0.15701879726E+01  0.14272824810E+01 -0.22329094157E+01  0.30803425572E+01  0.51100000000E-03 0. -1.
        -11    1    4    4    0    0  0.59367180974E+01  0.22227620444E+01 -0.71102631809E+01  0.95258141718E+01  0.51100000000E-03 0.  1.
        -12    1    4    4    0    0 -0.42761795019E+01 -0.99269402436E+01 -0.33479559101E+02  0.35181113276E+02  0.00000000000E+00 0.  1.
</event>
<event>
 8    1  0.4042158E-011  0.9118800E+02  0.7816164E-02  0.1184000E+00
        -11   -1    0    0    0    0  0.00000000000E+00  0.00000000000E+00  0.45593999997E+02  0.45594000000E+02  0.51100000000E-03 0. -1.
         11   -1    0    0    0    0 -0.00000000000E+00 -0.00000000000E+00 -0.45593999997E+02  0.45594000000E+02  0.51100000000E-03 0.  1.
         23    2    1    2    0    0  0.35527136788E-14  0.00000000000E+00  0.00000000000E+00  0.91188000000E+02  0.91188000000E+02 0.  0.
    9900012    2    3    3    0    0 -0.28999776178E+02 -0.27635858817E+02  0.16700160502E+02  0.47787273373E+02  0.20000010618E+02 0.  0.
        -12    1    3    3    0    0  0.28999776178E+02  0.27635858817E+02 -0.16700160502E+02  0.43400726627E+02  0.00000000000E+00 0.  1.
         11    1    4    4    0    0 -0.21662034190E+02 -0.15202334465E+02  0.14566744857E+02  0.30208355705E+02  0.51100000000E-03 0. -1.
        -11    1    4    4    0    0 -0.78630757243E+00 -0.53027720546E+01  0.51528050227E+01  0.74356621040E+01  0.51100000000E-03 0.  1.
        -12    1    4    4    0    0 -0.65514344154E+01 -0.71307522972E+01 -0.30193893771E+01  0.10143255564E+02  0.00000000000E+00 0.  1.
</event>
<event>
 8    1  0.4042158E-011  0.9118800E+02  0.7816164E-02  0.1184000E+00
        -11   -1    0    0    0    0  0.00000000000E+00  0.00000000000E+00  0.45593999997E+02  0.45594000000E+02  0.51100000000E-03 0. -1.
         11   -1    0    0    0    0 -0.00000000000E+00 -0.00000000000E+00 -0.45593999997E+02  0.45594000000E+02  0.51100000000E-03 0.  1.
         23    2    1    2    0    0  0.00000000000E+00 -0.17763568394E-14 -0.71054273576E-14  0.91188000000E+02  0.91188000000E+02 0.  0.
    9900012    2    3    3    0    0 -0.15986344685E+02  0.14006794776E+02  0.37840054832E+02  0.47787271135E+02  0.20000000413E+02 0.  0.
        -12    1    3    3    0    0  0.15986344685E+02 -0.14006794776E+02 -0.37840054832E+02  0.43400728865E+02  0.00000000000E+00 0.  1.
         11    1    4    4    0    0 -0.10317409410E+02 -0.10426830414E+01  0.11191695469E+02  0.15257462849E+02  0.51100000000E-03 0. -1.
        -11    1    4    4    0    0 -0.94673981349E+00  0.11915944670E+01  0.10983896880E+02  0.11088832426E+02  0.51100000000E-03 0.  1.
        -12    1    4    4    0    0 -0.47221954617E+01  0.13857883350E+02  0.15664462483E+02  0.21440975859E+02  0.00000000000E+00 0.  1.
</event>
<event>
 8    1  0.4042158E-011  0.9118800E+02  0.7816164E-02  0.1184000E+00
        -11   -1    0    0    0    0  0.00000000000E+00  0.00000000000E+00  0.45593999997E+02  0.45594000000E+02  0.51100000000E-03 0. -1.
         11   -1    0    0    0    0 -0.00000000000E+00 -0.00000000000E+00 -0.45593999997E+02  0.45594000000E+02  0.51100000000E-03 0.  1.
         23    2    1    2    0    0  0.00000000000E+00  0.00000000000E+00  0.00000000000E+00  0.91188000000E+02  0.91188000000E+02 0.  0.
    9900012    2    3    3    0    0 -0.31863908459E+02 -0.14407471329E+02 -0.25704854106E+02  0.47787269395E+02  0.19999992481E+02 0.  0.
         12    1    3    3    0    0  0.31863908459E+02  0.14407471329E+02  0.25704854106E+02  0.43400730605E+02  0.00000000000E+00 0. -1.
         11    1    4    4    0    0  0.13837640805E+01 -0.60298321324E+00  0.60932225969E+00  0.16277793657E+01  0.51100000000E-03 0. -1.
        -11    1    4    4    0    0 -0.48452476635E+01 -0.50630062381E+01 -0.91586929971E+00  0.70674800264E+01  0.51100000000E-03 0.  1.
        -12    1    4    4    0    0 -0.28402424876E+02 -0.87414818782E+01 -0.25398307066E+02  0.39092010003E+02  0.00000000000E+00 0.  1.
</event>
<event>
 8    1  0.4757282E-011  0.9118800E+02  0.7816164E-02  0.1184000E+00
        -11   -1    0    0    0    0  0.00000000000E+00  0.00000000000E+00  0.45593999997E+02  0.45594000000E+02  0.51100000000E-03 0. -1.
         11   -1    0    0    0    0 -0.00000000000E+00 -0.00000000000E+00 -0.45593999997E+02  0.45594000000E+02  0.51100000000E-03 0.  1.
         23    2    1    2    0    0  0.00000000000E+00  0.00000000000E+00  0.00000000000E+00  0.91188000000E+02  0.91188000000E+02 0.  0.
    9900012    2    3    3    0    0 -0.13650966469E+02 -0.36543236986E+02  0.19022788162E+02  0.47787268158E+02  0.19999986842E+02 0.  0.
        -12    1    3    3    0    0  0.13650966469E+02  0.36543236986E+02 -0.19022788162E+02  0.43400731842E+02  0.00000000000E+00 0.  1.
         11    1    4    4    0    0 -0.60845267339E+01 -0.10839812269E+02  0.66945795337E+01  0.14118795664E+02  0.51100000000E-03 0. -1.
        -11    1    4    4    0    0  0.11339456716E+01 -0.55837019087E+00  0.62484311319E+01  0.63749903472E+01  0.51100000000E-03 0.  1.
        -12    1    4    4    0    0 -0.87003854063E+01 -0.25145054526E+02  0.60797774964E+01  0.27293482147E+02  0.00000000000E+00 0.  1.
</event>
<event>
 8    1  0.4042158E-011  0.9118800E+02  0.7816164E-02  0.1184000E+00
        -11   -1    0    0    0    0  0.00000000000E+00  0.00000000000E+00  0.45593999997E+02  0.45594000000E+02  0.51100000000E-03 0. -1.
         11   -1    0    0    0    0 -0.00000000000E+00 -0.00000000000E+00 -0.45593999997E+02  0.45594000000E+02  0.51100000000E-03 0.  1.
         23    2    1    2    0    0  0.00000000000E+00 -0.13322676296E-14  0.00000000000E+00  0.91188000000E+02  0.91188000000E+02 0.  0.
    9900012    2    3    3    0    0 -0.95156344799E+01  0.38528315914E+01  0.42169065174E+02  0.47787289540E+02  0.20000084328E+02 0.  0.
        -12    1    3    3    0    0  0.95156344799E+01 -0.38528315914E+01 -0.42169065174E+02  0.43400710460E+02  0.00000000000E+00 0.  1.
         11    1    4    4    0    0  0.66602313338E+00  0.96169824944E+00 -0.12200348042E+01  0.16902471777E+01  0.51100000000E-03 0.  1.
        -11    1    4    4    0    0 -0.42963828488E+00  0.48127818546E+01  0.80698678161E+01  0.94058612081E+01  0.51100000000E-03 0. -1.
         12    1    4    4    0    0 -0.97520193284E+01 -0.19216485126E+01  0.35319232162E+02  0.36691181154E+02  0.00000000000E+00 0. -1.
</event>
<event>
 8    1  0.4042158E-011  0.9118800E+02  0.7816164E-02  0.1184000E+00
        -11   -1    0    0    0    0  0.00000000000E+00  0.00000000000E+00  0.45593999997E+02  0.45594000000E+02  0.51100000000E-03 0. -1.
         11   -1    0    0    0    0 -0.00000000000E+00 -0.00000000000E+00 -0.45593999997E+02  0.45594000000E+02  0.51100000000E-03 0.  1.
         23    2    1    2    0    0  0.00000000000E+00  0.00000000000E+00  0.00000000000E+00  0.91188000000E+02  0.91188000000E+02 0.  0.
    9900012    2    3    3    0    0  0.12388201832E+02 -0.37983654523E+02  0.16952812702E+02  0.47787269429E+02  0.19999992636E+02 0.  0.
        -12    1    3    3    0    0 -0.12388201832E+02  0.37983654523E+02 -0.16952812702E+02  0.43400730571E+02  0.00000000000E+00 0.  1.
         11    1    4    4    0    0  0.46111585041E+01 -0.33650818506E+02  0.16165136863E+02  0.37615847976E+02  0.51100000000E-03 0. -1.
        -11    1    4    4    0    0  0.97646558973E+00 -0.28326032488E+01  0.11218346972E+01  0.31993186091E+01  0.51100000000E-03 0.  1.
        -12    1    4    4    0    0  0.68005777379E+01 -0.15002327685E+01 -0.33415885855E+00  0.69721028443E+01  0.00000000000E+00 0.  1.
</event>
<event>
 8    1  0.4042158E-011  0.9118800E+02  0.7816164E-02  0.1184000E+00
        -11   -1    0    0    0    0  0.00000000000E+00  0.00000000000E+00  0.45593999997E+02  0.45594000000E+02  0.51100000000E-03 0. -1.
         11   -1    0    0    0    0 -0.00000000000E+00 -0.00000000000E+00 -0.45593999997E+02  0.45594000000E+02  0.51100000000E-03 0.  1.
         23    2    1    2    0    0  0.00000000000E+00  0.17763568394E-14  0.71054273576E-14  0.91188000000E+02  0.91188000000E+02 0.  0.
    9900012    2    3    3    0    0 -0.24475854960E+02  0.13635773469E+02  0.33145461853E+02  0.47787269182E+02  0.19999991508E+02 0.  0.
        -12    1    3    3    0    0  0.24475854960E+02 -0.13635773469E+02 -0.33145461853E+02  0.43400730818E+02  0.00000000000E+00 0.  1.
         11    1    4    4    0    0 -0.96624946771E+01  0.60740357476E+01  0.11465662068E+02  0.16177735335E+02  0.51100000000E-03 0. -1.
        -11    1    4    4    0    0 -0.13229263704E+02  0.10242200395E+02  0.99330943167E+01  0.19457195329E+02  0.51100000000E-03 0.  1.
         12    1    4    4    0    0 -0.15840965784E+01 -0.26804626735E+01  0.11746705468E+02  0.12152338518E+02  0.00000000000E+00 0. -1.
</event>
<event>
 8    1  0.4042158E-011  0.9118800E+02  0.7816164E-02  0.1184000E+00
        -11   -1    0    0    0    0  0.00000000000E+00  0.00000000000E+00  0.45593999997E+02  0.45594000000E+02  0.51100000000E-03 0. -1.
         11   -1    0    0    0    0 -0.00000000000E+00 -0.00000000000E+00 -0.45593999997E+02  0.45594000000E+02  0.51100000000E-03 0.  1.
         23    2    1    2    0    0  0.35527136788E-14  0.00000000000E+00  0.35527136788E-14  0.91188000000E+02  0.91188000000E+02 0.  0.
    9900012    2    3    3    0    0  0.28927458879E+02  0.28138387123E+02  0.15970446897E+02  0.47787287089E+02  0.20000073154E+02 0.  0.
        -12    1    3    3    0    0 -0.28927458879E+02 -0.28138387123E+02 -0.15970446897E+02  0.43400712911E+02  0.00000000000E+00 0.  1.
         11    1    4    4    0    0  0.83454213944E+01  0.43729111313E+01  0.10428338625E+02  0.14054133084E+02  0.51100000000E-03 0. -1.
        -11    1    4    4    0    0  0.36071446034E+01 -0.48492477489E+00  0.10881732928E+01  0.37987847535E+01  0.51100000000E-03 0.  1.
         12    1    4    4    0    0  0.16974892881E+02  0.24250400767E+02  0.44539349792E+01  0.29934369251E+02  0.00000000000E+00 0. -1.
</event>
<event>
 8    1  0.4042158E-011  0.9118800E+02  0.7816164E-02  0.1184000E+00
        -11   -1    0    0    0    0  0.00000000000E+00  0.00000000000E+00  0.45593999997E+02  0.45594000000E+02  0.51100000000E-03 0. -1.
         11   -1    0    0    0    0 -0.00000000000E+00 -0.00000000000E+00 -0.45593999997E+02  0.45594000000E+02  0.51100000000E-03 0.  1.
         23    2    1    2    0    0  0.88817841970E-15  0.33306690739E-15  0.00000000000E+00  0.91188000000E+02  0.91188000000E+02 0.  0.
    9900012    2    3    3    0    0  0.28215135062E+01 -0.39530174192E+00  0.43307113532E+02  0.47787270923E+02  0.19999999447E+02 0.  0.
        -12    1    3    3    0    0 -0.28215135062E+01  0.39530174192E+00 -0.43307113532E+02  0.43400729077E+02  0.00000000000E+00 0.  1.
         11    1    4    4    0    0  0.61760835396E+01  0.21344099817E+01  0.13317964399E+02  0.14834685364E+02  0.51100000000E-03 0. -1.
        -11    1    4    4    0    0  0.19525478525E+01 -0.61957781280E+01  0.97956401241E+01  0.11753921704E+02  0.51100000000E-03 0.  1.
        -12    1    4    4    0    0 -0.53071178859E+01  0.36660664043E+01  0.20193509009E+02  0.21198663855E+02  0.00000000000E+00 0.  1.
</event>
<event>
 8    1  0.4042158E-011  0.9118800E+02  0.7816164E-02  0.1184000E+00
        -11   -1    0    0    0    0  0.00000000000E+00  0.00000000000E+00  0.45593999997E+02  0.45594000000E+02  0.51100000000E-03 0. -1.
         11   -1    0    0    0    0 -0.00000000000E+00 -0.00000000000E+00 -0.45593999997E+02  0.45594000000E+02  0.51100000000E-03 0.  1.
         23    2    1    2    0    0  0.00000000000E+00  0.00000000000E+00  0.00000000000E+00  0.91188000000E+02  0.91188000000E+02 0.  0.
    9900012    2    3    3    0    0 -0.34072174237E+02  0.12352184261E+02  0.23877477922E+02  0.47787268841E+02  0.19999989954E+02 0.  0.
        -12    1    3    3    0    0  0.34072174237E+02 -0.12352184261E+02 -0.23877477922E+02  0.43400731159E+02  0.00000000000E+00 0.  1.
         11    1    4    4    0    0  0.24334223015E+00  0.22461792267E+01 -0.32110270819E+00  0.22820262422E+01  0.51100000000E-03 0.  1.
        -11    1    4    4    0    0 -0.16832212819E+01 -0.29452211053E+01  0.21395102577E+01  0.40106191102E+01  0.51100000000E-03 0. -1.
        -12    1    4    4    0    0 -0.32632295185E+02  0.13051226140E+02  0.22059070372E+02  0.41494623489E+02  0.00000000000E+00 0.  1.
</event>
<event>
 8    1  0.4042158E-011  0.9118800E+02  0.7816164E-02  0.1184000E+00
        -11   -1    0    0    0    0  0.00000000000E+00  0.00000000000E+00  0.45593999997E+02  0.45594000000E+02  0.51100000000E-03 0. -1.
         11   -1    0    0    0    0 -0.00000000000E+00 -0.00000000000E+00 -0.45593999997E+02  0.45594000000E+02  0.51100000000E-03 0.  1.
         23    2    1    2    0    0  0.00000000000E+00  0.00000000000E+00  0.00000000000E+00  0.91188000000E+02  0.91188000000E+02 0.  0.
    9900012    2    3    3    0    0 -0.23418509875E+02  0.26168068937E+01  0.36446522610E+02  0.47787270819E+02  0.19999998972E+02 0.  0.
        -12    1    3    3    0    0  0.23418509875E+02 -0.26168068937E+01 -0.36446522610E+02  0.43400729181E+02  0.00000000000E+00 0.  1.
         11    1    4    4    0    0 -0.94032123279E+01 -0.41628126125E+01  0.11372095659E+02  0.15332122191E+02  0.51100000000E-03 0. -1.
        -11    1    4    4    0    0 -0.14925376318E+01 -0.38435890475E+01  0.60791460022E+01  0.73455334542E+01  0.51100000000E-03 0.  1.
         12    1    4    4    0    0 -0.12522759915E+02  0.10623208554E+02  0.18995280948E+02  0.25109615174E+02  0.00000000000E+00 0. -1.
</event>
<event>
 8    1  0.4042158E-011  0.9118800E+02  0.7816164E-02  0.1184000E+00
        -11   -1    0    0    0    0  0.00000000000E+00  0.00000000000E+00  0.45593999997E+02  0.45594000000E+02  0.51100000000E-03 0.  1.
         11   -1    0    0    0    0 -0.00000000000E+00 -0.00000000000E+00 -0.45593999997E+02  0.45594000000E+02  0.51100000000E-03 0. -1.
         23    2    1    2    0    0  0.00000000000E+00  0.00000000000E+00  0.00000000000E+00  0.91188000000E+02  0.91188000000E+02 0.  0.
    9900012    2    3    3    0    0 -0.36180878754E+02  0.14856737095E+02  0.18810751058E+02  0.47787274432E+02  0.20000015445E+02 0.  0.
        -12    1    3    3    0    0  0.36180878754E+02 -0.14856737095E+02 -0.18810751058E+02  0.43400725568E+02  0.00000000000E+00 0.  1.
         11    1    4    4    0    0 -0.14921450811E+02  0.51954701033E+01  0.85575981488E+00  0.15823240155E+02  0.51100000000E-03 0. -1.
        -11    1    4    4    0    0 -0.97025490130E+01 -0.10552723678E+01  0.29329354077E+01  0.10190935555E+02  0.51100000000E-03 0.  1.
        -12    1    4    4    0    0 -0.11556878930E+02  0.10716539359E+02  0.15022055835E+02  0.21773098722E+02  0.00000000000E+00 0.  1.
</event>
<event>
 8    1  0.4042158E-011  0.9118800E+02  0.7816164E-02  0.1184000E+00
        -11   -1    0    0    0    0  0.00000000000E+00  0.00000000000E+00  0.45593999997E+02  0.45594000000E+02  0.51100000000E-03 0. -1.
         11   -1    0    0    0    0 -0.00000000000E+00 -0.00000000000E+00 -0.45593999997E+02  0.45594000000E+02  0.51100000000E-03 0.  1.
         23    2    1    2    0    0  0.00000000000E+00  0.00000000000E+00  0.00000000000E+00  0.91188000000E+02  0.91188000000E+02 0.  0.
    9900012    2    3    3    0    0 -0.14580806769E+02  0.34474775600E+02 -0.21966187152E+02  0.47787268938E+02  0.19999990394E+02 0.  0.
         12    1    3    3    0    0  0.14580806769E+02 -0.34474775600E+02  0.21966187152E+02  0.43400731062E+02  0.00000000000E+00 0. -1.
         11    1    4    4    0    0 -0.30830384465E+01  0.15948047824E+02 -0.13207861833E+02  0.20935447688E+02  0.51100000000E-03 0.  1.
        -11    1    4    4    0    0 -0.41374284451E+01  0.21939088104E+01 -0.75652698300E+01  0.88974635638E+01  0.51100000000E-03 0. -1.
         12    1    4    4    0    0 -0.73603398778E+01  0.16332818966E+02 -0.11930554896E+01  0.17954357686E+02  0.00000000000E+00 0. -1.
</event>
<event>
 8    1  0.4042158E-011  0.9118800E+02  0.7816164E-02  0.1184000E+00
        -11   -1    0    0    0    0  0.00000000000E+00  0.00000000000E+00  0.45593999997E+02  0.45594000000E+02  0.51100000000E-03 0. -1.
         11   -1    0    0    0    0 -0.00000000000E+00 -0.00000000000E+00 -0.45593999997E+02  0.45594000000E+02  0.51100000000E-03 0.  1.
         23    2    1    2    0    0  0.00000000000E+00  0.88817841970E-15  0.35527136788E-14  0.91188000000E+02  0.91188000000E+02 0.  0.
    9900012    2    3    3    0    0 -0.30107136201E+02  0.21293920471E+01  0.31187318343E+02  0.47787276663E+02  0.20000025618E+02 0.  0.
        -12    1    3    3    0    0  0.30107136201E+02 -0.21293920471E+01 -0.31187318343E+02  0.43400723337E+02  0.00000000000E+00 0.  1.
         11    1    4    4    0    0 -0.56565814262E+01  0.44705732272E+01  0.11761810177E+02  0.13795764470E+02  0.51100000000E-03 0. -1.
        -11    1    4    4    0    0 -0.62180336159E+01  0.40372646146E+01  0.10135594778E+02  0.12557616389E+02  0.51100000000E-03 0.  1.
         12    1    4    4    0    0 -0.18232521159E+02 -0.63784457947E+01  0.92899133884E+01  0.21433895804E+02  0.00000000000E+00 0. -1.
</event>
<event>
 8    1  0.4042158E-011  0.9118800E+02  0.7816164E-02  0.1184000E+00
        -11   -1    0    0    0    0  0.00000000000E+00  0.00000000000E+00  0.45593999997E+02  0.45594000000E+02  0.51100000000E-03 0. -1.
         11   -1    0    0    0    0 -0.00000000000E+00 -0.00000000000E+00 -0.45593999997E+02  0.45594000000E+02  0.51100000000E-03 0.  1.
         23    2    1    2    0    0  0.00000000000E+00  0.00000000000E+00 -0.71054273576E-14  0.91188000000E+02  0.91188000000E+02 0.  0.
    9900012    2    3    3    0    0  0.20217450719E+02  0.67803661995E+01  0.37800862864E+02  0.47787263685E+02  0.19999966447E+02 0.  0.
        -12    1    3    3    0    0 -0.20217450719E+02 -0.67803661995E+01 -0.37800862864E+02  0.43400736315E+02  0.00000000000E+00 0.  1.
         11    1    4    4    0    0  0.78656939670E+01 -0.17990821132E+01  0.16991706183E+02  0.18810207795E+02  0.51100000000E-03 0. -1.
        -11    1    4    4    0    0 -0.15062540903E+01 -0.14122204693E+01  0.60761180940E+01  0.64173498730E+01  0.51100000000E-03 0.  1.
         12    1    4    4    0    0  0.13858010843E+02  0.99916687821E+01  0.14733038587E+02  0.22559706017E+02  0.00000000000E+00 0. -1.
</event>
<event>
 8    1  0.4042158E-011  0.9118800E+02  0.7816164E-02  0.1184000E+00
        -11   -1    0    0    0    0  0.00000000000E+00  0.00000000000E+00  0.45593999997E+02  0.45594000000E+02  0.51100000000E-03 0. -1.
         11   -1    0    0    0    0 -0.00000000000E+00 -0.00000000000E+00 -0.45593999997E+02  0.45594000000E+02  0.51100000000E-03 0.  1.
         23    2    1    2    0    0 -0.35527136788E-14  0.00000000000E+00  0.35527136788E-14  0.91188000000E+02  0.91188000000E+02 0.  0.
    9900012    2    3    3    0    0  0.26823480774E+02  0.16484455481E+02 -0.29872847261E+02  0.47787269628E+02  0.19999993544E+02 0.  0.
         12    1    3    3    0    0 -0.26823480774E+02 -0.16484455481E+02  0.29872847261E+02  0.43400730372E+02  0.00000000000E+00 0. -1.
         11    1    4    4    0    0  0.89897034632E+01  0.66127691237E+01 -0.30713428759E+01  0.11574827479E+02  0.51100000000E-03 0. -1.
        -11    1    4    4    0    0  0.98972367869E+01  0.12542869340E+02 -0.17468242701E+02  0.23673157175E+02  0.51100000000E-03 0.  1.
         12    1    4    4    0    0  0.79365405239E+01 -0.26711829835E+01 -0.93332616843E+01  0.12539284975E+02  0.00000000000E+00 0. -1.
</event>
<event>
 8    1 -0.4042158E-011  0.9118800E+02  0.7816164E-02  0.1184000E+00
        -11   -1    0    0    0    0  0.00000000000E+00  0.00000000000E+00  0.45593999997E+02  0.45594000000E+02  0.51100000000E-03 0.  1.
         11   -1    0    0    0    0 -0.00000000000E+00 -0.00000000000E+00 -0.45593999997E+02  0.45594000000E+02  0.51100000000E-03 0. -1.
         23    2    1    2    0    0  0.71054273576E-14  0.00000000000E+00  0.00000000000E+00  0.91188000000E+02  0.91188000000E+02 0.  0.
    9900012    2    3    3    0    0 -0.42002350040E+02  0.84977447191E+01 -0.68712858986E+01  0.47787266780E+02  0.19999980555E+02 0.  0.
         12    1    3    3    0    0  0.42002350040E+02 -0.84977447191E+01  0.68712858986E+01  0.43400733220E+02  0.00000000000E+00 0. -1.
         11    1    4    4    0    0 -0.25060382041E+02 -0.11227513990E+01  0.57072749440E+00  0.25092011654E+02  0.51100000000E-03 0. -1.
        -11    1    4    4    0    0 -0.32420159163E+01 -0.10084961052E+01 -0.35735508370E+01  0.49292998937E+01  0.51100000000E-03 0.  1.
         12    1    4    4    0    0 -0.13699952083E+02  0.10628992223E+02 -0.38684625560E+01  0.17765955232E+02  0.00000000000E+00 0. -1.
</event>
<event>
 8    1  0.4042158E-011  0.9118800E+02  0.7816164E-02  0.1184000E+00
        -11   -1    0    0    0    0  0.00000000000E+00  0.00000000000E+00  0.45593999997E+02  0.45594000000E+02  0.51100000000E-03 0. -1.
         11   -1    0    0    0    0 -0.00000000000E+00 -0.00000000000E+00 -0.45593999997E+02  0.45594000000E+02  0.51100000000E-03 0.  1.
         23    2    1    2    0    0  0.00000000000E+00  0.00000000000E+00  0.00000000000E+00  0.91188000000E+02  0.91188000000E+02 0.  0.
    9900012    2    3    3    0    0 -0.22081358287E+02  0.31515606561E+01 -0.37230459789E+02  0.47787241315E+02  0.19999864451E+02 0.  0.
         12    1    3    3    0    0  0.22081358287E+02 -0.31515606561E+01  0.37230459789E+02  0.43400758685E+02  0.00000000000E+00 0. -1.
         11    1    4    4    0    0 -0.12780854008E+02 -0.46936627686E+01 -0.11504471375E+02  0.17825082362E+02  0.51100000000E-03 0. -1.
        -11    1    4    4    0    0  0.14037676098E+01 -0.73536155307E+00 -0.19570078741E+01  0.25181739806E+01  0.51100000000E-03 0.  1.
        -12    1    4    4    0    0 -0.10704271889E+02  0.85805849778E+01 -0.23768980540E+02  0.27443984972E+02  0.00000000000E+00 0.  1.
</event>
<event>
 8    1  0.4042158E-011  0.9118800E+02  0.7816164E-02  0.1184000E+00
        -11   -1    0    0    0    0  0.00000000000E+00  0.00000000000E+00  0.45593999997E+02  0.45594000000E+02  0.51100000000E-03 0. -1.
         11   -1    0    0    0    0 -0.00000000000E+00 -0.00000000000E+00 -0.45593999997E+02  0.45594000000E+02  0.51100000000E-03 0.  1.
         23    2    1    2    0    0 -0.35527136788E-14  0.17763568394E-14  0.00000000000E+00  0.91188000000E+02  0.91188000000E+02 0.  0.
    9900012    2    3    3    0    0 -0.24166962216E+02 -0.12824387245E+02 -0.33691488689E+02  0.47787269810E+02  0.19999994372E+02 0.  0.
         12    1    3    3    0    0  0.24166962216E+02  0.12824387245E+02  0.33691488689E+02  0.43400730190E+02  0.00000000000E+00 0. -1.
         11    1    4    4    0    0 -0.22260218616E+01 -0.37370583969E+01 -0.78469834374E+00  0.44200147672E+01  0.51100000000E-03 0. -1.
        -11    1    4    4    0    0 -0.25579475554E+01 -0.32133173773E+01  0.66363147308E+00  0.41603979686E+01  0.51100000000E-03 0.  1.
        -12    1    4    4    0    0 -0.19382992799E+02 -0.58740114703E+01 -0.33570421818E+02  0.39206857074E+02  0.00000000000E+00 0.  1.
</event>
<event>
 8    1  0.4042158E-011  0.9118800E+02  0.7816164E-02  0.1184000E+00
        -11   -1    0    0    0    0  0.00000000000E+00  0.00000000000E+00  0.45593999997E+02  0.45594000000E+02  0.51100000000E-03 0.  1.
         11   -1    0    0    0    0 -0.00000000000E+00 -0.00000000000E+00 -0.45593999997E+02  0.45594000000E+02  0.51100000000E-03 0. -1.
         23    2    1    2    0    0 -0.35527136788E-14  0.35527136788E-14 -0.35527136788E-14  0.91188000000E+02  0.91188000000E+02 0.  0.
    9900012    2    3    3    0    0 -0.20059476366E+02  0.31109394400E+02 -0.22659344502E+02  0.47787275291E+02  0.20000019360E+02 0.  0.
         12    1    3    3    0    0  0.20059476366E+02 -0.31109394400E+02  0.22659344502E+02  0.43400724709E+02  0.00000000000E+00 0. -1.
         11    1    4    4    0    0 -0.22484042830E+01  0.11413469119E+02 -0.14363154367E+02  0.18483040951E+02  0.51100000000E-03 0. -1.
        -11    1    4    4    0    0 -0.36352992168E+01  0.10669780335E+02 -0.26932189542E+01  0.11589350344E+02  0.51100000000E-03 0.  1.
         12    1    4    4    0    0 -0.14175772866E+02  0.90261449466E+01 -0.56029711805E+01  0.17714883996E+02  0.00000000000E+00 0. -1.
</event>
<event>
 8    1  0.4042158E-011  0.9118800E+02  0.7816164E-02  0.1184000E+00
        -11   -1    0    0    0    0  0.00000000000E+00  0.00000000000E+00  0.45593999997E+02  0.45594000000E+02  0.51100000000E-03 0. -1.
         11   -1    0    0    0    0 -0.00000000000E+00 -0.00000000000E+00 -0.45593999997E+02  0.45594000000E+02  0.51100000000E-03 0.  1.
         23    2    1    2    0    0  0.71054273576E-14  0.88817841970E-15  0.00000000000E+00  0.91188000000E+02  0.91188000000E+02 0.  0.
    9900012    2    3    3    0    0 -0.34029245001E+02 -0.64667814521E+01 -0.26149847058E+02  0.47787270988E+02  0.19999999741E+02 0.  0.
         12    1    3    3    0    0  0.34029245001E+02  0.64667814521E+01  0.26149847058E+02  0.43400729012E+02  0.00000000000E+00 0. -1.
         11    1    4    4    0    0 -0.23562210556E+02 -0.79309855615E+01 -0.19148381694E+02  0.31380548434E+02  0.51100000000E-03 0. -1.
        -11    1    4    4    0    0 -0.54942136817E+01 -0.46845770149E+00 -0.91272698646E+01  0.10663624714E+02  0.51100000000E-03 0.  1.
         12    1    4    4    0    0 -0.49728207634E+01  0.19326618109E+01  0.21258045010E+01  0.57430978397E+01  0.00000000000E+00 0. -1.
</event>
<event>
 8    1  0.4042158E-011  0.9118800E+02  0.7816164E-02  0.1184000E+00
        -11   -1    0    0    0    0  0.00000000000E+00  0.00000000000E+00  0.45593999997E+02  0.45594000000E+02  0.51100000000E-03 0. -1.
         11   -1    0    0    0    0 -0.00000000000E+00 -0.00000000000E+00 -0.45593999997E+02  0.45594000000E+02  0.51100000000E-03 0.  1.
         23    2    1    2    0    0  0.35527136788E-14  0.00000000000E+00  0.00000000000E+00  0.91188000000E+02  0.91188000000E+02 0.  0.
    9900012    2    3    3    0    0 -0.16647473229E+02 -0.91113177989E+01 -0.39031639792E+02  0.47787269801E+02  0.19999994329E+02 0.  0.
         12    1    3    3    0    0  0.16647473229E+02  0.91113177989E+01  0.39031639792E+02  0.43400730199E+02  0.00000000000E+00 0. -1.
         11    1    4    4    0    0  0.14147219607E+01 -0.40290828399E+01 -0.10165823883E+02  0.11026283247E+02  0.51100000000E-03 0. -1.
        -11    1    4    4    0    0  0.67283196100E+00 -0.11073907630E+01 -0.92707061280E+01  0.93608231221E+01  0.51100000000E-03 0.  1.
        -12    1    4    4    0    0 -0.18735027151E+02 -0.39748441960E+01 -0.19595109781E+02  0.27400163432E+02  0.00000000000E+00 0.  1.
</event>
<event>
 8    1  0.4042158E-011  0.9118800E+02  0.7816164E-02  0.1184000E+00
        -11   -1    0    0    0    0  0.00000000000E+00  0.00000000000E+00  0.45593999997E+02  0.45594000000E+02  0.51100000000E-03 0. -1.
         11   -1    0    0    0    0 -0.00000000000E+00 -0.00000000000E+00 -0.45593999997E+02  0.45594000000E+02  0.51100000000E-03 0.  1.
         23    2    1    2    0    0  0.00000000000E+00  0.00000000000E+00  0.35527136788E-14  0.91188000000E+02  0.91188000000E+02 0.  0.
    9900012    2    3    3    0    0  0.32432424904E+01 -0.29512394310E+02 -0.31656335356E+02  0.47787267196E+02  0.19999982454E+02 0.  0.
         12    1    3    3    0    0 -0.32432424904E+01  0.29512394310E+02  0.31656335356E+02  0.43400732804E+02  0.00000000000E+00 0. -1.
         11    1    4    4    0    0  0.68454577993E+01 -0.13986313873E+01 -0.57296008962E+01  0.90357506014E+01  0.51100000000E-03 0. -1.
        -11    1    4    4    0    0  0.66414807241E+00 -0.45150794269E+01 -0.62043071319E+01  0.77019778071E+01  0.51100000000E-03 0.  1.
         12    1    4    4    0    0 -0.42663633814E+01 -0.23598683496E+02 -0.19722427328E+02  0.31049538788E+02  0.00000000000E+00 0. -1.
</event>
<event>
 8    1  0.4042158E-011  0.9118800E+02  0.7816164E-02  0.1184000E+00
        -11   -1    0    0    0    0  0.00000000000E+00  0.00000000000E+00  0.45593999997E+02  0.45594000000E+02  0.51100000000E-03 0. -1.
         11   -1    0    0    0    0 -0.00000000000E+00 -0.00000000000E+00 -0.45593999997E+02  0.45594000000E+02  0.51100000000E-03 0.  1.
         23    2    1    2    0    0  0.00000000000E+00 -0.17763568394E-14  0.00000000000E+00  0.91188000000E+02  0.91188000000E+02 0.  0.
    9900012    2    3    3    0    0  0.16782811449E+02 -0.11910293997E+02 -0.38211325330E+02  0.47787271357E+02  0.20000001426E+02 0.  0.
         12    1    3    3    0    0 -0.16782811449E+02  0.11910293997E+02  0.38211325330E+02  0.43400728643E+02  0.00000000000E+00 0. -1.
         11    1    4    4    0    0  0.33607980752E-01 -0.38426989703E+00 -0.87931953935E+01  0.88016520233E+01  0.51100000000E-03 0. -1.
        -11    1    4    4    0    0 -0.18985018108E+01  0.20574517800E+00 -0.81246205668E+01  0.83460229942E+01  0.51100000000E-03 0.  1.
        -12    1    4    4    0    0  0.18647705279E+02 -0.11731769277E+02 -0.21293509370E+02  0.30639596340E+02  0.00000000000E+00 0.  1.
</event>
<event>
 8    1  0.4042158E-011  0.9118800E+02  0.7816164E-02  0.1184000E+00
        -11   -1    0    0    0    0  0.00000000000E+00  0.00000000000E+00  0.45593999997E+02  0.45594000000E+02  0.51100000000E-03 0.  1.
         11   -1    0    0    0    0 -0.00000000000E+00 -0.00000000000E+00 -0.45593999997E+02  0.45594000000E+02  0.51100000000E-03 0. -1.
         23    2    1    2    0    0  0.00000000000E+00  0.00000000000E+00  0.00000000000E+00  0.91188000000E+02  0.91188000000E+02 0.  0.
    9900012    2    3    3    0    0  0.16119632364E+02  0.40094393670E+02  0.40273929326E+01  0.47787275984E+02  0.20000022519E+02 0.  0.
        -12    1    3    3    0    0 -0.16119632364E+02 -0.40094393670E+02 -0.40273929326E+01  0.43400724016E+02  0.00000000000E+00 0.  1.
         11    1    4    4    0    0  0.15840762642E+01  0.39451373361E+01  0.36177744658E+01  0.55822664356E+01  0.51100000000E-03 0. -1.
        -11    1    4    4    0    0  0.65183149749E+01  0.16556726176E+01 -0.79075520717E+00  0.67716302312E+01  0.51100000000E-03 0.  1.
        -12    1    4    4    0    0  0.80172411250E+01  0.34493583716E+02  0.12003736739E+01  0.35433379317E+02  0.00000000000E+00 0.  1.
</event>
<event>
 8    1  0.4042158E-011  0.9118800E+02  0.7816164E-02  0.1184000E+00
        -11   -1    0    0    0    0  0.00000000000E+00  0.00000000000E+00  0.45593999997E+02  0.45594000000E+02  0.51100000000E-03 0. -1.
         11   -1    0    0    0    0 -0.00000000000E+00 -0.00000000000E+00 -0.45593999997E+02  0.45594000000E+02  0.51100000000E-03 0.  1.
         23    2    1    2    0    0 -0.35527136788E-14  0.00000000000E+00 -0.35527136788E-14  0.91188000000E+02  0.91188000000E+02 0.  0.
    9900012    2    3    3    0    0  0.25126806329E+02 -0.26175983477E+02  0.23813539045E+02  0.47787272481E+02  0.20000006551E+02 0.  0.
        -12    1    3    3    0    0 -0.25126806329E+02  0.26175983477E+02 -0.23813539045E+02  0.43400727519E+02  0.00000000000E+00 0.  1.
         11    1    4    4    0    0  0.19593504673E+02 -0.10505369615E+02  0.18555078392E+02  0.28957885809E+02  0.51100000000E-03 0. -1.
        -11    1    4    4    0    0  0.38081324760E+01 -0.30271472152E+01 -0.37795973038E+00  0.48793797798E+01  0.51100000000E-03 0.  1.
        -12    1    4    4    0    0  0.17251691798E+01 -0.12643466647E+02  0.56364203835E+01  0.13950006892E+02  0.00000000000E+00 0.  1.
</event>
<event>
 8    1  0.4042158E-011  0.9118800E+02  0.7816164E-02  0.1184000E+00
        -11   -1    0    0    0    0  0.00000000000E+00  0.00000000000E+00  0.45593999997E+02  0.45594000000E+02  0.51100000000E-03 0. -1.
         11   -1    0    0    0    0 -0.00000000000E+00 -0.00000000000E+00 -0.45593999997E+02  0.45594000000E+02  0.51100000000E-03 0.  1.
         23    2    1    2    0    0 -0.88817841970E-15  0.00000000000E+00  0.00000000000E+00  0.91188000000E+02  0.91188000000E+02 0.  0.
    9900012    2    3    3    0    0 -0.74605861697E+01  0.39430888970E+02  0.16527692042E+02  0.47787309277E+02  0.20000174317E+02 0.  0.
        -12    1    3    3    0    0  0.74605861697E+01 -0.39430888970E+02 -0.16527692042E+02  0.43400690723E+02  0.00000000000E+00 0.  1.
         11    1    4    4    0    0 -0.43028747009E+00  0.60899135311E+01  0.48998734010E+01  0.78282152327E+01  0.51100000000E-03 0. -1.
        -11    1    4    4    0    0  0.91358079412E+00 -0.62825194270E+00 -0.21755641061E+01  0.24418046220E+01  0.51100000000E-03 0.  1.
        -12    1    4    4    0    0 -0.79438794937E+01  0.33969227382E+02  0.13803382747E+02  0.37517289422E+02  0.00000000000E+00 0.  1.
</event>
<event>
 8    1  0.4042158E-011  0.9118800E+02  0.7816164E-02  0.1184000E+00
        -11   -1    0    0    0    0  0.00000000000E+00  0.00000000000E+00  0.45593999997E+02  0.45594000000E+02  0.51100000000E-03 0.  1.
         11   -1    0    0    0    0 -0.00000000000E+00 -0.00000000000E+00 -0.45593999997E+02  0.45594000000E+02  0.51100000000E-03 0. -1.
         23    2    1    2    0    0 -0.71054273576E-14  0.00000000000E+00 -0.35527136788E-14  0.91188000000E+02  0.91188000000E+02 0.  0.
    9900012    2    3    3    0    0  0.34352878625E+02  0.13896218139E+02  0.22591990595E+02  0.47787272041E+02  0.20000004542E+02 0.  0.
        -12    1    3    3    0    0 -0.34352878625E+02 -0.13896218139E+02 -0.22591990595E+02  0.43400727959E+02  0.00000000000E+00 0.  1.
         11    1    4    4    0    0  0.10504924470E+02  0.31167449021E+01  0.64655229821E+00  0.10976591777E+02  0.51100000000E-03 0. -1.
        -11    1    4    4    0    0  0.23459401828E+02  0.12327215992E+02  0.16690875181E+02  0.31319149139E+02  0.51100000000E-03 0.  1.
         12    1    4    4    0    0  0.38855232648E+00 -0.15477427555E+01  0.52545631157E+01  0.54915311239E+01  0.00000000000E+00 0. -1.
</event>
<event>
 8    1  0.4042158E-011  0.9118800E+02  0.7816164E-02  0.1184000E+00
        -11   -1    0    0    0    0  0.00000000000E+00  0.00000000000E+00  0.45593999997E+02  0.45594000000E+02  0.51100000000E-03 0. -1.
         11   -1    0    0    0    0 -0.00000000000E+00 -0.00000000000E+00 -0.45593999997E+02  0.45594000000E+02  0.51100000000E-03 0.  1.
         23    2    1    2    0    0  0.35527136788E-14  0.00000000000E+00  0.00000000000E+00  0.91188000000E+02  0.91188000000E+02 0.  0.
    9900012    2    3    3    0    0 -0.22389625526E+02  0.46650150203E+01 -0.36885873707E+02  0.47787246833E+02  0.19999889611E+02 0.  0.
         12    1    3    3    0    0  0.22389625526E+02 -0.46650150203E+01  0.36885873707E+02  0.43400753167E+02  0.00000000000E+00 0. -1.
         11    1    4    4    0    0  0.21789361694E+01 -0.23616399213E+01 -0.10613920855E+02  0.11089653833E+02  0.51100000000E-03 0. -1.
        -11    1    4    4    0    0 -0.59831475262E+01  0.99561569332E+00 -0.68065332731E+01  0.91169183603E+01  0.51100000000E-03 0.  1.
         12    1    4    4    0    0 -0.18585414169E+02  0.60310392482E+01 -0.19465419578E+02  0.27580674640E+02  0.00000000000E+00 0. -1.
</event>
<event>
 8    1  0.4042158E-011  0.9118800E+02  0.7816164E-02  0.1184000E+00
        -11   -1    0    0    0    0  0.00000000000E+00  0.00000000000E+00  0.45593999997E+02  0.45594000000E+02  0.51100000000E-03 0. -1.
         11   -1    0    0    0    0 -0.00000000000E+00 -0.00000000000E+00 -0.45593999997E+02  0.45594000000E+02  0.51100000000E-03 0.  1.
         23    2    1    2    0    0 -0.35527136788E-14 -0.17763568394E-14  0.71054273576E-14  0.91188000000E+02  0.91188000000E+02 0.  0.
    9900012    2    3    3    0    0 -0.14371967836E+02  0.96777953886E+01  0.39792090432E+02  0.47787266780E+02  0.19999980557E+02 0.  0.
        -12    1    3    3    0    0  0.14371967836E+02 -0.96777953886E+01 -0.39792090432E+02  0.43400733220E+02  0.00000000000E+00 0.  1.
         11    1    4    4    0    0 -0.67077858931E+01  0.71107341195E+00  0.23500536309E+02  0.24449442203E+02  0.51100000000E-03 0. -1.
        -11    1    4    4    0    0 -0.57108647809E+01 -0.13325422673E+01  0.36175249623E+01  0.68902926319E+01  0.51100000000E-03 0.  1.
        -12    1    4    4    0    0 -0.19533171624E+01  0.10299264244E+02  0.12674029161E+02  0.16447531945E+02  0.00000000000E+00 0.  1.
</event>
<event>
 8    1  0.4042158E-011  0.9118800E+02  0.7816164E-02  0.1184000E+00
        -11   -1    0    0    0    0  0.00000000000E+00  0.00000000000E+00  0.45593999997E+02  0.45594000000E+02  0.51100000000E-03 0. -1.
         11   -1    0    0    0    0 -0.00000000000E+00 -0.00000000000E+00 -0.45593999997E+02  0.45594000000E+02  0.51100000000E-03 0.  1.
         23    2    1    2    0    0  0.00000000000E+00  0.17763568394E-14  0.00000000000E+00  0.91188000000E+02  0.91188000000E+02 0.  0.
    9900012    2    3    3    0    0 -0.12183763735E+02 -0.94869283699E+01 -0.40560783396E+02  0.47787273528E+02  0.20000011322E+02 0.  0.
         12    1    3    3    0    0  0.12183763735E+02  0.94869283699E+01  0.40560783396E+02  0.43400726472E+02  0.00000000000E+00 0. -1.
         11    1    4    4    0    0  0.19124779855E+01 -0.69537769274E+01 -0.14974044774E+02  0.16620306939E+02  0.51100000000E-03 0. -1.
        -11    1    4    4    0    0 -0.23869036449E+01 -0.75767184963E+00  0.46730219712E+00  0.25474982328E+01  0.51100000000E-03 0.  1.
        -12    1    4    4    0    0 -0.11709338076E+02 -0.17754795929E+01 -0.26054040819E+02  0.28619468356E+02  0.00000000000E+00 0.  1.
</event>
<event>
 8    1  0.4042158E-011  0.9118800E+02  0.7816164E-02  0.1184000E+00
        -11   -1    0    0    0    0  0.00000000000E+00  0.00000000000E+00  0.45593999997E+02  0.45594000000E+02  0.51100000000E-03 0. -1.
         11   -1    0    0    0    0 -0.00000000000E+00 -0.00000000000E+00 -0.45593999997E+02  0.45594000000E+02  0.51100000000E-03 0.  1.
         23    2    1    2    0    0  0.44408920985E-15  0.00000000000E+00  0.00000000000E+00  0.91188000000E+02  0.91188000000E+02 0.  0.
    9900012    2    3    3    0    0 -0.29526522825E+01  0.14924880806E+02 -0.40646689934E+02  0.47787266997E+02  0.19999981548E+02 0.  0.
         12    1    3    3    0    0  0.29526522825E+01 -0.14924880806E+02  0.40646689934E+02  0.43400733003E+02  0.00000000000E+00 0. -1.
         11    1    4    4    0    0  0.62513081132E+01  0.52734221347E+01 -0.12505705851E+02  0.14942573849E+02  0.51100000000E-03 0. -1.
        -11    1    4    4    0    0 -0.24347072074E+00 -0.19946043832E+01 -0.18778262506E+01  0.27502647738E+01  0.51100000000E-03 0.  1.
         12    1    4    4    0    0 -0.89604896749E+01  0.11646063055E+02 -0.26263157832E+02  0.30094428375E+02  0.00000000000E+00 0. -1.
</event>
<event>
 8    1  0.4042158E-011  0.9118800E+02  0.7816164E-02  0.1184000E+00
        -11   -1    0    0    0    0  0.00000000000E+00  0.00000000000E+00  0.45593999997E+02  0.45594000000E+02  0.51100000000E-03 0. -1.
         11   -1    0    0    0    0 -0.00000000000E+00 -0.00000000000E+00 -0.45593999997E+02  0.45594000000E+02  0.51100000000E-03 0.  1.
         23    2    1    2    0    0  0.44408920985E-15  0.17763568394E-14  0.00000000000E+00  0.91188000000E+02  0.91188000000E+02 0.  0.
    9900012    2    3    3    0    0 -0.35067003576E+01  0.14353934969E+02  0.40807915605E+02  0.47787327511E+02  0.20000257452E+02 0.  0.
        -12    1    3    3    0    0  0.35067003576E+01 -0.14353934969E+02 -0.40807915605E+02  0.43400672489E+02  0.00000000000E+00 0.  1.
         11    1    4    4    0    0  0.72566328408E+00  0.67664322763E+01  0.78672401398E+01  0.10402146924E+02  0.51100000000E-03 0. -1.
        -11    1    4    4    0    0  0.43598475844E+00  0.11455896796E+02  0.23791233199E+02  0.26409286842E+02  0.51100000000E-03 0.  1.
         12    1    4    4    0    0 -0.46683484001E+01 -0.38683941032E+01  0.91494422658E+01  0.10975893745E+02  0.00000000000E+00 0. -1.
</event>
<event>
 8    1  0.4042158E-011  0.9118800E+02  0.7816164E-02  0.1184000E+00
        -11   -1    0    0    0    0  0.00000000000E+00  0.00000000000E+00  0.45593999997E+02  0.45594000000E+02  0.51100000000E-03 0. -1.
         11   -1    0    0    0    0 -0.00000000000E+00 -0.00000000000E+00 -0.45593999997E+02  0.45594000000E+02  0.51100000000E-03 0.  1.
         23    2    1    2    0    0  0.00000000000E+00 -0.35527136788E-14  0.00000000000E+00  0.91188000000E+02  0.91188000000E+02 0.  0.
    9900012    2    3    3    0    0  0.28565665716E+02  0.19303045743E+02  0.26363209819E+02  0.47787266542E+02  0.19999979473E+02 0.  0.
        -12    1    3    3    0    0 -0.28565665716E+02 -0.19303045743E+02 -0.26363209819E+02  0.43400733458E+02  0.00000000000E+00 0.  1.
         11    1    4    4    0    0  0.15376937623E+02  0.14124813121E+02  0.21268389411E+02  0.29804445050E+02  0.51100000000E-03 0. -1.
        -11    1    4    4    0    0  0.14560263185E+02  0.34400257856E+01  0.49705044263E+01  0.15765181761E+02  0.51100000000E-03 0.  1.
        -12    1    4    4    0    0 -0.13715350925E+01  0.17382068365E+01  0.12431598158E+00  0.22176397317E+01  0.00000000000E+00 0.  1.
</event>
<event>
 8    1  0.4042158E-011  0.9118800E+02  0.7816164E-02  0.1184000E+00
        -11   -1    0    0    0    0  0.00000000000E+00  0.00000000000E+00  0.45593999997E+02  0.45594000000E+02  0.51100000000E-03 0. -1.
         11   -1    0    0    0    0 -0.00000000000E+00 -0.00000000000E+00 -0.45593999997E+02  0.45594000000E+02  0.51100000000E-03 0.  1.
         23    2    1    2    0    0  0.00000000000E+00  0.00000000000E+00  0.00000000000E+00  0.91188000000E+02  0.91188000000E+02 0.  0.
    9900012    2    3    3    0    0  0.96182101969E+01  0.29749366829E+02 -0.30101353503E+02  0.47787236448E+02  0.19999842261E+02 0.  0.
         12    1    3    3    0    0 -0.96182101969E+01 -0.29749366829E+02  0.30101353503E+02  0.43400763552E+02  0.00000000000E+00 0. -1.
         11    1    4    4    0    0  0.56541395736E+01  0.33566272685E+01 -0.34900821353E+01  0.74442537913E+01  0.51100000000E-03 0. -1.
        -11    1    4    4    0    0  0.10035130544E+01  0.25531985777E+00  0.15136915671E+01  0.18339817615E+01  0.51100000000E-03 0.  1.
        -12    1    4    4    0    0  0.29605575689E+01  0.26137419703E+02 -0.28124962935E+02  0.38509000895E+02  0.00000000000E+00 0.  1.
</event>
<event>
 8    1  0.4042158E-011  0.9118800E+02  0.7816164E-02  0.1184000E+00
        -11   -1    0    0    0    0  0.00000000000E+00  0.00000000000E+00  0.45593999997E+02  0.45594000000E+02  0.51100000000E-03 0.  1.
         11   -1    0    0    0    0 -0.00000000000E+00 -0.00000000000E+00 -0.45593999997E+02  0.45594000000E+02  0.51100000000E-03 0. -1.
         23    2    1    2    0    0  0.00000000000E+00  0.00000000000E+00  0.17763568394E-14  0.91188000000E+02  0.91188000000E+02 0.  0.
    9900012    2    3    3    0    0  0.38729807774E+02  0.16681752265E+02 -0.10263716578E+02  0.47787277116E+02  0.20000027682E+02 0.  0.
        -12    1    3    3    0    0 -0.38729807774E+02 -0.16681752265E+02  0.10263716578E+02  0.43400722884E+02  0.00000000000E+00 0.  1.
         11    1    4    4    0    0  0.17402320915E+02  0.37813707448E+01 -0.82354840238E+01  0.19620467255E+02  0.51100000000E-03 0. -1.
        -11    1    4    4    0    0  0.97573046977E+01  0.37204161116E+01 -0.70127889483E+01  0.12578779754E+02  0.51100000000E-03 0.  1.
         12    1    4    4    0    0  0.11570182162E+02  0.91799654086E+01  0.49845563945E+01  0.15588030107E+02  0.00000000000E+00 0. -1.
</event>
<event>
 8    1  0.4042158E-011  0.9118800E+02  0.7816164E-02  0.1184000E+00
        -11   -1    0    0    0    0  0.00000000000E+00  0.00000000000E+00  0.45593999997E+02  0.45594000000E+02  0.51100000000E-03 0. -1.
         11   -1    0    0    0    0 -0.00000000000E+00 -0.00000000000E+00 -0.45593999997E+02  0.45594000000E+02  0.51100000000E-03 0.  1.
         23    2    1    2    0    0  0.71054273576E-14  0.00000000000E+00  0.00000000000E+00  0.91188000000E+02  0.91188000000E+02 0.  0.
    9900012    2    3    3    0    0 -0.33048971804E+02 -0.98413704143E+01 -0.26354057222E+02  0.47787269119E+02  0.19999991222E+02 0.  0.
         12    1    3    3    0    0  0.33048971804E+02  0.98413704143E+01  0.26354057222E+02  0.43400730881E+02  0.00000000000E+00 0. -1.
         11    1    4    4    0    0 -0.18773747925E+02 -0.79809921791E+01 -0.17539369147E+02  0.26903146984E+02  0.51100000000E-03 0. -1.
        -11    1    4    4    0    0 -0.10869226395E+02  0.34851323981E+01 -0.90112799862E+01  0.14542675046E+02  0.51100000000E-03 0.  1.
         12    1    4    4    0    0 -0.34059974848E+01 -0.53455106332E+01  0.19659191185E+00  0.63414470885E+01  0.00000000000E+00 0. -1.
</event>
<event>
 8    1  0.4042158E-011  0.9118800E+02  0.7816164E-02  0.1184000E+00
        -11   -1    0    0    0    0  0.00000000000E+00  0.00000000000E+00  0.45593999997E+02  0.45594000000E+02  0.51100000000E-03 0. -1.
         11   -1    0    0    0    0 -0.00000000000E+00 -0.00000000000E+00 -0.45593999997E+02  0.45594000000E+02  0.51100000000E-03 0.  1.
         23    2    1    2    0    0  0.00000000000E+00 -0.71054273576E-14  0.35527136788E-14  0.91188000000E+02  0.91188000000E+02 0.  0.
    9900012    2    3    3    0    0 -0.16397313827E+02 -0.32649653212E+02  0.23425440999E+02  0.47787273720E+02  0.20000012199E+02 0.  0.
        -12    1    3    3    0    0  0.16397313827E+02  0.32649653212E+02 -0.23425440999E+02  0.43400726280E+02  0.00000000000E+00 0.  1.
         11    1    4    4    0    0 -0.18035316023E+02 -0.20240220647E+02  0.15544404001E+02  0.31250082430E+02  0.51100000000E-03 0. -1.
        -11    1    4    4    0    0 -0.21671935447E+01 -0.87436766512E+01  0.34671447172E+01  0.96524453892E+01  0.51100000000E-03 0.  1.
        -12    1    4    4    0    0  0.38051957408E+01 -0.36657559144E+01  0.44138922808E+01  0.68847459006E+01  0.00000000000E+00 0.  1.
</event>
<event>
 8    1  0.4042158E-011  0.9118800E+02  0.7816164E-02  0.1184000E+00
        -11   -1    0    0    0    0  0.00000000000E+00  0.00000000000E+00  0.45593999997E+02  0.45594000000E+02  0.51100000000E-03 0. -1.
         11   -1    0    0    0    0 -0.00000000000E+00 -0.00000000000E+00 -0.45593999997E+02  0.45594000000E+02  0.51100000000E-03 0.  1.
         23    2    1    2    0    0  0.00000000000E+00  0.22204460493E-15  0.17763568394E-14  0.91188000000E+02  0.91188000000E+02 0.  0.
    9900012    2    3    3    0    0 -0.40444703783E+02  0.92173721762E+00  0.15716289392E+02  0.47787246368E+02  0.19999887491E+02 0.  0.
        -12    1    3    3    0    0  0.40444703783E+02 -0.92173721762E+00 -0.15716289392E+02  0.43400753632E+02  0.00000000000E+00 0.  1.
         11    1    4    4    0    0 -0.44265017890E+01 -0.97960759515E+00  0.10324676111E+01  0.46496815759E+01  0.51100000000E-03 0. -1.
        -11    1    4    4    0    0 -0.10349739546E+02 -0.37535377709E+00 -0.42146154567E+01  0.11181278229E+02  0.51100000000E-03 0.  1.
         12    1    4    4    0    0 -0.25668462448E+02  0.22766985899E+01  0.18898437237E+02  0.31956286564E+02  0.00000000000E+00 0. -1.
</event>
<event>
 8    1  0.4042158E-011  0.9118800E+02  0.7816164E-02  0.1184000E+00
        -11   -1    0    0    0    0  0.00000000000E+00  0.00000000000E+00  0.45593999997E+02  0.45594000000E+02  0.51100000000E-03 0. -1.
         11   -1    0    0    0    0 -0.00000000000E+00 -0.00000000000E+00 -0.45593999997E+02  0.45594000000E+02  0.51100000000E-03 0.  1.
         23    2    1    2    0    0  0.17763568394E-14 -0.35527136788E-14  0.35527136788E-14  0.91188000000E+02  0.91188000000E+02 0.  0.
    9900012    2    3    3    0    0  0.14487426050E+02 -0.26372878344E+02  0.31276365280E+02  0.47787248269E+02  0.19999896158E+02 0.  0.
        -12    1    3    3    0    0 -0.14487426050E+02  0.26372878344E+02 -0.31276365280E+02  0.43400751731E+02  0.00000000000E+00 0.  1.
         11    1    4    4    0    0  0.64326119535E+01 -0.15123633984E+02  0.22435820745E+02  0.27811308027E+02  0.51100000000E-03 0. -1.
        -11    1    4    4    0    0  0.93835310212E-01 -0.95765301899E+01  0.62608345551E+01  0.11441887306E+02  0.51100000000E-03 0.  1.
        -12    1    4    4    0    0  0.79609787862E+01 -0.16727141702E+01  0.25797099797E+01  0.85340529357E+01  0.00000000000E+00 0.  1.
</event>
<event>
 8    1  0.4042158E-011  0.9118800E+02  0.7816164E-02  0.1184000E+00
        -11   -1    0    0    0    0  0.00000000000E+00  0.00000000000E+00  0.45593999997E+02  0.45594000000E+02  0.51100000000E-03 0. -1.
         11   -1    0    0    0    0 -0.00000000000E+00 -0.00000000000E+00 -0.45593999997E+02  0.45594000000E+02  0.51100000000E-03 0.  1.
         23    2    1    2    0    0  0.00000000000E+00  0.00000000000E+00  0.00000000000E+00  0.91188000000E+02  0.91188000000E+02 0.  0.
    9900012    2    3    3    0    0  0.62278774878E+01  0.26123613855E+02 -0.34093896688E+02  0.47787269013E+02  0.19999990739E+02 0.  0.
         12    1    3    3    0    0 -0.62278774878E+01 -0.26123613855E+02  0.34093896688E+02  0.43400730987E+02  0.00000000000E+00 0. -1.
         11    1    4    4    0    0 -0.22941830946E+01  0.19923038108E+01 -0.13217692153E+01  0.33135516694E+01  0.51100000000E-03 0. -1.
        -11    1    4    4    0    0 -0.98172083808E+00  0.37934184058E+01 -0.15942148080E+02  0.16416634389E+02  0.51100000000E-03 0.  1.
         12    1    4    4    0    0  0.95037814204E+01  0.20337891638E+02 -0.16829979393E+02  0.28057082955E+02  0.00000000000E+00 0. -1.
</event>
<event>
 8    1  0.4042158E-011  0.9118800E+02  0.7816164E-02  0.1184000E+00
        -11   -1    0    0    0    0  0.00000000000E+00  0.00000000000E+00  0.45593999997E+02  0.45594000000E+02  0.51100000000E-03 0. -1.
         11   -1    0    0    0    0 -0.00000000000E+00 -0.00000000000E+00 -0.45593999997E+02  0.45594000000E+02  0.51100000000E-03 0.  1.
         23    2    1    2    0    0  0.38857805862E-15  0.00000000000E+00  0.00000000000E+00  0.91188000000E+02  0.91188000000E+02 0.  0.
    9900012    2    3    3    0    0 -0.43680055149E+00  0.28227404119E+02  0.32964321842E+02  0.47787266682E+02  0.19999980108E+02 0.  0.
        -12    1    3    3    0    0  0.43680055149E+00 -0.28227404119E+02 -0.32964321842E+02  0.43400733318E+02  0.00000000000E+00 0.  1.
         11    1    4    4    0    0  0.29070251274E+01  0.55769320962E+01  0.13342290734E+02  0.14750243692E+02  0.51100000000E-03 0. -1.
        -11    1    4    4    0    0  0.41671114136E+01  0.84891263492E+01  0.12024839183E+02  0.15297935852E+02  0.51100000000E-03 0.  1.
        -12    1    4    4    0    0 -0.75109370924E+01  0.14161345674E+02  0.75971919261E+01  0.17739087137E+02  0.00000000000E+00 0.  1.
</event>
<event>
 8    1  0.4042158E-011  0.9118800E+02  0.7816164E-02  0.1184000E+00
        -11   -1    0    0    0    0  0.00000000000E+00  0.00000000000E+00  0.45593999997E+02  0.45594000000E+02  0.51100000000E-03 0. -1.
         11   -1    0    0    0    0 -0.00000000000E+00 -0.00000000000E+00 -0.45593999997E+02  0.45594000000E+02  0.51100000000E-03 0.  1.
         23    2    1    2    0    0  0.00000000000E+00  0.00000000000E+00  0.00000000000E+00  0.91188000000E+02  0.91188000000E+02 0.  0.
    9900012    2    3    3    0    0 -0.20774010451E+02 -0.31878998266E+02  0.20875667760E+02  0.47787267920E+02  0.19999985756E+02 0.  0.
        -12    1    3    3    0    0  0.20774010451E+02  0.31878998266E+02 -0.20875667760E+02  0.43400732080E+02  0.00000000000E+00 0.  1.
         11    1    4    4    0    0 -0.77649598895E+01 -0.15545856692E+02  0.12112370887E+02  0.21182015748E+02  0.51100000000E-03 0.  1.
        -11    1    4    4    0    0 -0.56885977105E+00 -0.10580198458E+02  0.72001340850E+01  0.12810391561E+02  0.51100000000E-03 0. -1.
        -12    1    4    4    0    0 -0.12440190790E+02 -0.57529431158E+01  0.15631627880E+01  0.13794860612E+02  0.00000000000E+00 0.  1.
</event>
<event>
 8    1  0.4042158E-011  0.9118800E+02  0.7816164E-02  0.1184000E+00
        -11   -1    0    0    0    0  0.00000000000E+00  0.00000000000E+00  0.45593999997E+02  0.45594000000E+02  0.51100000000E-03 0.  1.
         11   -1    0    0    0    0 -0.00000000000E+00 -0.00000000000E+00 -0.45593999997E+02  0.45594000000E+02  0.51100000000E-03 0. -1.
         23    2    1    2    0    0  0.00000000000E+00  0.00000000000E+00  0.00000000000E+00  0.91188000000E+02  0.91188000000E+02 0.  0.
    9900012    2    3    3    0    0  0.25226287526E+02  0.35271765541E+02 -0.17777907953E+01  0.47787267670E+02  0.19999984612E+02 0.  0.
        -12    1    3    3    0    0 -0.25226287526E+02 -0.35271765541E+02  0.17777907953E+01  0.43400732330E+02  0.00000000000E+00 0.  1.
         11    1    4    4    0    0  0.18335284348E+02  0.10312056102E+02 -0.98590741789E+00  0.21059277453E+02  0.51100000000E-03 0. -1.
        -11    1    4    4    0    0  0.20782843998E+01  0.13514313990E+01  0.73533503519E+00  0.25857978939E+01  0.51100000000E-03 0.  1.
         12    1    4    4    0    0  0.48127187784E+01  0.23608278040E+02 -0.15272184126E+01  0.24142192322E+02  0.00000000000E+00 0. -1.
</event>
<event>
 8    1  0.4042158E-011  0.9118800E+02  0.7816164E-02  0.1184000E+00
        -11   -1    0    0    0    0  0.00000000000E+00  0.00000000000E+00  0.45593999997E+02  0.45594000000E+02  0.51100000000E-03 0. -1.
         11   -1    0    0    0    0 -0.00000000000E+00 -0.00000000000E+00 -0.45593999997E+02  0.45594000000E+02  0.51100000000E-03 0.  1.
         23    2    1    2    0    0  0.00000000000E+00  0.00000000000E+00  0.71054273576E-14  0.91188000000E+02  0.91188000000E+02 0.  0.
    9900012    2    3    3    0    0  0.86302738539E+01  0.24246829625E+02  0.34946144883E+02  0.47787269409E+02  0.19999992544E+02 0.  0.
        -12    1    3    3    0    0 -0.86302738539E+01 -0.24246829625E+02 -0.34946144883E+02  0.43400730591E+02  0.00000000000E+00 0.  1.
         11    1    4    4    0    0  0.13561997179E+01  0.88008240042E+01  0.61832691235E+01  0.10840968506E+02  0.51100000000E-03 0. -1.
        -11    1    4    4    0    0 -0.54955896654E+00  0.28881959956E+01 -0.14701287969E+01  0.32870914358E+01  0.51100000000E-03 0.  1.
         12    1    4    4    0    0  0.78236331026E+01  0.12557809625E+02  0.30233004556E+02  0.33659209468E+02  0.00000000000E+00 0. -1.
</event>
<event>
 8    1  0.4042158E-011  0.9118800E+02  0.7816164E-02  0.1184000E+00
        -11   -1    0    0    0    0  0.00000000000E+00  0.00000000000E+00  0.45593999997E+02  0.45594000000E+02  0.51100000000E-03 0. -1.
         11   -1    0    0    0    0 -0.00000000000E+00 -0.00000000000E+00 -0.45593999997E+02  0.45594000000E+02  0.51100000000E-03 0.  1.
         23    2    1    2    0    0  0.66613381478E-15  0.00000000000E+00  0.00000000000E+00  0.91188000000E+02  0.91188000000E+02 0.  0.
    9900012    2    3    3    0    0 -0.19324271219E+01  0.13621792425E+02 -0.41162310345E+02  0.47787270785E+02  0.19999998818E+02 0.  0.
         12    1    3    3    0    0  0.19324271219E+01 -0.13621792425E+02  0.41162310345E+02  0.43400729215E+02  0.00000000000E+00 0. -1.
         11    1    4    4    0    0 -0.19380193102E+00  0.63074800853E+01 -0.20124783113E+02  0.21090963938E+02  0.51100000000E-03 0. -1.
        -11    1    4    4    0    0  0.49003004649E+01  0.21920012922E+01 -0.16086188384E+02  0.16958280317E+02  0.51100000000E-03 0.  1.
         12    1    4    4    0    0 -0.66389256558E+01  0.51223110473E+01 -0.49513388479E+01  0.97380265308E+01  0.00000000000E+00 0. -1.
</event>
<event>
 8    1  0.4042158E-011  0.9118800E+02  0.7816164E-02  0.1184000E+00
        -11   -1    0    0    0    0  0.00000000000E+00  0.00000000000E+00  0.45593999997E+02  0.45594000000E+02  0.51100000000E-03 0. -1.
         11   -1    0    0    0    0 -0.00000000000E+00 -0.00000000000E+00 -0.45593999997E+02  0.45594000000E+02  0.51100000000E-03 0.  1.
         23    2    1    2    0    0  0.00000000000E+00  0.00000000000E+00  0.00000000000E+00  0.91188000000E+02  0.91188000000E+02 0.  0.
    9900012    2    3    3    0    0  0.15378069750E+02  0.15158945857E+02 -0.37647630827E+02  0.47787276785E+02  0.20000026172E+02 0.  0.
         12    1    3    3    0    0 -0.15378069750E+02 -0.15158945857E+02  0.37647630827E+02  0.43400723215E+02  0.00000000000E+00 0. -1.
         11    1    4    4    0    0  0.36291625763E+01 -0.66747995728E+00  0.21316914403E+00  0.36961861214E+01  0.51100000000E-03 0. -1.
        -11    1    4    4    0    0  0.99612868514E+01  0.69545663615E+01 -0.13806238610E+02  0.18390363069E+02  0.51100000000E-03 0.  1.
         12    1    4    4    0    0  0.17876203224E+01  0.88718594530E+01 -0.24054561361E+02  0.25700727594E+02  0.00000000000E+00 0. -1.
</event>
<event>
 8    1  0.4042158E-011  0.9118800E+02  0.7816164E-02  0.1184000E+00
        -11   -1    0    0    0    0  0.00000000000E+00  0.00000000000E+00  0.45593999997E+02  0.45594000000E+02  0.51100000000E-03 0. -1.
         11   -1    0    0    0    0 -0.00000000000E+00 -0.00000000000E+00 -0.45593999997E+02  0.45594000000E+02  0.51100000000E-03 0.  1.
         23    2    1    2    0    0  0.00000000000E+00  0.88817841970E-15  0.00000000000E+00  0.91188000000E+02  0.91188000000E+02 0.  0.
    9900012    2    3    3    0    0  0.61317631698E+01  0.53464734073E+01 -0.42631444299E+02  0.47787270277E+02  0.19999996501E+02 0.  0.
         12    1    3    3    0    0 -0.61317631698E+01 -0.53464734073E+01  0.42631444299E+02  0.43400729723E+02  0.00000000000E+00 0. -1.
         11    1    4    4    0    0 -0.39971165369E+01 -0.19548509425E+01 -0.17949640927E+02  0.18492917360E+02  0.51100000000E-03 0. -1.
        -11    1    4    4    0    0  0.14105277206E+01 -0.21849824999E+01 -0.23136475335E+01  0.34809053629E+01  0.51100000000E-03 0.  1.
        -12    1    4    4    0    0  0.87183519862E+01  0.94863068496E+01 -0.22368155838E+02  0.25813447554E+02  0.00000000000E+00 0.  1.
</event>
<event>
 8    1  0.4042158E-011  0.9118800E+02  0.7816164E-02  0.1184000E+00
        -11   -1    0    0    0    0  0.00000000000E+00  0.00000000000E+00  0.45593999997E+02  0.45594000000E+02  0.51100000000E-03 0. -1.
         11   -1    0    0    0    0 -0.00000000000E+00 -0.00000000000E+00 -0.45593999997E+02  0.45594000000E+02  0.51100000000E-03 0.  1.
         23    2    1    2    0    0  0.00000000000E+00  0.35527136788E-14  0.00000000000E+00  0.91188000000E+02  0.91188000000E+02 0.  0.
    9900012    2    3    3    0    0  0.10206956098E+02  0.30773721072E+02  0.28851760867E+02  0.47787216983E+02  0.19999753511E+02 0.  0.
        -12    1    3    3    0    0 -0.10206956098E+02 -0.30773721072E+02 -0.28851760867E+02  0.43400783017E+02  0.00000000000E+00 0.  1.
         11    1    4    4    0    0  0.72236510800E+01  0.14061772473E+02  0.11639714340E+02  0.19631544264E+02  0.51100000000E-03 0. -1.
        -11    1    4    4    0    0  0.28375914426E+01  0.14487681903E+02  0.47683798524E+01  0.15513938855E+02  0.51100000000E-03 0.  1.
        -12    1    4    4    0    0  0.14571357534E+00  0.22242666950E+01  0.12443666674E+02  0.12641733864E+02  0.00000000000E+00 0.  1.
</event>
<event>
 8    1  0.4042158E-011  0.9118800E+02  0.7816164E-02  0.1184000E+00
        -11   -1    0    0    0    0  0.00000000000E+00  0.00000000000E+00  0.45593999997E+02  0.45594000000E+02  0.51100000000E-03 0. -1.
         11   -1    0    0    0    0 -0.00000000000E+00 -0.00000000000E+00 -0.45593999997E+02  0.45594000000E+02  0.51100000000E-03 0.  1.
         23    2    1    2    0    0  0.00000000000E+00  0.88817841970E-15  0.00000000000E+00  0.91188000000E+02  0.91188000000E+02 0.  0.
    9900012    2    3    3    0    0 -0.17279269049E+01  0.62560339128E+01  0.42912698911E+02  0.47787269366E+02  0.19999992348E+02 0.  0.
        -12    1    3    3    0    0  0.17279269049E+01 -0.62560339128E+01 -0.42912698911E+02  0.43400730634E+02  0.00000000000E+00 0.  1.
         11    1    4    4    0    0 -0.19531954045E+00 -0.39149454879E+01  0.32525052136E+01  0.50934996144E+01  0.51100000000E-03 0. -1.
        -11    1    4    4    0    0  0.10757667139E+01  0.91345550937E+00  0.25713699999E+02  0.25752398780E+02  0.51100000000E-03 0.  1.
        -12    1    4    4    0    0 -0.26083740783E+01  0.92575238913E+01  0.13946493698E+02  0.16941370972E+02  0.00000000000E+00 0.  1.
</event>
<event>
 8    1  0.4089917E-011  0.9118800E+02  0.7816164E-02  0.1184000E+00
        -11   -1    0    0    0    0  0.00000000000E+00  0.00000000000E+00  0.45593999997E+02  0.45594000000E+02  0.51100000000E-03 0. -1.
         11   -1    0    0    0    0 -0.00000000000E+00 -0.00000000000E+00 -0.45593999997E+02  0.45594000000E+02  0.51100000000E-03 0.  1.
         23    2    1    2    0    0  0.00000000000E+00  0.17763568394E-14  0.71054273576E-14  0.91188000000E+02  0.91188000000E+02 0.  0.
    9900012    2    3    3    0    0 -0.10967230264E+01  0.15851827036E+02  0.40387393203E+02  0.47787254021E+02  0.19999922385E+02 0.  0.
        -12    1    3    3    0    0  0.10967230264E+01 -0.15851827036E+02 -0.40387393203E+02  0.43400745979E+02  0.00000000000E+00 0.  1.
         11    1    4    4    0    0 -0.14220700806E+01  0.40605061097E+01  0.26908938739E+02  0.27250706000E+02  0.51100000000E-03 0. -1.
        -11    1    4    4    0    0  0.46158877794E+01  0.32095224097E+01  0.69137694839E+01  0.89110977341E+01  0.51100000000E-03 0.  1.
        -12    1    4    4    0    0 -0.42905407251E+01  0.85817985163E+01  0.65646849802E+01  0.11625450287E+02  0.00000000000E+00 0.  1.
</event>
<event>
 8    1  0.4042158E-011  0.9118800E+02  0.7816164E-02  0.1184000E+00
        -11   -1    0    0    0    0  0.00000000000E+00  0.00000000000E+00  0.45593999997E+02  0.45594000000E+02  0.51100000000E-03 0. -1.
         11   -1    0    0    0    0 -0.00000000000E+00 -0.00000000000E+00 -0.45593999997E+02  0.45594000000E+02  0.51100000000E-03 0.  1.
         23    2    1    2    0    0  0.00000000000E+00  0.00000000000E+00  0.00000000000E+00  0.91188000000E+02  0.91188000000E+02 0.  0.
    9900012    2    3    3    0    0 -0.20829807963E+02  0.24648430768E+02 -0.29020636107E+02  0.47787270063E+02  0.19999995523E+02 0.  0.
         12    1    3    3    0    0  0.20829807963E+02 -0.24648430768E+02  0.29020636107E+02  0.43400729937E+02  0.00000000000E+00 0. -1.
         11    1    4    4    0    0  0.11425733030E+01  0.11056881225E+01  0.58318316459E+00  0.16935533182E+01  0.51100000000E-03 0. -1.
        -11    1    4    4    0    0 -0.63698658916E+01 -0.20677549765E+00 -0.88485607539E+01  0.10904814316E+02  0.51100000000E-03 0.  1.
        -12    1    4    4    0    0 -0.15602515374E+02  0.23749518143E+02 -0.20755258517E+02  0.35188902429E+02  0.00000000000E+00 0.  1.
</event>
<event>
 8    1  0.4042158E-011  0.9118800E+02  0.7816164E-02  0.1184000E+00
        -11   -1    0    0    0    0  0.00000000000E+00  0.00000000000E+00  0.45593999997E+02  0.45594000000E+02  0.51100000000E-03 0. -1.
         11   -1    0    0    0    0 -0.00000000000E+00 -0.00000000000E+00 -0.45593999997E+02  0.45594000000E+02  0.51100000000E-03 0.  1.
         23    2    1    2    0    0  0.00000000000E+00  0.71054273576E-14  0.00000000000E+00  0.91188000000E+02  0.91188000000E+02 0.  0.
    9900012    2    3    3    0    0  0.39409165821E+01 -0.33901955554E+02  0.26809495459E+02  0.47787280414E+02  0.20000042718E+02 0.  0.
        -12    1    3    3    0    0 -0.39409165821E+01  0.33901955554E+02 -0.26809495459E+02  0.43400719586E+02  0.00000000000E+00 0.  1.
         11    1    4    4    0    0  0.12106432999E+01 -0.58202958302E+01  0.11695415306E+01  0.60588223611E+01  0.51100000000E-03 0. -1.
        -11    1    4    4    0    0 -0.65879904290E+01 -0.11933970236E+02  0.14974525238E+02  0.20249880737E+02  0.51100000000E-03 0.  1.
        -12    1    4    4    0    0  0.93182637112E+01 -0.16147689487E+02  0.10665428690E+02  0.21478577316E+02  0.00000000000E+00 0.  1.
</event>
<event>
 8    1  0.4042158E-011  0.9118800E+02  0.7816164E-02  0.1184000E+00
        -11   -1    0    0    0    0  0.00000000000E+00  0.00000000000E+00  0.45593999997E+02  0.45594000000E+02  0.51100000000E-03 0. -1.
         11   -1    0    0    0    0 -0.00000000000E+00 -0.00000000000E+00 -0.45593999997E+02  0.45594000000E+02  0.51100000000E-03 0.  1.
         23    2    1    2    0    0  0.00000000000E+00  0.88817841970E-15  0.00000000000E+00  0.91188000000E+02  0.91188000000E+02 0.  0.
    9900012    2    3    3    0    0 -0.18299466297E+02 -0.79023667789E+01 -0.38552632052E+02  0.47787270679E+02  0.19999998335E+02 0.  0.
         12    1    3    3    0    0  0.18299466297E+02  0.79023667789E+01  0.38552632052E+02  0.43400729321E+02  0.00000000000E+00 0. -1.
         11    1    4    4    0    0 -0.67573106955E+01  0.40269414713E+01 -0.11848099994E+02  0.14221637711E+02  0.51100000000E-03 0. -1.
        -11    1    4    4    0    0 -0.23657760919E+01  0.83117597133E+00  0.81420159040E-01  0.25088602025E+01  0.51100000000E-03 0.  1.
        -12    1    4    4    0    0 -0.91763795093E+01 -0.12760484222E+02 -0.26785952217E+02  0.31056772766E+02  0.00000000000E+00 0.  1.
</event>
<event>
 8    1  0.4042158E-011  0.9118800E+02  0.7816164E-02  0.1184000E+00
        -11   -1    0    0    0    0  0.00000000000E+00  0.00000000000E+00  0.45593999997E+02  0.45594000000E+02  0.51100000000E-03 0. -1.
         11   -1    0    0    0    0 -0.00000000000E+00 -0.00000000000E+00 -0.45593999997E+02  0.45594000000E+02  0.51100000000E-03 0.  1.
         23    2    1    2    0    0 -0.35527136788E-14  0.00000000000E+00  0.35527136788E-14  0.91188000000E+02  0.91188000000E+02 0.  0.
    9900012    2    3    3    0    0  0.28225909783E+02  0.14020055101E+02 -0.29838880948E+02  0.47787277145E+02  0.20000027813E+02 0.  0.
         12    1    3    3    0    0 -0.28225909783E+02 -0.14020055101E+02  0.29838880948E+02  0.43400722855E+02  0.00000000000E+00 0. -1.
         11    1    4    4    0    0  0.97157155680E+01  0.48978456238E+00 -0.18395452589E+01  0.99004517542E+01  0.51100000000E-03 0. -1.
        -11    1    4    4    0    0  0.63091946457E+01 -0.41605108420E+00 -0.11268095584E+02  0.12920875123E+02  0.51100000000E-03 0.  1.
         12    1    4    4    0    0  0.12200999570E+02  0.13946321623E+02 -0.16731240105E+02  0.24965950267E+02  0.00000000000E+00 0. -1.
</event>
<event>
 8    1  0.4042158E-011  0.9118800E+02  0.7816164E-02  0.1184000E+00
        -11   -1    0    0    0    0  0.00000000000E+00  0.00000000000E+00  0.45593999997E+02  0.45594000000E+02  0.51100000000E-03 0. -1.
         11   -1    0    0    0    0 -0.00000000000E+00 -0.00000000000E+00 -0.45593999997E+02  0.45594000000E+02  0.51100000000E-03 0.  1.
         23    2    1    2    0    0  0.00000000000E+00  0.17763568394E-14  0.00000000000E+00  0.91188000000E+02  0.91188000000E+02 0.  0.
    9900012    2    3    3    0    0 -0.21435749074E+02 -0.12084419078E+02  0.35750509440E+02  0.47787269038E+02  0.19999990852E+02 0.  0.
        -12    1    3    3    0    0  0.21435749074E+02  0.12084419078E+02 -0.35750509440E+02  0.43400730962E+02  0.00000000000E+00 0.  1.
         11    1    4    4    0    0 -0.16447330274E+02 -0.80244221687E+01  0.20699900649E+02  0.27629547797E+02  0.51100000000E-03 0. -1.
        -11    1    4    4    0    0 -0.54385660725E+01 -0.26869832611E+01  0.16815838638E+02  0.17876529566E+02  0.51100000000E-03 0.  1.
         12    1    4    4    0    0  0.45014727305E+00 -0.13730136483E+01 -0.17652298473E+01  0.22811916753E+01  0.00000000000E+00 0. -1.
</event>
<event>
 8    1  0.4042158E-011  0.9118800E+02  0.7816164E-02  0.1184000E+00
        -11   -1    0    0    0    0  0.00000000000E+00  0.00000000000E+00  0.45593999997E+02  0.45594000000E+02  0.51100000000E-03 0. -1.
         11   -1    0    0    0    0 -0.00000000000E+00 -0.00000000000E+00 -0.45593999997E+02  0.45594000000E+02  0.51100000000E-03 0.  1.
         23    2    1    2    0    0 -0.17763568394E-14  0.17763568394E-14  0.71054273576E-14  0.91188000000E+02  0.91188000000E+02 0.  0.
    9900012    2    3    3    0    0  0.12034622014E+02  0.92177351238E+01 -0.40667237545E+02  0.47787274460E+02  0.20000015574E+02 0.  0.
         12    1    3    3    0    0 -0.12034622014E+02 -0.92177351238E+01  0.40667237545E+02  0.43400725540E+02  0.00000000000E+00 0. -1.
         11    1    4    4    0    0  0.40039493657E+01  0.16403895096E+01 -0.16613412587E+02  0.17167643004E+02  0.51100000000E-03 0. -1.
        -11    1    4    4    0    0  0.60954880129E+01  0.12339760181E+02 -0.16571030596E+02  0.21541209593E+02  0.51100000000E-03 0.  1.
         12    1    4    4    0    0  0.19351846351E+01 -0.47624145664E+01 -0.74827943620E+01  0.90784218639E+01  0.00000000000E+00 0. -1.
</event>
<event>
 8    1  0.4042158E-011  0.9118800E+02  0.7816164E-02  0.1184000E+00
        -11   -1    0    0    0    0  0.00000000000E+00  0.00000000000E+00  0.45593999997E+02  0.45594000000E+02  0.51100000000E-03 0. -1.
         11   -1    0    0    0    0 -0.00000000000E+00 -0.00000000000E+00 -0.45593999997E+02  0.45594000000E+02  0.51100000000E-03 0.  1.
         23    2    1    2    0    0  0.35527136788E-14 -0.35527136788E-14 -0.35527136788E-14  0.91188000000E+02  0.91188000000E+02 0.  0.
    9900012    2    3    3    0    0 -0.22710586701E+02  0.27488544885E+02  0.24743332883E+02  0.47787269932E+02  0.19999994930E+02 0.  0.
        -12    1    3    3    0    0  0.22710586701E+02 -0.27488544885E+02 -0.24743332883E+02  0.43400730068E+02  0.00000000000E+00 0.  1.
         11    1    4    4    0    0 -0.75186095418E+00  0.66824109188E+01  0.43012868749E+01  0.79825421780E+01  0.51100000000E-03 0. -1.
        -11    1    4    4    0    0 -0.34292834717E+01  0.13988321581E+02  0.81931325412E+01  0.16569868644E+02  0.51100000000E-03 0.  1.
        -12    1    4    4    0    0 -0.18529442275E+02  0.68178123856E+01  0.12248913467E+02  0.23234859110E+02  0.00000000000E+00 0.  1.
</event>
<event>
 8    1  0.4042158E-011  0.9118800E+02  0.7816164E-02  0.1184000E+00
        -11   -1    0    0    0    0  0.00000000000E+00  0.00000000000E+00  0.45593999997E+02  0.45594000000E+02  0.51100000000E-03 0.  1.
         11   -1    0    0    0    0 -0.00000000000E+00 -0.00000000000E+00 -0.45593999997E+02  0.45594000000E+02  0.51100000000E-03 0. -1.
         23    2    1    2    0    0 -0.35527136788E-14  0.71054273576E-14 -0.13877787808E-14  0.91188000000E+02  0.91188000000E+02 0.  0.
    9900012    2    3    3    0    0 -0.24495466613E+02 -0.35826257035E+02 -0.27339470557E+00  0.47787270486E+02  0.19999997452E+02 0.  0.
        -12    1    3    3    0    0  0.24495466613E+02  0.35826257035E+02  0.27339470557E+00  0.43400729514E+02  0.00000000000E+00 0.  1.
         11    1    4    4    0    0 -0.10817243428E+02 -0.96427604962E+01 -0.14655908714E+01  0.14565148205E+02  0.51100000000E-03 0. -1.
        -11    1    4    4    0    0 -0.67592074690E+01 -0.17385284934E+01 -0.27717118761E+01  0.75094443148E+01  0.51100000000E-03 0.  1.
        -12    1    4    4    0    0 -0.69190157161E+01 -0.24444968045E+02  0.39639080420E+01  0.25712677966E+02  0.00000000000E+00 0.  1.
</event>
<event>
 8    1  0.4042158E-011  0.9118800E+02  0.7816164E-02  0.1184000E+00
        -11   -1    0    0    0    0  0.00000000000E+00  0.00000000000E+00  0.45593999997E+02  0.45594000000E+02  0.51100000000E-03 0. -1.
         11   -1    0    0    0    0 -0.00000000000E+00 -0.00000000000E+00 -0.45593999997E+02  0.45594000000E+02  0.51100000000E-03 0.  1.
         23    2    1    2    0    0  0.44408920985E-15  0.71054273576E-14  0.00000000000E+00  0.91188000000E+02  0.91188000000E+02 0.  0.
    9900012    2    3    3    0    0 -0.36987656065E+01 -0.36775523040E+02 -0.22748705918E+02  0.47787267485E+02  0.19999983769E+02 0.  0.
         12    1    3    3    0    0  0.36987656065E+01  0.36775523040E+02  0.22748705918E+02  0.43400732515E+02  0.00000000000E+00 0. -1.
         11    1    4    4    0    0 -0.52836758412E+00  0.14068696015E+01  0.16801495837E+00  0.15121784508E+01  0.51100000000E-03 0. -1.
        -11    1    4    4    0    0  0.25030904437E+01 -0.32611559917E+01  0.20627132974E-01  0.41110857339E+01  0.51100000000E-03 0.  1.
        -12    1    4    4    0    0 -0.56734884661E+01 -0.34921236650E+02 -0.22937348010E+02  0.42164003300E+02  0.00000000000E+00 0.  1.
</event>
<event>
 8    1  0.4042158E-011  0.9118800E+02  0.7816164E-02  0.1184000E+00
        -11   -1    0    0    0    0  0.00000000000E+00  0.00000000000E+00  0.45593999997E+02  0.45594000000E+02  0.51100000000E-03 0. -1.
         11   -1    0    0    0    0 -0.00000000000E+00 -0.00000000000E+00 -0.45593999997E+02  0.45594000000E+02  0.51100000000E-03 0.  1.
         23    2    1    2    0    0 -0.17763568394E-14 -0.17763568394E-14  0.71054273576E-14  0.91188000000E+02  0.91188000000E+02 0.  0.
    9900012    2    3    3    0    0 -0.10574001410E+02 -0.12856679105E+02  0.40081395867E+02  0.47787285742E+02  0.20000067013E+02 0.  0.
        -12    1    3    3    0    0  0.10574001410E+02  0.12856679105E+02 -0.40081395867E+02  0.43400714258E+02  0.00000000000E+00 0.  1.
         11    1    4    4    0    0  0.11291980983E+01 -0.37198820096E+01  0.51529540204E+01  0.64548854295E+01  0.51100000000E-03 0. -1.
        -11    1    4    4    0    0  0.24322171662E+01  0.51681003943E+00  0.57997744818E-01  0.24871945963E+01  0.51100000000E-03 0.  1.
        -12    1    4    4    0    0 -0.14135416675E+02 -0.96536071347E+01  0.34870444102E+02  0.38845205716E+02  0.00000000000E+00 0.  1.
</event>
<event>
 8    1  0.4042158E-011  0.9118800E+02  0.7816164E-02  0.1184000E+00
        -11   -1    0    0    0    0  0.00000000000E+00  0.00000000000E+00  0.45593999997E+02  0.45594000000E+02  0.51100000000E-03 0. -1.
         11   -1    0    0    0    0 -0.00000000000E+00 -0.00000000000E+00 -0.45593999997E+02  0.45594000000E+02  0.51100000000E-03 0.  1.
         23    2    1    2    0    0  0.00000000000E+00 -0.88817841970E-15 -0.71054273576E-14  0.91188000000E+02  0.91188000000E+02 0.  0.
    9900012    2    3    3    0    0 -0.29197623636E+02  0.37882969847E+00  0.32108831030E+02  0.47787288392E+02  0.20000079096E+02 0.  0.
        -12    1    3    3    0    0  0.29197623636E+02 -0.37882969847E+00 -0.32108831030E+02  0.43400711608E+02  0.00000000000E+00 0.  1.
         11    1    4    4    0    0 -0.18581339570E+02  0.35197428843E+01  0.18380072825E+02  0.26371989828E+02  0.51100000000E-03 0. -1.
        -11    1    4    4    0    0 -0.12714317067E+01  0.37842586560E+01  0.88762496620E+00  0.40896247385E+01  0.51100000000E-03 0.  1.
         12    1    4    4    0    0 -0.93448523599E+01 -0.69251718418E+01  0.12841133239E+02  0.17325673826E+02  0.00000000000E+00 0. -1.
</event>
<event>
 8    1  0.4042158E-011  0.9118800E+02  0.7816164E-02  0.1184000E+00
        -11   -1    0    0    0    0  0.00000000000E+00  0.00000000000E+00  0.45593999997E+02  0.45594000000E+02  0.51100000000E-03 0.  1.
         11   -1    0    0    0    0 -0.00000000000E+00 -0.00000000000E+00 -0.45593999997E+02  0.45594000000E+02  0.51100000000E-03 0. -1.
         23    2    1    2    0    0  0.00000000000E+00  0.00000000000E+00 -0.35527136788E-14  0.91188000000E+02  0.91188000000E+02 0.  0.
    9900012    2    3    3    0    0  0.28417145922E+02  0.23049897307E+02 -0.23340769960E+02  0.47787268549E+02  0.19999988621E+02 0.  0.
         12    1    3    3    0    0 -0.28417145922E+02 -0.23049897307E+02  0.23340769960E+02  0.43400731451E+02  0.00000000000E+00 0. -1.
         11    1    4    4    0    0  0.82711215597E+01  0.51012971320E+01 -0.14209692227E+02  0.17214820293E+02  0.51100000000E-03 0. -1.
        -11    1    4    4    0    0  0.17752355972E+01  0.65087310370E+01 -0.53338647949E+01  0.86002997070E+01  0.51100000000E-03 0.  1.
         12    1    4    4    0    0  0.18370788765E+02  0.11439869138E+02 -0.37972129378E+01  0.21972148548E+02  0.00000000000E+00 0. -1.
</event>
<event>
 8    1  0.4042158E-011  0.9118800E+02  0.7816164E-02  0.1184000E+00
        -11   -1    0    0    0    0  0.00000000000E+00  0.00000000000E+00  0.45593999997E+02  0.45594000000E+02  0.51100000000E-03 0. -1.
         11   -1    0    0    0    0 -0.00000000000E+00 -0.00000000000E+00 -0.45593999997E+02  0.45594000000E+02  0.51100000000E-03 0.  1.
         23    2    1    2    0    0 -0.35527136788E-14  0.00000000000E+00  0.00000000000E+00  0.91188000000E+02  0.91188000000E+02 0.  0.
    9900012    2    3    3    0    0  0.29030353857E+02  0.29568258543E+02 -0.12906610539E+02  0.47787263210E+02  0.19999964280E+02 0.  0.
         12    1    3    3    0    0 -0.29030353857E+02 -0.29568258543E+02  0.12906610539E+02  0.43400736790E+02  0.00000000000E+00 0. -1.
         11    1    4    4    0    0 -0.44458070107E+00  0.79087270862E+01 -0.28083169437E+01  0.84043001161E+01  0.51100000000E-03 0. -1.
        -11    1    4    4    0    0  0.91805393736E+01  0.12912729611E+02 -0.57859559703E+01  0.16867073722E+02  0.51100000000E-03 0.  1.
         12    1    4    4    0    0  0.20294395184E+02  0.87468018457E+01 -0.43123376245E+01  0.22515889372E+02  0.00000000000E+00 0. -1.
</event>
<event>
 8    1  0.4042158E-011  0.9118800E+02  0.7816164E-02  0.1184000E+00
        -11   -1    0    0    0    0  0.00000000000E+00  0.00000000000E+00  0.45593999997E+02  0.45594000000E+02  0.51100000000E-03 0.  1.
         11   -1    0    0    0    0 -0.00000000000E+00 -0.00000000000E+00 -0.45593999997E+02  0.45594000000E+02  0.51100000000E-03 0. -1.
         23    2    1    2    0    0  0.35527136788E-14  0.00000000000E+00  0.00000000000E+00  0.91188000000E+02  0.91188000000E+02 0.  0.
    9900012    2    3    3    0    0  0.30803219670E+02  0.19839838097E+02 -0.23262968477E+02  0.47787271664E+02  0.20000002826E+02 0.  0.
        -12    1    3    3    0    0 -0.30803219670E+02 -0.19839838097E+02  0.23262968477E+02  0.43400728336E+02  0.00000000000E+00 0.  1.
         11    1    4    4    0    0  0.12925701386E+02  0.68272261017E+01 -0.10096488872E+00  0.14618309298E+02  0.51100000000E-03 0. -1.
        -11    1    4    4    0    0  0.10977084568E+01 -0.12881543128E+01 -0.17869158672E+01  0.24611732908E+01  0.51100000000E-03 0.  1.
         12    1    4    4    0    0  0.16779809827E+02  0.14300766308E+02 -0.21375087721E+02  0.30707789075E+02  0.00000000000E+00 0. -1.
</event>
<event>
 8    1  0.4042158E-011  0.9118800E+02  0.7816164E-02  0.1184000E+00
        -11   -1    0    0    0    0  0.00000000000E+00  0.00000000000E+00  0.45593999997E+02  0.45594000000E+02  0.51100000000E-03 0. -1.
         11   -1    0    0    0    0 -0.00000000000E+00 -0.00000000000E+00 -0.45593999997E+02  0.45594000000E+02  0.51100000000E-03 0.  1.
         23    2    1    2    0    0 -0.88817841970E-15  0.00000000000E+00 -0.71054273576E-14  0.91188000000E+02  0.91188000000E+02 0.  0.
    9900012    2    3    3    0    0 -0.71493344500E+01 -0.13128904536E+02  0.40744843435E+02  0.47787269777E+02  0.19999994221E+02 0.  0.
        -12    1    3    3    0    0  0.71493344500E+01  0.13128904536E+02 -0.40744843435E+02  0.43400730223E+02  0.00000000000E+00 0.  1.
         11    1    4    4    0    0 -0.39456612819E+01  0.14810532766E+00  0.73718592891E+01  0.83626842449E+01  0.51100000000E-03 0. -1.
        -11    1    4    4    0    0 -0.28607174498E+01  0.83536213959E+00 -0.21776185888E+00  0.29881356596E+01  0.51100000000E-03 0.  1.
         12    1    4    4    0    0 -0.34295571837E+00 -0.14112372003E+02  0.33590746004E+02  0.36436449872E+02  0.00000000000E+00 0. -1.
</event>
<event>
 8    1  0.4042158E-011  0.9118800E+02  0.7816164E-02  0.1184000E+00
        -11   -1    0    0    0    0  0.00000000000E+00  0.00000000000E+00  0.45593999997E+02  0.45594000000E+02  0.51100000000E-03 0.  1.
         11   -1    0    0    0    0 -0.00000000000E+00 -0.00000000000E+00 -0.45593999997E+02  0.45594000000E+02  0.51100000000E-03 0. -1.
         23    2    1    2    0    0  0.00000000000E+00  0.00000000000E+00  0.00000000000E+00  0.91188000000E+02  0.91188000000E+02 0.  0.
    9900012    2    3    3    0    0  0.40701431820E+02  0.39597118279E+01  0.14537457556E+02  0.47787267954E+02  0.19999985907E+02 0.  0.
        -12    1    3    3    0    0 -0.40701431820E+02 -0.39597118279E+01 -0.14537457556E+02  0.43400732046E+02  0.00000000000E+00 0.  1.
         11    1    4    4    0    0  0.72148739315E+01  0.64018425670E+00 -0.80087989432E+00  0.72873623895E+01  0.51100000000E-03 0. -1.
        -11    1    4    4    0    0  0.33499284097E+01  0.63538813701E+01  0.33317719586E+01  0.79179879679E+01  0.51100000000E-03 0.  1.
         12    1    4    4    0    0  0.30136629479E+02 -0.30343537989E+01  0.12006565492E+02  0.32581917596E+02  0.00000000000E+00 0. -1.
</event>
<event>
 8    1  0.4042158E-011  0.9118800E+02  0.7816164E-02  0.1184000E+00
        -11   -1    0    0    0    0  0.00000000000E+00  0.00000000000E+00  0.45593999997E+02  0.45594000000E+02  0.51100000000E-03 0.  1.
         11   -1    0    0    0    0 -0.00000000000E+00 -0.00000000000E+00 -0.45593999997E+02  0.45594000000E+02  0.51100000000E-03 0. -1.
         23    2    1    2    0    0  0.00000000000E+00  0.00000000000E+00 -0.35527136788E-14  0.91188000000E+02  0.91188000000E+02 0.  0.
    9900012    2    3    3    0    0 -0.82157189450E+01 -0.40848974073E+02 -0.12144364865E+02  0.47787282051E+02  0.20000050181E+02 0.  0.
         12    1    3    3    0    0  0.82157189450E+01  0.40848974073E+02  0.12144364865E+02  0.43400717949E+02  0.00000000000E+00 0. -1.
         11    1    4    4    0    0 -0.52108961194E+01 -0.35970859116E+02 -0.69094078202E+01  0.36997243959E+02  0.51100000000E-03 0. -1.
        -11    1    4    4    0    0 -0.30978390033E+01 -0.67198885652E+01 -0.32536115360E+01  0.80832850443E+01  0.51100000000E-03 0.  1.
         12    1    4    4    0    0  0.93016177731E-01  0.18417736084E+01 -0.19813455084E+01  0.27067530470E+01  0.00000000000E+00 0. -1.
</event>
<event>
 8    1  0.4289749E-011  0.9118800E+02  0.7816164E-02  0.1184000E+00
        -11   -1    0    0    0    0  0.00000000000E+00  0.00000000000E+00  0.45593999997E+02  0.45594000000E+02  0.51100000000E-03 0. -1.
         11   -1    0    0    0    0 -0.00000000000E+00 -0.00000000000E+00 -0.45593999997E+02  0.45594000000E+02  0.51100000000E-03 0.  1.
         23    2    1    2    0    0  0.91593399532E-15  0.00000000000E+00  0.71054273576E-14  0.91188000000E+02  0.91188000000E+02 0.  0.
    9900012    2    3    3    0    0  0.23538853304E+00  0.75255478159E+01  0.42742648608E+02  0.47787270885E+02  0.19999999275E+02 0.  0.
        -12    1    3    3    0    0 -0.23538853304E+00 -0.75255478159E+01 -0.42742648608E+02  0.43400729115E+02  0.00000000000E+00 0.  1.
         11    1    4    4    0    0  0.62686810638E+00  0.32773279695E+01  0.15921371970E+02  0.16267265533E+02  0.51100000000E-03 0. -1.
        -11    1    4    4    0    0 -0.62232881740E+01 -0.29327673821E+01  0.15056624031E+02  0.16553923030E+02  0.51100000000E-03 0.  1.
        -12    1    4    4    0    0  0.58318086007E+01  0.71809872285E+01  0.11764652607E+02  0.14966082323E+02  0.00000000000E+00 0.  1.
</event>
<event>
 8    1  0.4042158E-011  0.9118800E+02  0.7816164E-02  0.1184000E+00
        -11   -1    0    0    0    0  0.00000000000E+00  0.00000000000E+00  0.45593999997E+02  0.45594000000E+02  0.51100000000E-03 0. -1.
         11   -1    0    0    0    0 -0.00000000000E+00 -0.00000000000E+00 -0.45593999997E+02  0.45594000000E+02  0.51100000000E-03 0.  1.
         23    2    1    2    0    0  0.35527136788E-14  0.17763568394E-14  0.00000000000E+00  0.91188000000E+02  0.91188000000E+02 0.  0.
    9900012    2    3    3    0    0  0.26469687982E+02  0.11632789594E+02  0.32367536967E+02  0.47787267000E+02  0.19999981562E+02 0.  0.
        -12    1    3    3    0    0 -0.26469687982E+02 -0.11632789594E+02 -0.32367536967E+02  0.43400733000E+02  0.00000000000E+00 0.  1.
         11    1    4    4    0    0  0.69956426215E+01  0.28481421157E+01  0.10061974567E+02  0.12581504745E+02  0.51100000000E-03 0. -1.
        -11    1    4    4    0    0  0.17480560718E+02  0.37639749707E+00  0.99171591263E+01  0.20101286613E+02  0.51100000000E-03 0.  1.
        -12    1    4    4    0    0  0.19934846419E+01  0.84082499810E+01  0.12388403274E+02  0.15104475643E+02  0.00000000000E+00 0.  1.
</event>
<event>
 8    1  0.4042158E-011  0.9118800E+02  0.7816164E-02  0.1184000E+00
        -11   -1    0    0    0    0  0.00000000000E+00  0.00000000000E+00  0.45593999997E+02  0.45594000000E+02  0.51100000000E-03 0. -1.
         11   -1    0    0    0    0 -0.00000000000E+00 -0.00000000000E+00 -0.45593999997E+02  0.45594000000E+02  0.51100000000E-03 0.  1.
         23    2    1    2    0    0  0.00000000000E+00  0.00000000000E+00  0.00000000000E+00  0.91188000000E+02  0.91188000000E+02 0.  0.
    9900012    2    3    3    0    0  0.22864922427E+01 -0.33023830993E+02  0.28068167828E+02  0.47787268377E+02  0.19999987838E+02 0.  0.
        -12    1    3    3    0    0 -0.22864922427E+01  0.33023830993E+02 -0.28068167828E+02  0.43400731623E+02  0.00000000000E+00 0.  1.
         11    1    4    4    0    0  0.54719170873E+01 -0.48311431589E+01  0.74191641246E+01  0.10407968937E+02  0.51100000000E-03 0. -1.
        -11    1    4    4    0    0  0.40176448664E+01 -0.18222392177E+02  0.10358794571E+02  0.21342485144E+02  0.51100000000E-03 0.  1.
        -12    1    4    4    0    0 -0.72030697110E+01 -0.99702956569E+01  0.10290209132E+02  0.16036814295E+02  0.00000000000E+00 0.  1.
</event>
<event>
 8    1  0.4042158E-011  0.9118800E+02  0.7816164E-02  0.1184000E+00
        -11   -1    0    0    0    0  0.00000000000E+00  0.00000000000E+00  0.45593999997E+02  0.45594000000E+02  0.51100000000E-03 0. -1.
         11   -1    0    0    0    0 -0.00000000000E+00 -0.00000000000E+00 -0.45593999997E+02  0.45594000000E+02  0.51100000000E-03 0.  1.
         23    2    1    2    0    0 -0.17763568394E-14  0.00000000000E+00  0.00000000000E+00  0.91188000000E+02  0.91188000000E+02 0.  0.
    9900012    2    3    3    0    0 -0.12942362022E+02  0.17908576562E+02  0.37355071067E+02  0.47787272085E+02  0.20000004743E+02 0.  0.
        -12    1    3    3    0    0  0.12942362022E+02 -0.17908576562E+02 -0.37355071067E+02  0.43400727915E+02  0.00000000000E+00 0.  1.
         11    1    4    4    0    0 -0.74121453167E+01  0.66492012962E+01  0.90505457874E+01  0.13456008152E+02  0.51100000000E-03 0. -1.
        -11    1    4    4    0    0 -0.10433775025E+02  0.55571512835E+01  0.18853591230E+02  0.22253168183E+02  0.51100000000E-03 0.  1.
        -12    1    4    4    0    0  0.49035583195E+01  0.57022239818E+01  0.94509340497E+01  0.12078095750E+02  0.00000000000E+00 0.  1.
</event>
<event>
 8    1  0.4042158E-011  0.9118800E+02  0.7816164E-02  0.1184000E+00
        -11   -1    0    0    0    0  0.00000000000E+00  0.00000000000E+00  0.45593999997E+02  0.45594000000E+02  0.51100000000E-03 0. -1.
         11   -1    0    0    0    0 -0.00000000000E+00 -0.00000000000E+00 -0.45593999997E+02  0.45594000000E+02  0.51100000000E-03 0.  1.
         23    2    1    2    0    0  0.00000000000E+00  0.00000000000E+00  0.00000000000E+00  0.91188000000E+02  0.91188000000E+02 0.  0.
    9900012    2    3    3    0    0  0.11879502241E+02 -0.24897067930E+02  0.33505764220E+02  0.47787276493E+02  0.20000024843E+02 0.  0.
        -12    1    3    3    0    0 -0.11879502241E+02  0.24897067930E+02 -0.33505764220E+02  0.43400723507E+02  0.00000000000E+00 0.  1.
         11    1    4    4    0    0  0.24346887616E+01 -0.12485506970E+02  0.93125062309E+01  0.15765099626E+02  0.51100000000E-03 0. -1.
        -11    1    4    4    0    0  0.28050545116E+01 -0.30819099893E+01 -0.10547397024E+01  0.42987179596E+01  0.51100000000E-03 0.  1.
        -12    1    4    4    0    0  0.66397589677E+01 -0.93296509701E+01  0.25247997691E+02  0.27723458907E+02  0.00000000000E+00 0.  1.
</event>
<event>
 8    1  0.4042158E-011  0.9118800E+02  0.7816164E-02  0.1184000E+00
        -11   -1    0    0    0    0  0.00000000000E+00  0.00000000000E+00  0.45593999997E+02  0.45594000000E+02  0.51100000000E-03 0. -1.
         11   -1    0    0    0    0 -0.00000000000E+00 -0.00000000000E+00 -0.45593999997E+02  0.45594000000E+02  0.51100000000E-03 0.  1.
         23    2    1    2    0    0 -0.35527136788E-14  0.00000000000E+00  0.00000000000E+00  0.91188000000E+02  0.91188000000E+02 0.  0.
    9900012    2    3    3    0    0 -0.11242217554E+02  0.35033719987E+02  0.23018985359E+02  0.47787277902E+02  0.20000031268E+02 0.  0.
        -12    1    3    3    0    0  0.11242217554E+02 -0.35033719987E+02 -0.23018985359E+02  0.43400722098E+02  0.00000000000E+00 0.  1.
         11    1    4    4    0    0 -0.30386763132E+01 -0.88908105964E+00  0.10943088164E+01  0.33498553572E+01  0.51100000000E-03 0. -1.
        -11    1    4    4    0    0 -0.93589606904E+01  0.15590406402E+02  0.11965274468E+02  0.21767377204E+02  0.51100000000E-03 0.  1.
        -12    1    4    4    0    0  0.11554194499E+01  0.20332394645E+02  0.99594020742E+01  0.22670045341E+02  0.00000000000E+00 0.  1.
</event>
<event>
 8    1  0.4042158E-011  0.9118800E+02  0.7816164E-02  0.1184000E+00
        -11   -1    0    0    0    0  0.00000000000E+00  0.00000000000E+00  0.45593999997E+02  0.45594000000E+02  0.51100000000E-03 0. -1.
         11   -1    0    0    0    0 -0.00000000000E+00 -0.00000000000E+00 -0.45593999997E+02  0.45594000000E+02  0.51100000000E-03 0.  1.
         23    2    1    2    0    0  0.00000000000E+00  0.00000000000E+00  0.35527136788E-14  0.91188000000E+02  0.91188000000E+02 0.  0.
    9900012    2    3    3    0    0 -0.13829167369E+02  0.27319793626E+02 -0.30757213910E+02  0.47787271880E+02  0.20000003810E+02 0.  0.
         12    1    3    3    0    0  0.13829167369E+02 -0.27319793626E+02  0.30757213910E+02  0.43400728120E+02  0.00000000000E+00 0. -1.
         11    1    4    4    0    0 -0.76375760392E+01  0.66951837848E+01 -0.13324537446E+02  0.16754144325E+02  0.51100000000E-03 0. -1.
        -11    1    4    4    0    0  0.26137820629E+01 -0.59509646928E+00 -0.21998788279E+01  0.34677750213E+01  0.51100000000E-03 0.  1.
        -12    1    4    4    0    0 -0.88053733924E+01  0.21219706310E+02 -0.15232797636E+02  0.27565352533E+02  0.00000000000E+00 0.  1.
</event>
<event>
 8    1  0.4042158E-011  0.9118800E+02  0.7816164E-02  0.1184000E+00
        -11   -1    0    0    0    0  0.00000000000E+00  0.00000000000E+00  0.45593999997E+02  0.45594000000E+02  0.51100000000E-03 0. -1.
         11   -1    0    0    0    0 -0.00000000000E+00 -0.00000000000E+00 -0.45593999997E+02  0.45594000000E+02  0.51100000000E-03 0.  1.
         23    2    1    2    0    0 -0.17763568394E-14  0.11102230246E-15  0.71054273576E-14  0.91188000000E+02  0.91188000000E+02 0.  0.
    9900012    2    3    3    0    0 -0.10961225737E+02  0.73463147009E+00  0.41987317724E+02  0.47787274168E+02  0.20000014243E+02 0.  0.
        -12    1    3    3    0    0  0.10961225737E+02 -0.73463147009E+00 -0.41987317724E+02  0.43400725832E+02  0.00000000000E+00 0.  1.
         11    1    4    4    0    0  0.11353014844E+00  0.14785290402E+00 -0.71436553985E+00  0.73828718090E+00  0.51100000000E-03 0. -1.
        -11    1    4    4    0    0 -0.12605760347E+02  0.40653445942E+01  0.19720373463E+02  0.23755533048E+02  0.51100000000E-03 0.  1.
         12    1    4    4    0    0  0.15310044618E+01 -0.34785660282E+01  0.22981309801E+02  0.23293453940E+02  0.00000000000E+00 0. -1.
</event>
<event>
 8    1  0.4042158E-011  0.9118800E+02  0.7816164E-02  0.1184000E+00
        -11   -1    0    0    0    0  0.00000000000E+00  0.00000000000E+00  0.45593999997E+02  0.45594000000E+02  0.51100000000E-03 0. -1.
         11   -1    0    0    0    0 -0.00000000000E+00 -0.00000000000E+00 -0.45593999997E+02  0.45594000000E+02  0.51100000000E-03 0.  1.
         23    2    1    2    0    0  0.71054273576E-14  0.00000000000E+00  0.35527136788E-14  0.91188000000E+02  0.91188000000E+02 0.  0.
    9900012    2    3    3    0    0  0.33162541304E+02 -0.82457379868E+01  0.26755872244E+02  0.47787273737E+02  0.20000012275E+02 0.  0.
        -12    1    3    3    0    0 -0.33162541304E+02  0.82457379868E+01 -0.26755872244E+02  0.43400726263E+02  0.00000000000E+00 0.  1.
         11    1    4    4    0    0  0.14624864840E+02  0.41171596784E+01  0.55085174154E+01  0.16161108866E+02  0.51100000000E-03 0.  1.
        -11    1    4    4    0    0  0.59684503803E+00 -0.24524718512E+01  0.73519250858E+00  0.26289447439E+01  0.51100000000E-03 0. -1.
        -12    1    4    4    0    0  0.17940831426E+02 -0.99104258140E+01  0.20512162320E+02  0.28997220127E+02  0.00000000000E+00 0.  1.
</event>
<event>
 8    1  0.4042158E-011  0.9118800E+02  0.7816164E-02  0.1184000E+00
        -11   -1    0    0    0    0  0.00000000000E+00  0.00000000000E+00  0.45593999997E+02  0.45594000000E+02  0.51100000000E-03 0. -1.
         11   -1    0    0    0    0 -0.00000000000E+00 -0.00000000000E+00 -0.45593999997E+02  0.45594000000E+02  0.51100000000E-03 0.  1.
         23    2    1    2    0    0  0.00000000000E+00  0.00000000000E+00  0.00000000000E+00  0.91188000000E+02  0.91188000000E+02 0.  0.
    9900012    2    3    3    0    0 -0.45270917226E+01 -0.27549751534E+02  0.33228596837E+02  0.47787274006E+02  0.20000013503E+02 0.  0.
        -12    1    3    3    0    0  0.45270917226E+01  0.27549751534E+02 -0.33228596837E+02  0.43400725994E+02  0.00000000000E+00 0.  1.
         11    1    4    4    0    0 -0.26906763112E+01 -0.45962663206E+00  0.13453593494E+01  0.30431870946E+01  0.51100000000E-03 0. -1.
        -11    1    4    4    0    0  0.29308895633E+01  0.78689292210E+00  0.22263266763E+01  0.37637540878E+01  0.51100000000E-03 0.  1.
         12    1    4    4    0    0 -0.47673049747E+01 -0.27877017824E+02  0.29656910811E+02  0.40980332824E+02  0.00000000000E+00 0. -1.
</event>
<event>
 8    1  0.4042158E-011  0.9118800E+02  0.7816164E-02  0.1184000E+00
        -11   -1    0    0    0    0  0.00000000000E+00  0.00000000000E+00  0.45593999997E+02  0.45594000000E+02  0.51100000000E-03 0. -1.
         11   -1    0    0    0    0 -0.00000000000E+00 -0.00000000000E+00 -0.45593999997E+02  0.45594000000E+02  0.51100000000E-03 0.  1.
         23    2    1    2    0    0  0.00000000000E+00  0.00000000000E+00  0.00000000000E+00  0.91188000000E+02  0.91188000000E+02 0.  0.
    9900012    2    3    3    0    0 -0.37974709962E+02  0.16274949204E+02  0.13291958736E+02  0.47787208126E+02  0.19999713127E+02 0.  0.
        -12    1    3    3    0    0  0.37974709962E+02 -0.16274949204E+02 -0.13291958736E+02  0.43400791874E+02  0.00000000000E+00 0.  1.
         11    1    4    4    0    0 -0.10876996688E+02  0.13360738160E+02  0.10801026336E+02  0.20334221188E+02  0.51100000000E-03 0.  1.
        -11    1    4    4    0    0 -0.24073838917E+01  0.45029828237E+00  0.82422559719E+00  0.25841079392E+01  0.51100000000E-03 0. -1.
        -12    1    4    4    0    0 -0.24690329382E+02  0.24639127617E+01  0.16667068023E+01  0.24868878999E+02  0.00000000000E+00 0.  1.
</event>
<event>
 8    1  0.4042158E-011  0.9118800E+02  0.7816164E-02  0.1184000E+00
        -11   -1    0    0    0    0  0.00000000000E+00  0.00000000000E+00  0.45593999997E+02  0.45594000000E+02  0.51100000000E-03 0. -1.
         11   -1    0    0    0    0 -0.00000000000E+00 -0.00000000000E+00 -0.45593999997E+02  0.45594000000E+02  0.51100000000E-03 0.  1.
         23    2    1    2    0    0 -0.88817841970E-15 -0.35527136788E-14  0.71054273576E-14  0.91188000000E+02  0.91188000000E+02 0.  0.
    9900012    2    3    3    0    0  0.69608899476E+01  0.21632198835E+02 -0.36975921368E+02  0.47787253736E+02  0.19999921082E+02 0.  0.
         12    1    3    3    0    0 -0.69608899476E+01 -0.21632198835E+02  0.36975921368E+02  0.43400746264E+02  0.00000000000E+00 0. -1.
         11    1    4    4    0    0 -0.37360282329E+01  0.20821544676E+01 -0.56297983634E+01  0.70702124479E+01  0.51100000000E-03 0. -1.
        -11    1    4    4    0    0 -0.15076700334E+01  0.10630973411E+02 -0.15072248768E+02  0.18505765258E+02  0.51100000000E-03 0.  1.
        -12    1    4    4    0    0  0.12204588214E+02  0.89190709558E+01 -0.16273874236E+02  0.22211276029E+02  0.00000000000E+00 0.  1.
</event>
<event>
 8    1  0.4042158E-011  0.9118800E+02  0.7816164E-02  0.1184000E+00
        -11   -1    0    0    0    0  0.00000000000E+00  0.00000000000E+00  0.45593999997E+02  0.45594000000E+02  0.51100000000E-03 0. -1.
         11   -1    0    0    0    0 -0.00000000000E+00 -0.00000000000E+00 -0.45593999997E+02  0.45594000000E+02  0.51100000000E-03 0.  1.
         23    2    1    2    0    0  0.00000000000E+00  0.00000000000E+00  0.00000000000E+00  0.91188000000E+02  0.91188000000E+02 0.  0.
    9900012    2    3    3    0    0 -0.17584179237E+02 -0.36890591500E+02  0.14611777900E+02  0.47787272425E+02  0.20000006293E+02 0.  0.
        -12    1    3    3    0    0  0.17584179237E+02  0.36890591500E+02 -0.14611777900E+02  0.43400727575E+02  0.00000000000E+00 0.  1.
         11    1    4    4    0    0  0.27516458083E+01 -0.13411600300E+01  0.21397976757E+00  0.30685586979E+01  0.51100000000E-03 0. -1.
        -11    1    4    4    0    0  0.85799786229E+00 -0.38167860494E+01 -0.59358527160E-01  0.39124851149E+01  0.51100000000E-03 0.  1.
         12    1    4    4    0    0 -0.21193822908E+02 -0.31732645420E+02  0.14457156660E+02  0.40806228612E+02  0.00000000000E+00 0. -1.
</event>
<event>
 8    1  0.4042158E-011  0.9118800E+02  0.7816164E-02  0.1184000E+00
        -11   -1    0    0    0    0  0.00000000000E+00  0.00000000000E+00  0.45593999997E+02  0.45594000000E+02  0.51100000000E-03 0. -1.
         11   -1    0    0    0    0 -0.00000000000E+00 -0.00000000000E+00 -0.45593999997E+02  0.45594000000E+02  0.51100000000E-03 0.  1.
         23    2    1    2    0    0 -0.71054273576E-14  0.00000000000E+00  0.35527136788E-14  0.91188000000E+02  0.91188000000E+02 0.  0.
    9900012    2    3    3    0    0  0.33341458198E+02 -0.28791537989E+01  0.27634775933E+02  0.47787271869E+02  0.20000003762E+02 0.  0.
        -12    1    3    3    0    0 -0.33341458198E+02  0.28791537989E+01 -0.27634775933E+02  0.43400728131E+02  0.00000000000E+00 0.  1.
         11    1    4    4    0    0  0.21459340221E+02 -0.25280073680E+01  0.58305848806E+01  0.22380568007E+02  0.51100000000E-03 0. -1.
        -11    1    4    4    0    0  0.49917716333E+01  0.21288646466E+01  0.67096101714E+01  0.86295259218E+01  0.51100000000E-03 0.  1.
         12    1    4    4    0    0  0.68903463434E+01 -0.24800110775E+01  0.15094580881E+02  0.16777177941E+02  0.00000000000E+00 0. -1.
</event>
<event>
 8    1  0.4042158E-011  0.9118800E+02  0.7816164E-02  0.1184000E+00
        -11   -1    0    0    0    0  0.00000000000E+00  0.00000000000E+00  0.45593999997E+02  0.45594000000E+02  0.51100000000E-03 0. -1.
         11   -1    0    0    0    0 -0.00000000000E+00 -0.00000000000E+00 -0.45593999997E+02  0.45594000000E+02  0.51100000000E-03 0.  1.
         23    2    1    2    0    0  0.00000000000E+00  0.00000000000E+00  0.17763568394E-14  0.91188000000E+02  0.91188000000E+02 0.  0.
    9900012    2    3    3    0    0  0.20099739490E+02  0.35704899067E+02 -0.14310269983E+02  0.47787272219E+02  0.20000005357E+02 0.  0.
         12    1    3    3    0    0 -0.20099739490E+02 -0.35704899067E+02  0.14310269983E+02  0.43400727781E+02  0.00000000000E+00 0. -1.
         11    1    4    4    0    0 -0.24207129422E+01  0.38037444475E+01 -0.28242160888E+01  0.53201992207E+01  0.51100000000E-03 0.  1.
        -11    1    4    4    0    0  0.10002855946E+01  0.13960142865E+01  0.21240587388E+01  0.27314928054E+01  0.51100000000E-03 0. -1.
        -12    1    4    4    0    0  0.21520166837E+02  0.30505140333E+02 -0.13610112633E+02  0.39735580193E+02  0.00000000000E+00 0.  1.
</event>
<event>
 8    1  0.4042158E-011  0.9118800E+02  0.7816164E-02  0.1184000E+00
        -11   -1    0    0    0    0  0.00000000000E+00  0.00000000000E+00  0.45593999997E+02  0.45594000000E+02  0.51100000000E-03 0. -1.
         11   -1    0    0    0    0 -0.00000000000E+00 -0.00000000000E+00 -0.45593999997E+02  0.45594000000E+02  0.51100000000E-03 0.  1.
         23    2    1    2    0    0  0.00000000000E+00  0.00000000000E+00  0.17763568394E-14  0.91188000000E+02  0.91188000000E+02 0.  0.
    9900012    2    3    3    0    0 -0.17701918589E+02  0.36586454315E+02  0.15221577980E+02  0.47787274231E+02  0.20000014529E+02 0.  0.
        -12    1    3    3    0    0  0.17701918589E+02 -0.36586454315E+02 -0.15221577980E+02  0.43400725769E+02  0.00000000000E+00 0.  1.
         11    1    4    4    0    0 -0.12460576688E+02  0.17139387003E+02  0.10940839711E+02  0.23847988009E+02  0.51100000000E-03 0. -1.
        -11    1    4    4    0    0 -0.73764885157E+01  0.19784539042E+02  0.49288289004E+01  0.21682571862E+02  0.51100000000E-03 0.  1.
        -12    1    4    4    0    0  0.21351466148E+01 -0.33747173084E+00 -0.64809063192E+00  0.22567143601E+01  0.00000000000E+00 0.  1.
</event>
<event>
 8    1  0.4042158E-011  0.9118800E+02  0.7816164E-02  0.1184000E+00
        -11   -1    0    0    0    0  0.00000000000E+00  0.00000000000E+00  0.45593999997E+02  0.45594000000E+02  0.51100000000E-03 0. -1.
         11   -1    0    0    0    0 -0.00000000000E+00 -0.00000000000E+00 -0.45593999997E+02  0.45594000000E+02  0.51100000000E-03 0.  1.
         23    2    1    2    0    0 -0.88817841970E-15  0.00000000000E+00  0.71054273576E-14  0.91188000000E+02  0.91188000000E+02 0.  0.
    9900012    2    3    3    0    0  0.16140487881E+01  0.73979555475E+01 -0.42735095078E+02  0.47787271307E+02  0.20000001198E+02 0.  0.
         12    1    3    3    0    0 -0.16140487881E+01 -0.73979555475E+01  0.42735095078E+02  0.43400728693E+02  0.00000000000E+00 0. -1.
         11    1    4    4    0    0 -0.29698696709E+01 -0.20019171974E+01 -0.15256781301E+02  0.15671540264E+02  0.51100000000E-03 0. -1.
        -11    1    4    4    0    0  0.72333567191E+01  0.29781228517E+01 -0.21742829404E+02  0.23107169794E+02  0.51100000000E-03 0.  1.
        -12    1    4    4    0    0 -0.26494382601E+01  0.64217498931E+01 -0.57354843732E+01  0.90085612491E+01  0.00000000000E+00 0.  1.
</event>
<event>
 8    1  0.4042158E-011  0.9118800E+02  0.7816164E-02  0.1184000E+00
        -11   -1    0    0    0    0  0.00000000000E+00  0.00000000000E+00  0.45593999997E+02  0.45594000000E+02  0.51100000000E-03 0. -1.
         11   -1    0    0    0    0 -0.00000000000E+00 -0.00000000000E+00 -0.45593999997E+02  0.45594000000E+02  0.51100000000E-03 0.  1.
         23    2    1    2    0    0  0.35527136788E-14  0.66613381478E-15  0.00000000000E+00  0.91188000000E+02  0.91188000000E+02 0.  0.
    9900012    2    3    3    0    0 -0.23832278534E+02 -0.18832188702E+01  0.36222911991E+02  0.47787269977E+02  0.19999995133E+02 0.  0.
        -12    1    3    3    0    0  0.23832278534E+02  0.18832188702E+01 -0.36222911991E+02  0.43400730023E+02  0.00000000000E+00 0.  1.
         11    1    4    4    0    0 -0.13044050362E+02 -0.19701117063E+01  0.14367424012E+02  0.19505165033E+02  0.51100000000E-03 0. -1.
        -11    1    4    4    0    0 -0.52138802355E+01 -0.60470845905E+01  0.16727905080E+02  0.18535765099E+02  0.51100000000E-03 0.  1.
         12    1    4    4    0    0 -0.55743479369E+01  0.61339774266E+01  0.51275828983E+01  0.97463398448E+01  0.00000000000E+00 0. -1.
</event>
<event>
 8    1  0.4042158E-011  0.9118800E+02  0.7816164E-02  0.1184000E+00
        -11   -1    0    0    0    0  0.00000000000E+00  0.00000000000E+00  0.45593999997E+02  0.45594000000E+02  0.51100000000E-03 0. -1.
         11   -1    0    0    0    0 -0.00000000000E+00 -0.00000000000E+00 -0.45593999997E+02  0.45594000000E+02  0.51100000000E-03 0.  1.
         23    2    1    2    0    0  0.00000000000E+00  0.00000000000E+00 -0.35527136788E-14  0.91188000000E+02  0.91188000000E+02 0.  0.
    9900012    2    3    3    0    0  0.18450045628E+02  0.27515603531E+02 -0.28037665106E+02  0.47787270906E+02  0.19999999367E+02 0.  0.
         12    1    3    3    0    0 -0.18450045628E+02 -0.27515603531E+02  0.28037665106E+02  0.43400729094E+02  0.00000000000E+00 0. -1.
         11    1    4    4    0    0  0.78371446040E-02 -0.11333744902E+01 -0.26534614353E+01  0.28853868034E+01  0.51100000000E-03 0. -1.
        -11    1    4    4    0    0  0.46232267381E+01  0.60031590808E+01  0.80977441063E+00  0.76202282957E+01  0.51100000000E-03 0.  1.
         12    1    4    4    0    0  0.13818981746E+02  0.22645818940E+02 -0.26193978081E+02  0.37281655806E+02  0.00000000000E+00 0. -1.
</event>
<event>
 8    1  0.4042158E-011  0.9118800E+02  0.7816164E-02  0.1184000E+00
        -11   -1    0    0    0    0  0.00000000000E+00  0.00000000000E+00  0.45593999997E+02  0.45594000000E+02  0.51100000000E-03 0. -1.
         11   -1    0    0    0    0 -0.00000000000E+00 -0.00000000000E+00 -0.45593999997E+02  0.45594000000E+02  0.51100000000E-03 0.  1.
         23    2    1    2    0    0  0.11102230246E-14  0.17763568394E-14  0.71054273576E-14  0.91188000000E+02  0.91188000000E+02 0.  0.
    9900012    2    3    3    0    0 -0.11230781097E+01  0.11391172839E+02  0.41864104059E+02  0.47787270378E+02  0.19999996960E+02 0.  0.
        -12    1    3    3    0    0  0.11230781097E+01 -0.11391172839E+02 -0.41864104059E+02  0.43400729622E+02  0.00000000000E+00 0.  1.
         11    1    4    4    0    0  0.22093666318E+00 -0.14394484285E+01  0.57559123310E+01  0.59372848854E+01  0.51100000000E-03 0. -1.
        -11    1    4    4    0    0  0.68695726921E+01  0.10424351347E+02  0.23516600974E+02  0.26624962941E+02  0.51100000000E-03 0.  1.
        -12    1    4    4    0    0 -0.82135874650E+01  0.24062699209E+01  0.12591590754E+02  0.15225022551E+02  0.00000000000E+00 0.  1.
</event>
<event>
 8    1  0.4042158E-011  0.9118800E+02  0.7816164E-02  0.1184000E+00
        -11   -1    0    0    0    0  0.00000000000E+00  0.00000000000E+00  0.45593999997E+02  0.45594000000E+02  0.51100000000E-03 0. -1.
         11   -1    0    0    0    0 -0.00000000000E+00 -0.00000000000E+00 -0.45593999997E+02  0.45594000000E+02  0.51100000000E-03 0.  1.
         23    2    1    2    0    0  0.00000000000E+00  0.71054273576E-14  0.00000000000E+00  0.91188000000E+02  0.91188000000E+02 0.  0.
    9900012    2    3    3    0    0  0.21943445991E+02 -0.21790279906E+02 -0.30451470509E+02  0.47787272166E+02  0.20000005112E+02 0.  0.
         12    1    3    3    0    0 -0.21943445991E+02  0.21790279906E+02  0.30451470509E+02  0.43400727834E+02  0.00000000000E+00 0. -1.
         11    1    4    4    0    0  0.15130270226E+02 -0.18193621053E+02 -0.21890264259E+02  0.32235331450E+02  0.51100000000E-03 0. -1.
        -11    1    4    4    0    0  0.49160982786E+00 -0.30455711194E+01 -0.86730876243E+01  0.92054132371E+01  0.51100000000E-03 0.  1.
         12    1    4    4    0    0  0.63215659374E+01 -0.55108773415E+00  0.11188137377E+00  0.63465274783E+01  0.00000000000E+00 0. -1.
</event>
<event>
 8    1  0.4042158E-011  0.9118800E+02  0.7816164E-02  0.1184000E+00
        -11   -1    0    0    0    0  0.00000000000E+00  0.00000000000E+00  0.45593999997E+02  0.45594000000E+02  0.51100000000E-03 0. -1.
         11   -1    0    0    0    0 -0.00000000000E+00 -0.00000000000E+00 -0.45593999997E+02  0.45594000000E+02  0.51100000000E-03 0.  1.
         23    2    1    2    0    0  0.00000000000E+00  0.00000000000E+00  0.00000000000E+00  0.91188000000E+02  0.91188000000E+02 0.  0.
    9900012    2    3    3    0    0  0.37630809485E+02  0.13588674807E+02 -0.16819435078E+02  0.47787270722E+02  0.19999998531E+02 0.  0.
         12    1    3    3    0    0 -0.37630809485E+02 -0.13588674807E+02  0.16819435078E+02  0.43400729278E+02  0.00000000000E+00 0. -1.
         11    1    4    4    0    0  0.28522779042E+02  0.25971312688E+01 -0.62103837526E+01  0.29306362479E+02  0.51100000000E-03 0. -1.
        -11    1    4    4    0    0  0.61286784274E+01  0.35572907577E+01 -0.43356118736E+01  0.83073790922E+01  0.51100000000E-03 0.  1.
         12    1    4    4    0    0  0.29793520153E+01  0.74342527808E+01 -0.62734394519E+01  0.10173529152E+02  0.00000000000E+00 0. -1.
</event>
<event>
 8    1  0.4042158E-011  0.9118800E+02  0.7816164E-02  0.1184000E+00
        -11   -1    0    0    0    0  0.00000000000E+00  0.00000000000E+00  0.45593999997E+02  0.45594000000E+02  0.51100000000E-03 0. -1.
         11   -1    0    0    0    0 -0.00000000000E+00 -0.00000000000E+00 -0.45593999997E+02  0.45594000000E+02  0.51100000000E-03 0.  1.
         23    2    1    2    0    0 -0.44408920985E-15  0.00000000000E+00  0.00000000000E+00  0.91188000000E+02  0.91188000000E+02 0.  0.
    9900012    2    3    3    0    0  0.30037104705E+01 -0.19301050819E+02  0.38756556253E+02  0.47787268533E+02  0.19999988548E+02 0.  0.
        -12    1    3    3    0    0 -0.30037104705E+01  0.19301050819E+02 -0.38756556253E+02  0.43400731467E+02  0.00000000000E+00 0.  1.
         11    1    4    4    0    0 -0.20987300300E+01 -0.18703866675E+00  0.67433487176E+00  0.22123243392E+01  0.51100000000E-03 0. -1.
        -11    1    4    4    0    0  0.57995349274E+01 -0.12794662755E+02  0.11242615425E+02  0.17992620772E+02  0.51100000000E-03 0.  1.
         12    1    4    4    0    0 -0.69709442696E+00 -0.63193493971E+01  0.26839605956E+02  0.27582323421E+02  0.00000000000E+00 0. -1.
</event>
<event>
 8    1  0.4042158E-011  0.9118800E+02  0.7816164E-02  0.1184000E+00
        -11   -1    0    0    0    0  0.00000000000E+00  0.00000000000E+00  0.45593999997E+02  0.45594000000E+02  0.51100000000E-03 0. -1.
         11   -1    0    0    0    0 -0.00000000000E+00 -0.00000000000E+00 -0.45593999997E+02  0.45594000000E+02  0.51100000000E-03 0.  1.
         23    2    1    2    0    0  0.35527136788E-14  0.35527136788E-14  0.71054273576E-14  0.91188000000E+02  0.91188000000E+02 0.  0.
    9900012    2    3    3    0    0  0.29081794793E+02  0.17365384918E+02  0.27135149213E+02  0.47787266083E+02  0.19999977380E+02 0.  0.
        -12    1    3    3    0    0 -0.29081794793E+02 -0.17365384918E+02 -0.27135149213E+02  0.43400733917E+02  0.00000000000E+00 0.  1.
         11    1    4    4    0    0  0.11075280254E+02  0.53927275527E+01  0.12870736689E+02  0.17815701118E+02  0.51100000000E-03 0. -1.
        -11    1    4    4    0    0  0.19445186966E+02  0.13637376891E+02  0.14386299537E+02  0.27767948416E+02  0.51100000000E-03 0.  1.
        -12    1    4    4    0    0 -0.14386724269E+01 -0.16647195255E+01 -0.12188701335E+00  0.22036165489E+01  0.00000000000E+00 0.  1.
</event>
<event>
 8    1  0.4042158E-011  0.9118800E+02  0.7816164E-02  0.1184000E+00
        -11   -1    0    0    0    0  0.00000000000E+00  0.00000000000E+00  0.45593999997E+02  0.45594000000E+02  0.51100000000E-03 0. -1.
         11   -1    0    0    0    0 -0.00000000000E+00 -0.00000000000E+00 -0.45593999997E+02  0.45594000000E+02  0.51100000000E-03 0.  1.
         23    2    1    2    0    0  0.00000000000E+00  0.00000000000E+00 -0.71054273576E-14  0.91188000000E+02  0.91188000000E+02 0.  0.
    9900012    2    3    3    0    0  0.95938930691E+01 -0.78618759278E+01  0.41590515523E+02  0.47787275826E+02  0.20000021803E+02 0.  0.
        -12    1    3    3    0    0 -0.95938930691E+01  0.78618759278E+01 -0.41590515523E+02  0.43400724174E+02  0.00000000000E+00 0.  1.
         11    1    4    4    0    0  0.13467788119E+02  0.30163600734E-01  0.31236331543E+02  0.34016034972E+02  0.51100000000E-03 0. -1.
        -11    1    4    4    0    0 -0.74801615218E+00 -0.82987019986E+00  0.43245043898E+00  0.11980093304E+01  0.51100000000E-03 0.  1.
         12    1    4    4    0    0 -0.31258788973E+01 -0.70621693287E+01  0.99217335408E+01  0.12573231524E+02  0.00000000000E+00 0. -1.
</event>
<event>
 8    1  0.4042158E-011  0.9118800E+02  0.7816164E-02  0.1184000E+00
        -11   -1    0    0    0    0  0.00000000000E+00  0.00000000000E+00  0.45593999997E+02  0.45594000000E+02  0.51100000000E-03 0. -1.
         11   -1    0    0    0    0 -0.00000000000E+00 -0.00000000000E+00 -0.45593999997E+02  0.45594000000E+02  0.51100000000E-03 0.  1.
         23    2    1    2    0    0  0.35527136788E-14  0.00000000000E+00  0.71054273576E-14  0.91188000000E+02  0.91188000000E+02 0.  0.
    9900012    2    3    3    0    0 -0.28230398670E+02  0.10181522474E+02 -0.31352908043E+02  0.47787266692E+02  0.19999980154E+02 0.  0.
         12    1    3    3    0    0  0.28230398670E+02 -0.10181522474E+02  0.31352908043E+02  0.43400733308E+02  0.00000000000E+00 0. -1.
         11    1    4    4    0    0 -0.34565732299E+01 -0.18184126975E+01 -0.66374420395E+00  0.39617016371E+01  0.51100000000E-03 0. -1.
        -11    1    4    4    0    0 -0.22121300644E+02  0.37501010145E+01 -0.19928305252E+02  0.30009207758E+02  0.51100000000E-03 0.  1.
        -12    1    4    4    0    0 -0.26525247967E+01  0.82498341572E+01 -0.10760858587E+02  0.13816357296E+02  0.00000000000E+00 0.  1.
</event>
<event>
 8    1  0.4042158E-011  0.9118800E+02  0.7816164E-02  0.1184000E+00
        -11   -1    0    0    0    0  0.00000000000E+00  0.00000000000E+00  0.45593999997E+02  0.45594000000E+02  0.51100000000E-03 0. -1.
         11   -1    0    0    0    0 -0.00000000000E+00 -0.00000000000E+00 -0.45593999997E+02  0.45594000000E+02  0.51100000000E-03 0.  1.
         23    2    1    2    0    0 -0.35527136788E-14  0.00000000000E+00 -0.35527136788E-14  0.91188000000E+02  0.91188000000E+02 0.  0.
    9900012    2    3    3    0    0 -0.25728074863E+02  0.24587192947E+02 -0.24842695920E+02  0.47787269203E+02  0.19999991604E+02 0.  0.
         12    1    3    3    0    0  0.25728074863E+02 -0.24587192947E+02  0.24842695920E+02  0.43400730797E+02  0.00000000000E+00 0. -1.
         11    1    4    4    0    0 -0.13942058656E+02  0.62570308278E+01 -0.25020351247E+01  0.15485206307E+02  0.51100000000E-03 0. -1.
        -11    1    4    4    0    0 -0.63685940327E+00 -0.89970669507E+00 -0.10808794286E+01  0.15438143143E+01  0.51100000000E-03 0.  1.
        -12    1    4    4    0    0 -0.11149156803E+02  0.19229868814E+02 -0.21259781366E+02  0.30758248581E+02  0.00000000000E+00 0.  1.
</event>
<event>
 8    1  0.4042158E-011  0.9118800E+02  0.7816164E-02  0.1184000E+00
        -11   -1    0    0    0    0  0.00000000000E+00  0.00000000000E+00  0.45593999997E+02  0.45594000000E+02  0.51100000000E-03 0. -1.
         11   -1    0    0    0    0 -0.00000000000E+00 -0.00000000000E+00 -0.45593999997E+02  0.45594000000E+02  0.51100000000E-03 0.  1.
         23    2    1    2    0    0  0.35527136788E-14  0.35527136788E-14  0.71054273576E-14  0.91188000000E+02  0.91188000000E+02 0.  0.
    9900012    2    3    3    0    0  0.17916369197E+02  0.21079290013E+02  0.33440858399E+02  0.47787265408E+02  0.19999974302E+02 0.  0.
        -12    1    3    3    0    0 -0.17916369197E+02 -0.21079290013E+02 -0.33440858399E+02  0.43400734592E+02  0.00000000000E+00 0.  1.
         11    1    4    4    0    0  0.28324270076E+00  0.25143002450E+01  0.34650484935E+01  0.42905120293E+01  0.51100000000E-03 0. -1.
        -11    1    4    4    0    0  0.20633508047E+02  0.17224957296E+02  0.21542638601E+02  0.34445987957E+02  0.51100000000E-03 0.  1.
        -12    1    4    4    0    0 -0.30003815507E+01  0.13400324723E+01  0.84331713042E+01  0.90507654219E+01  0.00000000000E+00 0.  1.
</event>
<event>
 8    1  0.4042158E-011  0.9118800E+02  0.7816164E-02  0.1184000E+00
        -11   -1    0    0    0    0  0.00000000000E+00  0.00000000000E+00  0.45593999997E+02  0.45594000000E+02  0.51100000000E-03 0. -1.
         11   -1    0    0    0    0 -0.00000000000E+00 -0.00000000000E+00 -0.45593999997E+02  0.45594000000E+02  0.51100000000E-03 0.  1.
         23    2    1    2    0    0  0.00000000000E+00  0.00000000000E+00  0.00000000000E+00  0.91188000000E+02  0.91188000000E+02 0.  0.
    9900012    2    3    3    0    0 -0.11301589806E+02 -0.12180293238E+02  0.40094052858E+02  0.47787325465E+02  0.20000248123E+02 0.  0.
        -12    1    3    3    0    0  0.11301589806E+02  0.12180293238E+02 -0.40094052858E+02  0.43400674535E+02  0.00000000000E+00 0.  1.
         11    1    4    4    0    0 -0.40052771344E+01  0.58670745095E+00  0.49565030378E+01  0.63994838215E+01  0.51100000000E-03 0. -1.
        -11    1    4    4    0    0  0.42593721044E+01 -0.12587045090E+00  0.39672198847E+01  0.58221068325E+01  0.51100000000E-03 0.  1.
         12    1    4    4    0    0 -0.11555684776E+02 -0.12641130238E+02  0.31170329936E+02  0.35565734811E+02  0.00000000000E+00 0. -1.
</event>
<event>
 8    1  0.4042158E-011  0.9118800E+02  0.7816164E-02  0.1184000E+00
        -11   -1    0    0    0    0  0.00000000000E+00  0.00000000000E+00  0.45593999997E+02  0.45594000000E+02  0.51100000000E-03 0. -1.
         11   -1    0    0    0    0 -0.00000000000E+00 -0.00000000000E+00 -0.45593999997E+02  0.45594000000E+02  0.51100000000E-03 0.  1.
         23    2    1    2    0    0 -0.35527136788E-14 -0.17763568394E-14  0.71054273576E-14  0.91188000000E+02  0.91188000000E+02 0.  0.
    9900012    2    3    3    0    0  0.21953330510E+02  0.15513952586E+02 -0.34073329061E+02  0.47787271911E+02  0.20000003950E+02 0.  0.
         12    1    3    3    0    0 -0.21953330510E+02 -0.15513952586E+02  0.34073329061E+02  0.43400728089E+02  0.00000000000E+00 0. -1.
         11    1    4    4    0    0  0.18034904862E+02  0.56295110061E+00 -0.18523091787E+02  0.25858840595E+02  0.51100000000E-03 0. -1.
        -11    1    4    4    0    0  0.45399427586E+00  0.19215992234E+01 -0.21664179587E+01  0.29312150059E+01  0.51100000000E-03 0.  1.
         12    1    4    4    0    0  0.34644313724E+01  0.13029402262E+02 -0.13383819316E+02  0.18997216310E+02  0.00000000000E+00 0. -1.
</event>
<event>
 8    1  0.4042158E-011  0.9118800E+02  0.7816164E-02  0.1184000E+00
        -11   -1    0    0    0    0  0.00000000000E+00  0.00000000000E+00  0.45593999997E+02  0.45594000000E+02  0.51100000000E-03 0.  1.
         11   -1    0    0    0    0 -0.00000000000E+00 -0.00000000000E+00 -0.45593999997E+02  0.45594000000E+02  0.51100000000E-03 0. -1.
         23    2    1    2    0    0  0.71054273576E-14  0.00000000000E+00 -0.17763568394E-14  0.91188000000E+02  0.91188000000E+02 0.  0.
    9900012    2    3    3    0    0  0.38430458909E+02 -0.12888345111E+02  0.15511725846E+02  0.47787271315E+02  0.20000001236E+02 0.  0.
        -12    1    3    3    0    0 -0.38430458909E+02  0.12888345111E+02 -0.15511725846E+02  0.43400728685E+02  0.00000000000E+00 0.  1.
         11    1    4    4    0    0  0.14824324004E+02 -0.11167271274E+02  0.80602430151E+01  0.20234526127E+02  0.51100000000E-03 0. -1.
        -11    1    4    4    0    0  0.70652441872E+01 -0.49041330197E+01  0.63152766522E+01  0.10670094449E+02  0.51100000000E-03 0.  1.
         12    1    4    4    0    0  0.16540890717E+02  0.31830591828E+01  0.11362061787E+01  0.16882650739E+02  0.00000000000E+00 0. -1.
</event>
<event>
 8    1  0.4042158E-011  0.9118800E+02  0.7816164E-02  0.1184000E+00
        -11   -1    0    0    0    0  0.00000000000E+00  0.00000000000E+00  0.45593999997E+02  0.45594000000E+02  0.51100000000E-03 0. -1.
         11   -1    0    0    0    0 -0.00000000000E+00 -0.00000000000E+00 -0.45593999997E+02  0.45594000000E+02  0.51100000000E-03 0.  1.
         23    2    1    2    0    0 -0.88817841970E-15 -0.88817841970E-15  0.00000000000E+00  0.91188000000E+02  0.91188000000E+02 0.  0.
    9900012    2    3    3    0    0  0.67946607530E+01 -0.74490235009E+01 -0.42213362093E+02  0.47787270686E+02  0.19999998364E+02 0.  0.
         12    1    3    3    0    0 -0.67946607530E+01  0.74490235009E+01  0.42213362093E+02  0.43400729314E+02  0.00000000000E+00 0. -1.
         11    1    4    4    0    0 -0.34531075560E+01 -0.10896727695E+01 -0.49571868134E+01  0.61388142098E+01  0.51100000000E-03 0.  1.
        -11    1    4    4    0    0 -0.34711129430E+01 -0.22872712992E+01 -0.63455825890E+01  0.75859510751E+01  0.51100000000E-03 0. -1.
        -12    1    4    4    0    0  0.13718881252E+02 -0.40720794322E+01 -0.30910592690E+02  0.34062505401E+02  0.00000000000E+00 0.  1.
</event>
<event>
 8    1  0.4042158E-011  0.9118800E+02  0.7816164E-02  0.1184000E+00
        -11   -1    0    0    0    0  0.00000000000E+00  0.00000000000E+00  0.45593999997E+02  0.45594000000E+02  0.51100000000E-03 0.  1.
         11   -1    0    0    0    0 -0.00000000000E+00 -0.00000000000E+00 -0.45593999997E+02  0.45594000000E+02  0.51100000000E-03 0. -1.
         23    2    1    2    0    0  0.35527136788E-14  0.00000000000E+00  0.00000000000E+00  0.91188000000E+02  0.91188000000E+02 0.  0.
    9900012    2    3    3    0    0  0.23352173605E+02 -0.35926369217E+02 -0.68989217647E+01  0.47787272602E+02  0.20000007101E+02 0.  0.
         12    1    3    3    0    0 -0.23352173605E+02  0.35926369217E+02  0.68989217647E+01  0.43400727398E+02  0.00000000000E+00 0. -1.
         11    1    4    4    0    0  0.10214648611E+02 -0.11303037127E+02  0.47605779045E+01  0.15961227922E+02  0.51100000000E-03 0. -1.
        -11    1    4    4    0    0  0.12719431736E+02 -0.17004205249E+02 -0.52840670722E+01  0.21882602791E+02  0.51100000000E-03 0.  1.
        -12    1    4    4    0    0  0.41809325785E+00 -0.76191268410E+01 -0.63754325971E+01  0.99434418886E+01  0.00000000000E+00 0.  1.
</event>
<event>
 8    1  0.4042158E-011  0.9118800E+02  0.7816164E-02  0.1184000E+00
        -11   -1    0    0    0    0  0.00000000000E+00  0.00000000000E+00  0.45593999997E+02  0.45594000000E+02  0.51100000000E-03 0. -1.
         11   -1    0    0    0    0 -0.00000000000E+00 -0.00000000000E+00 -0.45593999997E+02  0.45594000000E+02  0.51100000000E-03 0.  1.
         23    2    1    2    0    0  0.00000000000E+00  0.00000000000E+00 -0.35527136788E-14  0.91188000000E+02  0.91188000000E+02 0.  0.
    9900012    2    3    3    0    0  0.25472815890E+02 -0.26877118443E+02  0.22635805903E+02  0.47787267817E+02  0.19999985284E+02 0.  0.
        -12    1    3    3    0    0 -0.25472815890E+02  0.26877118443E+02 -0.22635805903E+02  0.43400732183E+02  0.00000000000E+00 0.  1.
         11    1    4    4    0    0  0.49331233559E+01 -0.88948693359E+01 -0.18600554281E+01  0.10339932930E+02  0.51100000000E-03 0. -1.
        -11    1    4    4    0    0 -0.58590270672E+00 -0.98469621896E-02  0.44644603399E+00  0.73667717950E+00  0.51100000000E-03 0.  1.
        -12    1    4    4    0    0  0.21125595241E+02 -0.17972402145E+02  0.24049415297E+02  0.36710657707E+02  0.00000000000E+00 0.  1.
</event>
<event>
 8    1  0.4042158E-011  0.9118800E+02  0.7816164E-02  0.1184000E+00
        -11   -1    0    0    0    0  0.00000000000E+00  0.00000000000E+00  0.45593999997E+02  0.45594000000E+02  0.51100000000E-03 0. -1.
         11   -1    0    0    0    0 -0.00000000000E+00 -0.00000000000E+00 -0.45593999997E+02  0.45594000000E+02  0.51100000000E-03 0.  1.
         23    2    1    2    0    0 -0.17763568394E-14  0.00000000000E+00  0.00000000000E+00  0.91188000000E+02  0.91188000000E+02 0.  0.
    9900012    2    3    3    0    0 -0.14085882610E+02 -0.24813665110E+02  0.32703114999E+02  0.47787265032E+02  0.19999972589E+02 0.  0.
        -12    1    3    3    0    0  0.14085882610E+02  0.24813665110E+02 -0.32703114999E+02  0.43400734968E+02  0.00000000000E+00 0.  1.
         11    1    4    4    0    0 -0.86768133460E-01  0.17356335401E+01  0.15743191849E+01  0.23448739096E+01  0.51100000000E-03 0. -1.
        -11    1    4    4    0    0 -0.56353464088E+01 -0.31463705171E+01  0.12422475676E+01  0.65726673320E+01  0.51100000000E-03 0.  1.
         12    1    4    4    0    0 -0.83637680682E+01 -0.23402928133E+02  0.29886548247E+02  0.38869723791E+02  0.00000000000E+00 0. -1.
</event>
<event>
 8    1  0.4042158E-011  0.9118800E+02  0.7816164E-02  0.1184000E+00
        -11   -1    0    0    0    0  0.00000000000E+00  0.00000000000E+00  0.45593999997E+02  0.45594000000E+02  0.51100000000E-03 0. -1.
         11   -1    0    0    0    0 -0.00000000000E+00 -0.00000000000E+00 -0.45593999997E+02  0.45594000000E+02  0.51100000000E-03 0.  1.
         23    2    1    2    0    0  0.00000000000E+00  0.00000000000E+00  0.00000000000E+00  0.91188000000E+02  0.91188000000E+02 0.  0.
    9900012    2    3    3    0    0  0.33870269144E+02 -0.18126669783E+02  0.20195239007E+02  0.47787320653E+02  0.20000226183E+02 0.  0.
        -12    1    3    3    0    0 -0.33870269144E+02  0.18126669783E+02 -0.20195239007E+02  0.43400679347E+02  0.00000000000E+00 0.  1.
         11    1    4    4    0    0  0.99796532580E+01 -0.66818030230E+01  0.15721451890E+02  0.19783933395E+02  0.51100000000E-03 0. -1.
        -11    1    4    4    0    0  0.75152473768E+01 -0.47761924613E+01  0.51919521961E+01  0.10307634327E+02  0.51100000000E-03 0.  1.
        -12    1    4    4    0    0  0.16375368509E+02 -0.66686742985E+01 -0.71816507904E+00  0.17695752930E+02  0.00000000000E+00 0.  1.
</event>
<event>
 8    1  0.4042158E-011  0.9118800E+02  0.7816164E-02  0.1184000E+00
        -11   -1    0    0    0    0  0.00000000000E+00  0.00000000000E+00  0.45593999997E+02  0.45594000000E+02  0.51100000000E-03 0. -1.
         11   -1    0    0    0    0 -0.00000000000E+00 -0.00000000000E+00 -0.45593999997E+02  0.45594000000E+02  0.51100000000E-03 0.  1.
         23    2    1    2    0    0  0.00000000000E+00  0.00000000000E+00  0.00000000000E+00  0.91188000000E+02  0.91188000000E+02 0.  0.
    9900012    2    3    3    0    0  0.24548003596E+02 -0.27623350877E+02 -0.22758935287E+02  0.47787272706E+02  0.20000007575E+02 0.  0.
         12    1    3    3    0    0 -0.24548003596E+02  0.27623350877E+02  0.22758935287E+02  0.43400727294E+02  0.00000000000E+00 0. -1.
         11    1    4    4    0    0 -0.23770908849E+01 -0.23396606853E+01 -0.63018387321E+01  0.71300592469E+01  0.51100000000E-03 0. -1.
        -11    1    4    4    0    0  0.59496452370E+01 -0.74471635291E+01 -0.28778458717E+01  0.99569332727E+01  0.51100000000E-03 0.  1.
         12    1    4    4    0    0  0.20975449244E+02 -0.17836526663E+02 -0.13579250684E+02  0.30700280186E+02  0.00000000000E+00 0. -1.
</event>
<event>
 8    1  0.4042158E-011  0.9118800E+02  0.7816164E-02  0.1184000E+00
        -11   -1    0    0    0    0  0.00000000000E+00  0.00000000000E+00  0.45593999997E+02  0.45594000000E+02  0.51100000000E-03 0. -1.
         11   -1    0    0    0    0 -0.00000000000E+00 -0.00000000000E+00 -0.45593999997E+02  0.45594000000E+02  0.51100000000E-03 0.  1.
         23    2    1    2    0    0  0.44408920985E-15  0.00000000000E+00  0.71054273576E-14  0.91188000000E+02  0.91188000000E+02 0.  0.
    9900012    2    3    3    0    0  0.24850816059E+01 -0.25622696171E+01  0.43253694504E+02  0.47787274839E+02  0.20000017303E+02 0.  0.
        -12    1    3    3    0    0 -0.24850816059E+01  0.25622696171E+01 -0.43253694504E+02  0.43400725161E+02  0.00000000000E+00 0.  1.
         11    1    4    4    0    0 -0.38638434618E+01  0.18035428815E+01  0.71062947622E+01  0.82874289579E+01  0.51100000000E-03 0. -1.
        -11    1    4    4    0    0  0.17273674648E+01  0.24203459078E+01  0.62182744833E+00  0.30378515942E+01  0.51100000000E-03 0.  1.
         12    1    4    4    0    0  0.46215576029E+01 -0.67861584064E+01  0.35525572294E+02  0.36461994287E+02  0.00000000000E+00 0. -1.
</event>
<event>
 8    1  0.4042158E-011  0.9118800E+02  0.7816164E-02  0.1184000E+00
        -11   -1    0    0    0    0  0.00000000000E+00  0.00000000000E+00  0.45593999997E+02  0.45594000000E+02  0.51100000000E-03 0.  1.
         11   -1    0    0    0    0 -0.00000000000E+00 -0.00000000000E+00 -0.45593999997E+02  0.45594000000E+02  0.51100000000E-03 0. -1.
         23    2    1    2    0    0  0.00000000000E+00 -0.17763568394E-14  0.17763568394E-14  0.91188000000E+02  0.91188000000E+02 0.  0.
    9900012    2    3    3    0    0  0.40285108974E+02  0.93683848415E+01 -0.13151465502E+02  0.47787335438E+02  0.20000293592E+02 0.  0.
        -12    1    3    3    0    0 -0.40285108974E+02 -0.93683848415E+01  0.13151465502E+02  0.43400664562E+02  0.00000000000E+00 0.  1.
         11    1    4    4    0    0  0.11499610448E+02 -0.32214343229E+01 -0.77217479713E+01  0.14221254219E+02  0.51100000000E-03 0. -1.
        -11    1    4    4    0    0  0.19481683277E+02  0.29098786522E+01 -0.32064068159E+01  0.19957064464E+02  0.51100000000E-03 0.  1.
        -12    1    4    4    0    0  0.93038152484E+01  0.96799405122E+01 -0.22233107149E+01  0.13609016755E+02  0.00000000000E+00 0.  1.
</event>
<event>
 8    1  0.4042158E-011  0.9118800E+02  0.7816164E-02  0.1184000E+00
        -11   -1    0    0    0    0  0.00000000000E+00  0.00000000000E+00  0.45593999997E+02  0.45594000000E+02  0.51100000000E-03 0. -1.
         11   -1    0    0    0    0 -0.00000000000E+00 -0.00000000000E+00 -0.45593999997E+02  0.45594000000E+02  0.51100000000E-03 0.  1.
         23    2    1    2    0    0  0.00000000000E+00  0.00000000000E+00 -0.17763568394E-14  0.91188000000E+02  0.91188000000E+02 0.  0.
    9900012    2    3    3    0    0 -0.12309818073E+02 -0.41337643070E+02 -0.48260783277E+01  0.47787269734E+02  0.19999994025E+02 0.  0.
         12    1    3    3    0    0  0.12309818073E+02  0.41337643070E+02  0.48260783277E+01  0.43400730266E+02  0.00000000000E+00 0. -1.
         11    1    4    4    0    0 -0.21523456886E+01 -0.68382664614E+01 -0.52685411682E+01  0.88967413395E+01  0.51100000000E-03 0. -1.
        -11    1    4    4    0    0 -0.71414553072E+01 -0.31815993769E+02 -0.40414010281E+01  0.32857126562E+02  0.51100000000E-03 0.  1.
         12    1    4    4    0    0 -0.30160170775E+01 -0.26833828402E+01  0.44838638686E+01  0.60334018323E+01  0.00000000000E+00 0. -1.
</event>
<event>
 8    1  0.4042158E-011  0.9118800E+02  0.7816164E-02  0.1184000E+00
        -11   -1    0    0    0    0  0.00000000000E+00  0.00000000000E+00  0.45593999997E+02  0.45594000000E+02  0.51100000000E-03 0. -1.
         11   -1    0    0    0    0 -0.00000000000E+00 -0.00000000000E+00 -0.45593999997E+02  0.45594000000E+02  0.51100000000E-03 0.  1.
         23    2    1    2    0    0  0.00000000000E+00  0.00000000000E+00  0.00000000000E+00  0.91188000000E+02  0.91188000000E+02 0.  0.
    9900012    2    3    3    0    0 -0.26024203202E+02  0.12007109580E+02 -0.32591313096E+02  0.47787268185E+02  0.19999986963E+02 0.  0.
         12    1    3    3    0    0  0.26024203202E+02 -0.12007109580E+02  0.32591313096E+02  0.43400731815E+02  0.00000000000E+00 0. -1.
         11    1    4    4    0    0 -0.54265454752E+01 -0.16433907809E+01 -0.53351015825E+01  0.77853348168E+01  0.51100000000E-03 0. -1.
        -11    1    4    4    0    0 -0.15910473221E+02  0.21280994499E+01 -0.19836792903E+02  0.25518039076E+02  0.51100000000E-03 0.  1.
         12    1    4    4    0    0 -0.46871845061E+01  0.11522400911E+02 -0.74194186103E+01  0.14483894292E+02  0.00000000000E+00 0. -1.
</event>
<event>
 8    1  0.4042158E-011  0.9118800E+02  0.7816164E-02  0.1184000E+00
        -11   -1    0    0    0    0  0.00000000000E+00  0.00000000000E+00  0.45593999997E+02  0.45594000000E+02  0.51100000000E-03 0. -1.
         11   -1    0    0    0    0 -0.00000000000E+00 -0.00000000000E+00 -0.45593999997E+02  0.45594000000E+02  0.51100000000E-03 0.  1.
         23    2    1    2    0    0  0.00000000000E+00 -0.71054273576E-14  0.00000000000E+00  0.91188000000E+02  0.91188000000E+02 0.  0.
    9900012    2    3    3    0    0  0.10780962507E+02 -0.39001791343E+02  0.15692519377E+02  0.47787262161E+02  0.19999959497E+02 0.  0.
        -12    1    3    3    0    0 -0.10780962507E+02  0.39001791343E+02 -0.15692519377E+02  0.43400737839E+02  0.00000000000E+00 0.  1.
         11    1    4    4    0    0  0.37976826012E+01 -0.44431850227E+01 -0.11943247117E+01  0.59657940011E+01  0.51100000000E-03 0. -1.
        -11    1    4    4    0    0 -0.42514731605E+01 -0.47725340864E+01  0.21699467694E+01  0.67498722124E+01  0.51100000000E-03 0.  1.
         12    1    4    4    0    0  0.11234753066E+02 -0.29786072234E+02  0.14716897319E+02  0.35071595948E+02  0.00000000000E+00 0. -1.
</event>
<event>
 8    1  0.4042158E-011  0.9118800E+02  0.7816164E-02  0.1184000E+00
        -11   -1    0    0    0    0  0.00000000000E+00  0.00000000000E+00  0.45593999997E+02  0.45594000000E+02  0.51100000000E-03 0. -1.
         11   -1    0    0    0    0 -0.00000000000E+00 -0.00000000000E+00 -0.45593999997E+02  0.45594000000E+02  0.51100000000E-03 0.  1.
         23    2    1    2    0    0 -0.20816681712E-16 -0.35527136788E-14 -0.35527136788E-14  0.91188000000E+02  0.91188000000E+02 0.  0.
    9900012    2    3    3    0    0  0.42423219066E-01  0.31764600549E+02  0.29574165213E+02  0.47787275399E+02  0.20000019856E+02 0.  0.
        -12    1    3    3    0    0 -0.42423219066E-01 -0.31764600549E+02 -0.29574165213E+02  0.43400724601E+02  0.00000000000E+00 0.  1.
         11    1    4    4    0    0 -0.38730601705E+00  0.91781238644E+01  0.22185185983E+02  0.24011881247E+02  0.51100000000E-03 0. -1.
        -11    1    4    4    0    0  0.17163790873E+00  0.16228396128E+01  0.47761246944E+00  0.17003475858E+01  0.51100000000E-03 0.  1.
         12    1    4    4    0    0  0.25809132739E+00  0.20963637072E+02  0.69113667605E+01  0.22075046567E+02  0.00000000000E+00 0. -1.
</event>
<event>
 8    1  0.4042158E-011  0.9118800E+02  0.7816164E-02  0.1184000E+00
        -11   -1    0    0    0    0  0.00000000000E+00  0.00000000000E+00  0.45593999997E+02  0.45594000000E+02  0.51100000000E-03 0. -1.
         11   -1    0    0    0    0 -0.00000000000E+00 -0.00000000000E+00 -0.45593999997E+02  0.45594000000E+02  0.51100000000E-03 0.  1.
         23    2    1    2    0    0 -0.22204460493E-15  0.00000000000E+00  0.00000000000E+00  0.91188000000E+02  0.91188000000E+02 0.  0.
    9900012    2    3    3    0    0 -0.19854685654E+01  0.87325101097E+01 -0.42466746805E+02  0.47787269563E+02  0.19999993247E+02 0.  0.
         12    1    3    3    0    0  0.19854685654E+01 -0.87325101097E+01  0.42466746805E+02  0.43400730437E+02  0.00000000000E+00 0. -1.
         11    1    4    4    0    0 -0.94982889283E+01  0.35675233203E+01 -0.13922348583E+02  0.17227202487E+02  0.51100000000E-03 0. -1.
        -11    1    4    4    0    0  0.33998685878E+01 -0.96388804723E+00 -0.92179845087E+01  0.98721540327E+01  0.51100000000E-03 0.  1.
        -12    1    4    4    0    0  0.41129517752E+01  0.61288748366E+01 -0.19326413713E+02  0.20687913043E+02  0.00000000000E+00 0.  1.
</event>
<event>
 8    1  0.4042158E-011  0.9118800E+02  0.7816164E-02  0.1184000E+00
        -11   -1    0    0    0    0  0.00000000000E+00  0.00000000000E+00  0.45593999997E+02  0.45594000000E+02  0.51100000000E-03 0. -1.
         11   -1    0    0    0    0 -0.00000000000E+00 -0.00000000000E+00 -0.45593999997E+02  0.45594000000E+02  0.51100000000E-03 0.  1.
         23    2    1    2    0    0  0.00000000000E+00  0.00000000000E+00  0.00000000000E+00  0.91188000000E+02  0.91188000000E+02 0.  0.
    9900012    2    3    3    0    0  0.25822451055E+02  0.43821571341E+01 -0.34606661519E+02  0.47787270730E+02  0.19999998567E+02 0.  0.
         12    1    3    3    0    0 -0.25822451055E+02 -0.43821571341E+01  0.34606661519E+02  0.43400729270E+02  0.00000000000E+00 0. -1.
         11    1    4    4    0    0  0.60176366581E+01  0.60157314587E+01 -0.33105251396E+01  0.91302000467E+01  0.51100000000E-03 0. -1.
        -11    1    4    4    0    0  0.67358041553E+01  0.44979340675E+01 -0.13484458701E+02  0.15730006205E+02  0.51100000000E-03 0.  1.
        -12    1    4    4    0    0  0.13069010242E+02 -0.61315083920E+01 -0.17811677679E+02  0.22927064478E+02  0.00000000000E+00 0.  1.
</event>
<event>
 8    1  0.4042158E-011  0.9118800E+02  0.7816164E-02  0.1184000E+00
        -11   -1    0    0    0    0  0.00000000000E+00  0.00000000000E+00  0.45593999997E+02  0.45594000000E+02  0.51100000000E-03 0. -1.
         11   -1    0    0    0    0 -0.00000000000E+00 -0.00000000000E+00 -0.45593999997E+02  0.45594000000E+02  0.51100000000E-03 0.  1.
         23    2    1    2    0    0  0.00000000000E+00  0.00000000000E+00 -0.17763568394E-14  0.91188000000E+02  0.91188000000E+02 0.  0.
    9900012    2    3    3    0    0  0.16214478771E+02 -0.38268531449E+02 -0.12499314714E+02  0.47787277778E+02  0.20000030699E+02 0.  0.
         12    1    3    3    0    0 -0.16214478771E+02  0.38268531449E+02  0.12499314714E+02  0.43400722222E+02  0.00000000000E+00 0. -1.
         11    1    4    4    0    0  0.47488891573E+01 -0.29667601168E+01 -0.51690348657E+01  0.76205338083E+01  0.51100000000E-03 0.  1.
        -11    1    4    4    0    0  0.62392127969E+01 -0.11618139498E+02 -0.88240419987E+01  0.15867345688E+02  0.51100000000E-03 0. -1.
         12    1    4    4    0    0  0.52263768171E+01 -0.23683631834E+02  0.14937621499E+01  0.24299398281E+02  0.00000000000E+00 0. -1.
</event>
<event>
 8    1  0.4042158E-011  0.9118800E+02  0.7816164E-02  0.1184000E+00
        -11   -1    0    0    0    0  0.00000000000E+00  0.00000000000E+00  0.45593999997E+02  0.45594000000E+02  0.51100000000E-03 0.  1.
         11   -1    0    0    0    0 -0.00000000000E+00 -0.00000000000E+00 -0.45593999997E+02  0.45594000000E+02  0.51100000000E-03 0. -1.
         23    2    1    2    0    0  0.00000000000E+00 -0.71054273576E-14  0.00000000000E+00  0.91188000000E+02  0.91188000000E+02 0.  0.
    9900012    2    3    3    0    0 -0.15045835749E+02 -0.33619334595E+02 -0.22956200453E+02  0.47787263010E+02  0.19999963368E+02 0.  0.
         12    1    3    3    0    0  0.15045835749E+02  0.33619334595E+02  0.22956200453E+02  0.43400736990E+02  0.00000000000E+00 0. -1.
         11    1    4    4    0    0 -0.24254135556E+01 -0.72459437937E+00 -0.66785479949E+00  0.26179568799E+01  0.51100000000E-03 0. -1.
        -11    1    4    4    0    0  0.29998766259E+01 -0.14170854525E+02 -0.11547691600E+02  0.18524620355E+02  0.51100000000E-03 0.  1.
        -12    1    4    4    0    0 -0.15620298819E+02 -0.18723885691E+02 -0.10740654054E+02  0.26644685775E+02  0.00000000000E+00 0.  1.
</event>
<event>
 8    1  0.4042158E-011  0.9118800E+02  0.7816164E-02  0.1184000E+00
        -11   -1    0    0    0    0  0.00000000000E+00  0.00000000000E+00  0.45593999997E+02  0.45594000000E+02  0.51100000000E-03 0. -1.
         11   -1    0    0    0    0 -0.00000000000E+00 -0.00000000000E+00 -0.45593999997E+02  0.45594000000E+02  0.51100000000E-03 0.  1.
         23    2    1    2    0    0  0.35527136788E-14 -0.88817841970E-15 -0.71054273576E-14  0.91188000000E+02  0.91188000000E+02 0.  0.
    9900012    2    3    3    0    0 -0.18946152625E+02 -0.66602861375E+01 -0.38474757830E+02  0.47787273038E+02  0.20000009091E+02 0.  0.
         12    1    3    3    0    0  0.18946152625E+02  0.66602861375E+01  0.38474757830E+02  0.43400726962E+02  0.00000000000E+00 0. -1.
         11    1    4    4    0    0 -0.93301121995E+00 -0.12365679615E+01  0.35365871677E+00  0.15889257406E+01  0.51100000000E-03 0. -1.
        -11    1    4    4    0    0 -0.18957898363E+02 -0.87809278234E-01 -0.34057552006E+02  0.38978538579E+02  0.51100000000E-03 0.  1.
        -12    1    4    4    0    0  0.94475695822E+00 -0.53359088977E+01 -0.47708645403E+01  0.72198087189E+01  0.00000000000E+00 0.  1.
</event>
<event>
 8    1  0.4042158E-011  0.9118800E+02  0.7816164E-02  0.1184000E+00
        -11   -1    0    0    0    0  0.00000000000E+00  0.00000000000E+00  0.45593999997E+02  0.45594000000E+02  0.51100000000E-03 0. -1.
         11   -1    0    0    0    0 -0.00000000000E+00 -0.00000000000E+00 -0.45593999997E+02  0.45594000000E+02  0.51100000000E-03 0.  1.
         23    2    1    2    0    0  0.00000000000E+00  0.00000000000E+00 -0.35527136788E-14  0.91188000000E+02  0.91188000000E+02 0.  0.
    9900012    2    3    3    0    0  0.28929277018E+02 -0.22407438874E+02 -0.23337238496E+02  0.47787273206E+02  0.20000009853E+02 0.  0.
         12    1    3    3    0    0 -0.28929277018E+02  0.22407438874E+02  0.23337238496E+02  0.43400726794E+02  0.00000000000E+00 0. -1.
         11    1    4    4    0    0  0.17244259080E+02 -0.16950653957E+02 -0.53074068883E+01  0.24755963098E+02  0.51100000000E-03 0. -1.
        -11    1    4    4    0    0  0.34252966591E+01  0.26736618784E+00 -0.16427075972E+01  0.38082319247E+01  0.51100000000E-03 0.  1.
         12    1    4    4    0    0  0.82597212791E+01 -0.57241511046E+01 -0.16387124011E+02  0.19223078183E+02  0.00000000000E+00 0. -1.
</event>
<event>
 8    1  0.4042158E-011  0.9118800E+02  0.7816164E-02  0.1184000E+00
        -11   -1    0    0    0    0  0.00000000000E+00  0.00000000000E+00  0.45593999997E+02  0.45594000000E+02  0.51100000000E-03 0. -1.
         11   -1    0    0    0    0 -0.00000000000E+00 -0.00000000000E+00 -0.45593999997E+02  0.45594000000E+02  0.51100000000E-03 0.  1.
         23    2    1    2    0    0  0.00000000000E+00  0.35527136788E-14  0.00000000000E+00  0.91188000000E+02  0.91188000000E+02 0.  0.
    9900012    2    3    3    0    0 -0.12564347700E+02 -0.26541590170E+02 -0.31957851772E+02  0.47787272682E+02  0.20000007465E+02 0.  0.
         12    1    3    3    0    0  0.12564347700E+02  0.26541590170E+02  0.31957851772E+02  0.43400727318E+02  0.00000000000E+00 0. -1.
         11    1    4    4    0    0 -0.49659245087E+01 -0.14222834409E+02 -0.13012383857E+02  0.19906570743E+02  0.51100000000E-03 0. -1.
        -11    1    4    4    0    0  0.17665642510E+00 -0.76830962806E+01 -0.95890000665E+00  0.77447185510E+01  0.51100000000E-03 0.  1.
        -12    1    4    4    0    0 -0.77750796166E+01 -0.46356594798E+01 -0.17986567908E+02  0.20135983387E+02  0.00000000000E+00 0.  1.
</event>
<event>
 8    1  0.4042158E-011  0.9118800E+02  0.7816164E-02  0.1184000E+00
        -11   -1    0    0    0    0  0.00000000000E+00  0.00000000000E+00  0.45593999997E+02  0.45594000000E+02  0.51100000000E-03 0. -1.
         11   -1    0    0    0    0 -0.00000000000E+00 -0.00000000000E+00 -0.45593999997E+02  0.45594000000E+02  0.51100000000E-03 0.  1.
         23    2    1    2    0    0  0.00000000000E+00  0.00000000000E+00  0.00000000000E+00  0.91188000000E+02  0.91188000000E+02 0.  0.
    9900012    2    3    3    0    0 -0.25302398666E+02  0.10330517600E+02 -0.33714881530E+02  0.47787260274E+02  0.19999950895E+02 0.  0.
         12    1    3    3    0    0  0.25302398666E+02 -0.10330517600E+02  0.33714881530E+02  0.43400739726E+02  0.00000000000E+00 0. -1.
         11    1    4    4    0    0 -0.25741547497E+01  0.33887640526E+01 -0.47233962273E+01  0.63577092306E+01  0.51100000000E-03 0. -1.
        -11    1    4    4    0    0 -0.10342253549E+02  0.54257778107E+01 -0.22137192637E+01  0.11887044484E+02  0.51100000000E-03 0.  1.
        -12    1    4    4    0    0 -0.12385990368E+02  0.15159757364E+01 -0.26777766039E+02  0.29542506560E+02  0.00000000000E+00 0.  1.
</event>
<event>
 8    1  0.4042158E-011  0.9118800E+02  0.7816164E-02  0.1184000E+00
        -11   -1    0    0    0    0  0.00000000000E+00  0.00000000000E+00  0.45593999997E+02  0.45594000000E+02  0.51100000000E-03 0. -1.
         11   -1    0    0    0    0 -0.00000000000E+00 -0.00000000000E+00 -0.45593999997E+02  0.45594000000E+02  0.51100000000E-03 0.  1.
         23    2    1    2    0    0  0.00000000000E+00  0.00000000000E+00  0.00000000000E+00  0.91188000000E+02  0.91188000000E+02 0.  0.
    9900012    2    3    3    0    0  0.28784353280E+02  0.18730096879E+02 -0.26538045669E+02  0.47787269698E+02  0.19999993859E+02 0.  0.
         12    1    3    3    0    0 -0.28784353280E+02 -0.18730096879E+02  0.26538045669E+02  0.43400730302E+02  0.00000000000E+00 0. -1.
         11    1    4    4    0    0  0.13359665921E+01  0.11592257763E+00 -0.72576913124E+01  0.73805371231E+01  0.51100000000E-03 0. -1.
        -11    1    4    4    0    0  0.48379148058E+01 -0.32905980956E+00 -0.68612938895E+01  0.84018482565E+01  0.51100000000E-03 0.  1.
        -12    1    4    4    0    0  0.22610471882E+02  0.18943234111E+02 -0.12419060467E+02  0.32004884318E+02  0.00000000000E+00 0.  1.
</event>
<event>
 8    1  0.4042158E-011  0.9118800E+02  0.7816164E-02  0.1184000E+00
        -11   -1    0    0    0    0  0.00000000000E+00  0.00000000000E+00  0.45593999997E+02  0.45594000000E+02  0.51100000000E-03 0. -1.
         11   -1    0    0    0    0 -0.00000000000E+00 -0.00000000000E+00 -0.45593999997E+02  0.45594000000E+02  0.51100000000E-03 0.  1.
         23    2    1    2    0    0  0.17763568394E-14  0.00000000000E+00  0.00000000000E+00  0.91188000000E+02  0.91188000000E+02 0.  0.
    9900012    2    3    3    0    0 -0.15781573784E+02 -0.97121408677E+01  0.39245884936E+02  0.47787271484E+02  0.20000002003E+02 0.  0.
        -12    1    3    3    0    0  0.15781573784E+02  0.97121408677E+01 -0.39245884936E+02  0.43400728516E+02  0.00000000000E+00 0.  1.
         11    1    4    4    0    0 -0.91408971113E+01 -0.10967469899E+02  0.21713924266E+02  0.25987225771E+02  0.51100000000E-03 0. -1.
        -11    1    4    4    0    0 -0.95910931904E+01 -0.14378157717E+00  0.14187667296E+02  0.17125993264E+02  0.51100000000E-03 0.  1.
        -12    1    4    4    0    0  0.29504165172E+01  0.13991106086E+01  0.33442933739E+01  0.46740524484E+01  0.00000000000E+00 0.  1.
</event>
<event>
 8    1  0.4042158E-011  0.9118800E+02  0.7816164E-02  0.1184000E+00
        -11   -1    0    0    0    0  0.00000000000E+00  0.00000000000E+00  0.45593999997E+02  0.45594000000E+02  0.51100000000E-03 0. -1.
         11   -1    0    0    0    0 -0.00000000000E+00 -0.00000000000E+00 -0.45593999997E+02  0.45594000000E+02  0.51100000000E-03 0.  1.
         23    2    1    2    0    0 -0.71054273576E-14 -0.17763568394E-14 -0.35527136788E-14  0.91188000000E+02  0.91188000000E+02 0.  0.
    9900012    2    3    3    0    0  0.40086968443E+02  0.27409876326E+01  0.16405686991E+02  0.47787255561E+02  0.19999929407E+02 0.  0.
        -12    1    3    3    0    0 -0.40086968443E+02 -0.27409876326E+01 -0.16405686991E+02  0.43400744439E+02  0.00000000000E+00 0.  1.
         11    1    4    4    0    0  0.13995050968E+02  0.29391929655E+01  0.77027116464E+01  0.16242908418E+02  0.51100000000E-03 0. -1.
        -11    1    4    4    0    0  0.19894465970E+02  0.54257059058E+01  0.18064224841E+01  0.20700029547E+02  0.51100000000E-03 0.  1.
         12    1    4    4    0    0  0.61974515051E+01 -0.56239112387E+01  0.68965528602E+01  0.10844317596E+02  0.00000000000E+00 0. -1.
</event>
<event>
 8    1  0.4042158E-011  0.9118800E+02  0.7816164E-02  0.1184000E+00
        -11   -1    0    0    0    0  0.00000000000E+00  0.00000000000E+00  0.45593999997E+02  0.45594000000E+02  0.51100000000E-03 0.  1.
         11   -1    0    0    0    0 -0.00000000000E+00 -0.00000000000E+00 -0.45593999997E+02  0.45594000000E+02  0.51100000000E-03 0. -1.
         23    2    1    2    0    0  0.00000000000E+00  0.00000000000E+00  0.88817841970E-15  0.91188000000E+02  0.91188000000E+02 0.  0.
    9900012    2    3    3    0    0  0.68115116316E+01 -0.42166471357E+02 -0.76951423633E+01  0.47787271741E+02  0.20000003176E+02 0.  0.
         12    1    3    3    0    0 -0.68115116316E+01  0.42166471357E+02  0.76951423633E+01  0.43400728259E+02  0.00000000000E+00 0. -1.
         11    1    4    4    0    0  0.14644996743E+01 -0.48773514109E+00  0.38296805796E+00  0.15903803502E+01  0.51100000000E-03 0. -1.
        -11    1    4    4    0    0  0.97687317336E+01 -0.22074130432E+02 -0.97425986036E+01  0.26031011925E+02  0.51100000000E-03 0.  1.
         12    1    4    4    0    0 -0.44217197763E+01 -0.19604605784E+02  0.16644881823E+01  0.20165879466E+02  0.00000000000E+00 0. -1.
</event>
<event>
 8    1  0.4042158E-011  0.9118800E+02  0.7816164E-02  0.1184000E+00
        -11   -1    0    0    0    0  0.00000000000E+00  0.00000000000E+00  0.45593999997E+02  0.45594000000E+02  0.51100000000E-03 0. -1.
         11   -1    0    0    0    0 -0.00000000000E+00 -0.00000000000E+00 -0.45593999997E+02  0.45594000000E+02  0.51100000000E-03 0.  1.
         23    2    1    2    0    0 -0.88817841970E-15  0.00000000000E+00  0.00000000000E+00  0.91188000000E+02  0.91188000000E+02 0.  0.
    9900012    2    3    3    0    0 -0.74913123086E+01  0.15443176608E+02 -0.39862405654E+02  0.47787275947E+02  0.20000022352E+02 0.  0.
         12    1    3    3    0    0  0.74913123086E+01 -0.15443176608E+02  0.39862405654E+02  0.43400724053E+02  0.00000000000E+00 0. -1.
         11    1    4    4    0    0  0.53349654301E+01  0.41741744337E+01 -0.12592925113E+02  0.14299208073E+02  0.51100000000E-03 0. -1.
        -11    1    4    4    0    0 -0.77658615669E+00  0.62021382952E+01 -0.10585386565E+02  0.12293088077E+02  0.51100000000E-03 0.  1.
        -12    1    4    4    0    0 -0.12049691582E+02  0.50668638791E+01 -0.16684093976E+02  0.21194979797E+02  0.00000000000E+00 0.  1.
</event>
<event>
 8    1  0.4042158E-011  0.9118800E+02  0.7816164E-02  0.1184000E+00
        -11   -1    0    0    0    0  0.00000000000E+00  0.00000000000E+00  0.45593999997E+02  0.45594000000E+02  0.51100000000E-03 0. -1.
         11   -1    0    0    0    0 -0.00000000000E+00 -0.00000000000E+00 -0.45593999997E+02  0.45594000000E+02  0.51100000000E-03 0.  1.
         23    2    1    2    0    0  0.00000000000E+00  0.00000000000E+00  0.00000000000E+00  0.91188000000E+02  0.91188000000E+02 0.  0.
    9900012    2    3    3    0    0  0.34561742498E+02 -0.15209122994E+02  0.21396071541E+02  0.47787270235E+02  0.19999996309E+02 0.  0.
        -12    1    3    3    0    0 -0.34561742498E+02  0.15209122994E+02 -0.21396071541E+02  0.43400729765E+02  0.00000000000E+00 0.  1.
         11    1    4    4    0    0  0.41403537822E+00  0.11797134678E+01  0.20889181075E+01  0.24344872728E+01  0.51100000000E-03 0. -1.
        -11    1    4    4    0    0  0.32924609542E+01 -0.45432994511E+00 -0.26636747957E+01  0.42593284109E+01  0.51100000000E-03 0.  1.
         12    1    4    4    0    0  0.30855246165E+02 -0.15934506517E+02  0.21970828230E+02  0.41093454551E+02  0.00000000000E+00 0. -1.
</event>
<event>
 8    1  0.4042158E-011  0.9118800E+02  0.7816164E-02  0.1184000E+00
        -11   -1    0    0    0    0  0.00000000000E+00  0.00000000000E+00  0.45593999997E+02  0.45594000000E+02  0.51100000000E-03 0. -1.
         11   -1    0    0    0    0 -0.00000000000E+00 -0.00000000000E+00 -0.45593999997E+02  0.45594000000E+02  0.51100000000E-03 0.  1.
         23    2    1    2    0    0 -0.35527136788E-14 -0.10130785100E-14  0.71054273576E-14  0.91188000000E+02  0.91188000000E+02 0.  0.
    9900012    2    3    3    0    0 -0.16696649519E+02 -0.45523617897E-01  0.40060489095E+02  0.47787274613E+02  0.20000016271E+02 0.  0.
        -12    1    3    3    0    0  0.16696649519E+02  0.45523617897E-01 -0.40060489095E+02  0.43400725387E+02  0.00000000000E+00 0.  1.
         11    1    4    4    0    0 -0.87170132726E+01 -0.42775778394E+01  0.33342770036E+02  0.34727860667E+02  0.51100000000E-03 0. -1.
        -11    1    4    4    0    0 -0.32059749223E+01 -0.16312401484E+01  0.16511026382E+01  0.39579489394E+01  0.51100000000E-03 0.  1.
         12    1    4    4    0    0 -0.47736613244E+01  0.58632943699E+01  0.50666164204E+01  0.91014650063E+01  0.00000000000E+00 0. -1.
</event>
<event>
 8    1  0.4042158E-011  0.9118800E+02  0.7816164E-02  0.1184000E+00
        -11   -1    0    0    0    0  0.00000000000E+00  0.00000000000E+00  0.45593999997E+02  0.45594000000E+02  0.51100000000E-03 0. -1.
         11   -1    0    0    0    0 -0.00000000000E+00 -0.00000000000E+00 -0.45593999997E+02  0.45594000000E+02  0.51100000000E-03 0.  1.
         23    2    1    2    0    0  0.00000000000E+00  0.88817841970E-15  0.00000000000E+00  0.91188000000E+02  0.91188000000E+02 0.  0.
    9900012    2    3    3    0    0  0.34118033933E+02 -0.62833949510E+01 -0.26078767304E+02  0.47787269642E+02  0.19999993604E+02 0.  0.
         12    1    3    3    0    0 -0.34118033933E+02  0.62833949510E+01  0.26078767304E+02  0.43400730358E+02  0.00000000000E+00 0. -1.
         11    1    4    4    0    0  0.61317922112E+01  0.19206302977E+01 -0.52786634825E+00  0.64471962592E+01  0.51100000000E-03 0. -1.
        -11    1    4    4    0    0  0.14272888512E+02 -0.95264665673E+01 -0.77458287367E+01  0.18827288037E+02  0.51100000000E-03 0.  1.
        -12    1    4    4    0    0  0.13713353209E+02  0.13224413186E+01 -0.17805072219E+02  0.22512785346E+02  0.00000000000E+00 0.  1.
</event>
<event>
 8    1  0.4042158E-011  0.9118800E+02  0.7816164E-02  0.1184000E+00
        -11   -1    0    0    0    0  0.00000000000E+00  0.00000000000E+00  0.45593999997E+02  0.45594000000E+02  0.51100000000E-03 0. -1.
         11   -1    0    0    0    0 -0.00000000000E+00 -0.00000000000E+00 -0.45593999997E+02  0.45594000000E+02  0.51100000000E-03 0.  1.
         23    2    1    2    0    0  0.00000000000E+00  0.00000000000E+00 -0.27755575616E-15  0.91188000000E+02  0.91188000000E+02 0.  0.
    9900012    2    3    3    0    0  0.42619635705E+02  0.81927982946E+01 -0.26096029057E+00  0.47787269686E+02  0.19999993804E+02 0.  0.
        -12    1    3    3    0    0 -0.42619635705E+02 -0.81927982946E+01  0.26096029057E+00  0.43400730314E+02  0.00000000000E+00 0.  1.
         11    1    4    4    0    0  0.11065016971E+02  0.53929115068E+01 -0.59297911660E+01  0.13663107941E+02  0.51100000000E-03 0. -1.
        -11    1    4    4    0    0  0.31256964917E+01  0.24821188477E+01  0.39904180698E+01  0.56439639586E+01  0.51100000000E-03 0.  1.
         12    1    4    4    0    0  0.28428922243E+02  0.31776794011E+00  0.16784128056E+01  0.28480197786E+02  0.00000000000E+00 0. -1.
</event>
<event>
 8    1  0.4042158E-011  0.9118800E+02  0.7816164E-02  0.1184000E+00
        -11   -1    0    0    0    0  0.00000000000E+00  0.00000000000E+00  0.45593999997E+02  0.45594000000E+02  0.51100000000E-03 0. -1.
         11   -1    0    0    0    0 -0.00000000000E+00 -0.00000000000E+00 -0.45593999997E+02  0.45594000000E+02  0.51100000000E-03 0.  1.
         23    2    1    2    0    0  0.00000000000E+00  0.00000000000E+00  0.71054273576E-14  0.91188000000E+02  0.91188000000E+02 0.  0.
    9900012    2    3    3    0    0 -0.14142433077E+01  0.17536792922E+02 -0.39674729113E+02  0.47787270509E+02  0.19999997560E+02 0.  0.
         12    1    3    3    0    0  0.14142433077E+01 -0.17536792922E+02  0.39674729113E+02  0.43400729491E+02  0.00000000000E+00 0. -1.
         11    1    4    4    0    0 -0.16725729664E+01 -0.11211862975E+01 -0.37778708755E+01  0.42809890977E+01  0.51100000000E-03 0.  1.
        -11    1    4    4    0    0 -0.37182764929E+00  0.89612088000E+01 -0.34067023075E+01  0.95941200655E+01  0.51100000000E-03 0. -1.
         12    1    4    4    0    0  0.63015730806E+00  0.96967704196E+01 -0.32490155930E+02  0.33912161346E+02  0.00000000000E+00 0. -1.
</event>
<event>
 8    1  0.4042158E-011  0.9118800E+02  0.7816164E-02  0.1184000E+00
        -11   -1    0    0    0    0  0.00000000000E+00  0.00000000000E+00  0.45593999997E+02  0.45594000000E+02  0.51100000000E-03 0. -1.
         11   -1    0    0    0    0 -0.00000000000E+00 -0.00000000000E+00 -0.45593999997E+02  0.45594000000E+02  0.51100000000E-03 0.  1.
         23    2    1    2    0    0  0.00000000000E+00 -0.17763568394E-14  0.00000000000E+00  0.91188000000E+02  0.91188000000E+02 0.  0.
    9900012    2    3    3    0    0  0.12955957307E+02 -0.11049895768E+02 -0.39920751030E+02  0.47787269718E+02  0.19999993954E+02 0.  0.
         12    1    3    3    0    0 -0.12955957307E+02  0.11049895768E+02  0.39920751030E+02  0.43400730282E+02  0.00000000000E+00 0. -1.
         11    1    4    4    0    0 -0.36673321104E+00  0.60637345768E+00 -0.64820038937E+01  0.65206254882E+01  0.51100000000E-03 0. -1.
        -11    1    4    4    0    0  0.16078576376E+02 -0.55996619507E+01 -0.19961354615E+02  0.26236091755E+02  0.51100000000E-03 0.  1.
        -12    1    4    4    0    0 -0.27558858583E+01 -0.60566072753E+01 -0.13477392521E+02  0.15030552475E+02  0.00000000000E+00 0.  1.
</event>
<event>
 8    1  0.4042158E-011  0.9118800E+02  0.7816164E-02  0.1184000E+00
        -11   -1    0    0    0    0  0.00000000000E+00  0.00000000000E+00  0.45593999997E+02  0.45594000000E+02  0.51100000000E-03 0. -1.
         11   -1    0    0    0    0 -0.00000000000E+00 -0.00000000000E+00 -0.45593999997E+02  0.45594000000E+02  0.51100000000E-03 0.  1.
         23    2    1    2    0    0 -0.71054273576E-14  0.00000000000E+00  0.00000000000E+00  0.91188000000E+02  0.91188000000E+02 0.  0.
    9900012    2    3    3    0    0 -0.37759087621E+02 -0.26860714934E+01 -0.21228739956E+02  0.47787273300E+02  0.20000010282E+02 0.  0.
         12    1    3    3    0    0  0.37759087621E+02  0.26860714934E+01  0.21228739956E+02  0.43400726700E+02  0.00000000000E+00 0. -1.
         11    1    4    4    0    0  0.70129359853E+00 -0.65271000476E+00  0.90075577209E+00  0.13149921231E+01  0.51100000000E-03 0. -1.
        -11    1    4    4    0    0 -0.21946543548E+01  0.11449585147E+01 -0.63114585758E+01  0.67795241243E+01  0.51100000000E-03 0.  1.
         12    1    4    4    0    0 -0.36265726864E+02 -0.31783200033E+01 -0.15818037152E+02  0.39692757052E+02  0.00000000000E+00 0. -1.
</event>
<event>
 8    1  0.4042158E-011  0.9118800E+02  0.7816164E-02  0.1184000E+00
        -11   -1    0    0    0    0  0.00000000000E+00  0.00000000000E+00  0.45593999997E+02  0.45594000000E+02  0.51100000000E-03 0. -1.
         11   -1    0    0    0    0 -0.00000000000E+00 -0.00000000000E+00 -0.45593999997E+02  0.45594000000E+02  0.51100000000E-03 0.  1.
         23    2    1    2    0    0  0.00000000000E+00  0.00000000000E+00 -0.71054273576E-14  0.91188000000E+02  0.91188000000E+02 0.  0.
    9900012    2    3    3    0    0  0.23268440286E+02 -0.16168024289E+02 -0.32875493218E+02  0.47787269855E+02  0.19999994578E+02 0.  0.
         12    1    3    3    0    0 -0.23268440286E+02  0.16168024289E+02  0.32875493218E+02  0.43400730145E+02  0.00000000000E+00 0. -1.
         11    1    4    4    0    0  0.23273462589E+01 -0.82861339872E+01 -0.39327982339E+01  0.94627405794E+01  0.51100000000E-03 0. -1.
        -11    1    4    4    0    0  0.14609665167E+02 -0.97229848450E+01 -0.15770719017E+02  0.23594370709E+02  0.51100000000E-03 0.  1.
        -12    1    4    4    0    0  0.63314288603E+01  0.18410945428E+01 -0.13171975967E+02  0.14730158567E+02  0.00000000000E+00 0.  1.
</event>
<event>
 8    1  0.4042158E-011  0.9118800E+02  0.7816164E-02  0.1184000E+00
        -11   -1    0    0    0    0  0.00000000000E+00  0.00000000000E+00  0.45593999997E+02  0.45594000000E+02  0.51100000000E-03 0.  1.
         11   -1    0    0    0    0 -0.00000000000E+00 -0.00000000000E+00 -0.45593999997E+02  0.45594000000E+02  0.51100000000E-03 0. -1.
         23    2    1    2    0    0  0.00000000000E+00  0.17763568394E-14  0.17763568394E-14  0.91188000000E+02  0.91188000000E+02 0.  0.
    9900012    2    3    3    0    0  0.37666501142E+02 -0.14934783757E+02 -0.15550240864E+02  0.47787273449E+02  0.20000010965E+02 0.  0.
         12    1    3    3    0    0 -0.37666501142E+02  0.14934783757E+02  0.15550240864E+02  0.43400726551E+02  0.00000000000E+00 0. -1.
         11    1    4    4    0    0  0.10584942174E+02 -0.29775066964E+01 -0.18908793874E+01  0.11157148922E+02  0.51100000000E-03 0. -1.
        -11    1    4    4    0    0  0.19727610615E+02 -0.65439478597E+01 -0.72515831886E+00  0.20797301003E+02  0.51100000000E-03 0.  1.
         12    1    4    4    0    0  0.73539483538E+01 -0.54133292012E+01 -0.12934203158E+02  0.15832823524E+02  0.00000000000E+00 0. -1.
</event>
<event>
 8    1  0.4042158E-011  0.9118800E+02  0.7816164E-02  0.1184000E+00
        -11   -1    0    0    0    0  0.00000000000E+00  0.00000000000E+00  0.45593999997E+02  0.45594000000E+02  0.51100000000E-03 0. -1.
         11   -1    0    0    0    0 -0.00000000000E+00 -0.00000000000E+00 -0.45593999997E+02  0.45594000000E+02  0.51100000000E-03 0.  1.
         23    2    1    2    0    0 -0.44408920985E-15  0.00000000000E+00  0.00000000000E+00  0.91188000000E+02  0.91188000000E+02 0.  0.
    9900012    2    3    3    0    0 -0.15107375019E+01  0.23717790174E+01  0.43309532362E+02  0.47787271240E+02  0.20000000890E+02 0.  0.
        -12    1    3    3    0    0  0.15107375019E+01 -0.23717790174E+01 -0.43309532362E+02  0.43400728760E+02  0.00000000000E+00 0.  1.
         11    1    4    4    0    0  0.42317606382E+01  0.83197695693E+01  0.25389745406E+02  0.27051165148E+02  0.51100000000E-03 0. -1.
        -11    1    4    4    0    0  0.12232329918E+01 -0.20967617745E+01  0.33975702227E+01  0.41756667217E+01  0.51100000000E-03 0.  1.
         12    1    4    4    0    0 -0.69657311319E+01 -0.38512287774E+01  0.14522216733E+02  0.16560439370E+02  0.00000000000E+00 0. -1.
</event>
<event>
 8    1  0.4042158E-011  0.9118800E+02  0.7816164E-02  0.1184000E+00
        -11   -1    0    0    0    0  0.00000000000E+00  0.00000000000E+00  0.45593999997E+02  0.45594000000E+02  0.51100000000E-03 0. -1.
         11   -1    0    0    0    0 -0.00000000000E+00 -0.00000000000E+00 -0.45593999997E+02  0.45594000000E+02  0.51100000000E-03 0.  1.
         23    2    1    2    0    0  0.00000000000E+00  0.00000000000E+00  0.00000000000E+00  0.91188000000E+02  0.91188000000E+02 0.  0.
    9900012    2    3    3    0    0  0.16928707629E+02  0.89153357210E+01  0.38955844207E+02  0.47787283982E+02  0.20000058989E+02 0.  0.
        -12    1    3    3    0    0 -0.16928707629E+02 -0.89153357210E+01 -0.38955844207E+02  0.43400716018E+02  0.00000000000E+00 0.  1.
         11    1    4    4    0    0  0.12519703458E+02  0.93369380875E+01  0.22164528332E+02  0.27114344985E+02  0.51100000000E-03 0. -1.
        -11    1    4    4    0    0  0.16910009965E+01 -0.41078911903E+01  0.14661243677E+01  0.46780097611E+01  0.51100000000E-03 0.  1.
         12    1    4    4    0    0  0.27180031739E+01  0.36862888238E+01  0.15325191507E+02  0.15994929236E+02  0.00000000000E+00 0. -1.
</event>
<event>
 8    1  0.4042158E-011  0.9118800E+02  0.7816164E-02  0.1184000E+00
        -11   -1    0    0    0    0  0.00000000000E+00  0.00000000000E+00  0.45593999997E+02  0.45594000000E+02  0.51100000000E-03 0. -1.
         11   -1    0    0    0    0 -0.00000000000E+00 -0.00000000000E+00 -0.45593999997E+02  0.45594000000E+02  0.51100000000E-03 0.  1.
         23    2    1    2    0    0  0.17763568394E-14  0.17763568394E-14  0.00000000000E+00  0.91188000000E+02  0.91188000000E+02 0.  0.
    9900012    2    3    3    0    0 -0.38555919730E+01  0.13772553332E+02 -0.40976508296E+02  0.47787273660E+02  0.20000011924E+02 0.  0.
         12    1    3    3    0    0  0.38555919730E+01 -0.13772553332E+02  0.40976508296E+02  0.43400726340E+02  0.00000000000E+00 0. -1.
         11    1    4    4    0    0 -0.65222476478E+01  0.58903180234E+01 -0.14223842066E+02  0.16719845818E+02  0.51100000000E-03 0. -1.
        -11    1    4    4    0    0 -0.34681720984E+01  0.54847943836E+01 -0.22021390160E+02  0.22957630801E+02  0.51100000000E-03 0.  1.
         12    1    4    4    0    0  0.61348277733E+01  0.23974409246E+01 -0.47312760698E+01  0.81097970408E+01  0.00000000000E+00 0. -1.
</event>
<event>
 8    1  0.4042158E-011  0.9118800E+02  0.7816164E-02  0.1184000E+00
        -11   -1    0    0    0    0  0.00000000000E+00  0.00000000000E+00  0.45593999997E+02  0.45594000000E+02  0.51100000000E-03 0. -1.
         11   -1    0    0    0    0 -0.00000000000E+00 -0.00000000000E+00 -0.45593999997E+02  0.45594000000E+02  0.51100000000E-03 0.  1.
         23    2    1    2    0    0  0.00000000000E+00  0.00000000000E+00  0.00000000000E+00  0.91188000000E+02  0.91188000000E+02 0.  0.
    9900012    2    3    3    0    0 -0.20031498330E+02  0.17010006869E+02 -0.34540158995E+02  0.47787264494E+02  0.19999970136E+02 0.  0.
         12    1    3    3    0    0  0.20031498330E+02 -0.17010006869E+02  0.34540158995E+02  0.43400735506E+02  0.00000000000E+00 0. -1.
         11    1    4    4    0    0 -0.12865258824E+01  0.30054884492E+01  0.65326787009E+00  0.33338969444E+01  0.51100000000E-03 0. -1.
        -11    1    4    4    0    0  0.34661737880E+00 -0.25761344068E+00 -0.91202166453E+01  0.91304359266E+01  0.51100000000E-03 0.  1.
         12    1    4    4    0    0 -0.19091589826E+02  0.14262131861E+02 -0.26073210220E+02  0.35322931623E+02  0.00000000000E+00 0. -1.
</event>
<event>
 8    1  0.4042158E-011  0.9118800E+02  0.7816164E-02  0.1184000E+00
        -11   -1    0    0    0    0  0.00000000000E+00  0.00000000000E+00  0.45593999997E+02  0.45594000000E+02  0.51100000000E-03 0. -1.
         11   -1    0    0    0    0 -0.00000000000E+00 -0.00000000000E+00 -0.45593999997E+02  0.45594000000E+02  0.51100000000E-03 0.  1.
         23    2    1    2    0    0  0.00000000000E+00  0.00000000000E+00  0.00000000000E+00  0.91188000000E+02  0.91188000000E+02 0.  0.
    9900012    2    3    3    0    0  0.88679343507E+01 -0.16044559365E+02  0.39338977160E+02  0.47787271103E+02  0.20000000265E+02 0.  0.
        -12    1    3    3    0    0 -0.88679343507E+01  0.16044559365E+02 -0.39338977160E+02  0.43400728897E+02  0.00000000000E+00 0.  1.
         11    1    4    4    0    0 -0.37700931154E+01 -0.88546264962E+01  0.17958162684E+02  0.20374337283E+02  0.51100000000E-03 0. -1.
        -11    1    4    4    0    0  0.33682921027E+01 -0.87891230636E+00  0.12876739898E+02  0.13338977067E+02  0.51100000000E-03 0.  1.
         12    1    4    4    0    0  0.92697353634E+01 -0.63110205623E+01  0.85040745776E+01  0.14073956752E+02  0.00000000000E+00 0. -1.
</event>
<event>
 8    1  0.4042158E-011  0.9118800E+02  0.7816164E-02  0.1184000E+00
        -11   -1    0    0    0    0  0.00000000000E+00  0.00000000000E+00  0.45593999997E+02  0.45594000000E+02  0.51100000000E-03 0. -1.
         11   -1    0    0    0    0 -0.00000000000E+00 -0.00000000000E+00 -0.45593999997E+02  0.45594000000E+02  0.51100000000E-03 0.  1.
         23    2    1    2    0    0  0.00000000000E+00  0.38857805862E-15 -0.35527136788E-14  0.91188000000E+02  0.91188000000E+02 0.  0.
    9900012    2    3    3    0    0  0.38066071347E+02 -0.47609710312E+00 -0.20841553458E+02  0.47787276426E+02  0.20000024535E+02 0.  0.
         12    1    3    3    0    0 -0.38066071347E+02  0.47609710312E+00  0.20841553458E+02  0.43400723574E+02  0.00000000000E+00 0. -1.
         11    1    4    4    0    0  0.42719993496E+01 -0.41784566350E+00 -0.10361916660E+01  0.44156841906E+01  0.51100000000E-03 0. -1.
        -11    1    4    4    0    0  0.22422274963E+02 -0.55405329164E+01 -0.20282628166E+02  0.30738264835E+02  0.51100000000E-03 0.  1.
         12    1    4    4    0    0  0.11371797035E+02  0.54822814767E+01  0.47726637463E+00  0.12633327400E+02  0.00000000000E+00 0. -1.
</event>
<event>
 8    1  0.4042158E-011  0.9118800E+02  0.7816164E-02  0.1184000E+00
        -11   -1    0    0    0    0  0.00000000000E+00  0.00000000000E+00  0.45593999997E+02  0.45594000000E+02  0.51100000000E-03 0. -1.
         11   -1    0    0    0    0 -0.00000000000E+00 -0.00000000000E+00 -0.45593999997E+02  0.45594000000E+02  0.51100000000E-03 0.  1.
         23    2    1    2    0    0  0.00000000000E+00  0.00000000000E+00 -0.71054273576E-14  0.91188000000E+02  0.91188000000E+02 0.  0.
    9900012    2    3    3    0    0  0.61606172551E+01  0.10565103929E+02 -0.41641906382E+02  0.47787274279E+02  0.20000014746E+02 0.  0.
         12    1    3    3    0    0 -0.61606172551E+01 -0.10565103929E+02  0.41641906382E+02  0.43400725721E+02  0.00000000000E+00 0. -1.
         11    1    4    4    0    0  0.33821561398E+01  0.61439173459E+01 -0.29960667294E+01  0.76264747174E+01  0.51100000000E-03 0. -1.
        -11    1    4    4    0    0 -0.18909805232E+01 -0.21061434485E+01 -0.12198073650E+02  0.12522166290E+02  0.51100000000E-03 0.  1.
        -12    1    4    4    0    0  0.46694416385E+01  0.65273300317E+01 -0.26447766003E+02  0.27638633271E+02  0.00000000000E+00 0.  1.
</event>
<event>
 8    1  0.4042158E-011  0.9118800E+02  0.7816164E-02  0.1184000E+00
        -11   -1    0    0    0    0  0.00000000000E+00  0.00000000000E+00  0.45593999997E+02  0.45594000000E+02  0.51100000000E-03 0. -1.
         11   -1    0    0    0    0 -0.00000000000E+00 -0.00000000000E+00 -0.45593999997E+02  0.45594000000E+02  0.51100000000E-03 0.  1.
         23    2    1    2    0    0  0.35527136788E-14 -0.71054273576E-14 -0.17763568394E-14  0.91188000000E+02  0.91188000000E+02 0.  0.
    9900012    2    3    3    0    0 -0.21206195147E+02  0.35286970035E+02  0.13738641953E+02  0.47787271324E+02  0.20000001276E+02 0.  0.
        -12    1    3    3    0    0  0.21206195147E+02 -0.35286970035E+02 -0.13738641953E+02  0.43400728676E+02  0.00000000000E+00 0.  1.
         11    1    4    4    0    0 -0.17635371955E+01  0.24393280135E+01 -0.77197062384E+00  0.31074625505E+01  0.51100000000E-03 0. -1.
        -11    1    4    4    0    0  0.34405668880E+00  0.16074717059E+02  0.32589711939E+01  0.16405358790E+02  0.51100000000E-03 0.  1.
         12    1    4    4    0    0 -0.19786714641E+02  0.16772924963E+02  0.11251641383E+02  0.28274449984E+02  0.00000000000E+00 0. -1.
</event>
<event>
 8    1  0.4042158E-011  0.9118800E+02  0.7816164E-02  0.1184000E+00
        -11   -1    0    0    0    0  0.00000000000E+00  0.00000000000E+00  0.45593999997E+02  0.45594000000E+02  0.51100000000E-03 0.  1.
         11   -1    0    0    0    0 -0.00000000000E+00 -0.00000000000E+00 -0.45593999997E+02  0.45594000000E+02  0.51100000000E-03 0. -1.
         23    2    1    2    0    0  0.00000000000E+00  0.00000000000E+00  0.17763568394E-14  0.91188000000E+02  0.91188000000E+02 0.  0.
    9900012    2    3    3    0    0 -0.34603159039E+02 -0.21775283030E+02  0.14563022620E+02  0.47787271961E+02  0.20000004179E+02 0.  0.
         12    1    3    3    0    0  0.34603159039E+02  0.21775283030E+02 -0.14563022620E+02  0.43400728039E+02  0.00000000000E+00 0. -1.
         11    1    4    4    0    0  0.69442473367E+00 -0.35120314404E+01 -0.95230571845E+00  0.37045211556E+01  0.51100000000E-03 0. -1.
        -11    1    4    4    0    0 -0.76198272911E+01 -0.90984863918E+01  0.66758650889E+01  0.13616585384E+02  0.51100000000E-03 0.  1.
        -12    1    4    4    0    0 -0.27677756481E+02 -0.91647651975E+01  0.88394632495E+01  0.30466165422E+02  0.00000000000E+00 0.  1.
</event>
<event>
 8    1  0.4042158E-011  0.9118800E+02  0.7816164E-02  0.1184000E+00
        -11   -1    0    0    0    0  0.00000000000E+00  0.00000000000E+00  0.45593999997E+02  0.45594000000E+02  0.51100000000E-03 0. -1.
         11   -1    0    0    0    0 -0.00000000000E+00 -0.00000000000E+00 -0.45593999997E+02  0.45594000000E+02  0.51100000000E-03 0.  1.
         23    2    1    2    0    0  0.00000000000E+00  0.00000000000E+00  0.00000000000E+00  0.91188000000E+02  0.91188000000E+02 0.  0.
    9900012    2    3    3    0    0 -0.15380381411E+02 -0.32351276936E+02  0.24504328265E+02  0.47787270104E+02  0.19999995714E+02 0.  0.
        -12    1    3    3    0    0  0.15380381411E+02  0.32351276936E+02 -0.24504328265E+02  0.43400729896E+02  0.00000000000E+00 0.  1.
         11    1    4    4    0    0  0.59257763417E+00 -0.50874819800E+01 -0.11598752151E+01  0.52515647120E+01  0.51100000000E-03 0. -1.
        -11    1    4    4    0    0 -0.79875438790E+01 -0.14052703312E+02  0.53600626538E+01  0.17029668215E+02  0.51100000000E-03 0.  1.
        -12    1    4    4    0    0 -0.79854151661E+01 -0.13211091644E+02  0.20304140826E+02  0.25506037178E+02  0.00000000000E+00 0.  1.
</event>
<event>
 8    1  0.4042158E-011  0.9118800E+02  0.7816164E-02  0.1184000E+00
        -11   -1    0    0    0    0  0.00000000000E+00  0.00000000000E+00  0.45593999997E+02  0.45594000000E+02  0.51100000000E-03 0. -1.
         11   -1    0    0    0    0 -0.00000000000E+00 -0.00000000000E+00 -0.45593999997E+02  0.45594000000E+02  0.51100000000E-03 0.  1.
         23    2    1    2    0    0  0.35527136788E-14  0.00000000000E+00 -0.22204460493E-15  0.91188000000E+02  0.91188000000E+02 0.  0.
    9900012    2    3    3    0    0 -0.16577900110E+02  0.40107798381E+02  0.40122888604E+00  0.47787271347E+02  0.20000001378E+02 0.  0.
        -12    1    3    3    0    0  0.16577900110E+02 -0.40107798381E+02 -0.40122888604E+00  0.43400728653E+02  0.00000000000E+00 0.  1.
         11    1    4    4    0    0 -0.12760915619E+02  0.26390207470E+02  0.22689556236E+00  0.29314424770E+02  0.51100000000E-03 0. -1.
        -11    1    4    4    0    0 -0.27161515202E+01  0.15692456861E+02  0.12386979383E+01  0.15973886636E+02  0.51100000000E-03 0.  1.
        -12    1    4    4    0    0 -0.11008329713E+01 -0.19748659502E+01 -0.10643646146E+01  0.24989599406E+01  0.00000000000E+00 0.  1.
</event>
<event>
 8    1  0.4042158E-011  0.9118800E+02  0.7816164E-02  0.1184000E+00
        -11   -1    0    0    0    0  0.00000000000E+00  0.00000000000E+00  0.45593999997E+02  0.45594000000E+02  0.51100000000E-03 0. -1.
         11   -1    0    0    0    0 -0.00000000000E+00 -0.00000000000E+00 -0.45593999997E+02  0.45594000000E+02  0.51100000000E-03 0.  1.
         23    2    1    2    0    0  0.00000000000E+00  0.35527136788E-14  0.35527136788E-14  0.91188000000E+02  0.91188000000E+02 0.  0.
    9900012    2    3    3    0    0 -0.25874033272E+02 -0.26200062070E+02  0.22972008120E+02  0.47787285635E+02  0.20000066526E+02 0.  0.
        -12    1    3    3    0    0  0.25874033272E+02  0.26200062070E+02 -0.22972008120E+02  0.43400714365E+02  0.00000000000E+00 0.  1.
         11    1    4    4    0    0 -0.64905929441E+01 -0.89847790352E+01  0.47159971473E+01  0.12045525328E+02  0.51100000000E-03 0. -1.
        -11    1    4    4    0    0 -0.20567044223E+02 -0.90933995896E+01  0.14092042211E+02  0.26538253109E+02  0.51100000000E-03 0.  1.
        -12    1    4    4    0    0  0.11836038950E+01 -0.81218834455E+01  0.41639687624E+01  0.92035071977E+01  0.00000000000E+00 0.  1.
</event>
<event>
 8    1  0.4042158E-011  0.9118800E+02  0.7816164E-02  0.1184000E+00
        -11   -1    0    0    0    0  0.00000000000E+00  0.00000000000E+00  0.45593999997E+02  0.45594000000E+02  0.51100000000E-03 0. -1.
         11   -1    0    0    0    0 -0.00000000000E+00 -0.00000000000E+00 -0.45593999997E+02  0.45594000000E+02  0.51100000000E-03 0.  1.
         23    2    1    2    0    0 -0.44408920985E-15  0.00000000000E+00 -0.71054273576E-14  0.91188000000E+02  0.91188000000E+02 0.  0.
    9900012    2    3    3    0    0 -0.28229803512E+01  0.21865614920E+02 -0.37383805303E+02  0.47787271517E+02  0.20000002157E+02 0.  0.
         12    1    3    3    0    0  0.28229803512E+01 -0.21865614920E+02  0.37383805303E+02  0.43400728483E+02  0.00000000000E+00 0. -1.
         11    1    4    4    0    0 -0.22778688216E+01  0.68652591351E+01 -0.42661281369E+01  0.83976376977E+01  0.51100000000E-03 0. -1.
        -11    1    4    4    0    0 -0.41762295996E+01 -0.93137990519E+00 -0.11648025999E+02  0.12409064112E+02  0.51100000000E-03 0.  1.
        -12    1    4    4    0    0  0.36311180700E+01  0.15931735690E+02 -0.21469651167E+02  0.26980569708E+02  0.00000000000E+00 0.  1.
</event>
<event>
 8    1  0.4042158E-011  0.9118800E+02  0.7816164E-02  0.1184000E+00
        -11   -1    0    0    0    0  0.00000000000E+00  0.00000000000E+00  0.45593999997E+02  0.45594000000E+02  0.51100000000E-03 0. -1.
         11   -1    0    0    0    0 -0.00000000000E+00 -0.00000000000E+00 -0.45593999997E+02  0.45594000000E+02  0.51100000000E-03 0.  1.
         23    2    1    2    0    0 -0.17763568394E-14  0.00000000000E+00  0.00000000000E+00  0.91188000000E+02  0.91188000000E+02 0.  0.
    9900012    2    3    3    0    0  0.12090985841E+02  0.28537125042E+02  0.30381964240E+02  0.47787271950E+02  0.20000004128E+02 0.  0.
        -12    1    3    3    0    0 -0.12090985841E+02 -0.28537125042E+02 -0.30381964240E+02  0.43400728050E+02  0.00000000000E+00 0.  1.
         11    1    4    4    0    0  0.79390967829E+01  0.20997291495E+02  0.92885456794E+01  0.24293879661E+02  0.51100000000E-03 0. -1.
        -11    1    4    4    0    0  0.41619871053E+01  0.38200603289E+01  0.74366730551E+01  0.93391168732E+01  0.51100000000E-03 0.  1.
         12    1    4    4    0    0 -0.10098047375E-01  0.37197732174E+01  0.13656745505E+02  0.14154275416E+02  0.00000000000E+00 0. -1.
</event>
<event>
 8    1  0.4042158E-011  0.9118800E+02  0.7816164E-02  0.1184000E+00
        -11   -1    0    0    0    0  0.00000000000E+00  0.00000000000E+00  0.45593999997E+02  0.45594000000E+02  0.51100000000E-03 0. -1.
         11   -1    0    0    0    0 -0.00000000000E+00 -0.00000000000E+00 -0.45593999997E+02  0.45594000000E+02  0.51100000000E-03 0.  1.
         23    2    1    2    0    0  0.00000000000E+00  0.00000000000E+00  0.00000000000E+00  0.91188000000E+02  0.91188000000E+02 0.  0.
    9900012    2    3    3    0    0 -0.19746629554E+02  0.12996910443E+02 -0.36397450075E+02  0.47787269225E+02  0.19999991706E+02 0.  0.
         12    1    3    3    0    0  0.19746629554E+02 -0.12996910443E+02  0.36397450075E+02  0.43400730775E+02  0.00000000000E+00 0. -1.
         11    1    4    4    0    0 -0.36384870283E+01  0.11895517325E+02 -0.18903728591E+02  0.22629469176E+02  0.51100000000E-03 0. -1.
        -11    1    4    4    0    0 -0.24244068958E+01  0.28982442319E+01 -0.15866727001E+01  0.40981823949E+01  0.51100000000E-03 0.  1.
        -12    1    4    4    0    0 -0.13683735630E+02 -0.17968511142E+01 -0.15907048784E+02  0.21059617654E+02  0.00000000000E+00 0.  1.
</event>
<event>
 8    1  0.4042158E-011  0.9118800E+02  0.7816164E-02  0.1184000E+00
        -11   -1    0    0    0    0  0.00000000000E+00  0.00000000000E+00  0.45593999997E+02  0.45594000000E+02  0.51100000000E-03 0. -1.
         11   -1    0    0    0    0 -0.00000000000E+00 -0.00000000000E+00 -0.45593999997E+02  0.45594000000E+02  0.51100000000E-03 0.  1.
         23    2    1    2    0    0  0.00000000000E+00 -0.17763568394E-14  0.00000000000E+00  0.91188000000E+02  0.91188000000E+02 0.  0.
    9900012    2    3    3    0    0  0.37139564522E+02  0.11340412213E+02  0.19382233858E+02  0.47787271995E+02  0.20000004333E+02 0.  0.
        -12    1    3    3    0    0 -0.37139564522E+02 -0.11340412213E+02 -0.19382233858E+02  0.43400728005E+02  0.00000000000E+00 0.  1.
         11    1    4    4    0    0  0.51928856109E+01  0.63575402652E+01  0.59758758234E+01  0.10153594010E+02  0.51100000000E-03 0. -1.
        -11    1    4    4    0    0  0.15440637356E+02  0.10492650445E+01 -0.80954348165E+00  0.15497406235E+02  0.51100000000E-03 0.  1.
         12    1    4    4    0    0  0.16506041555E+02  0.39336069032E+01  0.14215901516E+02  0.22136271750E+02  0.00000000000E+00 0. -1.
</event>
<event>
 8    1  0.4042158E-011  0.9118800E+02  0.7816164E-02  0.1184000E+00
        -11   -1    0    0    0    0  0.00000000000E+00  0.00000000000E+00  0.45593999997E+02  0.45594000000E+02  0.51100000000E-03 0. -1.
         11   -1    0    0    0    0 -0.00000000000E+00 -0.00000000000E+00 -0.45593999997E+02  0.45594000000E+02  0.51100000000E-03 0.  1.
         23    2    1    2    0    0  0.00000000000E+00 -0.35527136788E-14  0.00000000000E+00  0.91188000000E+02  0.91188000000E+02 0.  0.
    9900012    2    3    3    0    0  0.13174042245E+02  0.16539241265E+02 -0.37901466302E+02  0.47787273755E+02  0.20000012360E+02 0.  0.
         12    1    3    3    0    0 -0.13174042245E+02 -0.16539241265E+02  0.37901466302E+02  0.43400726245E+02  0.00000000000E+00 0. -1.
         11    1    4    4    0    0  0.41622899449E+01  0.81414924258E+01 -0.12225987031E+02  0.15267066373E+02  0.51100000000E-03 0. -1.
        -11    1    4    4    0    0  0.90181523985E+01  0.11754716151E+02 -0.14044315114E+02  0.20414289401E+02  0.51100000000E-03 0.  1.
         12    1    4    4    0    0 -0.64000982221E-02 -0.33569673123E+01 -0.11631164158E+02  0.12105917981E+02  0.00000000000E+00 0. -1.
</event>
<event>
 8    1  0.4042158E-011  0.9118800E+02  0.7816164E-02  0.1184000E+00
        -11   -1    0    0    0    0  0.00000000000E+00  0.00000000000E+00  0.45593999997E+02  0.45594000000E+02  0.51100000000E-03 0. -1.
         11   -1    0    0    0    0 -0.00000000000E+00 -0.00000000000E+00 -0.45593999997E+02  0.45594000000E+02  0.51100000000E-03 0.  1.
         23    2    1    2    0    0  0.00000000000E+00  0.00000000000E+00  0.88817841970E-15  0.91188000000E+02  0.91188000000E+02 0.  0.
    9900012    2    3    3    0    0  0.10748435955E+02  0.41594233956E+02 -0.61655655080E+01  0.47787269915E+02  0.19999994850E+02 0.  0.
         12    1    3    3    0    0 -0.10748435955E+02 -0.41594233956E+02  0.61655655080E+01  0.43400730085E+02  0.00000000000E+00 0. -1.
         11    1    4    4    0    0  0.18439014104E+01  0.43670695524E+00  0.16629029785E+01  0.25210973708E+01  0.51100000000E-03 0. -1.
        -11    1    4    4    0    0  0.11781747606E+02  0.25088913093E+02 -0.14996527169E+01  0.27758099636E+02  0.51100000000E-03 0.  1.
        -12    1    4    4    0    0 -0.28772130612E+01  0.16068613908E+02 -0.63288157696E+01  0.17508072908E+02  0.00000000000E+00 0.  1.
</event>
<event>
 8    1  0.4042158E-011  0.9118800E+02  0.7816164E-02  0.1184000E+00
        -11   -1    0    0    0    0  0.00000000000E+00  0.00000000000E+00  0.45593999997E+02  0.45594000000E+02  0.51100000000E-03 0. -1.
         11   -1    0    0    0    0 -0.00000000000E+00 -0.00000000000E+00 -0.45593999997E+02  0.45594000000E+02  0.51100000000E-03 0.  1.
         23    2    1    2    0    0 -0.35527136788E-14  0.00000000000E+00 -0.71054273576E-14  0.91188000000E+02  0.91188000000E+02 0.  0.
    9900012    2    3    3    0    0  0.24710220948E+02  0.51034114326E+01  0.35312654295E+02  0.47787269811E+02  0.19999994378E+02 0.  0.
        -12    1    3    3    0    0 -0.24710220948E+02 -0.51034114326E+01 -0.35312654295E+02  0.43400730189E+02  0.00000000000E+00 0.  1.
         11    1    4    4    0    0  0.27533513216E+01  0.42173988900E+01  0.73113144760E+01  0.88782158414E+01  0.51100000000E-03 0.  1.
        -11    1    4    4    0    0  0.21981404230E+02  0.15709639539E+01  0.29754458877E+02  0.37026718502E+02  0.51100000000E-03 0. -1.
         12    1    4    4    0    0 -0.24534603960E-01 -0.68495141122E+00 -0.17531190583E+01  0.18823354683E+01  0.00000000000E+00 0. -1.
</event>
<event>
 8    1  0.4042158E-011  0.9118800E+02  0.7816164E-02  0.1184000E+00
        -11   -1    0    0    0    0  0.00000000000E+00  0.00000000000E+00  0.45593999997E+02  0.45594000000E+02  0.51100000000E-03 0. -1.
         11   -1    0    0    0    0 -0.00000000000E+00 -0.00000000000E+00 -0.45593999997E+02  0.45594000000E+02  0.51100000000E-03 0.  1.
         23    2    1    2    0    0  0.35527136788E-14  0.88817841970E-15  0.35527136788E-14  0.91188000000E+02  0.91188000000E+02 0.  0.
    9900012    2    3    3    0    0  0.31134112529E+02 -0.13992179377E+01  0.30204846252E+02  0.47787268314E+02  0.19999987550E+02 0.  0.
        -12    1    3    3    0    0 -0.31134112529E+02  0.13992179377E+01 -0.30204846252E+02  0.43400731686E+02  0.00000000000E+00 0.  1.
         11    1    4    4    0    0  0.10450267182E+02 -0.65197035251E+01  0.14211901226E+02  0.18806721004E+02  0.51100000000E-03 0. -1.
        -11    1    4    4    0    0 -0.64902253607E+00  0.10139221565E+01 -0.86504525898E+00  0.14824209770E+01  0.51100000000E-03 0.  1.
         12    1    4    4    0    0  0.21332867883E+02  0.41065634309E+01  0.16857990285E+02  0.27498126332E+02  0.00000000000E+00 0. -1.
</event>
<event>
 8    1  0.4042158E-011  0.9118800E+02  0.7816164E-02  0.1184000E+00
        -11   -1    0    0    0    0  0.00000000000E+00  0.00000000000E+00  0.45593999997E+02  0.45594000000E+02  0.51100000000E-03 0. -1.
         11   -1    0    0    0    0 -0.00000000000E+00 -0.00000000000E+00 -0.45593999997E+02  0.45594000000E+02  0.51100000000E-03 0.  1.
         23    2    1    2    0    0 -0.35527136788E-14  0.00000000000E+00  0.00000000000E+00  0.91188000000E+02  0.91188000000E+02 0.  0.
    9900012    2    3    3    0    0  0.17852863933E+02 -0.16224640325E+02 -0.36078522003E+02  0.47787268967E+02  0.19999990529E+02 0.  0.
         12    1    3    3    0    0 -0.17852863933E+02  0.16224640325E+02  0.36078522003E+02  0.43400731033E+02  0.00000000000E+00 0. -1.
         11    1    4    4    0    0  0.10601661209E+02 -0.79735689238E+01 -0.30774264741E+02  0.33511615783E+02  0.51100000000E-03 0. -1.
        -11    1    4    4    0    0 -0.73527239253E+00 -0.35667420191E+01 -0.30402813976E+01  0.47440052023E+01  0.51100000000E-03 0.  1.
         12    1    4    4    0    0  0.79864751163E+01 -0.46843293824E+01 -0.22639758644E+01  0.95316479824E+01  0.00000000000E+00 0. -1.
</event>
<event>
 8    1  0.4042158E-011  0.9118800E+02  0.7816164E-02  0.1184000E+00
        -11   -1    0    0    0    0  0.00000000000E+00  0.00000000000E+00  0.45593999997E+02  0.45594000000E+02  0.51100000000E-03 0. -1.
         11   -1    0    0    0    0 -0.00000000000E+00 -0.00000000000E+00 -0.45593999997E+02  0.45594000000E+02  0.51100000000E-03 0.  1.
         23    2    1    2    0    0  0.00000000000E+00 -0.44408920985E-15  0.00000000000E+00  0.91188000000E+02  0.91188000000E+02 0.  0.
    9900012    2    3    3    0    0 -0.47409482116E+01 -0.38808418588E+01 -0.42966130843E+02  0.47787240524E+02  0.19999860843E+02 0.  0.
         12    1    3    3    0    0  0.47409482116E+01  0.38808418588E+01  0.42966130843E+02  0.43400759476E+02  0.00000000000E+00 0. -1.
         11    1    4    4    0    0  0.22683816709E+01 -0.73014760762E+00 -0.68929591911E+01  0.72932542534E+01  0.51100000000E-03 0. -1.
        -11    1    4    4    0    0  0.14387885686E+01 -0.42967767135E+01 -0.29181896066E+02  0.29531601056E+02  0.51100000000E-03 0.  1.
        -12    1    4    4    0    0 -0.84481184511E+01  0.11460824623E+01 -0.68912755859E+01  0.10962385214E+02  0.00000000000E+00 0.  1.
</event>
<event>
 8    1  0.4042158E-011  0.9118800E+02  0.7816164E-02  0.1184000E+00
        -11   -1    0    0    0    0  0.00000000000E+00  0.00000000000E+00  0.45593999997E+02  0.45594000000E+02  0.51100000000E-03 0. -1.
         11   -1    0    0    0    0 -0.00000000000E+00 -0.00000000000E+00 -0.45593999997E+02  0.45594000000E+02  0.51100000000E-03 0.  1.
         23    2    1    2    0    0  0.00000000000E+00  0.00000000000E+00  0.00000000000E+00  0.91188000000E+02  0.91188000000E+02 0.  0.
    9900012    2    3    3    0    0 -0.35682113272E+02  0.21180931602E+02  0.12719320518E+02  0.47787237501E+02  0.19999847060E+02 0.  0.
        -12    1    3    3    0    0  0.35682113272E+02 -0.21180931602E+02 -0.12719320518E+02  0.43400762499E+02  0.00000000000E+00 0.  1.
         11    1    4    4    0    0 -0.58427921359E+01  0.30579329804E+01  0.26920516750E+01  0.71229429689E+01  0.51100000000E-03 0. -1.
        -11    1    4    4    0    0 -0.47522054380E+01 -0.36167319453E+01 -0.50652076318E-01  0.59721664731E+01  0.51100000000E-03 0.  1.
         12    1    4    4    0    0 -0.25087115698E+02  0.21739730567E+02  0.10077920920E+02  0.34692128059E+02  0.00000000000E+00 0. -1.
</event>
<event>
 8    1  0.4042158E-011  0.9118800E+02  0.7816164E-02  0.1184000E+00
        -11   -1    0    0    0    0  0.00000000000E+00  0.00000000000E+00  0.45593999997E+02  0.45594000000E+02  0.51100000000E-03 0. -1.
         11   -1    0    0    0    0 -0.00000000000E+00 -0.00000000000E+00 -0.45593999997E+02  0.45594000000E+02  0.51100000000E-03 0.  1.
         23    2    1    2    0    0  0.17763568394E-14  0.35527136788E-14  0.00000000000E+00  0.91188000000E+02  0.91188000000E+02 0.  0.
    9900012    2    3    3    0    0 -0.97691318985E+01  0.23489183358E+02 -0.35163129522E+02  0.47787270160E+02  0.19999995967E+02 0.  0.
         12    1    3    3    0    0  0.97691318985E+01 -0.23489183358E+02  0.35163129522E+02  0.43400729840E+02  0.00000000000E+00 0. -1.
         11    1    4    4    0    0 -0.73816247002E-01  0.30475455981E+00  0.23819598950E+01  0.24025106415E+01  0.51100000000E-03 0. -1.
        -11    1    4    4    0    0 -0.13490222964E+01  0.16871796881E+01 -0.16410184643E+01  0.27128174132E+01  0.51100000000E-03 0.  1.
         12    1    4    4    0    0 -0.83462933551E+01  0.21497249111E+02 -0.35904070952E+02  0.42671942105E+02  0.00000000000E+00 0. -1.
</event>
<event>
 8    1  0.4042158E-011  0.9118800E+02  0.7816164E-02  0.1184000E+00
        -11   -1    0    0    0    0  0.00000000000E+00  0.00000000000E+00  0.45593999997E+02  0.45594000000E+02  0.51100000000E-03 0. -1.
         11   -1    0    0    0    0 -0.00000000000E+00 -0.00000000000E+00 -0.45593999997E+02  0.45594000000E+02  0.51100000000E-03 0.  1.
         23    2    1    2    0    0  0.00000000000E+00  0.00000000000E+00  0.35527136788E-14  0.91188000000E+02  0.91188000000E+02 0.  0.
    9900012    2    3    3    0    0  0.25221877539E+02  0.17190458615E+02 -0.30853991588E+02  0.47787265319E+02  0.19999973893E+02 0.  0.
         12    1    3    3    0    0 -0.25221877539E+02 -0.17190458615E+02  0.30853991588E+02  0.43400734681E+02  0.00000000000E+00 0. -1.
         11    1    4    4    0    0  0.12655631516E+02  0.34549797008E+01 -0.14448575361E+02  0.19515717359E+02  0.51100000000E-03 0. -1.
        -11    1    4    4    0    0  0.14762914635E+02  0.13979042614E+02 -0.12745076876E+02  0.23995713488E+02  0.51100000000E-03 0.  1.
         12    1    4    4    0    0 -0.21966686127E+01 -0.24356370015E+00 -0.36603393506E+01  0.42758344720E+01  0.00000000000E+00 0. -1.
</event>
<event>
 8    1  0.4042158E-011  0.9118800E+02  0.7816164E-02  0.1184000E+00
        -11   -1    0    0    0    0  0.00000000000E+00  0.00000000000E+00  0.45593999997E+02  0.45594000000E+02  0.51100000000E-03 0. -1.
         11   -1    0    0    0    0 -0.00000000000E+00 -0.00000000000E+00 -0.45593999997E+02  0.45594000000E+02  0.51100000000E-03 0.  1.
         23    2    1    2    0    0  0.00000000000E+00  0.88817841970E-15  0.00000000000E+00  0.91188000000E+02  0.91188000000E+02 0.  0.
    9900012    2    3    3    0    0 -0.11860799540E+02  0.41088129029E+01  0.41545913581E+02  0.47787264471E+02  0.19999970029E+02 0.  0.
        -12    1    3    3    0    0  0.11860799540E+02 -0.41088129029E+01 -0.41545913581E+02  0.43400735529E+02  0.00000000000E+00 0.  1.
         11    1    4    4    0    0  0.98118740331E+00 -0.99330315403E+00 -0.10226075276E+00  0.13999419270E+01  0.51100000000E-03 0. -1.
        -11    1    4    4    0    0 -0.42270713945E+01 -0.38733823075E+00  0.84913225383E+00  0.43288785297E+01  0.51100000000E-03 0.  1.
         12    1    4    4    0    0 -0.86149155485E+01  0.54894542877E+01  0.40799042080E+02  0.42058444014E+02  0.00000000000E+00 0. -1.
</event>
<event>
 8    1  0.4042158E-011  0.9118800E+02  0.7816164E-02  0.1184000E+00
        -11   -1    0    0    0    0  0.00000000000E+00  0.00000000000E+00  0.45593999997E+02  0.45594000000E+02  0.51100000000E-03 0. -1.
         11   -1    0    0    0    0 -0.00000000000E+00 -0.00000000000E+00 -0.45593999997E+02  0.45594000000E+02  0.51100000000E-03 0.  1.
         23    2    1    2    0    0  0.55511151231E-16  0.88817841970E-15  0.00000000000E+00  0.91188000000E+02  0.91188000000E+02 0.  0.
    9900012    2    3    3    0    0  0.28727082755E+00 -0.74322680960E+01 -0.42758647905E+02  0.47787272998E+02  0.20000008909E+02 0.  0.
         12    1    3    3    0    0 -0.28727082755E+00  0.74322680960E+01  0.42758647905E+02  0.43400727002E+02  0.00000000000E+00 0. -1.
         11    1    4    4    0    0 -0.15888950639E+01 -0.91208564504E+01 -0.15748603778E+02  0.18268364216E+02  0.51100000000E-03 0. -1.
        -11    1    4    4    0    0 -0.41800437513E+01 -0.18757522758E+01 -0.75791572338E+01  0.88563444489E+01  0.51100000000E-03 0.  1.
         12    1    4    4    0    0  0.60562096427E+01  0.35643406302E+01 -0.19430886893E+02  0.20662564333E+02  0.00000000000E+00 0. -1.
</event>
<event>
 8    1  0.4042158E-011  0.9118800E+02  0.7816164E-02  0.1184000E+00
        -11   -1    0    0    0    0  0.00000000000E+00  0.00000000000E+00  0.45593999997E+02  0.45594000000E+02  0.51100000000E-03 0. -1.
         11   -1    0    0    0    0 -0.00000000000E+00 -0.00000000000E+00 -0.45593999997E+02  0.45594000000E+02  0.51100000000E-03 0.  1.
         23    2    1    2    0    0 -0.17763568394E-14  0.00000000000E+00  0.00000000000E+00  0.91188000000E+02  0.91188000000E+02 0.  0.
    9900012    2    3    3    0    0  0.13858109701E+02 -0.64809652116E+01 -0.40614937232E+02  0.47787271424E+02  0.20000001732E+02 0.  0.
         12    1    3    3    0    0 -0.13858109701E+02  0.64809652116E+01  0.40614937232E+02  0.43400728576E+02  0.00000000000E+00 0. -1.
         11    1    4    4    0    0  0.68929285919E+01  0.39935401109E+01 -0.11169909386E+02  0.13719610167E+02  0.51100000000E-03 0. -1.
        -11    1    4    4    0    0  0.81891580779E+01 -0.21868273676E+01 -0.17877724369E+02  0.19785286272E+02  0.51100000000E-03 0.  1.
         12    1    4    4    0    0 -0.12239769690E+01 -0.82876779548E+01 -0.11567303476E+02  0.14282374985E+02  0.00000000000E+00 0. -1.
</event>
<event>
 8    1  0.4042158E-011  0.9118800E+02  0.7816164E-02  0.1184000E+00
        -11   -1    0    0    0    0  0.00000000000E+00  0.00000000000E+00  0.45593999997E+02  0.45594000000E+02  0.51100000000E-03 0. -1.
         11   -1    0    0    0    0 -0.00000000000E+00 -0.00000000000E+00 -0.45593999997E+02  0.45594000000E+02  0.51100000000E-03 0.  1.
         23    2    1    2    0    0  0.00000000000E+00 -0.35527136788E-14  0.00000000000E+00  0.91188000000E+02  0.91188000000E+02 0.  0.
    9900012    2    3    3    0    0 -0.22705426246E+02  0.29539633954E+02 -0.22259753377E+02  0.47787274482E+02  0.20000015671E+02 0.  0.
         12    1    3    3    0    0  0.22705426246E+02 -0.29539633954E+02  0.22259753377E+02  0.43400725518E+02  0.00000000000E+00 0. -1.
         11    1    4    4    0    0  0.16362293591E+01  0.25594788091E+00 -0.60908078023E+00  0.17645779924E+01  0.51100000000E-03 0. -1.
        -11    1    4    4    0    0 -0.36146262948E+00  0.46277103570E+01 -0.75233027604E+01  0.88400476847E+01  0.51100000000E-03 0.  1.
        -12    1    4    4    0    0 -0.23980192975E+02  0.24655975716E+02 -0.14127369837E+02  0.37182648805E+02  0.00000000000E+00 0.  1.
</event>
<event>
 8    1  0.4042158E-011  0.9118800E+02  0.7816164E-02  0.1184000E+00
        -11   -1    0    0    0    0  0.00000000000E+00  0.00000000000E+00  0.45593999997E+02  0.45594000000E+02  0.51100000000E-03 0. -1.
         11   -1    0    0    0    0 -0.00000000000E+00 -0.00000000000E+00 -0.45593999997E+02  0.45594000000E+02  0.51100000000E-03 0.  1.
         23    2    1    2    0    0  0.00000000000E+00  0.00000000000E+00  0.00000000000E+00  0.91188000000E+02  0.91188000000E+02 0.  0.
    9900012    2    3    3    0    0 -0.85804823600E+01  0.22292021174E+02 -0.36236244292E+02  0.47787259385E+02  0.19999946841E+02 0.  0.
         12    1    3    3    0    0  0.85804823600E+01 -0.22292021174E+02  0.36236244292E+02  0.43400740615E+02  0.00000000000E+00 0. -1.
         11    1    4    4    0    0 -0.12589760334E+00  0.12022367637E+01 -0.12579011403E+02  0.12636959744E+02  0.51100000000E-03 0. -1.
        -11    1    4    4    0    0 -0.66715182263E+01  0.93551782339E+01 -0.19386854742E+02  0.22536163211E+02  0.51100000000E-03 0.  1.
        -12    1    4    4    0    0 -0.17830665303E+01  0.11734606176E+02 -0.42703781471E+01  0.12614136430E+02  0.00000000000E+00 0.  1.
</event>
<event>
 8    1  0.4042158E-011  0.9118800E+02  0.7816164E-02  0.1184000E+00
        -11   -1    0    0    0    0  0.00000000000E+00  0.00000000000E+00  0.45593999997E+02  0.45594000000E+02  0.51100000000E-03 0. -1.
         11   -1    0    0    0    0 -0.00000000000E+00 -0.00000000000E+00 -0.45593999997E+02  0.45594000000E+02  0.51100000000E-03 0.  1.
         23    2    1    2    0    0 -0.71054273576E-14 -0.17763568394E-14 -0.35527136788E-14  0.91188000000E+02  0.91188000000E+02 0.  0.
    9900012    2    3    3    0    0  0.28901375287E+02  0.12897114976E+02  0.29698454998E+02  0.47787270773E+02  0.19999998761E+02 0.  0.
        -12    1    3    3    0    0 -0.28901375287E+02 -0.12897114976E+02 -0.29698454998E+02  0.43400729227E+02  0.00000000000E+00 0.  1.
         11    1    4    4    0    0  0.84717898093E+01  0.13972440736E+02  0.10426642752E+02  0.19383374372E+02  0.51100000000E-03 0. -1.
        -11    1    4    4    0    0  0.30495633605E+00 -0.27600252972E+00 -0.13699994530E+00  0.43352625000E+00  0.51100000000E-03 0.  1.
         12    1    4    4    0    0  0.20124629141E+02 -0.79932322988E+00  0.19408812191E+02  0.27970370151E+02  0.00000000000E+00 0. -1.
</event>
<event>
 8    1  0.4042158E-011  0.9118800E+02  0.7816164E-02  0.1184000E+00
        -11   -1    0    0    0    0  0.00000000000E+00  0.00000000000E+00  0.45593999997E+02  0.45594000000E+02  0.51100000000E-03 0. -1.
         11   -1    0    0    0    0 -0.00000000000E+00 -0.00000000000E+00 -0.45593999997E+02  0.45594000000E+02  0.51100000000E-03 0.  1.
         23    2    1    2    0    0  0.00000000000E+00  0.00000000000E+00  0.00000000000E+00  0.91188000000E+02  0.91188000000E+02 0.  0.
    9900012    2    3    3    0    0 -0.28972412102E+02  0.29714749755E+01  0.32177526887E+02  0.47787267713E+02  0.19999984810E+02 0.  0.
        -12    1    3    3    0    0  0.28972412102E+02 -0.29714749755E+01 -0.32177526887E+02  0.43400732287E+02  0.00000000000E+00 0.  1.
         11    1    4    4    0    0 -0.69244068541E+01  0.86436864476E+00  0.11681784741E+02  0.13607300924E+02  0.51100000000E-03 0. -1.
        -11    1    4    4    0    0  0.10275815384E+01 -0.56373401611E+00 -0.16908651215E+01  0.20573635992E+01  0.51100000000E-03 0.  1.
        -12    1    4    4    0    0 -0.23075586786E+02  0.26708403469E+01  0.22186607267E+02  0.32122603190E+02  0.00000000000E+00 0.  1.
</event>
<event>
 8    1  0.4042158E-011  0.9118800E+02  0.7816164E-02  0.1184000E+00
        -11   -1    0    0    0    0  0.00000000000E+00  0.00000000000E+00  0.45593999997E+02  0.45594000000E+02  0.51100000000E-03 0. -1.
         11   -1    0    0    0    0 -0.00000000000E+00 -0.00000000000E+00 -0.45593999997E+02  0.45594000000E+02  0.51100000000E-03 0.  1.
         23    2    1    2    0    0  0.00000000000E+00 -0.35527136788E-14  0.00000000000E+00  0.91188000000E+02  0.91188000000E+02 0.  0.
    9900012    2    3    3    0    0  0.91382065187E+01 -0.18864652279E+02  0.38003166809E+02  0.47787278675E+02  0.20000034792E+02 0.  0.
        -12    1    3    3    0    0 -0.91382065187E+01  0.18864652279E+02 -0.38003166809E+02  0.43400721325E+02  0.00000000000E+00 0.  1.
         11    1    4    4    0    0  0.22072605236E+01  0.20093747928E+01  0.93330074495E+01  0.97987047302E+01  0.51100000000E-03 0. -1.
        -11    1    4    4    0    0  0.47558466486E+01 -0.14391365945E+01  0.88197255837E+01  0.10123080120E+02  0.51100000000E-03 0.  1.
        -12    1    4    4    0    0  0.21750993465E+01 -0.19434890477E+02  0.19850433776E+02  0.27865493825E+02  0.00000000000E+00 0.  1.
</event>
<event>
 8    1  0.4042158E-011  0.9118800E+02  0.7816164E-02  0.1184000E+00
        -11   -1    0    0    0    0  0.00000000000E+00  0.00000000000E+00  0.45593999997E+02  0.45594000000E+02  0.51100000000E-03 0. -1.
         11   -1    0    0    0    0 -0.00000000000E+00 -0.00000000000E+00 -0.45593999997E+02  0.45594000000E+02  0.51100000000E-03 0.  1.
         23    2    1    2    0    0  0.88817841970E-15  0.00000000000E+00 -0.14210854715E-13  0.91188000000E+02  0.91188000000E+02 0.  0.
    9900012    2    3    3    0    0 -0.45351792114E+01  0.22187672504E+02  0.37023806861E+02  0.47787274936E+02  0.20000017741E+02 0.  0.
        -12    1    3    3    0    0  0.45351792114E+01 -0.22187672504E+02 -0.37023806861E+02  0.43400725064E+02  0.00000000000E+00 0.  1.
         11    1    4    4    0    0 -0.55204818986E+01  0.20199040531E+02  0.30136947137E+02  0.36697582233E+02  0.51100000000E-03 0. -1.
        -11    1    4    4    0    0  0.13084365341E+01  0.52481436562E+01  0.45156155962E+01  0.70459777514E+01  0.51100000000E-03 0.  1.
        -12    1    4    4    0    0 -0.32313384690E+00 -0.32595116825E+01  0.23712441276E+01  0.40437149509E+01  0.00000000000E+00 0.  1.
</event>
<event>
 8    1  0.4042158E-011  0.9118800E+02  0.7816164E-02  0.1184000E+00
        -11   -1    0    0    0    0  0.00000000000E+00  0.00000000000E+00  0.45593999997E+02  0.45594000000E+02  0.51100000000E-03 0. -1.
         11   -1    0    0    0    0 -0.00000000000E+00 -0.00000000000E+00 -0.45593999997E+02  0.45594000000E+02  0.51100000000E-03 0.  1.
         23    2    1    2    0    0 -0.35527136788E-14  0.00000000000E+00  0.00000000000E+00  0.91188000000E+02  0.91188000000E+02 0.  0.
    9900012    2    3    3    0    0 -0.30097242209E+02 -0.27274445717E+02  0.15293262742E+02  0.47787271169E+02  0.20000000568E+02 0.  0.
        -12    1    3    3    0    0  0.30097242209E+02  0.27274445717E+02 -0.15293262742E+02  0.43400728831E+02  0.00000000000E+00 0.  1.
         11    1    4    4    0    0 -0.10921138237E+02 -0.14456152033E+02  0.23955596368E+01  0.18275401452E+02  0.51100000000E-03 0. -1.
        -11    1    4    4    0    0  0.14284726344E+00  0.30683745357E+00 -0.18559090120E+01  0.18865187742E+01  0.51100000000E-03 0.  1.
        -12    1    4    4    0    0 -0.19318951235E+02 -0.13125131138E+02  0.14753612117E+02  0.27625350943E+02  0.00000000000E+00 0.  1.
</event>
<event>
 8    1  0.4042158E-011  0.9118800E+02  0.7816164E-02  0.1184000E+00
        -11   -1    0    0    0    0  0.00000000000E+00  0.00000000000E+00  0.45593999997E+02  0.45594000000E+02  0.51100000000E-03 0. -1.
         11   -1    0    0    0    0 -0.00000000000E+00 -0.00000000000E+00 -0.45593999997E+02  0.45594000000E+02  0.51100000000E-03 0.  1.
         23    2    1    2    0    0  0.00000000000E+00  0.00000000000E+00  0.71054273576E-14  0.91188000000E+02  0.91188000000E+02 0.  0.
    9900012    2    3    3    0    0  0.62671886307E+01  0.23277860435E+02  0.36089984335E+02  0.47787269487E+02  0.19999992900E+02 0.  0.
        -12    1    3    3    0    0 -0.62671886307E+01 -0.23277860435E+02 -0.36089984335E+02  0.43400730513E+02  0.00000000000E+00 0.  1.
         11    1    4    4    0    0 -0.18501117025E+01  0.59106912021E+01  0.10910083689E+01  0.62888379945E+01  0.51100000000E-03 0. -1.
        -11    1    4    4    0    0  0.14358362317E+01  0.13129881322E+02  0.14972491080E+02  0.19965743127E+02  0.51100000000E-03 0.  1.
         12    1    4    4    0    0  0.66814641015E+01  0.42372879105E+01  0.20026484886E+02  0.21532688366E+02  0.00000000000E+00 0. -1.
</event>
<event>
 8    1  0.4042158E-011  0.9118800E+02  0.7816164E-02  0.1184000E+00
        -11   -1    0    0    0    0  0.00000000000E+00  0.00000000000E+00  0.45593999997E+02  0.45594000000E+02  0.51100000000E-03 0. -1.
         11   -1    0    0    0    0 -0.00000000000E+00 -0.00000000000E+00 -0.45593999997E+02  0.45594000000E+02  0.51100000000E-03 0.  1.
         23    2    1    2    0    0  0.44408920985E-15  0.35527136788E-14  0.00000000000E+00  0.91188000000E+02  0.91188000000E+02 0.  0.
    9900012    2    3    3    0    0 -0.23552306940E+01 -0.30186814543E+02 -0.31093930455E+02  0.47787269649E+02  0.19999993636E+02 0.  0.
         12    1    3    3    0    0  0.23552306940E+01  0.30186814543E+02  0.31093930455E+02  0.43400730351E+02  0.00000000000E+00 0. -1.
         11    1    4    4    0    0  0.39192072402E+01 -0.12062239617E+00 -0.11065159276E+01  0.40742008926E+01  0.51100000000E-03 0. -1.
        -11    1    4    4    0    0  0.18075758416E+01 -0.51181453355E+01 -0.68571298754E+01  0.87454543900E+01  0.51100000000E-03 0.  1.
        -12    1    4    4    0    0 -0.80820137757E+01 -0.24948046811E+02 -0.23130284652E+02  0.34967614366E+02  0.00000000000E+00 0.  1.
</event>
<event>
 8    1  0.4042158E-011  0.9118800E+02  0.7816164E-02  0.1184000E+00
        -11   -1    0    0    0    0  0.00000000000E+00  0.00000000000E+00  0.45593999997E+02  0.45594000000E+02  0.51100000000E-03 0. -1.
         11   -1    0    0    0    0 -0.00000000000E+00 -0.00000000000E+00 -0.45593999997E+02  0.45594000000E+02  0.51100000000E-03 0.  1.
         23    2    1    2    0    0  0.00000000000E+00  0.17763568394E-14  0.00000000000E+00  0.91188000000E+02  0.91188000000E+02 0.  0.
    9900012    2    3    3    0    0 -0.13208702174E+02 -0.86909993787E+01 -0.40418064841E+02  0.47787271334E+02  0.20000001318E+02 0.  0.
         12    1    3    3    0    0  0.13208702174E+02  0.86909993787E+01  0.40418064841E+02  0.43400728666E+02  0.00000000000E+00 0. -1.
         11    1    4    4    0    0 -0.40436437947E+01 -0.11504657359E+02 -0.13422915808E+02  0.18135127933E+02  0.51100000000E-03 0. -1.
        -11    1    4    4    0    0 -0.54937420987E+01  0.32633116997E-01 -0.59070065043E+01  0.80669072928E+01  0.51100000000E-03 0.  1.
         12    1    4    4    0    0 -0.36713162806E+01  0.27810248638E+01 -0.21088142529E+02  0.21585236108E+02  0.00000000000E+00 0. -1.
</event>
<event>
 8    1  0.6222623E-011  0.9118800E+02  0.7816164E-02  0.1184000E+00
        -11   -1    0    0    0    0  0.00000000000E+00  0.00000000000E+00  0.45593999997E+02  0.45594000000E+02  0.51100000000E-03 0. -1.
         11   -1    0    0    0    0 -0.00000000000E+00 -0.00000000000E+00 -0.45593999997E+02  0.45594000000E+02  0.51100000000E-03 0.  1.
         23    2    1    2    0    0 -0.17763568394E-14  0.00000000000E+00  0.71054273576E-14  0.91188000000E+02  0.91188000000E+02 0.  0.
    9900012    2    3    3    0    0 -0.98476148581E+01  0.10309847354E+01  0.42256180049E+02  0.47787271892E+02  0.20000003866E+02 0.  0.
        -12    1    3    3    0    0  0.98476148581E+01 -0.10309847354E+01 -0.42256180049E+02  0.43400728108E+02  0.00000000000E+00 0.  1.
         11    1    4    4    0    0  0.10406906076E+01 -0.15753947650E+01  0.18461585670E+02  0.18557883805E+02  0.51100000000E-03 0.  1.
        -11    1    4    4    0    0 -0.45289131859E+01  0.96907177153E+00  0.21914793381E+02  0.22398846487E+02  0.51100000000E-03 0. -1.
        -12    1    4    4    0    0 -0.63593922798E+01  0.16373077289E+01  0.18798009985E+01  0.68305416009E+01  0.00000000000E+00 0.  1.
</event>
<event>
 8    1  0.4383861E-011  0.9118800E+02  0.7816164E-02  0.1184000E+00
        -11   -1    0    0    0    0  0.00000000000E+00  0.00000000000E+00  0.45593999997E+02  0.45594000000E+02  0.51100000000E-03 0. -1.
         11   -1    0    0    0    0 -0.00000000000E+00 -0.00000000000E+00 -0.45593999997E+02  0.45594000000E+02  0.51100000000E-03 0.  1.
         23    2    1    2    0    0  0.35527136788E-14  0.17763568394E-14  0.71054273576E-14  0.91188000000E+02  0.91188000000E+02 0.  0.
    9900012    2    3    3    0    0 -0.24012928351E+02  0.14855678918E+02  0.32959238011E+02  0.47787270808E+02  0.19999998923E+02 0.  0.
        -12    1    3    3    0    0  0.24012928351E+02 -0.14855678918E+02 -0.32959238011E+02  0.43400729192E+02  0.00000000000E+00 0.  1.
         11    1    4    4    0    0 -0.11376649687E+02  0.11862770580E+02  0.21802109509E+02  0.27303579678E+02  0.51100000000E-03 0.  1.
        -11    1    4    4    0    0 -0.81348930636E+01 -0.49842725026E-01  0.12474754597E+02  0.14892900052E+02  0.51100000000E-03 0. -1.
        -12    1    4    4    0    0 -0.45013856001E+01  0.30427510627E+01 -0.13176260945E+01  0.55907910777E+01  0.00000000000E+00 0.  1.
</event>
<event>
 8    1  0.4042158E-011  0.9118800E+02  0.7816164E-02  0.1184000E+00
        -11   -1    0    0    0    0  0.00000000000E+00  0.00000000000E+00  0.45593999997E+02  0.45594000000E+02  0.51100000000E-03 0. -1.
         11   -1    0    0    0    0 -0.00000000000E+00 -0.00000000000E+00 -0.45593999997E+02  0.45594000000E+02  0.51100000000E-03 0.  1.
         23    2    1    2    0    0 -0.35527136788E-14 -0.35527136788E-14 -0.35527136788E-14  0.91188000000E+02  0.91188000000E+02 0.  0.
    9900012    2    3    3    0    0  0.19522835282E+02 -0.25395832097E+02  0.29283681461E+02  0.47787269761E+02  0.19999994148E+02 0.  0.
        -12    1    3    3    0    0 -0.19522835282E+02  0.25395832097E+02 -0.29283681461E+02  0.43400730239E+02  0.00000000000E+00 0.  1.
         11    1    4    4    0    0  0.21577358220E+01 -0.92660944784E+01  0.58128589998E+01  0.11149244852E+02  0.51100000000E-03 0. -1.
        -11    1    4    4    0    0  0.15539583813E+02 -0.74226253768E+01  0.21462917253E+02  0.27517827855E+02  0.51100000000E-03 0.  1.
        -12    1    4    4    0    0  0.18255156471E+01 -0.87071122423E+01  0.20079052077E+01  0.91201970538E+01  0.00000000000E+00 0.  1.
</event>
<event>
 8    1  0.4042158E-011  0.9118800E+02  0.7816164E-02  0.1184000E+00
        -11   -1    0    0    0    0  0.00000000000E+00  0.00000000000E+00  0.45593999997E+02  0.45594000000E+02  0.51100000000E-03 0. -1.
         11   -1    0    0    0    0 -0.00000000000E+00 -0.00000000000E+00 -0.45593999997E+02  0.45594000000E+02  0.51100000000E-03 0.  1.
         23    2    1    2    0    0  0.49960036108E-15  0.00000000000E+00  0.00000000000E+00  0.91188000000E+02  0.91188000000E+02 0.  0.
    9900012    2    3    3    0    0  0.35162633089E+00  0.30956161389E+02  0.30417355399E+02  0.47787273295E+02  0.20000010263E+02 0.  0.
        -12    1    3    3    0    0 -0.35162633089E+00 -0.30956161389E+02 -0.30417355399E+02  0.43400726705E+02  0.00000000000E+00 0.  1.
         11    1    4    4    0    0  0.23875909681E+01  0.15631151048E+02  0.62087019962E+01  0.16987685376E+02  0.51100000000E-03 0. -1.
        -11    1    4    4    0    0 -0.53916589957E-01 -0.72797556179E+00 -0.75733281453E+00  0.10518596248E+01  0.51100000000E-03 0.  1.
         12    1    4    4    0    0 -0.19820480473E+01  0.16052985903E+02  0.24965986217E+02  0.29747728294E+02  0.00000000000E+00 0. -1.
</event>
<event>
 8    1  0.4042158E-011  0.9118800E+02  0.7816164E-02  0.1184000E+00
        -11   -1    0    0    0    0  0.00000000000E+00  0.00000000000E+00  0.45593999997E+02  0.45594000000E+02  0.51100000000E-03 0. -1.
         11   -1    0    0    0    0 -0.00000000000E+00 -0.00000000000E+00 -0.45593999997E+02  0.45594000000E+02  0.51100000000E-03 0.  1.
         23    2    1    2    0    0  0.00000000000E+00  0.00000000000E+00  0.00000000000E+00  0.91188000000E+02  0.91188000000E+02 0.  0.
    9900012    2    3    3    0    0 -0.22564430928E+02  0.24638252664E+02  0.27702460460E+02  0.47787270134E+02  0.19999995847E+02 0.  0.
        -12    1    3    3    0    0  0.22564430928E+02 -0.24638252664E+02 -0.27702460460E+02  0.43400729866E+02  0.00000000000E+00 0.  1.
         11    1    4    4    0    0 -0.76973635463E+01  0.10282662388E+02  0.44897938586E+01  0.13606645454E+02  0.51100000000E-03 0. -1.
        -11    1    4    4    0    0 -0.29132322450E+01 -0.40402066841E+00 -0.12623054272E+01  0.32005577743E+01  0.51100000000E-03 0.  1.
         12    1    4    4    0    0 -0.11953835137E+02  0.14759610944E+02  0.24474972028E+02  0.30980066905E+02  0.00000000000E+00 0. -1.
</event>
<event>
 8    1  0.4042158E-011  0.9118800E+02  0.7816164E-02  0.1184000E+00
        -11   -1    0    0    0    0  0.00000000000E+00  0.00000000000E+00  0.45593999997E+02  0.45594000000E+02  0.51100000000E-03 0. -1.
         11   -1    0    0    0    0 -0.00000000000E+00 -0.00000000000E+00 -0.45593999997E+02  0.45594000000E+02  0.51100000000E-03 0.  1.
         23    2    1    2    0    0 -0.35527136788E-14  0.00000000000E+00 -0.17763568394E-14  0.91188000000E+02  0.91188000000E+02 0.  0.
    9900012    2    3    3    0    0 -0.17162352008E+02 -0.38732907479E+02  0.94254431901E+01  0.47787269274E+02  0.19999991927E+02 0.  0.
        -12    1    3    3    0    0  0.17162352008E+02  0.38732907479E+02 -0.94254431901E+01  0.43400730726E+02  0.00000000000E+00 0.  1.
         11    1    4    4    0    0 -0.12137021893E+00  0.16054159647E+00  0.33133150272E+01  0.33194217968E+01  0.51100000000E-03 0. -1.
        -11    1    4    4    0    0 -0.92300213952E+01 -0.13429551576E+02  0.71895257831E+01  0.17811104170E+02  0.51100000000E-03 0.  1.
         12    1    4    4    0    0 -0.78109603935E+01 -0.25463897499E+02 -0.10773976203E+01  0.26656743307E+02  0.00000000000E+00 0. -1.
</event>
<event>
 8    1  0.4042158E-011  0.9118800E+02  0.7816164E-02  0.1184000E+00
        -11   -1    0    0    0    0  0.00000000000E+00  0.00000000000E+00  0.45593999997E+02  0.45594000000E+02  0.51100000000E-03 0. -1.
         11   -1    0    0    0    0 -0.00000000000E+00 -0.00000000000E+00 -0.45593999997E+02  0.45594000000E+02  0.51100000000E-03 0.  1.
         23    2    1    2    0    0 -0.35527136788E-14  0.00000000000E+00  0.35527136788E-14  0.91188000000E+02  0.91188000000E+02 0.  0.
    9900012    2    3    3    0    0 -0.22678119333E+02  0.32570776629E+02  0.17563338047E+02  0.47787269245E+02  0.19999991797E+02 0.  0.
        -12    1    3    3    0    0  0.22678119333E+02 -0.32570776629E+02 -0.17563338047E+02  0.43400730755E+02  0.00000000000E+00 0.  1.
         11    1    4    4    0    0 -0.23235534680E+00  0.10180192324E+02  0.84372678606E+01  0.13224136795E+02  0.51100000000E-03 0. -1.
        -11    1    4    4    0    0 -0.85669336376E+01  0.68013012758E+01  0.81993698648E+01  0.13670395658E+02  0.51100000000E-03 0.  1.
        -12    1    4    4    0    0 -0.13878830349E+02  0.15589283029E+02  0.92670032143E+00  0.20892736793E+02  0.00000000000E+00 0.  1.
</event>
<event>
 8    1  0.4042158E-011  0.9118800E+02  0.7816164E-02  0.1184000E+00
        -11   -1    0    0    0    0  0.00000000000E+00  0.00000000000E+00  0.45593999997E+02  0.45594000000E+02  0.51100000000E-03 0. -1.
         11   -1    0    0    0    0 -0.00000000000E+00 -0.00000000000E+00 -0.45593999997E+02  0.45594000000E+02  0.51100000000E-03 0.  1.
         23    2    1    2    0    0 -0.17763568394E-14 -0.71054273576E-14  0.00000000000E+00  0.91188000000E+02  0.91188000000E+02 0.  0.
    9900012    2    3    3    0    0  0.13273441210E+02  0.31257910573E+02  0.27025580627E+02  0.47787271628E+02  0.20000002663E+02 0.  0.
        -12    1    3    3    0    0 -0.13273441210E+02 -0.31257910573E+02 -0.27025580627E+02  0.43400728372E+02  0.00000000000E+00 0.  1.
         11    1    4    4    0    0  0.52987558099E+01  0.94951181427E+01  0.53055439722E+01  0.12098879236E+02  0.51100000000E-03 0. -1.
        -11    1    4    4    0    0  0.52800000575E+01  0.24140543033E+02  0.19313749544E+02  0.31363436359E+02  0.51100000000E-03 0.  1.
         12    1    4    4    0    0  0.26946853424E+01 -0.23777506030E+01  0.24062871106E+01  0.43249560325E+01  0.00000000000E+00 0. -1.
</event>
<event>
 8    1  0.4042158E-011  0.9118800E+02  0.7816164E-02  0.1184000E+00
        -11   -1    0    0    0    0  0.00000000000E+00  0.00000000000E+00  0.45593999997E+02  0.45594000000E+02  0.51100000000E-03 0.  1.
         11   -1    0    0    0    0 -0.00000000000E+00 -0.00000000000E+00 -0.45593999997E+02  0.45594000000E+02  0.51100000000E-03 0. -1.
         23    2    1    2    0    0  0.71054273576E-14  0.00000000000E+00  0.17763568394E-14  0.91188000000E+02  0.91188000000E+02 0.  0.
    9900012    2    3    3    0    0 -0.40306154250E+02  0.91127795343E+01 -0.13266293106E+02  0.47787270121E+02  0.19999995787E+02 0.  0.
        -12    1    3    3    0    0  0.40306154250E+02 -0.91127795343E+01  0.13266293106E+02  0.43400729879E+02  0.00000000000E+00 0.  1.
         11    1    4    4    0    0 -0.31107284102E+01 -0.16619674414E+01  0.21527732120E+01  0.41319728680E+01  0.51100000000E-03 0. -1.
        -11    1    4    4    0    0 -0.14979381264E+01  0.26134096644E+01  0.14440397292E+01  0.33405059055E+01  0.51100000000E-03 0.  1.
         12    1    4    4    0    0 -0.35697487714E+02  0.81613373114E+01 -0.16863106047E+02  0.40314791347E+02  0.00000000000E+00 0. -1.
</event>
<event>
 8    1  0.4042158E-011  0.9118800E+02  0.7816164E-02  0.1184000E+00
        -11   -1    0    0    0    0  0.00000000000E+00  0.00000000000E+00  0.45593999997E+02  0.45594000000E+02  0.51100000000E-03 0. -1.
         11   -1    0    0    0    0 -0.00000000000E+00 -0.00000000000E+00 -0.45593999997E+02  0.45594000000E+02  0.51100000000E-03 0.  1.
         23    2    1    2    0    0  0.17763568394E-14 -0.88817841970E-15  0.00000000000E+00  0.91188000000E+02  0.91188000000E+02 0.  0.
    9900012    2    3    3    0    0 -0.11662574157E+02  0.79324308230E+01 -0.41044893682E+02  0.47787281203E+02  0.20000046316E+02 0.  0.
         12    1    3    3    0    0  0.11662574157E+02 -0.79324308230E+01  0.41044893682E+02  0.43400718797E+02  0.00000000000E+00 0. -1.
         11    1    4    4    0    0 -0.69026695988E-03  0.27479760135E+01 -0.31873695286E+02  0.31991933735E+02  0.51100000000E-03 0. -1.
        -11    1    4    4    0    0 -0.27666778605E+01  0.11813618701E+01 -0.30238342501E+01  0.42654069073E+01  0.51100000000E-03 0.  1.
         12    1    4    4    0    0 -0.88952060291E+01  0.40030929394E+01 -0.61473641458E+01  0.11529940560E+02  0.00000000000E+00 0. -1.
</event>
<event>
 8    1  0.4042158E-011  0.9118800E+02  0.7816164E-02  0.1184000E+00
        -11   -1    0    0    0    0  0.00000000000E+00  0.00000000000E+00  0.45593999997E+02  0.45594000000E+02  0.51100000000E-03 0. -1.
         11   -1    0    0    0    0 -0.00000000000E+00 -0.00000000000E+00 -0.45593999997E+02  0.45594000000E+02  0.51100000000E-03 0.  1.
         23    2    1    2    0    0  0.00000000000E+00  0.00000000000E+00  0.00000000000E+00  0.91188000000E+02  0.91188000000E+02 0.  0.
    9900012    2    3    3    0    0  0.13614435704E+02 -0.15459485203E+02 -0.38200460646E+02  0.47787265722E+02  0.19999975735E+02 0.  0.
         12    1    3    3    0    0 -0.13614435704E+02  0.15459485203E+02  0.38200460646E+02  0.43400734278E+02  0.00000000000E+00 0. -1.
         11    1    4    4    0    0 -0.15619695012E+01  0.74728554117E+00 -0.42119089662E+01  0.45539391523E+01  0.51100000000E-03 0. -1.
        -11    1    4    4    0    0 -0.17878054894E+01 -0.63019434950E+01 -0.51155670987E+01  0.83114239023E+01  0.51100000000E-03 0.  1.
         12    1    4    4    0    0  0.16964210694E+02 -0.99048272493E+01 -0.28872984581E+02  0.34921902668E+02  0.00000000000E+00 0. -1.
</event>
<event>
 8    1  0.4042158E-011  0.9118800E+02  0.7816164E-02  0.1184000E+00
        -11   -1    0    0    0    0  0.00000000000E+00  0.00000000000E+00  0.45593999997E+02  0.45594000000E+02  0.51100000000E-03 0. -1.
         11   -1    0    0    0    0 -0.00000000000E+00 -0.00000000000E+00 -0.45593999997E+02  0.45594000000E+02  0.51100000000E-03 0.  1.
         23    2    1    2    0    0 -0.17763568394E-14  0.00000000000E+00  0.00000000000E+00  0.91188000000E+02  0.91188000000E+02 0.  0.
    9900012    2    3    3    0    0 -0.61860117965E+01  0.37674250910E+02  0.20639944760E+02  0.47787271397E+02  0.20000001606E+02 0.  0.
        -12    1    3    3    0    0  0.61860117965E+01 -0.37674250910E+02 -0.20639944760E+02  0.43400728603E+02  0.00000000000E+00 0.  1.
         11    1    4    4    0    0  0.40668754326E+00  0.40314074749E+01  0.65985528393E+01  0.77432900514E+01  0.51100000000E-03 0. -1.
        -11    1    4    4    0    0  0.15922273518E+01 -0.76372110696E+00  0.20360666073E+01  0.26951855890E+01  0.51100000000E-03 0.  1.
        -12    1    4    4    0    0 -0.81849266916E+01  0.34406564543E+02  0.12005325313E+02  0.37348795756E+02  0.00000000000E+00 0.  1.
</event>
<event>
 8    1  0.4042158E-011  0.9118800E+02  0.7816164E-02  0.1184000E+00
        -11   -1    0    0    0    0  0.00000000000E+00  0.00000000000E+00  0.45593999997E+02  0.45594000000E+02  0.51100000000E-03 0. -1.
         11   -1    0    0    0    0 -0.00000000000E+00 -0.00000000000E+00 -0.45593999997E+02  0.45594000000E+02  0.51100000000E-03 0.  1.
         23    2    1    2    0    0  0.71054273576E-14  0.00000000000E+00  0.00000000000E+00  0.91188000000E+02  0.91188000000E+02 0.  0.
    9900012    2    3    3    0    0 -0.38448544260E+02 -0.22659951086E+01  0.20004945052E+02  0.47787272862E+02  0.20000008287E+02 0.  0.
        -12    1    3    3    0    0  0.38448544260E+02  0.22659951086E+01 -0.20004945052E+02  0.43400727138E+02  0.00000000000E+00 0.  1.
         11    1    4    4    0    0 -0.13343310631E+02  0.45894050779E+00  0.60019479709E+01  0.14638235710E+02  0.51100000000E-03 0. -1.
        -11    1    4    4    0    0 -0.10718757955E+02 -0.81834621684E+01  0.11153244007E+02  0.17500162208E+02  0.51100000000E-03 0.  1.
        -12    1    4    4    0    0 -0.14386475674E+02  0.54585265520E+01  0.28497530740E+01  0.15648874944E+02  0.00000000000E+00 0.  1.
</event>
<event>
 8    1  0.4042158E-011  0.9118800E+02  0.7816164E-02  0.1184000E+00
        -11   -1    0    0    0    0  0.00000000000E+00  0.00000000000E+00  0.45593999997E+02  0.45594000000E+02  0.51100000000E-03 0. -1.
         11   -1    0    0    0    0 -0.00000000000E+00 -0.00000000000E+00 -0.45593999997E+02  0.45594000000E+02  0.51100000000E-03 0.  1.
         23    2    1    2    0    0  0.00000000000E+00 -0.88817841970E-15  0.00000000000E+00  0.91188000000E+02  0.91188000000E+02 0.  0.
    9900012    2    3    3    0    0 -0.24015919062E+02  0.77456411385E+01 -0.35310957523E+02  0.47787273667E+02  0.20000011957E+02 0.  0.
         12    1    3    3    0    0  0.24015919062E+02 -0.77456411385E+01  0.35310957523E+02  0.43400726333E+02  0.00000000000E+00 0. -1.
         11    1    4    4    0    0  0.15738167907E+01 -0.19592728795E+01 -0.20711904127E+01  0.32566055171E+01  0.51100000000E-03 0. -1.
        -11    1    4    4    0    0 -0.12141274006E+01  0.21712669153E+01  0.16982280755E+00  0.24934605290E+01  0.51100000000E-03 0.  1.
        -12    1    4    4    0    0 -0.24375608452E+02  0.75336471027E+01 -0.33409589918E+02  0.42037207621E+02  0.00000000000E+00 0.  1.
</event>
<event>
 8    1  0.4042158E-011  0.9118800E+02  0.7816164E-02  0.1184000E+00
        -11   -1    0    0    0    0  0.00000000000E+00  0.00000000000E+00  0.45593999997E+02  0.45594000000E+02  0.51100000000E-03 0. -1.
         11   -1    0    0    0    0 -0.00000000000E+00 -0.00000000000E+00 -0.45593999997E+02  0.45594000000E+02  0.51100000000E-03 0.  1.
         23    2    1    2    0    0  0.35527136788E-14  0.88817841970E-15 -0.71054273576E-14  0.91188000000E+02  0.91188000000E+02 0.  0.
    9900012    2    3    3    0    0  0.26923728904E+02  0.49035383045E+01 -0.33685181914E+02  0.47787270207E+02  0.19999996181E+02 0.  0.
         12    1    3    3    0    0 -0.26923728904E+02 -0.49035383045E+01  0.33685181914E+02  0.43400729793E+02  0.00000000000E+00 0. -1.
         11    1    4    4    0    0  0.67132066288E+01 -0.28823220096E+01 -0.77150602882E+01  0.10625303710E+02  0.51100000000E-03 0. -1.
        -11    1    4    4    0    0  0.57824961060E+01 -0.36495416989E+01 -0.12846562453E+02  0.14553026591E+02  0.51100000000E-03 0.  1.
         12    1    4    4    0    0  0.14428026170E+02  0.11435402013E+02 -0.13123559173E+02  0.22608939907E+02  0.00000000000E+00 0. -1.
</event>
<event>
 8    1  0.4042158E-011  0.9118800E+02  0.7816164E-02  0.1184000E+00
        -11   -1    0    0    0    0  0.00000000000E+00  0.00000000000E+00  0.45593999997E+02  0.45594000000E+02  0.51100000000E-03 0. -1.
         11   -1    0    0    0    0 -0.00000000000E+00 -0.00000000000E+00 -0.45593999997E+02  0.45594000000E+02  0.51100000000E-03 0.  1.
         23    2    1    2    0    0 -0.35527136788E-14  0.00000000000E+00  0.35527136788E-14  0.91188000000E+02  0.91188000000E+02 0.  0.
    9900012    2    3    3    0    0  0.20555019213E+02  0.22350263753E+02 -0.31009353754E+02  0.47787272761E+02  0.20000007827E+02 0.  0.
         12    1    3    3    0    0 -0.20555019213E+02 -0.22350263753E+02  0.31009353754E+02  0.43400727239E+02  0.00000000000E+00 0. -1.
         11    1    4    4    0    0 -0.29812798534E+01 -0.59516342339E+00 -0.16842845342E+01  0.34754947443E+01  0.51100000000E-03 0. -1.
        -11    1    4    4    0    0  0.72474017432E+01  0.43060099588E+01 -0.83644811160E+01  0.11875651493E+02  0.51100000000E-03 0.  1.
         12    1    4    4    0    0  0.16288897323E+02  0.18639417217E+02 -0.20960588103E+02  0.32436126523E+02  0.00000000000E+00 0. -1.
</event>
<event>
 8    1  0.4042158E-011  0.9118800E+02  0.7816164E-02  0.1184000E+00
        -11   -1    0    0    0    0  0.00000000000E+00  0.00000000000E+00  0.45593999997E+02  0.45594000000E+02  0.51100000000E-03 0. -1.
         11   -1    0    0    0    0 -0.00000000000E+00 -0.00000000000E+00 -0.45593999997E+02  0.45594000000E+02  0.51100000000E-03 0.  1.
         23    2    1    2    0    0  0.00000000000E+00  0.00000000000E+00  0.35527136788E-14  0.91188000000E+02  0.91188000000E+02 0.  0.
    9900012    2    3    3    0    0 -0.13945357759E+02  0.32784673525E+02 -0.24785383325E+02  0.47787273650E+02  0.20000011879E+02 0.  0.
         12    1    3    3    0    0  0.13945357759E+02 -0.32784673525E+02  0.24785383325E+02  0.43400726350E+02  0.00000000000E+00 0. -1.
         11    1    4    4    0    0 -0.51355930318E+01  0.22546548661E+01 -0.97218098159E+01  0.11223696838E+02  0.51100000000E-03 0. -1.
        -11    1    4    4    0    0 -0.14985075366E+01  0.11595646206E+02 -0.10599721221E+02  0.15781591364E+02  0.51100000000E-03 0.  1.
        -12    1    4    4    0    0 -0.73112571903E+01  0.18934372453E+02 -0.44638522883E+01  0.20781985448E+02  0.00000000000E+00 0.  1.
</event>
<event>
 8    1  0.4042158E-011  0.9118800E+02  0.7816164E-02  0.1184000E+00
        -11   -1    0    0    0    0  0.00000000000E+00  0.00000000000E+00  0.45593999997E+02  0.45594000000E+02  0.51100000000E-03 0. -1.
         11   -1    0    0    0    0 -0.00000000000E+00 -0.00000000000E+00 -0.45593999997E+02  0.45594000000E+02  0.51100000000E-03 0.  1.
         23    2    1    2    0    0  0.00000000000E+00  0.00000000000E+00  0.00000000000E+00  0.91188000000E+02  0.91188000000E+02 0.  0.
    9900012    2    3    3    0    0  0.43006283308E+02  0.56813818880E+01 -0.13434160615E+01  0.47787271079E+02  0.20000000157E+02 0.  0.
        -12    1    3    3    0    0 -0.43006283308E+02 -0.56813818880E+01  0.13434160615E+01  0.43400728921E+02  0.00000000000E+00 0.  1.
         11    1    4    4    0    0  0.30934888036E+02  0.54109471768E+01  0.22546589617E+01  0.31485379693E+02  0.51100000000E-03 0. -1.
        -11    1    4    4    0    0  0.12944957282E+02  0.60181459265E+00 -0.39459467041E+00  0.12964945239E+02  0.51100000000E-03 0.  1.
        -12    1    4    4    0    0 -0.87356200985E+00 -0.33137988146E+00 -0.32034803528E+01  0.33369461460E+01  0.00000000000E+00 0.  1.
</event>
<event>
 8    1  0.4042158E-011  0.9118800E+02  0.7816164E-02  0.1184000E+00
        -11   -1    0    0    0    0  0.00000000000E+00  0.00000000000E+00  0.45593999997E+02  0.45594000000E+02  0.51100000000E-03 0.  1.
         11   -1    0    0    0    0 -0.00000000000E+00 -0.00000000000E+00 -0.45593999997E+02  0.45594000000E+02  0.51100000000E-03 0. -1.
         23    2    1    2    0    0  0.00000000000E+00  0.00000000000E+00  0.00000000000E+00  0.91188000000E+02  0.91188000000E+02 0.  0.
    9900012    2    3    3    0    0  0.37369567863E+02  0.87282471750E+01 -0.20272065825E+02  0.47787267819E+02  0.19999985296E+02 0.  0.
         12    1    3    3    0    0 -0.37369567863E+02 -0.87282471750E+01  0.20272065825E+02  0.43400732181E+02  0.00000000000E+00 0. -1.
         11    1    4    4    0    0  0.13150874207E+01 -0.32196234905E+01 -0.23005063531E+01  0.41698633175E+01  0.51100000000E-03 0. -1.
        -11    1    4    4    0    0  0.15960397201E+02 -0.66966504457E+00 -0.62585074644E+01  0.17156679341E+02  0.51100000000E-03 0.  1.
        -12    1    4    4    0    0  0.20094083241E+02  0.12617535710E+02 -0.11713052007E+02  0.26460725161E+02  0.00000000000E+00 0.  1.
</event>
<event>
 8    1  0.4042158E-011  0.9118800E+02  0.7816164E-02  0.1184000E+00
        -11   -1    0    0    0    0  0.00000000000E+00  0.00000000000E+00  0.45593999997E+02  0.45594000000E+02  0.51100000000E-03 0. -1.
         11   -1    0    0    0    0 -0.00000000000E+00 -0.00000000000E+00 -0.45593999997E+02  0.45594000000E+02  0.51100000000E-03 0.  1.
         23    2    1    2    0    0 -0.71054273576E-14  0.44408920985E-15 -0.35527136788E-14  0.91188000000E+02  0.91188000000E+02 0.  0.
    9900012    2    3    3    0    0  0.34221662340E+02  0.17556908357E+01  0.26634922052E+02  0.47787266177E+02  0.19999977807E+02 0.  0.
        -12    1    3    3    0    0 -0.34221662340E+02 -0.17556908357E+01 -0.26634922052E+02  0.43400733823E+02  0.00000000000E+00 0.  1.
         11    1    4    4    0    0  0.13845037638E+02  0.18462972082E+01  0.70945557427E+01  0.15666097217E+02  0.51100000000E-03 0. -1.
        -11    1    4    4    0    0  0.84174815173E+01  0.26388158241E+01 -0.26426284204E+00  0.88253713326E+01  0.51100000000E-03 0.  1.
        -12    1    4    4    0    0  0.11959143186E+02 -0.27294221966E+01  0.19804629152E+02  0.23295797627E+02  0.00000000000E+00 0.  1.
</event>
<event>
 8    1  0.4042158E-011  0.9118800E+02  0.7816164E-02  0.1184000E+00
        -11   -1    0    0    0    0  0.00000000000E+00  0.00000000000E+00  0.45593999997E+02  0.45594000000E+02  0.51100000000E-03 0. -1.
         11   -1    0    0    0    0 -0.00000000000E+00 -0.00000000000E+00 -0.45593999997E+02  0.45594000000E+02  0.51100000000E-03 0.  1.
         23    2    1    2    0    0  0.71054273576E-14 -0.35527136788E-14  0.22204460493E-15  0.91188000000E+02  0.91188000000E+02 0.  0.
    9900012    2    3    3    0    0 -0.40747242935E+02  0.14921501312E+02  0.79617988236E+00  0.47787275229E+02  0.20000019080E+02 0.  0.
        -12    1    3    3    0    0  0.40747242935E+02 -0.14921501312E+02 -0.79617988236E+00  0.43400724771E+02  0.00000000000E+00 0.  1.
         11    1    4    4    0    0 -0.18798120173E+02  0.11038976354E+02  0.31248545702E+01  0.22022557466E+02  0.51100000000E-03 0. -1.
        -11    1    4    4    0    0 -0.12506919592E+02  0.72936301984E+01  0.23856165051E+01  0.14673487844E+02  0.51100000000E-03 0.  1.
        -12    1    4    4    0    0 -0.94422031706E+01 -0.34111052403E+01 -0.47142911930E+01  0.11091229920E+02  0.00000000000E+00 0.  1.
</event>
<event>
 8    1  0.4042158E-011  0.9118800E+02  0.7816164E-02  0.1184000E+00
        -11   -1    0    0    0    0  0.00000000000E+00  0.00000000000E+00  0.45593999997E+02  0.45594000000E+02  0.51100000000E-03 0.  1.
         11   -1    0    0    0    0 -0.00000000000E+00 -0.00000000000E+00 -0.45593999997E+02  0.45594000000E+02  0.51100000000E-03 0. -1.
         23    2    1    2    0    0 -0.17763568394E-14  0.00000000000E+00  0.22204460493E-15  0.91188000000E+02  0.91188000000E+02 0.  0.
    9900012    2    3    3    0    0  0.11370928923E+02  0.41844753739E+02  0.18281005133E+01  0.47787269688E+02  0.19999993818E+02 0.  0.
         12    1    3    3    0    0 -0.11370928923E+02 -0.41844753739E+02 -0.18281005133E+01  0.43400730312E+02  0.00000000000E+00 0. -1.
         11    1    4    4    0    0  0.40851026464E+01  0.86543968904E+01 -0.43665834733E+00  0.95800480135E+01  0.51100000000E-03 0. -1.
        -11    1    4    4    0    0  0.73301345205E+01  0.14961114665E+02  0.88003453187E+01  0.18841759527E+02  0.51100000000E-03 0.  1.
         12    1    4    4    0    0 -0.44308243934E-01  0.18229242185E+02 -0.65355864581E+01  0.19365462148E+02  0.00000000000E+00 0. -1.
</event>
<event>
 8    1  0.4042158E-011  0.9118800E+02  0.7816164E-02  0.1184000E+00
        -11   -1    0    0    0    0  0.00000000000E+00  0.00000000000E+00  0.45593999997E+02  0.45594000000E+02  0.51100000000E-03 0. -1.
         11   -1    0    0    0    0 -0.00000000000E+00 -0.00000000000E+00 -0.45593999997E+02  0.45594000000E+02  0.51100000000E-03 0.  1.
         23    2    1    2    0    0 -0.17763568394E-14 -0.71054273576E-14  0.17763568394E-14  0.91188000000E+02  0.91188000000E+02 0.  0.
    9900012    2    3    3    0    0  0.11112572982E+02  0.38788691185E+02 -0.15986623774E+02  0.47787262889E+02  0.19999962814E+02 0.  0.
         12    1    3    3    0    0 -0.11112572982E+02 -0.38788691185E+02  0.15986623774E+02  0.43400737111E+02  0.00000000000E+00 0. -1.
         11    1    4    4    0    0  0.10868832797E+01  0.13888585897E+02 -0.91978948413E+01  0.16693573711E+02  0.51100000000E-03 0. -1.
        -11    1    4    4    0    0  0.65385996360E+01  0.16159155710E+02 -0.11179692434E+02  0.20708865774E+02  0.51100000000E-03 0.  1.
         12    1    4    4    0    0  0.34870900659E+01  0.87409495782E+01  0.43909635011E+01  0.10384823404E+02  0.00000000000E+00 0. -1.
</event>
<event>
 8    1  0.4042158E-011  0.9118800E+02  0.7816164E-02  0.1184000E+00
        -11   -1    0    0    0    0  0.00000000000E+00  0.00000000000E+00  0.45593999997E+02  0.45594000000E+02  0.51100000000E-03 0. -1.
         11   -1    0    0    0    0 -0.00000000000E+00 -0.00000000000E+00 -0.45593999997E+02  0.45594000000E+02  0.51100000000E-03 0.  1.
         23    2    1    2    0    0 -0.35527136788E-14  0.00000000000E+00  0.00000000000E+00  0.91188000000E+02  0.91188000000E+02 0.  0.
    9900012    2    3    3    0    0  0.27398260743E+02 -0.16733423328E+02  0.29205314954E+02  0.47787279159E+02  0.20000036996E+02 0.  0.
        -12    1    3    3    0    0 -0.27398260743E+02  0.16733423328E+02 -0.29205314954E+02  0.43400720841E+02  0.00000000000E+00 0.  1.
         11    1    4    4    0    0  0.18289627821E+01 -0.25978696639E+01  0.86939648259E+01  0.92562981966E+01  0.51100000000E-03 0. -1.
        -11    1    4    4    0    0  0.14849284535E+02 -0.15892497739E+02  0.13981047475E+02  0.25856187351E+02  0.51100000000E-03 0.  1.
        -12    1    4    4    0    0  0.10720013426E+02  0.17569440755E+01  0.65303026524E+01  0.12674793611E+02  0.00000000000E+00 0.  1.
</event>
<event>
 8    1  0.4042158E-011  0.9118800E+02  0.7816164E-02  0.1184000E+00
        -11   -1    0    0    0    0  0.00000000000E+00  0.00000000000E+00  0.45593999997E+02  0.45594000000E+02  0.51100000000E-03 0. -1.
         11   -1    0    0    0    0 -0.00000000000E+00 -0.00000000000E+00 -0.45593999997E+02  0.45594000000E+02  0.51100000000E-03 0.  1.
         23    2    1    2    0    0  0.00000000000E+00  0.00000000000E+00  0.00000000000E+00  0.91188000000E+02  0.91188000000E+02 0.  0.
    9900012    2    3    3    0    0  0.34004584500E+02 -0.23735173591E+02 -0.12804544375E+02  0.47787232851E+02  0.19999825860E+02 0.  0.
         12    1    3    3    0    0 -0.34004584500E+02  0.23735173591E+02  0.12804544375E+02  0.43400767149E+02  0.00000000000E+00 0. -1.
         11    1    4    4    0    0  0.10804341814E+02 -0.11042063029E+02  0.23830814604E+00  0.15450493487E+02  0.51100000000E-03 0.  1.
        -11    1    4    4    0    0  0.79906083737E+01 -0.11745088449E+02 -0.78924270003E+01  0.16250763953E+02  0.51100000000E-03 0. -1.
        -12    1    4    4    0    0  0.15209634313E+02 -0.94802211390E+00 -0.51504255211E+01  0.16085975410E+02  0.00000000000E+00 0.  1.
</event>
<event>
 8    1  0.4042158E-011  0.9118800E+02  0.7816164E-02  0.1184000E+00
        -11   -1    0    0    0    0  0.00000000000E+00  0.00000000000E+00  0.45593999997E+02  0.45594000000E+02  0.51100000000E-03 0. -1.
         11   -1    0    0    0    0 -0.00000000000E+00 -0.00000000000E+00 -0.45593999997E+02  0.45594000000E+02  0.51100000000E-03 0.  1.
         23    2    1    2    0    0  0.00000000000E+00  0.00000000000E+00  0.00000000000E+00  0.91188000000E+02  0.91188000000E+02 0.  0.
    9900012    2    3    3    0    0 -0.11639266514E+02 -0.31201998046E+02  0.27831389106E+02  0.47787269285E+02  0.19999991978E+02 0.  0.
        -12    1    3    3    0    0  0.11639266514E+02  0.31201998046E+02 -0.27831389106E+02  0.43400730715E+02  0.00000000000E+00 0.  1.
         11    1    4    4    0    0 -0.66277580886E+01 -0.18650501205E+02  0.79607662812E+01  0.21334061323E+02  0.51100000000E-03 0. -1.
        -11    1    4    4    0    0 -0.72829639765E+01 -0.13201913875E+02  0.16705641573E+02  0.22503567603E+02  0.51100000000E-03 0.  1.
         12    1    4    4    0    0  0.22714555513E+01  0.65041703420E+00  0.31649812520E+01  0.39496403590E+01  0.00000000000E+00 0. -1.
</event>
<event>
 8    1  0.4042158E-011  0.9118800E+02  0.7816164E-02  0.1184000E+00
        -11   -1    0    0    0    0  0.00000000000E+00  0.00000000000E+00  0.45593999997E+02  0.45594000000E+02  0.51100000000E-03 0.  1.
         11   -1    0    0    0    0 -0.00000000000E+00 -0.00000000000E+00 -0.45593999997E+02  0.45594000000E+02  0.51100000000E-03 0. -1.
         23    2    1    2    0    0  0.00000000000E+00 -0.35527136788E-14  0.35527136788E-14  0.91188000000E+02  0.91188000000E+02 0.  0.
    9900012    2    3    3    0    0 -0.21976644069E+02  0.28641327734E+02 -0.24089929169E+02  0.47787271592E+02  0.20000002499E+02 0.  0.
         12    1    3    3    0    0  0.21976644069E+02 -0.28641327734E+02  0.24089929169E+02  0.43400728408E+02  0.00000000000E+00 0. -1.
         11    1    4    4    0    0 -0.12084052664E+02  0.62016599655E+01 -0.86750839143E+01  0.16116513156E+02  0.51100000000E-03 0. -1.
        -11    1    4    4    0    0 -0.36098229792E+01  0.73284031451E+00  0.90874440095E+00  0.37939021489E+01  0.51100000000E-03 0.  1.
        -12    1    4    4    0    0 -0.62827684252E+01  0.21706827454E+02 -0.16323589656E+02  0.27876856288E+02  0.00000000000E+00 0.  1.
</event>
<event>
 8    1  0.4042158E-011  0.9118800E+02  0.7816164E-02  0.1184000E+00
        -11   -1    0    0    0    0  0.00000000000E+00  0.00000000000E+00  0.45593999997E+02  0.45594000000E+02  0.51100000000E-03 0. -1.
         11   -1    0    0    0    0 -0.00000000000E+00 -0.00000000000E+00 -0.45593999997E+02  0.45594000000E+02  0.51100000000E-03 0.  1.
         23    2    1    2    0    0  0.00000000000E+00  0.00000000000E+00  0.00000000000E+00  0.91188000000E+02  0.91188000000E+02 0.  0.
    9900012    2    3    3    0    0  0.23596738997E+02  0.17240881699E+02  0.32086880603E+02  0.47787285722E+02  0.20000066920E+02 0.  0.
        -12    1    3    3    0    0 -0.23596738997E+02 -0.17240881699E+02 -0.32086880603E+02  0.43400714278E+02  0.00000000000E+00 0.  1.
         11    1    4    4    0    0  0.35086615038E+01  0.10547239652E+02  0.96066688576E+01  0.14691598164E+02  0.51100000000E-03 0. -1.
        -11    1    4    4    0    0  0.10191644437E+02  0.87200415456E+01  0.16830082049E+02  0.21521161746E+02  0.51100000000E-03 0.  1.
        -12    1    4    4    0    0  0.98964330563E+01 -0.20263994984E+01  0.56501296963E+01  0.11574525811E+02  0.00000000000E+00 0.  1.
</event>
<event>
 8    1  0.4042158E-011  0.9118800E+02  0.7816164E-02  0.1184000E+00
        -11   -1    0    0    0    0  0.00000000000E+00  0.00000000000E+00  0.45593999997E+02  0.45594000000E+02  0.51100000000E-03 0. -1.
         11   -1    0    0    0    0 -0.00000000000E+00 -0.00000000000E+00 -0.45593999997E+02  0.45594000000E+02  0.51100000000E-03 0.  1.
         23    2    1    2    0    0 -0.35527136788E-14  0.00000000000E+00  0.00000000000E+00  0.91188000000E+02  0.91188000000E+02 0.  0.
    9900012    2    3    3    0    0  0.24374935136E+02 -0.28125923209E+02 -0.22325286290E+02  0.47787269279E+02  0.19999991948E+02 0.  0.
         12    1    3    3    0    0 -0.24374935136E+02  0.28125923209E+02  0.22325286290E+02  0.43400730721E+02  0.00000000000E+00 0. -1.
         11    1    4    4    0    0  0.24422012561E+02 -0.17819584638E+02 -0.13762778852E+02  0.33217260215E+02  0.51100000000E-03 0. -1.
        -11    1    4    4    0    0  0.12396165676E-01 -0.61575364479E+00  0.85719662594E+00  0.10555058184E+01  0.51100000000E-03 0.  1.
        -12    1    4    4    0    0 -0.59473590550E-01 -0.96905849257E+01 -0.94197040639E+01  0.13514503245E+02  0.00000000000E+00 0.  1.
</event>
<event>
 8    1  0.6154313E-011  0.9118800E+02  0.7816164E-02  0.1184000E+00
        -11   -1    0    0    0    0  0.00000000000E+00  0.00000000000E+00  0.45593999997E+02  0.45594000000E+02  0.51100000000E-03 0. -1.
         11   -1    0    0    0    0 -0.00000000000E+00 -0.00000000000E+00 -0.45593999997E+02  0.45594000000E+02  0.51100000000E-03 0.  1.
         23    2    1    2    0    0 -0.88817841970E-15  0.88817841970E-15  0.71054273576E-14  0.91188000000E+02  0.91188000000E+02 0.  0.
    9900012    2    3    3    0    0 -0.79069393149E+01 -0.73503272332E+01  0.42036616972E+02  0.47787260764E+02  0.19999953128E+02 0.  0.
        -12    1    3    3    0    0  0.79069393149E+01  0.73503272332E+01 -0.42036616972E+02  0.43400739236E+02  0.00000000000E+00 0.  1.
         11    1    4    4    0    0 -0.61662746653E+01 -0.47360638370E+01  0.26487647476E+02  0.27605229813E+02  0.51100000000E-03 0. -1.
        -11    1    4    4    0    0 -0.46378562109E+01  0.26980019235E+01  0.12054103288E+02  0.13194329499E+02  0.51100000000E-03 0.  1.
        -12    1    4    4    0    0  0.28971915614E+01 -0.53122653196E+01  0.34948662080E+01  0.69877014519E+01  0.00000000000E+00 0.  1.
</event>
<event>
 8    1  0.4042158E-011  0.9118800E+02  0.7816164E-02  0.1184000E+00
        -11   -1    0    0    0    0  0.00000000000E+00  0.00000000000E+00  0.45593999997E+02  0.45594000000E+02  0.51100000000E-03 0. -1.
         11   -1    0    0    0    0 -0.00000000000E+00 -0.00000000000E+00 -0.45593999997E+02  0.45594000000E+02  0.51100000000E-03 0.  1.
         23    2    1    2    0    0  0.00000000000E+00  0.52735593670E-15 -0.35527136788E-14  0.91188000000E+02  0.91188000000E+02 0.  0.
    9900012    2    3    3    0    0  0.33190203916E+02 -0.22287629516E+00  0.27963983121E+02  0.47787266575E+02  0.19999979621E+02 0.  0.
        -12    1    3    3    0    0 -0.33190203916E+02  0.22287629516E+00 -0.27963983121E+02  0.43400733425E+02  0.00000000000E+00 0.  1.
         11    1    4    4    0    0  0.14193164991E+02 -0.31950821725E+01  0.78444161061E+01  0.16528440545E+02  0.51100000000E-03 0. -1.
        -11    1    4    4    0    0  0.92633609962E+01 -0.49116514922E+01  0.13493544902E+02  0.17088298090E+02  0.51100000000E-03 0.  1.
        -12    1    4    4    0    0  0.97336779290E+01  0.78838573695E+01  0.66260221134E+01  0.14170527940E+02  0.00000000000E+00 0.  1.
</event>
<event>
 8    1  0.4042158E-011  0.9118800E+02  0.7816164E-02  0.1184000E+00
        -11   -1    0    0    0    0  0.00000000000E+00  0.00000000000E+00  0.45593999997E+02  0.45594000000E+02  0.51100000000E-03 0. -1.
         11   -1    0    0    0    0 -0.00000000000E+00 -0.00000000000E+00 -0.45593999997E+02  0.45594000000E+02  0.51100000000E-03 0.  1.
         23    2    1    2    0    0  0.35527136788E-14 -0.35527136788E-14  0.00000000000E+00  0.91188000000E+02  0.91188000000E+02 0.  0.
    9900012    2    3    3    0    0 -0.22006860434E+02  0.21788919892E+02 -0.30406647956E+02  0.47787272170E+02  0.20000005132E+02 0.  0.
         12    1    3    3    0    0  0.22006860434E+02 -0.21788919892E+02  0.30406647956E+02  0.43400727830E+02  0.00000000000E+00 0. -1.
         11    1    4    4    0    0 -0.20327600603E+01  0.14079499484E+02 -0.15343603391E+02  0.20923445808E+02  0.51100000000E-03 0. -1.
        -11    1    4    4    0    0 -0.62609840342E+01  0.38713709512E+01 -0.83166156130E+01  0.11106463417E+02  0.51100000000E-03 0.  1.
         12    1    4    4    0    0 -0.13713116340E+02  0.38380494568E+01 -0.67464289521E+01  0.15757362945E+02  0.00000000000E+00 0. -1.
</event>
<event>
 8    1  0.4042158E-011  0.9118800E+02  0.7816164E-02  0.1184000E+00
        -11   -1    0    0    0    0  0.00000000000E+00  0.00000000000E+00  0.45593999997E+02  0.45594000000E+02  0.51100000000E-03 0. -1.
         11   -1    0    0    0    0 -0.00000000000E+00 -0.00000000000E+00 -0.45593999997E+02  0.45594000000E+02  0.51100000000E-03 0.  1.
         23    2    1    2    0    0  0.00000000000E+00  0.00000000000E+00  0.00000000000E+00  0.91188000000E+02  0.91188000000E+02 0.  0.
    9900012    2    3    3    0    0  0.21481315336E+02  0.82255469370E+01  0.36803756965E+02  0.47787273535E+02  0.20000011355E+02 0.  0.
        -12    1    3    3    0    0 -0.21481315336E+02 -0.82255469370E+01 -0.36803756965E+02  0.43400726465E+02  0.00000000000E+00 0.  1.
         11    1    4    4    0    0  0.15565104594E+01  0.29882153897E+01  0.13385455786E+01  0.36254462557E+01  0.51100000000E-03 0. -1.
        -11    1    4    4    0    0  0.99824612327E+01  0.70016671106E+01  0.72304820888E+01  0.14175780264E+02  0.51100000000E-03 0.  1.
         12    1    4    4    0    0  0.99423436443E+01 -0.17643355633E+01  0.28234729297E+02  0.29986047015E+02  0.00000000000E+00 0. -1.
</event>
<event>
 8    1  0.4042158E-011  0.9118800E+02  0.7816164E-02  0.1184000E+00
        -11   -1    0    0    0    0  0.00000000000E+00  0.00000000000E+00  0.45593999997E+02  0.45594000000E+02  0.51100000000E-03 0. -1.
         11   -1    0    0    0    0 -0.00000000000E+00 -0.00000000000E+00 -0.45593999997E+02  0.45594000000E+02  0.51100000000E-03 0.  1.
         23    2    1    2    0    0  0.44408920985E-15  0.17763568394E-14  0.14210854715E-13  0.91188000000E+02  0.91188000000E+02 0.  0.
    9900012    2    3    3    0    0  0.18076954322E+01 -0.14996797987E+02 -0.40687240496E+02  0.47787271299E+02  0.20000001159E+02 0.  0.
         12    1    3    3    0    0 -0.18076954322E+01  0.14996797987E+02  0.40687240496E+02  0.43400728701E+02  0.00000000000E+00 0. -1.
         11    1    4    4    0    0 -0.55784136833E+00  0.18981909050E+01 -0.40161859515E+01  0.44770599239E+01  0.51100000000E-03 0. -1.
        -11    1    4    4    0    0 -0.70230270845E+00 -0.14173123608E+02 -0.36549011180E+02  0.39207153434E+02  0.51100000000E-03 0.  1.
        -12    1    4    4    0    0  0.30678395089E+01 -0.27218652844E+01 -0.12204336389E+00  0.41030579403E+01  0.00000000000E+00 0.  1.
</event>
<event>
 8    1  0.4042158E-011  0.9118800E+02  0.7816164E-02  0.1184000E+00
        -11   -1    0    0    0    0  0.00000000000E+00  0.00000000000E+00  0.45593999997E+02  0.45594000000E+02  0.51100000000E-03 0. -1.
         11   -1    0    0    0    0 -0.00000000000E+00 -0.00000000000E+00 -0.45593999997E+02  0.45594000000E+02  0.51100000000E-03 0.  1.
         23    2    1    2    0    0  0.00000000000E+00 -0.88817841970E-15  0.00000000000E+00  0.91188000000E+02  0.91188000000E+02 0.  0.
    9900012    2    3    3    0    0 -0.22149250978E+02  0.54604928128E+01 -0.36921774653E+02  0.47787265626E+02  0.19999975294E+02 0.  0.
         12    1    3    3    0    0  0.22149250978E+02 -0.54604928128E+01  0.36921774653E+02  0.43400734374E+02  0.00000000000E+00 0. -1.
         11    1    4    4    0    0  0.30193991247E+00 -0.13346498739E+01 -0.17022781891E+01  0.21840808801E+01  0.51100000000E-03 0. -1.
        -11    1    4    4    0    0 -0.11419525522E+02 -0.81551827528E+00 -0.48990170404E+01  0.12452750758E+02  0.51100000000E-03 0.  1.
         12    1    4    4    0    0 -0.11031665369E+02  0.76106609620E+01 -0.30320479424E+02  0.33150433988E+02  0.00000000000E+00 0. -1.
</event>
<event>
 8    1  0.4042158E-011  0.9118800E+02  0.7816164E-02  0.1184000E+00
        -11   -1    0    0    0    0  0.00000000000E+00  0.00000000000E+00  0.45593999997E+02  0.45594000000E+02  0.51100000000E-03 0. -1.
         11   -1    0    0    0    0 -0.00000000000E+00 -0.00000000000E+00 -0.45593999997E+02  0.45594000000E+02  0.51100000000E-03 0.  1.
         23    2    1    2    0    0  0.35527136788E-14  0.00000000000E+00  0.00000000000E+00  0.91188000000E+02  0.91188000000E+02 0.  0.
    9900012    2    3    3    0    0  0.21571866773E+02 -0.49299259799E+01  0.37335957020E+02  0.47787270826E+02  0.19999999004E+02 0.  0.
        -12    1    3    3    0    0 -0.21571866773E+02  0.49299259799E+01 -0.37335957020E+02  0.43400729174E+02  0.00000000000E+00 0.  1.
         11    1    4    4    0    0  0.47866030463E+01  0.75714355349E+00  0.90871570607E+01  0.10298604701E+02  0.51100000000E-03 0. -1.
        -11    1    4    4    0    0 -0.13504731544E+01 -0.35785493188E+01  0.13459447781E+02  0.13992373916E+02  0.51100000000E-03 0.  1.
         12    1    4    4    0    0  0.18135736882E+02 -0.21085202146E+01  0.14789352178E+02  0.23496292209E+02  0.00000000000E+00 0. -1.
</event>
<event>
 8    1  0.4042158E-011  0.9118800E+02  0.7816164E-02  0.1184000E+00
        -11   -1    0    0    0    0  0.00000000000E+00  0.00000000000E+00  0.45593999997E+02  0.45594000000E+02  0.51100000000E-03 0. -1.
         11   -1    0    0    0    0 -0.00000000000E+00 -0.00000000000E+00 -0.45593999997E+02  0.45594000000E+02  0.51100000000E-03 0.  1.
         23    2    1    2    0    0  0.00000000000E+00 -0.17763568394E-14  0.17763568394E-14  0.91188000000E+02  0.91188000000E+02 0.  0.
    9900012    2    3    3    0    0  0.40193168518E+02 -0.11168747225E+02  0.11974601417E+02  0.47787276628E+02  0.20000025459E+02 0.  0.
        -12    1    3    3    0    0 -0.40193168518E+02  0.11168747225E+02 -0.11974601417E+02  0.43400723372E+02  0.00000000000E+00 0.  1.
         11    1    4    4    0    0  0.16305775170E+02 -0.11747665118E+01 -0.41202111737E+01  0.16859256230E+02  0.51100000000E-03 0. -1.
        -11    1    4    4    0    0  0.70420206911E+00  0.75086845452E-01  0.16984734681E+01  0.18402040570E+01  0.51100000000E-03 0.  1.
         12    1    4    4    0    0  0.23183191279E+02 -0.10069067559E+02  0.14396339123E+02  0.29087816341E+02  0.00000000000E+00 0. -1.
</event>
<event>
 8    1  0.4042158E-011  0.9118800E+02  0.7816164E-02  0.1184000E+00
        -11   -1    0    0    0    0  0.00000000000E+00  0.00000000000E+00  0.45593999997E+02  0.45594000000E+02  0.51100000000E-03 0. -1.
         11   -1    0    0    0    0 -0.00000000000E+00 -0.00000000000E+00 -0.45593999997E+02  0.45594000000E+02  0.51100000000E-03 0.  1.
         23    2    1    2    0    0  0.00000000000E+00 -0.17763568394E-14  0.00000000000E+00  0.91188000000E+02  0.91188000000E+02 0.  0.
    9900012    2    3    3    0    0 -0.34680108483E+02  0.98225804377E+01 -0.24174994756E+02  0.47787269795E+02  0.19999994305E+02 0.  0.
         12    1    3    3    0    0  0.34680108483E+02 -0.98225804377E+01  0.24174994756E+02  0.43400730205E+02  0.00000000000E+00 0. -1.
         11    1    4    4    0    0  0.28107127514E+00  0.19125330412E+01 -0.21271712600E+01  0.28743071384E+01  0.51100000000E-03 0. -1.
        -11    1    4    4    0    0 -0.17533434901E+02 -0.40378348856E+01 -0.10546733652E+02  0.20855671674E+02  0.51100000000E-03 0.  1.
         12    1    4    4    0    0 -0.17427744857E+02  0.11947882282E+02 -0.11501089843E+02  0.24057290983E+02  0.00000000000E+00 0. -1.
</event>
<event>
 8    1  0.4042158E-011  0.9118800E+02  0.7816164E-02  0.1184000E+00
        -11   -1    0    0    0    0  0.00000000000E+00  0.00000000000E+00  0.45593999997E+02  0.45594000000E+02  0.51100000000E-03 0. -1.
         11   -1    0    0    0    0 -0.00000000000E+00 -0.00000000000E+00 -0.45593999997E+02  0.45594000000E+02  0.51100000000E-03 0.  1.
         23    2    1    2    0    0  0.00000000000E+00 -0.88817841970E-15  0.00000000000E+00  0.91188000000E+02  0.91188000000E+02 0.  0.
    9900012    2    3    3    0    0  0.97178592816E+01  0.46969509040E+01  0.42037187653E+02  0.47787270944E+02  0.19999999541E+02 0.  0.
        -12    1    3    3    0    0 -0.97178592816E+01 -0.46969509040E+01 -0.42037187653E+02  0.43400729056E+02  0.00000000000E+00 0.  1.
         11    1    4    4    0    0  0.13345821691E+02  0.31181139762E+01  0.24195984394E+02  0.27807899101E+02  0.51100000000E-03 0. -1.
        -11    1    4    4    0    0  0.20883901738E+00  0.42690146574E+01  0.76655330387E+01  0.87765879993E+01  0.51100000000E-03 0.  1.
         12    1    4    4    0    0 -0.38368014264E+01 -0.26901777296E+01  0.10175670220E+02  0.11202783843E+02  0.00000000000E+00 0. -1.
</event>
<event>
 8    1  0.4042158E-011  0.9118800E+02  0.7816164E-02  0.1184000E+00
        -11   -1    0    0    0    0  0.00000000000E+00  0.00000000000E+00  0.45593999997E+02  0.45594000000E+02  0.51100000000E-03 0. -1.
         11   -1    0    0    0    0 -0.00000000000E+00 -0.00000000000E+00 -0.45593999997E+02  0.45594000000E+02  0.51100000000E-03 0.  1.
         23    2    1    2    0    0 -0.35527136788E-14 -0.35527136788E-14  0.00000000000E+00  0.91188000000E+02  0.91188000000E+02 0.  0.
    9900012    2    3    3    0    0 -0.27464565449E+02 -0.18861479065E+02 -0.27813039446E+02  0.47787275225E+02  0.20000019059E+02 0.  0.
         12    1    3    3    0    0  0.27464565449E+02  0.18861479065E+02  0.27813039446E+02  0.43400724775E+02  0.00000000000E+00 0. -1.
         11    1    4    4    0    0 -0.62283361578E+01 -0.72266694820E+01 -0.14388810143E+02  0.17264263109E+02  0.51100000000E-03 0. -1.
        -11    1    4    4    0    0  0.20552858015E+00  0.19742721392E+01 -0.13672314061E+01  0.24102519486E+01  0.51100000000E-03 0.  1.
        -12    1    4    4    0    0 -0.21441757872E+02 -0.13609081722E+02 -0.12056997896E+02  0.28112760167E+02  0.00000000000E+00 0.  1.
</event>
<event>
 8    1  0.4042158E-011  0.9118800E+02  0.7816164E-02  0.1184000E+00
        -11   -1    0    0    0    0  0.00000000000E+00  0.00000000000E+00  0.45593999997E+02  0.45594000000E+02  0.51100000000E-03 0. -1.
         11   -1    0    0    0    0 -0.00000000000E+00 -0.00000000000E+00 -0.45593999997E+02  0.45594000000E+02  0.51100000000E-03 0.  1.
         23    2    1    2    0    0  0.00000000000E+00  0.00000000000E+00  0.00000000000E+00  0.91188000000E+02  0.91188000000E+02 0.  0.
    9900012    2    3    3    0    0 -0.30217454691E+02 -0.28981447962E+02  0.11428239703E+02  0.47787267786E+02  0.19999985144E+02 0.  0.
        -12    1    3    3    0    0  0.30217454691E+02  0.28981447962E+02 -0.11428239703E+02  0.43400732214E+02  0.00000000000E+00 0.  1.
         11    1    4    4    0    0 -0.62491894981E+01 -0.44359314469E+01  0.35366772346E+01  0.84402573010E+01  0.51100000000E-03 0. -1.
        -11    1    4    4    0    0 -0.14890714105E+01  0.26304592449E+01 -0.57470086893E+00  0.30768378012E+01  0.51100000000E-03 0.  1.
         12    1    4    4    0    0 -0.22479193783E+02 -0.27175975760E+02  0.84662633371E+01  0.36270172684E+02  0.00000000000E+00 0. -1.
</event>
<event>
 8    1  0.4042158E-011  0.9118800E+02  0.7816164E-02  0.1184000E+00
        -11   -1    0    0    0    0  0.00000000000E+00  0.00000000000E+00  0.45593999997E+02  0.45594000000E+02  0.51100000000E-03 0. -1.
         11   -1    0    0    0    0 -0.00000000000E+00 -0.00000000000E+00 -0.45593999997E+02  0.45594000000E+02  0.51100000000E-03 0.  1.
         23    2    1    2    0    0  0.44408920985E-15  0.00000000000E+00  0.00000000000E+00  0.91188000000E+02  0.91188000000E+02 0.  0.
    9900012    2    3    3    0    0  0.35529539439E+01  0.32614461777E+02 -0.28412965101E+02  0.47787272074E+02  0.20000004693E+02 0.  0.
         12    1    3    3    0    0 -0.35529539439E+01 -0.32614461777E+02  0.28412965101E+02  0.43400727926E+02  0.00000000000E+00 0. -1.
         11    1    4    4    0    0 -0.18265718167E+01  0.79333864658E+01 -0.13911435829E+02  0.16118406637E+02  0.51100000000E-03 0. -1.
        -11    1    4    4    0    0 -0.37261672032E+01  0.51837143237E+01 -0.16096415554E+01  0.65837802526E+01  0.51100000000E-03 0.  1.
        -12    1    4    4    0    0  0.91056929639E+01  0.19497360987E+02 -0.12891887716E+02  0.25085085184E+02  0.00000000000E+00 0.  1.
</event>
<event>
 8    1  0.4042158E-011  0.9118800E+02  0.7816164E-02  0.1184000E+00
        -11   -1    0    0    0    0  0.00000000000E+00  0.00000000000E+00  0.45593999997E+02  0.45594000000E+02  0.51100000000E-03 0. -1.
         11   -1    0    0    0    0 -0.00000000000E+00 -0.00000000000E+00 -0.45593999997E+02  0.45594000000E+02  0.51100000000E-03 0.  1.
         23    2    1    2    0    0  0.00000000000E+00  0.00000000000E+00  0.71054273576E-14  0.91188000000E+02  0.91188000000E+02 0.  0.
    9900012    2    3    3    0    0  0.16154726544E+02  0.10467744132E+02  0.38898256320E+02  0.47787271876E+02  0.20000003792E+02 0.  0.
        -12    1    3    3    0    0 -0.16154726544E+02 -0.10467744132E+02 -0.38898256320E+02  0.43400728124E+02  0.00000000000E+00 0.  1.
         11    1    4    4    0    0  0.65072248283E+01  0.26649877537E+01  0.13336020868E+02  0.15076325399E+02  0.51100000000E-03 0. -1.
        -11    1    4    4    0    0  0.13995121321E+02  0.69521431271E+01  0.17137386419E+02  0.23192363579E+02  0.51100000000E-03 0.  1.
        -12    1    4    4    0    0 -0.43476196059E+01  0.85061325144E+00  0.84248490337E+01  0.95185828977E+01  0.00000000000E+00 0.  1.
</event>
<event>
 8    1  0.4042158E-011  0.9118800E+02  0.7816164E-02  0.1184000E+00
        -11   -1    0    0    0    0  0.00000000000E+00  0.00000000000E+00  0.45593999997E+02  0.45594000000E+02  0.51100000000E-03 0. -1.
         11   -1    0    0    0    0 -0.00000000000E+00 -0.00000000000E+00 -0.45593999997E+02  0.45594000000E+02  0.51100000000E-03 0.  1.
         23    2    1    2    0    0  0.17763568394E-14  0.00000000000E+00  0.00000000000E+00  0.91188000000E+02  0.91188000000E+02 0.  0.
    9900012    2    3    3    0    0 -0.10649385381E+02 -0.32523220636E+02  0.26691830275E+02  0.47787273128E+02  0.20000009502E+02 0.  0.
        -12    1    3    3    0    0  0.10649385381E+02  0.32523220636E+02 -0.26691830275E+02  0.43400726872E+02  0.00000000000E+00 0.  1.
         11    1    4    4    0    0 -0.11407004942E+01 -0.13393703401E+02  0.14388362903E+02  0.19690542799E+02  0.51100000000E-03 0. -1.
        -11    1    4    4    0    0 -0.10623421396E+02 -0.17287992779E+02  0.14562767065E+02  0.24976107810E+02  0.51100000000E-03 0.  1.
        -12    1    4    4    0    0  0.11147365091E+01 -0.18415244570E+01 -0.22592996932E+01  0.31206225203E+01  0.00000000000E+00 0.  1.
</event>
<event>
 8    1  0.4042158E-011  0.9118800E+02  0.7816164E-02  0.1184000E+00
        -11   -1    0    0    0    0  0.00000000000E+00  0.00000000000E+00  0.45593999997E+02  0.45594000000E+02  0.51100000000E-03 0. -1.
         11   -1    0    0    0    0 -0.00000000000E+00 -0.00000000000E+00 -0.45593999997E+02  0.45594000000E+02  0.51100000000E-03 0.  1.
         23    2    1    2    0    0  0.00000000000E+00 -0.17763568394E-14  0.00000000000E+00  0.91188000000E+02  0.91188000000E+02 0.  0.
    9900012    2    3    3    0    0 -0.18444954687E+02  0.13050882723E+02  0.37055113910E+02  0.47787270051E+02  0.19999995469E+02 0.  0.
        -12    1    3    3    0    0  0.18444954687E+02 -0.13050882723E+02 -0.37055113910E+02  0.43400729949E+02  0.00000000000E+00 0.  1.
         11    1    4    4    0    0 -0.19367187187E+01  0.12987854867E+00  0.11190980115E+02  0.11358071316E+02  0.51100000000E-03 0. -1.
        -11    1    4    4    0    0 -0.18579018520E+01 -0.11686850306E+01  0.11079499908E+02  0.11294819276E+02  0.51100000000E-03 0.  1.
        -12    1    4    4    0    0 -0.14650334116E+02  0.14089689204E+02  0.14784633887E+02  0.25134379458E+02  0.00000000000E+00 0.  1.
</event>
<event>
 8    1  0.4042158E-011  0.9118800E+02  0.7816164E-02  0.1184000E+00
        -11   -1    0    0    0    0  0.00000000000E+00  0.00000000000E+00  0.45593999997E+02  0.45594000000E+02  0.51100000000E-03 0. -1.
         11   -1    0    0    0    0 -0.00000000000E+00 -0.00000000000E+00 -0.45593999997E+02  0.45594000000E+02  0.51100000000E-03 0.  1.
         23    2    1    2    0    0 -0.29420910153E-14  0.00000000000E+00  0.00000000000E+00  0.91188000000E+02  0.91188000000E+02 0.  0.
    9900012    2    3    3    0    0  0.49865528638E+00  0.10721438556E+02  0.42052647532E+02  0.47787273437E+02  0.20000010907E+02 0.  0.
        -12    1    3    3    0    0 -0.49865528638E+00 -0.10721438556E+02 -0.42052647532E+02  0.43400726563E+02  0.00000000000E+00 0.  1.
         11    1    4    4    0    0 -0.82319775096E+01  0.84735188303E+01  0.27270707864E+02  0.29719648092E+02  0.51100000000E-03 0. -1.
        -11    1    4    4    0    0  0.18256966091E+00  0.22359618540E+00 -0.42028321687E+00  0.50986780514E+00  0.51100000000E-03 0.  1.
        -12    1    4    4    0    0  0.85480631350E+01  0.20243235403E+01  0.15202222885E+02  0.17557757539E+02  0.00000000000E+00 0.  1.
</event>
<event>
 8    1  0.4042158E-011  0.9118800E+02  0.7816164E-02  0.1184000E+00
        -11   -1    0    0    0    0  0.00000000000E+00  0.00000000000E+00  0.45593999997E+02  0.45594000000E+02  0.51100000000E-03 0. -1.
         11   -1    0    0    0    0 -0.00000000000E+00 -0.00000000000E+00 -0.45593999997E+02  0.45594000000E+02  0.51100000000E-03 0.  1.
         23    2    1    2    0    0  0.00000000000E+00  0.00000000000E+00  0.00000000000E+00  0.91188000000E+02  0.91188000000E+02 0.  0.
    9900012    2    3    3    0    0  0.34665809241E+02  0.21630851296E+02 -0.14629110078E+02  0.47787275123E+02  0.20000018596E+02 0.  0.
         12    1    3    3    0    0 -0.34665809241E+02 -0.21630851296E+02  0.14629110078E+02  0.43400724877E+02  0.00000000000E+00 0. -1.
         11    1    4    4    0    0  0.72549558587E+01  0.39431119974E+00 -0.58975987640E+01  0.93579665139E+01  0.51100000000E-03 0. -1.
        -11    1    4    4    0    0  0.24901887267E+02  0.14301729210E+02 -0.10941705298E+02  0.30730511921E+02  0.51100000000E-03 0.  1.
         12    1    4    4    0    0  0.25089661158E+01  0.69348108860E+01  0.22101939836E+01  0.76987966878E+01  0.00000000000E+00 0. -1.
</event>
<event>
 8    1  0.4042158E-011  0.9118800E+02  0.7816164E-02  0.1184000E+00
        -11   -1    0    0    0    0  0.00000000000E+00  0.00000000000E+00  0.45593999997E+02  0.45594000000E+02  0.51100000000E-03 0. -1.
         11   -1    0    0    0    0 -0.00000000000E+00 -0.00000000000E+00 -0.45593999997E+02  0.45594000000E+02  0.51100000000E-03 0.  1.
         23    2    1    2    0    0  0.44408920985E-15 -0.35527136788E-14  0.00000000000E+00  0.91188000000E+02  0.91188000000E+02 0.  0.
    9900012    2    3    3    0    0  0.30464871570E+01 -0.20040825199E+02 -0.38375879627E+02  0.47787263879E+02  0.19999967330E+02 0.  0.
         12    1    3    3    0    0 -0.30464871570E+01  0.20040825199E+02  0.38375879627E+02  0.43400736121E+02  0.00000000000E+00 0. -1.
         11    1    4    4    0    0  0.24130723111E+01 -0.10854413382E+01 -0.11422873266E+01  0.28819995619E+01  0.51100000000E-03 0. -1.
        -11    1    4    4    0    0 -0.60474418313E+01 -0.91203139971E+01 -0.27301710269E+02  0.29413178407E+02  0.51100000000E-03 0.  1.
        -12    1    4    4    0    0  0.66808566772E+01 -0.98350698637E+01 -0.99318820317E+01  0.15492085910E+02  0.00000000000E+00 0.  1.
</event>
<event>
 8    1  0.4042158E-011  0.9118800E+02  0.7816164E-02  0.1184000E+00
        -11   -1    0    0    0    0  0.00000000000E+00  0.00000000000E+00  0.45593999997E+02  0.45594000000E+02  0.51100000000E-03 0. -1.
         11   -1    0    0    0    0 -0.00000000000E+00 -0.00000000000E+00 -0.45593999997E+02  0.45594000000E+02  0.51100000000E-03 0.  1.
         23    2    1    2    0    0  0.00000000000E+00  0.00000000000E+00  0.71054273576E-14  0.91188000000E+02  0.91188000000E+02 0.  0.
    9900012    2    3    3    0    0 -0.11548886506E+02 -0.33896275626E+02 -0.24521190795E+02  0.47787273291E+02  0.20000010245E+02 0.  0.
         12    1    3    3    0    0  0.11548886506E+02  0.33896275626E+02  0.24521190795E+02  0.43400726709E+02  0.00000000000E+00 0. -1.
         11    1    4    4    0    0 -0.14274713285E+02 -0.22459717587E+02 -0.20622249576E+02  0.33667247159E+02  0.51100000000E-03 0. -1.
        -11    1    4    4    0    0 -0.20760267842E+01 -0.49995190714E+01 -0.25220078452E+01  0.59720684848E+01  0.51100000000E-03 0.  1.
        -12    1    4    4    0    0  0.48018535627E+01 -0.64370389681E+01 -0.13769333737E+01  0.81479576478E+01  0.00000000000E+00 0.  1.
</event>
<event>
 8    1  0.4042158E-011  0.9118800E+02  0.7816164E-02  0.1184000E+00
        -11   -1    0    0    0    0  0.00000000000E+00  0.00000000000E+00  0.45593999997E+02  0.45594000000E+02  0.51100000000E-03 0. -1.
         11   -1    0    0    0    0 -0.00000000000E+00 -0.00000000000E+00 -0.45593999997E+02  0.45594000000E+02  0.51100000000E-03 0.  1.
         23    2    1    2    0    0 -0.71054273576E-14 -0.17763568394E-14  0.00000000000E+00  0.91188000000E+02  0.91188000000E+02 0.  0.
    9900012    2    3    3    0    0  0.36870728083E+02  0.12933972048E+02 -0.18891399798E+02  0.47787271796E+02  0.20000003425E+02 0.  0.
         12    1    3    3    0    0 -0.36870728083E+02 -0.12933972048E+02  0.18891399798E+02  0.43400728204E+02  0.00000000000E+00 0. -1.
         11    1    4    4    0    0  0.23429430817E+00  0.23319498101E+01 -0.29495417848E+00  0.23621773787E+01  0.51100000000E-03 0. -1.
        -11    1    4    4    0    0  0.16093575507E+02 -0.89217840994E+00 -0.12159734850E+01  0.16164088180E+02  0.51100000000E-03 0.  1.
        -12    1    4    4    0    0  0.20542858268E+02  0.11494200648E+02 -0.17380472135E+02  0.29261006237E+02  0.00000000000E+00 0.  1.
</event>
<event>
 8    1  0.4042158E-011  0.9118800E+02  0.7816164E-02  0.1184000E+00
        -11   -1    0    0    0    0  0.00000000000E+00  0.00000000000E+00  0.45593999997E+02  0.45594000000E+02  0.51100000000E-03 0. -1.
         11   -1    0    0    0    0 -0.00000000000E+00 -0.00000000000E+00 -0.45593999997E+02  0.45594000000E+02  0.51100000000E-03 0.  1.
         23    2    1    2    0    0  0.00000000000E+00  0.22204460493E-15  0.00000000000E+00  0.91188000000E+02  0.91188000000E+02 0.  0.
    9900012    2    3    3    0    0 -0.20697358043E+02 -0.19203593905E+01  0.38099277148E+02  0.47787270405E+02  0.19999997087E+02 0.  0.
        -12    1    3    3    0    0  0.20697358043E+02  0.19203593905E+01 -0.38099277148E+02  0.43400729595E+02  0.00000000000E+00 0.  1.
         11    1    4    4    0    0 -0.22004664073E+01 -0.42312153968E+01  0.64068992004E+01  0.79870891925E+01  0.51100000000E-03 0. -1.
        -11    1    4    4    0    0  0.10683689586E+01 -0.76203304797E+00 -0.94958616292E+00  0.16198212062E+01  0.51100000000E-03 0.  1.
        -12    1    4    4    0    0 -0.19565260595E+02  0.30728890543E+01  0.32641964110E+02  0.38180360007E+02  0.00000000000E+00 0.  1.
</event>
<event>
 8    1  0.4042158E-011  0.9118800E+02  0.7816164E-02  0.1184000E+00
        -11   -1    0    0    0    0  0.00000000000E+00  0.00000000000E+00  0.45593999997E+02  0.45594000000E+02  0.51100000000E-03 0. -1.
         11   -1    0    0    0    0 -0.00000000000E+00 -0.00000000000E+00 -0.45593999997E+02  0.45594000000E+02  0.51100000000E-03 0.  1.
         23    2    1    2    0    0  0.35527136788E-14  0.00000000000E+00  0.00000000000E+00  0.91188000000E+02  0.91188000000E+02 0.  0.
    9900012    2    3    3    0    0  0.23659641384E+02  0.14142795111E+02 -0.33523518648E+02  0.47787267443E+02  0.19999983577E+02 0.  0.
         12    1    3    3    0    0 -0.23659641384E+02 -0.14142795111E+02  0.33523518648E+02  0.43400732557E+02  0.00000000000E+00 0. -1.
         11    1    4    4    0    0  0.11438061176E+01 -0.24448479320E+01  0.80605797575E+00  0.28169670866E+01  0.51100000000E-03 0. -1.
        -11    1    4    4    0    0  0.35099428898E+01  0.36009563155E+01 -0.23065275409E+01  0.55323281748E+01  0.51100000000E-03 0.  1.
        -12    1    4    4    0    0  0.19005892376E+02  0.12986686728E+02 -0.32023049083E+02  0.39437972181E+02  0.00000000000E+00 0.  1.
</event>
<event>
 8    1  0.4042158E-011  0.9118800E+02  0.7816164E-02  0.1184000E+00
        -11   -1    0    0    0    0  0.00000000000E+00  0.00000000000E+00  0.45593999997E+02  0.45594000000E+02  0.51100000000E-03 0. -1.
         11   -1    0    0    0    0 -0.00000000000E+00 -0.00000000000E+00 -0.45593999997E+02  0.45594000000E+02  0.51100000000E-03 0.  1.
         23    2    1    2    0    0  0.88817841970E-15  0.00000000000E+00  0.17763568394E-14  0.91188000000E+02  0.91188000000E+02 0.  0.
    9900012    2    3    3    0    0  0.65728983206E+01 -0.39988111736E+02 -0.15536125026E+02  0.47787271281E+02  0.20000001078E+02 0.  0.
         12    1    3    3    0    0 -0.65728983206E+01  0.39988111736E+02  0.15536125026E+02  0.43400728719E+02  0.00000000000E+00 0. -1.
         11    1    4    4    0    0 -0.21518405721E+01 -0.11755024597E+02 -0.52880115864E+01  0.13068056012E+02  0.51100000000E-03 0. -1.
        -11    1    4    4    0    0 -0.25213283056E+01 -0.59953710616E+01 -0.70554089694E+01  0.95958515296E+01  0.51100000000E-03 0.  1.
         12    1    4    4    0    0  0.11246067198E+02 -0.22237716077E+02 -0.31927044701E+01  0.25123363739E+02  0.00000000000E+00 0. -1.
</event>
<event>
 8    1  0.4042158E-011  0.9118800E+02  0.7816164E-02  0.1184000E+00
        -11   -1    0    0    0    0  0.00000000000E+00  0.00000000000E+00  0.45593999997E+02  0.45594000000E+02  0.51100000000E-03 0. -1.
         11   -1    0    0    0    0 -0.00000000000E+00 -0.00000000000E+00 -0.45593999997E+02  0.45594000000E+02  0.51100000000E-03 0.  1.
         23    2    1    2    0    0  0.17763568394E-14  0.35527136788E-14  0.00000000000E+00  0.91188000000E+02  0.91188000000E+02 0.  0.
    9900012    2    3    3    0    0  0.12102671479E+02  0.17466518178E+02 -0.37842721339E+02  0.47787245715E+02  0.19999884512E+02 0.  0.
         12    1    3    3    0    0 -0.12102671479E+02 -0.17466518178E+02  0.37842721339E+02  0.43400754285E+02  0.00000000000E+00 0. -1.
         11    1    4    4    0    0  0.96015154733E+01  0.17111165535E+02 -0.21504680555E+02  0.29110691702E+02  0.51100000000E-03 0. -1.
        -11    1    4    4    0    0  0.56699527571E+01  0.18143982533E+00 -0.84869490612E+01  0.10208309816E+02  0.51100000000E-03 0.  1.
        -12    1    4    4    0    0 -0.31687967516E+01  0.17391281702E+00 -0.78510917231E+01  0.84682441961E+01  0.00000000000E+00 0.  1.
</event>
<event>
 8    1  0.4042158E-011  0.9118800E+02  0.7816164E-02  0.1184000E+00
        -11   -1    0    0    0    0  0.00000000000E+00  0.00000000000E+00  0.45593999997E+02  0.45594000000E+02  0.51100000000E-03 0. -1.
         11   -1    0    0    0    0 -0.00000000000E+00 -0.00000000000E+00 -0.45593999997E+02  0.45594000000E+02  0.51100000000E-03 0.  1.
         23    2    1    2    0    0 -0.17763568394E-14  0.35527136788E-14  0.00000000000E+00  0.91188000000E+02  0.91188000000E+02 0.  0.
    9900012    2    3    3    0    0  0.10255461581E+02 -0.31948231378E+02  0.27527431435E+02  0.47787268879E+02  0.19999990128E+02 0.  0.
        -12    1    3    3    0    0 -0.10255461581E+02  0.31948231378E+02 -0.27527431435E+02  0.43400731121E+02  0.00000000000E+00 0.  1.
         11    1    4    4    0    0  0.13931284523E+01 -0.93472809764E+01  0.23927485616E+01  0.97487288646E+01  0.51100000000E-03 0. -1.
        -11    1    4    4    0    0 -0.36551421974E+01 -0.10265306516E+02  0.82494469717E+01  0.13667112275E+02  0.51100000000E-03 0.  1.
         12    1    4    4    0    0  0.12517475326E+02 -0.12335643886E+02  0.16885235901E+02  0.24371427740E+02  0.00000000000E+00 0. -1.
</event>
<event>
 8    1  0.4042158E-011  0.9118800E+02  0.7816164E-02  0.1184000E+00
        -11   -1    0    0    0    0  0.00000000000E+00  0.00000000000E+00  0.45593999997E+02  0.45594000000E+02  0.51100000000E-03 0. -1.
         11   -1    0    0    0    0 -0.00000000000E+00 -0.00000000000E+00 -0.45593999997E+02  0.45594000000E+02  0.51100000000E-03 0.  1.
         23    2    1    2    0    0 -0.71054273576E-14  0.88817841970E-15 -0.35527136788E-14  0.91188000000E+02  0.91188000000E+02 0.  0.
    9900012    2    3    3    0    0 -0.35516696668E+02  0.11476889347E+01 -0.24917271978E+02  0.47787269881E+02  0.19999994694E+02 0.  0.
         12    1    3    3    0    0  0.35516696668E+02 -0.11476889347E+01  0.24917271978E+02  0.43400730119E+02  0.00000000000E+00 0. -1.
         11    1    4    4    0    0 -0.25467810343E+02 -0.75127127133E+01 -0.20398553230E+02  0.33483595836E+02  0.51100000000E-03 0. -1.
        -11    1    4    4    0    0 -0.68840724414E+01  0.42897042543E+01 -0.33874878091E+01  0.87901700715E+01  0.51100000000E-03 0.  1.
         12    1    4    4    0    0 -0.31648138832E+01  0.43706973936E+01 -0.11312309383E+01  0.55135039727E+01  0.00000000000E+00 0. -1.
</event>
<event>
 8    1  0.4042158E-011  0.9118800E+02  0.7816164E-02  0.1184000E+00
        -11   -1    0    0    0    0  0.00000000000E+00  0.00000000000E+00  0.45593999997E+02  0.45594000000E+02  0.51100000000E-03 0. -1.
         11   -1    0    0    0    0 -0.00000000000E+00 -0.00000000000E+00 -0.45593999997E+02  0.45594000000E+02  0.51100000000E-03 0.  1.
         23    2    1    2    0    0  0.00000000000E+00  0.00000000000E+00  0.00000000000E+00  0.91188000000E+02  0.91188000000E+02 0.  0.
    9900012    2    3    3    0    0 -0.10851767421E+02 -0.38658334706E+02 -0.16473932564E+02  0.47787330045E+02  0.20000269006E+02 0.  0.
         12    1    3    3    0    0  0.10851767421E+02  0.38658334706E+02  0.16473932564E+02  0.43400669955E+02  0.00000000000E+00 0. -1.
         11    1    4    4    0    0 -0.27692968583E+01 -0.96859524732E+01 -0.12916118199E+01  0.10156522129E+02  0.51100000000E-03 0. -1.
        -11    1    4    4    0    0 -0.84835190755E+01 -0.24292565240E+02 -0.18661170967E+02  0.31785816396E+02  0.51100000000E-03 0.  1.
         12    1    4    4    0    0  0.40104851266E+00 -0.46798169927E+01  0.34788502228E+01  0.58449915199E+01  0.00000000000E+00 0. -1.
</event>
<event>
 8    1  0.4042158E-011  0.9118800E+02  0.7816164E-02  0.1184000E+00
        -11   -1    0    0    0    0  0.00000000000E+00  0.00000000000E+00  0.45593999997E+02  0.45594000000E+02  0.51100000000E-03 0. -1.
         11   -1    0    0    0    0 -0.00000000000E+00 -0.00000000000E+00 -0.45593999997E+02  0.45594000000E+02  0.51100000000E-03 0.  1.
         23    2    1    2    0    0  0.00000000000E+00 -0.88817841970E-15  0.00000000000E+00  0.91188000000E+02  0.91188000000E+02 0.  0.
    9900012    2    3    3    0    0 -0.11256386278E+02 -0.65136231825E+01  0.41406373781E+02  0.47787293684E+02  0.20000103224E+02 0.  0.
        -12    1    3    3    0    0  0.11256386278E+02  0.65136231825E+01 -0.41406373781E+02  0.43400706316E+02  0.00000000000E+00 0.  1.
         11    1    4    4    0    0 -0.14868958399E+01 -0.88307188530E+00  0.95459431313E+01  0.97013249467E+01  0.51100000000E-03 0. -1.
        -11    1    4    4    0    0  0.17419499387E+01  0.49368431698E+01  0.83966586943E+01  0.98949829490E+01  0.51100000000E-03 0.  1.
         12    1    4    4    0    0 -0.11511440376E+02 -0.10567394467E+02  0.23463771955E+02  0.28190985789E+02  0.00000000000E+00 0. -1.
</event>
<event>
 8    1  0.4042158E-011  0.9118800E+02  0.7816164E-02  0.1184000E+00
        -11   -1    0    0    0    0  0.00000000000E+00  0.00000000000E+00  0.45593999997E+02  0.45594000000E+02  0.51100000000E-03 0.  1.
         11   -1    0    0    0    0 -0.00000000000E+00 -0.00000000000E+00 -0.45593999997E+02  0.45594000000E+02  0.51100000000E-03 0. -1.
         23    2    1    2    0    0  0.00000000000E+00  0.00000000000E+00  0.00000000000E+00  0.91188000000E+02  0.91188000000E+02 0.  0.
    9900012    2    3    3    0    0  0.38762720722E+02  0.13960952895E+02 -0.13644293180E+02  0.47787268901E+02  0.19999990229E+02 0.  0.
         12    1    3    3    0    0 -0.38762720722E+02 -0.13960952895E+02  0.13644293180E+02  0.43400731099E+02  0.00000000000E+00 0. -1.
         11    1    4    4    0    0  0.18587794916E+02  0.16918688041E+01 -0.11974755519E+00  0.18665017536E+02  0.51100000000E-03 0. -1.
        -11    1    4    4    0    0  0.48077804761E+01 -0.13290737649E+01 -0.44536130747E+01  0.66869918394E+01  0.51100000000E-03 0.  1.
         12    1    4    4    0    0  0.15367145330E+02  0.13598157855E+02 -0.90709325504E+01  0.22435259526E+02  0.00000000000E+00 0. -1.
</event>
<event>
 8    1  0.4099947E-011  0.9118800E+02  0.7816164E-02  0.1184000E+00
        -11   -1    0    0    0    0  0.00000000000E+00  0.00000000000E+00  0.45593999997E+02  0.45594000000E+02  0.51100000000E-03 0. -1.
         11   -1    0    0    0    0 -0.00000000000E+00 -0.00000000000E+00 -0.45593999997E+02  0.45594000000E+02  0.51100000000E-03 0.  1.
         23    2    1    2    0    0  0.71054273576E-14  0.00000000000E+00  0.00000000000E+00  0.91188000000E+02  0.91188000000E+02 0.  0.
    9900012    2    3    3    0    0  0.32604855527E+02 -0.16235885518E+02  0.23599635797E+02  0.47787269681E+02  0.19999993783E+02 0.  0.
        -12    1    3    3    0    0 -0.32604855527E+02  0.16235885518E+02 -0.23599635797E+02  0.43400730319E+02  0.00000000000E+00 0.  1.
         11    1    4    4    0    0  0.18061722852E+02 -0.93366675999E+01  0.18946649665E+02  0.27791630540E+02  0.51100000000E-03 0. -1.
        -11    1    4    4    0    0  0.12579981082E+02 -0.44570209067E+01  0.78789942570E+01  0.15498371209E+02  0.51100000000E-03 0.  1.
        -12    1    4    4    0    0  0.19631515936E+01 -0.24421970117E+01 -0.32260081259E+01  0.44972679320E+01  0.00000000000E+00 0.  1.
</event>
<event>
 8    1  0.4042158E-011  0.9118800E+02  0.7816164E-02  0.1184000E+00
        -11   -1    0    0    0    0  0.00000000000E+00  0.00000000000E+00  0.45593999997E+02  0.45594000000E+02  0.51100000000E-03 0. -1.
         11   -1    0    0    0    0 -0.00000000000E+00 -0.00000000000E+00 -0.45593999997E+02  0.45594000000E+02  0.51100000000E-03 0.  1.
         23    2    1    2    0    0  0.00000000000E+00  0.00000000000E+00  0.00000000000E+00  0.91188000000E+02  0.91188000000E+02 0.  0.
    9900012    2    3    3    0    0  0.16118619940E+02 -0.30889552797E+02 -0.25877575531E+02  0.47787270788E+02  0.19999998830E+02 0.  0.
         12    1    3    3    0    0 -0.16118619940E+02  0.30889552797E+02  0.25877575531E+02  0.43400729212E+02  0.00000000000E+00 0. -1.
         11    1    4    4    0    0  0.17154994017E+01 -0.72573489535E+01 -0.18983656061E+01  0.76951831860E+01  0.51100000000E-03 0. -1.
        -11    1    4    4    0    0  0.86638581125E+01 -0.13651640750E+01 -0.40404445021E+01  0.96566713924E+01  0.51100000000E-03 0.  1.
        -12    1    4    4    0    0  0.57392624262E+01 -0.22267039769E+02 -0.19938765423E+02  0.30435416209E+02  0.00000000000E+00 0.  1.
</event>
<event>
 8    1  0.4042158E-011  0.9118800E+02  0.7816164E-02  0.1184000E+00
        -11   -1    0    0    0    0  0.00000000000E+00  0.00000000000E+00  0.45593999997E+02  0.45594000000E+02  0.51100000000E-03 0. -1.
         11   -1    0    0    0    0 -0.00000000000E+00 -0.00000000000E+00 -0.45593999997E+02  0.45594000000E+02  0.51100000000E-03 0.  1.
         23    2    1    2    0    0 -0.71054273576E-14  0.00000000000E+00 -0.35527136788E-14  0.91188000000E+02  0.91188000000E+02 0.  0.
    9900012    2    3    3    0    0  0.36947099695E+02  0.26021813415E+01  0.22622220536E+02  0.47787258236E+02  0.19999941603E+02 0.  0.
        -12    1    3    3    0    0 -0.36947099695E+02 -0.26021813415E+01 -0.22622220536E+02  0.43400741764E+02  0.00000000000E+00 0.  1.
         11    1    4    4    0    0  0.32025029598E+02 -0.38741244714E+00  0.25126997441E+02  0.40707721746E+02  0.51100000000E-03 0. -1.
        -11    1    4    4    0    0  0.74671190586E+00  0.79685245429E+00  0.77151233142E+00  0.13370804175E+01  0.51100000000E-03 0.  1.
         12    1    4    4    0    0  0.41753581919E+01  0.21927413343E+01 -0.32762892358E+01  0.57424560726E+01  0.00000000000E+00 0. -1.
</event>
<event>
 8    1  0.4042158E-011  0.9118800E+02  0.7816164E-02  0.1184000E+00
        -11   -1    0    0    0    0  0.00000000000E+00  0.00000000000E+00  0.45593999997E+02  0.45594000000E+02  0.51100000000E-03 0. -1.
         11   -1    0    0    0    0 -0.00000000000E+00 -0.00000000000E+00 -0.45593999997E+02  0.45594000000E+02  0.51100000000E-03 0.  1.
         23    2    1    2    0    0  0.17763568394E-14 -0.35527136788E-14  0.00000000000E+00  0.91188000000E+02  0.91188000000E+02 0.  0.
    9900012    2    3    3    0    0 -0.13000917544E+02  0.20013246955E+02  0.36250084344E+02  0.47787279665E+02  0.20000039303E+02 0.  0.
        -12    1    3    3    0    0  0.13000917544E+02 -0.20013246955E+02 -0.36250084344E+02  0.43400720335E+02  0.00000000000E+00 0.  1.
         11    1    4    4    0    0 -0.72673347661E+01  0.16784160213E+02  0.15347290381E+02  0.23875960943E+02  0.51100000000E-03 0. -1.
        -11    1    4    4    0    0 -0.61047698898E+01  0.49957411070E+01  0.94162562986E+01  0.12283791253E+02  0.51100000000E-03 0.  1.
        -12    1    4    4    0    0  0.37118711144E+00 -0.17666543647E+01  0.11486537664E+02  0.11627527468E+02  0.00000000000E+00 0.  1.
</event>
<event>
 8    1  0.4042158E-011  0.9118800E+02  0.7816164E-02  0.1184000E+00
        -11   -1    0    0    0    0  0.00000000000E+00  0.00000000000E+00  0.45593999997E+02  0.45594000000E+02  0.51100000000E-03 0. -1.
         11   -1    0    0    0    0 -0.00000000000E+00 -0.00000000000E+00 -0.45593999997E+02  0.45594000000E+02  0.51100000000E-03 0.  1.
         23    2    1    2    0    0  0.00000000000E+00 -0.17763568394E-14  0.71054273576E-14  0.91188000000E+02  0.91188000000E+02 0.  0.
    9900012    2    3    3    0    0  0.88211158261E+01 -0.63922152621E+01  0.42011287462E+02  0.47787299838E+02  0.20000131279E+02 0.  0.
        -12    1    3    3    0    0 -0.88211158261E+01  0.63922152621E+01 -0.42011287462E+02  0.43400700162E+02  0.00000000000E+00 0.  1.
         11    1    4    4    0    0  0.27479894694E+01 -0.54669890266E+01  0.10446696204E+02  0.12106728583E+02  0.51100000000E-03 0. -1.
        -11    1    4    4    0    0  0.27695155702E+01 -0.64308546782E+01  0.56931878863E+01  0.90243280612E+01  0.51100000000E-03 0.  1.
        -12    1    4    4    0    0  0.33036107865E+01  0.55056284427E+01  0.25871403371E+02  0.26656243193E+02  0.00000000000E+00 0.  1.
</event>
<event>
 8    1  0.4042158E-011  0.9118800E+02  0.7816164E-02  0.1184000E+00
        -11   -1    0    0    0    0  0.00000000000E+00  0.00000000000E+00  0.45593999997E+02  0.45594000000E+02  0.51100000000E-03 0.  1.
         11   -1    0    0    0    0 -0.00000000000E+00 -0.00000000000E+00 -0.45593999997E+02  0.45594000000E+02  0.51100000000E-03 0. -1.
         23    2    1    2    0    0  0.11102230246E-15  0.71054273576E-14 -0.88817841970E-15  0.91188000000E+02  0.91188000000E+02 0.  0.
    9900012    2    3    3    0    0 -0.52562285800E+00  0.43084145917E+02  0.52061007234E+01  0.47787269666E+02  0.19999993716E+02 0.  0.
        -12    1    3    3    0    0  0.52562285800E+00 -0.43084145917E+02 -0.52061007234E+01  0.43400730334E+02  0.00000000000E+00 0.  1.
         11    1    4    4    0    0 -0.16545918871E+01  0.28020765303E+02  0.11124511171E+02  0.30193636938E+02  0.51100000000E-03 0. -1.
        -11    1    4    4    0    0  0.50349569422E+00  0.12479126823E+02 -0.16961401004E+01  0.12603928185E+02  0.51100000000E-03 0.  1.
        -12    1    4    4    0    0  0.62547333492E+00  0.25842537905E+01 -0.42222703473E+01  0.49897045436E+01  0.00000000000E+00 0.  1.
</event>
<event>
 8    1  0.4042158E-011  0.9118800E+02  0.7816164E-02  0.1184000E+00
        -11   -1    0    0    0    0  0.00000000000E+00  0.00000000000E+00  0.45593999997E+02  0.45594000000E+02  0.51100000000E-03 0. -1.
         11   -1    0    0    0    0 -0.00000000000E+00 -0.00000000000E+00 -0.45593999997E+02  0.45594000000E+02  0.51100000000E-03 0.  1.
         23    2    1    2    0    0  0.00000000000E+00  0.00000000000E+00  0.00000000000E+00  0.91188000000E+02  0.91188000000E+02 0.  0.
    9900012    2    3    3    0    0  0.12633164137E+02 -0.21119963789E+02 -0.35748757754E+02  0.47787269736E+02  0.19999994033E+02 0.  0.
         12    1    3    3    0    0 -0.12633164137E+02  0.21119963789E+02  0.35748757754E+02  0.43400730264E+02  0.00000000000E+00 0. -1.
         11    1    4    4    0    0  0.67479171696E+00  0.12598618645E+01 -0.42574332624E+00  0.14912590049E+01  0.51100000000E-03 0. -1.
        -11    1    4    4    0    0  0.82886148225E+00 -0.15215999925E+02 -0.25893643947E+02  0.30044874142E+02  0.51100000000E-03 0.  1.
        -12    1    4    4    0    0  0.11129510937E+02 -0.71638257289E+01 -0.94293704799E+01  0.16251136589E+02  0.00000000000E+00 0.  1.
</event>
<event>
 8    1  0.4042158E-011  0.9118800E+02  0.7816164E-02  0.1184000E+00
        -11   -1    0    0    0    0  0.00000000000E+00  0.00000000000E+00  0.45593999997E+02  0.45594000000E+02  0.51100000000E-03 0.  1.
         11   -1    0    0    0    0 -0.00000000000E+00 -0.00000000000E+00 -0.45593999997E+02  0.45594000000E+02  0.51100000000E-03 0. -1.
         23    2    1    2    0    0  0.00000000000E+00  0.00000000000E+00 -0.88817841970E-15  0.91188000000E+02  0.91188000000E+02 0.  0.
    9900012    2    3    3    0    0  0.68304514797E+01  0.42203234830E+02 -0.74736275654E+01  0.47787271821E+02  0.20000003540E+02 0.  0.
        -12    1    3    3    0    0 -0.68304514797E+01 -0.42203234830E+02  0.74736275654E+01  0.43400728179E+02  0.00000000000E+00 0.  1.
         11    1    4    4    0    0  0.28382713229E+01  0.23637857467E+02 -0.48429425627E+01  0.24295229627E+02  0.51100000000E-03 0. -1.
        -11    1    4    4    0    0 -0.12479090966E+01  0.11318663135E+02 -0.71767051766E+01  0.13460108088E+02  0.51100000000E-03 0.  1.
        -12    1    4    4    0    0  0.52400892533E+01  0.72467142274E+01  0.45460201738E+01  0.10031934106E+02  0.00000000000E+00 0.  1.
</event>
<event>
 8    1  0.4042158E-011  0.9118800E+02  0.7816164E-02  0.1184000E+00
        -11   -1    0    0    0    0  0.00000000000E+00  0.00000000000E+00  0.45593999997E+02  0.45594000000E+02  0.51100000000E-03 0. -1.
         11   -1    0    0    0    0 -0.00000000000E+00 -0.00000000000E+00 -0.45593999997E+02  0.45594000000E+02  0.51100000000E-03 0.  1.
         23    2    1    2    0    0  0.66613381478E-15  0.00000000000E+00  0.71054273576E-14  0.91188000000E+02  0.91188000000E+02 0.  0.
    9900012    2    3    3    0    0 -0.19850504835E+01 -0.28192077097E+02 -0.32937659233E+02  0.47787273828E+02  0.20000012693E+02 0.  0.
         12    1    3    3    0    0  0.19850504835E+01  0.28192077097E+02  0.32937659233E+02  0.43400726172E+02  0.00000000000E+00 0. -1.
         11    1    4    4    0    0  0.10205861425E+01 -0.11723064792E+02 -0.45673826934E+01  0.12622710847E+02  0.51100000000E-03 0. -1.
        -11    1    4    4    0    0  0.27845642012E+01 -0.14152913378E+02 -0.18036911226E+02  0.23095214260E+02  0.51100000000E-03 0.  1.
         12    1    4    4    0    0 -0.57902008272E+01 -0.23160989270E+01 -0.10333365314E+02  0.12069348722E+02  0.00000000000E+00 0. -1.
</event>
<event>
 8    1  0.4042158E-011  0.9118800E+02  0.7816164E-02  0.1184000E+00
        -11   -1    0    0    0    0  0.00000000000E+00  0.00000000000E+00  0.45593999997E+02  0.45594000000E+02  0.51100000000E-03 0. -1.
         11   -1    0    0    0    0 -0.00000000000E+00 -0.00000000000E+00 -0.45593999997E+02  0.45594000000E+02  0.51100000000E-03 0.  1.
         23    2    1    2    0    0  0.00000000000E+00 -0.88817841970E-15  0.00000000000E+00  0.91188000000E+02  0.91188000000E+02 0.  0.
    9900012    2    3    3    0    0  0.69311196886E+01  0.32897612483E+01 -0.42717203918E+02  0.47787280424E+02  0.20000042764E+02 0.  0.
         12    1    3    3    0    0 -0.69311196886E+01 -0.32897612483E+01  0.42717203918E+02  0.43400719576E+02  0.00000000000E+00 0. -1.
         11    1    4    4    0    0  0.21425098759E+01 -0.33418608429E+01 -0.11617677455E+02  0.12277166292E+02  0.51100000000E-03 0. -1.
        -11    1    4    4    0    0  0.56746563753E+01 -0.31036076000E+01 -0.18267599250E+02  0.19378836078E+02  0.51100000000E-03 0.  1.
         12    1    4    4    0    0 -0.88604656262E+00  0.97352296912E+01 -0.12831927213E+02  0.16131278054E+02  0.00000000000E+00 0. -1.
</event>
<event>
 8    1  0.4042158E-011  0.9118800E+02  0.7816164E-02  0.1184000E+00
        -11   -1    0    0    0    0  0.00000000000E+00  0.00000000000E+00  0.45593999997E+02  0.45594000000E+02  0.51100000000E-03 0. -1.
         11   -1    0    0    0    0 -0.00000000000E+00 -0.00000000000E+00 -0.45593999997E+02  0.45594000000E+02  0.51100000000E-03 0.  1.
         23    2    1    2    0    0  0.00000000000E+00  0.00000000000E+00  0.00000000000E+00  0.91188000000E+02  0.91188000000E+02 0.  0.
    9900012    2    3    3    0    0 -0.15387521858E+02  0.34943963489E+02 -0.20634112005E+02  0.47787274298E+02  0.20000014832E+02 0.  0.
         12    1    3    3    0    0  0.15387521858E+02 -0.34943963489E+02  0.20634112005E+02  0.43400725702E+02  0.00000000000E+00 0. -1.
         11    1    4    4    0    0  0.38412871696E+00 -0.12916083777E+01 -0.19604568331E+01  0.23789069608E+01  0.51100000000E-03 0. -1.
        -11    1    4    4    0    0  0.13860887562E+01  0.19315205765E+01 -0.33435008287E+01  0.41025616181E+01  0.51100000000E-03 0.  1.
         12    1    4    4    0    0 -0.17157739331E+02  0.34304051290E+02 -0.15330154343E+02  0.41305805719E+02  0.00000000000E+00 0. -1.
</event>
<event>
 8    1  0.4042158E-011  0.9118800E+02  0.7816164E-02  0.1184000E+00
        -11   -1    0    0    0    0  0.00000000000E+00  0.00000000000E+00  0.45593999997E+02  0.45594000000E+02  0.51100000000E-03 0. -1.
         11   -1    0    0    0    0 -0.00000000000E+00 -0.00000000000E+00 -0.45593999997E+02  0.45594000000E+02  0.51100000000E-03 0.  1.
         23    2    1    2    0    0 -0.17763568394E-14  0.00000000000E+00 -0.71054273576E-14  0.91188000000E+02  0.91188000000E+02 0.  0.
    9900012    2    3    3    0    0  0.12987539564E+02  0.28243414624E+02  0.30286242692E+02  0.47787272472E+02  0.20000006509E+02 0.  0.
        -12    1    3    3    0    0 -0.12987539564E+02 -0.28243414624E+02 -0.30286242692E+02  0.43400727528E+02  0.00000000000E+00 0.  1.
         11    1    4    4    0    0  0.19077684051E+01  0.63877393800E+01  0.25744038759E+01  0.71463522339E+01  0.51100000000E-03 0. -1.
        -11    1    4    4    0    0  0.51843133812E+01 -0.63113180844E+00  0.11587920366E+01  0.53496010916E+01  0.51100000000E-03 0.  1.
         12    1    4    4    0    0  0.58954577777E+01  0.22486807053E+02  0.26553046779E+02  0.35291319147E+02  0.00000000000E+00 0. -1.
</event>
<event>
 8    1  0.4042158E-011  0.9118800E+02  0.7816164E-02  0.1184000E+00
        -11   -1    0    0    0    0  0.00000000000E+00  0.00000000000E+00  0.45593999997E+02  0.45594000000E+02  0.51100000000E-03 0. -1.
         11   -1    0    0    0    0 -0.00000000000E+00 -0.00000000000E+00 -0.45593999997E+02  0.45594000000E+02  0.51100000000E-03 0.  1.
         23    2    1    2    0    0  0.00000000000E+00  0.00000000000E+00  0.00000000000E+00  0.91188000000E+02  0.91188000000E+02 0.  0.
    9900012    2    3    3    0    0  0.11392417101E+02 -0.31206416430E+02 -0.27928402479E+02  0.47787271217E+02  0.20000000788E+02 0.  0.
         12    1    3    3    0    0 -0.11392417101E+02  0.31206416430E+02  0.27928402479E+02  0.43400728783E+02  0.00000000000E+00 0. -1.
         11    1    4    4    0    0 -0.12318932725E+01  0.12998104374E+01 -0.31481777731E+01  0.36218906333E+01  0.51100000000E-03 0. -1.
        -11    1    4    4    0    0  0.74842855184E+01 -0.72805631013E+01 -0.10114815269E+02  0.14537214897E+02  0.51100000000E-03 0.  1.
        -12    1    4    4    0    0  0.51400248554E+01 -0.25225663766E+02 -0.14665409438E+02  0.29628165686E+02  0.00000000000E+00 0.  1.
</event>
<event>
 8    1  0.4042158E-011  0.9118800E+02  0.7816164E-02  0.1184000E+00
        -11   -1    0    0    0    0  0.00000000000E+00  0.00000000000E+00  0.45593999997E+02  0.45594000000E+02  0.51100000000E-03 0. -1.
         11   -1    0    0    0    0 -0.00000000000E+00 -0.00000000000E+00 -0.45593999997E+02  0.45594000000E+02  0.51100000000E-03 0.  1.
         23    2    1    2    0    0 -0.88817841970E-15  0.15543122345E-14  0.00000000000E+00  0.91188000000E+02  0.91188000000E+02 0.  0.
    9900012    2    3    3    0    0 -0.48168952835E+01 -0.34227877911E+00  0.43131235382E+02  0.47787273041E+02  0.20000009105E+02 0.  0.
        -12    1    3    3    0    0  0.48168952835E+01  0.34227877911E+00 -0.43131235382E+02  0.43400726959E+02  0.00000000000E+00 0.  1.
         11    1    4    4    0    0  0.17124572858E+01  0.13199869889E+01  0.13403985466E+01  0.25439229807E+01  0.51100000000E-03 0. -1.
        -11    1    4    4    0    0 -0.89466066449E+00 -0.78985718025E+01  0.12878923636E+02  0.15134547516E+02  0.51100000000E-03 0.  1.
         12    1    4    4    0    0 -0.56346919048E+01  0.62363060345E+01  0.28911913200E+02  0.30108802545E+02  0.00000000000E+00 0. -1.
</event>
<event>
 8    1  0.4042158E-011  0.9118800E+02  0.7816164E-02  0.1184000E+00
        -11   -1    0    0    0    0  0.00000000000E+00  0.00000000000E+00  0.45593999997E+02  0.45594000000E+02  0.51100000000E-03 0. -1.
         11   -1    0    0    0    0 -0.00000000000E+00 -0.00000000000E+00 -0.45593999997E+02  0.45594000000E+02  0.51100000000E-03 0.  1.
         23    2    1    2    0    0  0.00000000000E+00  0.17763568394E-14  0.35527136788E-14  0.91188000000E+02  0.91188000000E+02 0.  0.
    9900012    2    3    3    0    0  0.32702676027E+02 -0.82630982370E+01 -0.27310792729E+02  0.47787271765E+02  0.20000003285E+02 0.  0.
         12    1    3    3    0    0 -0.32702676027E+02  0.82630982370E+01  0.27310792729E+02  0.43400728235E+02  0.00000000000E+00 0. -1.
         11    1    4    4    0    0  0.79660386636E+01 -0.69986645185E+01 -0.11633163135E+02  0.15740697628E+02  0.51100000000E-03 0. -1.
        -11    1    4    4    0    0  0.17767159641E+02 -0.65575301415E+01 -0.86404305130E+01  0.20816584806E+02  0.51100000000E-03 0.  1.
         12    1    4    4    0    0  0.69694777232E+01  0.52930964229E+01 -0.70371990809E+01  0.11229989331E+02  0.00000000000E+00 0. -1.
</event>
<event>
 8    1  0.4042158E-011  0.9118800E+02  0.7816164E-02  0.1184000E+00
        -11   -1    0    0    0    0  0.00000000000E+00  0.00000000000E+00  0.45593999997E+02  0.45594000000E+02  0.51100000000E-03 0. -1.
         11   -1    0    0    0    0 -0.00000000000E+00 -0.00000000000E+00 -0.45593999997E+02  0.45594000000E+02  0.51100000000E-03 0.  1.
         23    2    1    2    0    0  0.71054273576E-14  0.00000000000E+00  0.00000000000E+00  0.91188000000E+02  0.91188000000E+02 0.  0.
    9900012    2    3    3    0    0 -0.24871820287E+02 -0.10050264434E+02  0.34117562489E+02  0.47787270401E+02  0.19999997067E+02 0.  0.
        -12    1    3    3    0    0  0.24871820287E+02  0.10050264434E+02 -0.34117562489E+02  0.43400729599E+02  0.00000000000E+00 0.  1.
         11    1    4    4    0    0 -0.24816864027E+02 -0.59648936307E+01  0.33887353807E+02  0.42424161093E+02  0.51100000000E-03 0. -1.
        -11    1    4    4    0    0 -0.76554113759E+00  0.14597486523E+00 -0.61165820194E+00  0.99070071754E+00  0.51100000000E-03 0.  1.
         12    1    4    4    0    0  0.71058487785E+00 -0.42313456681E+01  0.84186688357E+00  0.43724085904E+01  0.00000000000E+00 0. -1.
</event>
<event>
 8    1  0.4042158E-011  0.9118800E+02  0.7816164E-02  0.1184000E+00
        -11   -1    0    0    0    0  0.00000000000E+00  0.00000000000E+00  0.45593999997E+02  0.45594000000E+02  0.51100000000E-03 0. -1.
         11   -1    0    0    0    0 -0.00000000000E+00 -0.00000000000E+00 -0.45593999997E+02  0.45594000000E+02  0.51100000000E-03 0.  1.
         23    2    1    2    0    0  0.00000000000E+00 -0.35527136788E-14  0.35527136788E-14  0.91188000000E+02  0.91188000000E+02 0.  0.
    9900012    2    3    3    0    0  0.16047005697E+02 -0.26383000571E+02  0.30496788761E+02  0.47787271484E+02  0.20000002005E+02 0.  0.
        -12    1    3    3    0    0 -0.16047005697E+02  0.26383000571E+02 -0.30496788761E+02  0.43400728516E+02  0.00000000000E+00 0.  1.
         11    1    4    4    0    0  0.51528785318E+01 -0.10506212982E+02  0.25194941387E+02  0.27779808137E+02  0.51100000000E-03 0. -1.
        -11    1    4    4    0    0  0.46860213455E+01 -0.64681125580E+01  0.27744383670E+01  0.84553405979E+01  0.51100000000E-03 0.  1.
         12    1    4    4    0    0  0.62081058201E+01 -0.94086750314E+01  0.25274090063E+01  0.11552122749E+02  0.00000000000E+00 0. -1.
</event>
<event>
 8    1  0.4042158E-011  0.9118800E+02  0.7816164E-02  0.1184000E+00
        -11   -1    0    0    0    0  0.00000000000E+00  0.00000000000E+00  0.45593999997E+02  0.45594000000E+02  0.51100000000E-03 0. -1.
         11   -1    0    0    0    0 -0.00000000000E+00 -0.00000000000E+00 -0.45593999997E+02  0.45594000000E+02  0.51100000000E-03 0.  1.
         23    2    1    2    0    0  0.00000000000E+00 -0.35527136788E-14  0.17763568394E-14  0.91188000000E+02  0.91188000000E+02 0.  0.
    9900012    2    3    3    0    0 -0.36956059153E+02 -0.17353076144E+02 -0.14722222404E+02  0.47787269681E+02  0.19999993781E+02 0.  0.
         12    1    3    3    0    0  0.36956059153E+02  0.17353076144E+02  0.14722222404E+02  0.43400730319E+02  0.00000000000E+00 0. -1.
         11    1    4    4    0    0 -0.36584591276E+01 -0.68756139200E+01  0.17775030394E+00  0.77903777442E+01  0.51100000000E-03 0. -1.
        -11    1    4    4    0    0  0.60227468155E+00 -0.14276062352E+01  0.56979874391E+00  0.16508983084E+01  0.51100000000E-03 0.  1.
        -12    1    4    4    0    0 -0.33899874707E+02 -0.90498559883E+01 -0.15469771452E+02  0.38345993628E+02  0.00000000000E+00 0.  1.
</event>
<event>
 8    1  0.4042158E-011  0.9118800E+02  0.7816164E-02  0.1184000E+00
        -11   -1    0    0    0    0  0.00000000000E+00  0.00000000000E+00  0.45593999997E+02  0.45594000000E+02  0.51100000000E-03 0. -1.
         11   -1    0    0    0    0 -0.00000000000E+00 -0.00000000000E+00 -0.45593999997E+02  0.45594000000E+02  0.51100000000E-03 0.  1.
         23    2    1    2    0    0  0.00000000000E+00  0.00000000000E+00  0.00000000000E+00  0.91188000000E+02  0.91188000000E+02 0.  0.
    9900012    2    3    3    0    0  0.86818447844E+01  0.43999399170E+01 -0.42295272857E+02  0.47787262608E+02  0.19999961533E+02 0.  0.
         12    1    3    3    0    0 -0.86818447844E+01 -0.43999399170E+01  0.42295272857E+02  0.43400737392E+02  0.00000000000E+00 0. -1.
         11    1    4    4    0    0  0.11289278028E+01 -0.17625063194E+01  0.84725983359E-01  0.20947757071E+01  0.51100000000E-03 0. -1.
        -11    1    4    4    0    0 -0.36271322334E+01  0.32433068116E+01 -0.74257110382E+01  0.88778551462E+01  0.51100000000E-03 0.  1.
        -12    1    4    4    0    0  0.11180049215E+02  0.29191394248E+01 -0.34954287802E+02  0.36814631754E+02  0.00000000000E+00 0.  1.
</event>
<event>
 8    1  0.4042158E-011  0.9118800E+02  0.7816164E-02  0.1184000E+00
        -11   -1    0    0    0    0  0.00000000000E+00  0.00000000000E+00  0.45593999997E+02  0.45594000000E+02  0.51100000000E-03 0. -1.
         11   -1    0    0    0    0 -0.00000000000E+00 -0.00000000000E+00 -0.45593999997E+02  0.45594000000E+02  0.51100000000E-03 0.  1.
         23    2    1    2    0    0  0.00000000000E+00  0.00000000000E+00  0.00000000000E+00  0.91188000000E+02  0.91188000000E+02 0.  0.
    9900012    2    3    3    0    0  0.30459150300E+02 -0.23954365046E+02 -0.19546153970E+02  0.47787267555E+02  0.19999984092E+02 0.  0.
         12    1    3    3    0    0 -0.30459150300E+02  0.23954365046E+02  0.19546153970E+02  0.43400732445E+02  0.00000000000E+00 0. -1.
         11    1    4    4    0    0  0.38188749777E+01 -0.10936425034E+01  0.10836605468E+01  0.41175454414E+01  0.51100000000E-03 0. -1.
        -11    1    4    4    0    0  0.10785840575E+02 -0.55662658666E+00 -0.84675338991E+01  0.13723823106E+02  0.51100000000E-03 0.  1.
        -12    1    4    4    0    0  0.15854434748E+02 -0.22304095955E+02 -0.12162280617E+02  0.29945899008E+02  0.00000000000E+00 0.  1.
</event>
<event>
 8    1  0.4042158E-011  0.9118800E+02  0.7816164E-02  0.1184000E+00
        -11   -1    0    0    0    0  0.00000000000E+00  0.00000000000E+00  0.45593999997E+02  0.45594000000E+02  0.51100000000E-03 0.  1.
         11   -1    0    0    0    0 -0.00000000000E+00 -0.00000000000E+00 -0.45593999997E+02  0.45594000000E+02  0.51100000000E-03 0. -1.
         23    2    1    2    0    0  0.00000000000E+00  0.00000000000E+00  0.00000000000E+00  0.91188000000E+02  0.91188000000E+02 0.  0.
    9900012    2    3    3    0    0 -0.34500896207E+02 -0.17441445651E+02  0.19725823750E+02  0.47787262816E+02  0.19999962485E+02 0.  0.
         12    1    3    3    0    0  0.34500896207E+02  0.17441445651E+02 -0.19725823750E+02  0.43400737184E+02  0.00000000000E+00 0. -1.
         11    1    4    4    0    0 -0.74418877123E+01 -0.71437289863E+01  0.53761486665E+01  0.11632606385E+02  0.51100000000E-03 0. -1.
        -11    1    4    4    0    0 -0.20035128603E+02 -0.14617727267E+02  0.93114716097E+01  0.26491278421E+02  0.51100000000E-03 0.  1.
        -12    1    4    4    0    0 -0.70238798919E+01  0.43200106022E+01  0.50382034737E+01  0.96633780109E+01  0.00000000000E+00 0.  1.
</event>
<event>
 8    1  0.4042158E-011  0.9118800E+02  0.7816164E-02  0.1184000E+00
        -11   -1    0    0    0    0  0.00000000000E+00  0.00000000000E+00  0.45593999997E+02  0.45594000000E+02  0.51100000000E-03 0. -1.
         11   -1    0    0    0    0 -0.00000000000E+00 -0.00000000000E+00 -0.45593999997E+02  0.45594000000E+02  0.51100000000E-03 0.  1.
         23    2    1    2    0    0  0.44408920985E-15  0.71054273576E-14  0.00000000000E+00  0.91188000000E+02  0.91188000000E+02 0.  0.
    9900012    2    3    3    0    0  0.35471711948E+01  0.34158573227E+02 -0.26537399610E+02  0.47787261223E+02  0.19999955218E+02 0.  0.
         12    1    3    3    0    0 -0.35471711948E+01 -0.34158573227E+02  0.26537399610E+02  0.43400738777E+02  0.00000000000E+00 0. -1.
         11    1    4    4    0    0  0.39028902486E+01  0.22223200279E+02 -0.93214445920E+01  0.24412957880E+02  0.51100000000E-03 0. -1.
        -11    1    4    4    0    0  0.11916749598E+01  0.10074809738E+01  0.11560123365E+01  0.19420277819E+01  0.51100000000E-03 0.  1.
        -12    1    4    4    0    0 -0.15473940135E+01  0.10927891974E+02 -0.18371967354E+02  0.21432275561E+02  0.00000000000E+00 0.  1.
</event>
<event>
 8    1  0.4042158E-011  0.9118800E+02  0.7816164E-02  0.1184000E+00
        -11   -1    0    0    0    0  0.00000000000E+00  0.00000000000E+00  0.45593999997E+02  0.45594000000E+02  0.51100000000E-03 0. -1.
         11   -1    0    0    0    0 -0.00000000000E+00 -0.00000000000E+00 -0.45593999997E+02  0.45594000000E+02  0.51100000000E-03 0.  1.
         23    2    1    2    0    0  0.00000000000E+00  0.00000000000E+00  0.27755575616E-15  0.91188000000E+02  0.91188000000E+02 0.  0.
    9900012    2    3    3    0    0 -0.24107697875E+02  0.36088311910E+02 -0.27915609616E+00  0.47787247915E+02  0.19999894545E+02 0.  0.
        -12    1    3    3    0    0  0.24107697875E+02 -0.36088311910E+02  0.27915609616E+00  0.43400752085E+02  0.00000000000E+00 0.  1.
         11    1    4    4    0    0 -0.60871542880E+01  0.62951385546E+01  0.49467117106E+01  0.10057443699E+02  0.51100000000E-03 0.  1.
        -11    1    4    4    0    0 -0.12849509641E+02  0.13224207608E+02  0.27235731583E+01  0.18638868417E+02  0.51100000000E-03 0. -1.
        -12    1    4    4    0    0 -0.51710339465E+01  0.16568965748E+02 -0.79494409651E+01  0.19090935799E+02  0.00000000000E+00 0.  1.
</event>
<event>
 8    1  0.4042158E-011  0.9118800E+02  0.7816164E-02  0.1184000E+00
        -11   -1    0    0    0    0  0.00000000000E+00  0.00000000000E+00  0.45593999997E+02  0.45594000000E+02  0.51100000000E-03 0. -1.
         11   -1    0    0    0    0 -0.00000000000E+00 -0.00000000000E+00 -0.45593999997E+02  0.45594000000E+02  0.51100000000E-03 0.  1.
         23    2    1    2    0    0  0.00000000000E+00  0.00000000000E+00  0.00000000000E+00  0.91188000000E+02  0.91188000000E+02 0.  0.
    9900012    2    3    3    0    0  0.23753044836E+02 -0.22013446988E+02 -0.28893334046E+02  0.47787265679E+02  0.19999975537E+02 0.  0.
         12    1    3    3    0    0 -0.23753044836E+02  0.22013446988E+02  0.28893334046E+02  0.43400734321E+02  0.00000000000E+00 0. -1.
         11    1    4    4    0    0  0.52270593020E+01 -0.65535350950E+00 -0.35272077492E+00  0.52797773983E+01  0.51100000000E-03 0. -1.
        -11    1    4    4    0    0  0.76072752247E+00  0.13280737503E+01 -0.52159014396E+01  0.54358177249E+01  0.51100000000E-03 0.  1.
        -12    1    4    4    0    0  0.17765258011E+02 -0.22686167229E+02 -0.23324711832E+02  0.37071670556E+02  0.00000000000E+00 0.  1.
</event>
<event>
 8    1  0.4042158E-011  0.9118800E+02  0.7816164E-02  0.1184000E+00
        -11   -1    0    0    0    0  0.00000000000E+00  0.00000000000E+00  0.45593999997E+02  0.45594000000E+02  0.51100000000E-03 0. -1.
         11   -1    0    0    0    0 -0.00000000000E+00 -0.00000000000E+00 -0.45593999997E+02  0.45594000000E+02  0.51100000000E-03 0.  1.
         23    2    1    2    0    0  0.71054273576E-14  0.00000000000E+00  0.12212453271E-14  0.91188000000E+02  0.91188000000E+02 0.  0.
    9900012    2    3    3    0    0  0.33146758220E+02 -0.28009335625E+02 -0.62623600499E+00  0.47787278414E+02  0.20000033600E+02 0.  0.
         12    1    3    3    0    0 -0.33146758220E+02  0.28009335625E+02  0.62623600499E+00  0.43400721586E+02  0.00000000000E+00 0. -1.
         11    1    4    4    0    0  0.19722899232E+02 -0.94588127680E+01  0.62793190677E+01  0.22757234922E+02  0.51100000000E-03 0.  1.
        -11    1    4    4    0    0  0.59442168398E+00  0.38789366347E+00  0.62684010014E+00  0.94695691814E+00  0.51100000000E-03 0. -1.
        -12    1    4    4    0    0  0.12829437304E+02 -0.18938416521E+02 -0.75323951729E+01  0.24083086573E+02  0.00000000000E+00 0.  1.
</event>
<event>
 8    1  0.4042158E-011  0.9118800E+02  0.7816164E-02  0.1184000E+00
        -11   -1    0    0    0    0  0.00000000000E+00  0.00000000000E+00  0.45593999997E+02  0.45594000000E+02  0.51100000000E-03 0.  1.
         11   -1    0    0    0    0 -0.00000000000E+00 -0.00000000000E+00 -0.45593999997E+02  0.45594000000E+02  0.51100000000E-03 0. -1.
         23    2    1    2    0    0  0.00000000000E+00  0.00000000000E+00  0.00000000000E+00  0.91188000000E+02  0.91188000000E+02 0.  0.
    9900012    2    3    3    0    0 -0.16988372667E+02  0.39568996055E+02  0.54141731380E+01  0.47787268146E+02  0.19999986784E+02 0.  0.
        -12    1    3    3    0    0  0.16988372667E+02 -0.39568996055E+02 -0.54141731380E+01  0.43400731854E+02  0.00000000000E+00 0.  1.
         11    1    4    4    0    0 -0.36006858070E+00  0.56836514055E+01  0.52161489867E+01  0.77228073389E+01  0.51100000000E-03 0. -1.
        -11    1    4    4    0    0 -0.16129680500E+01  0.18483539512E+02  0.16394942968E-01  0.18553791199E+02  0.51100000000E-03 0.  1.
        -12    1    4    4    0    0 -0.15015336037E+02  0.15401805138E+02  0.18162920834E+00  0.21510669608E+02  0.00000000000E+00 0.  1.
</event>
<event>
 8    1  0.4042158E-011  0.9118800E+02  0.7816164E-02  0.1184000E+00
        -11   -1    0    0    0    0  0.00000000000E+00  0.00000000000E+00  0.45593999997E+02  0.45594000000E+02  0.51100000000E-03 0. -1.
         11   -1    0    0    0    0 -0.00000000000E+00 -0.00000000000E+00 -0.45593999997E+02  0.45594000000E+02  0.51100000000E-03 0.  1.
         23    2    1    2    0    0  0.17763568394E-14  0.00000000000E+00  0.71054273576E-14  0.91188000000E+02  0.91188000000E+02 0.  0.
    9900012    2    3    3    0    0 -0.15997536997E+02  0.13863039959E+02 -0.37888237618E+02  0.47787267095E+02  0.19999981995E+02 0.  0.
         12    1    3    3    0    0  0.15997536997E+02 -0.13863039959E+02  0.37888237618E+02  0.43400732905E+02  0.00000000000E+00 0. -1.
         11    1    4    4    0    0 -0.55885175187E+01  0.11695498829E+01 -0.39678371409E+01  0.69529207404E+01  0.51100000000E-03 0.  1.
        -11    1    4    4    0    0 -0.42080719334E+01  0.14716531367E+02 -0.17990507683E+02  0.23620807179E+02  0.51100000000E-03 0. -1.
         12    1    4    4    0    0 -0.62009475452E+01 -0.20230412902E+01 -0.15929892794E+02  0.17213539176E+02  0.00000000000E+00 0. -1.
</event>
<event>
 8    1  0.4042158E-011  0.9118800E+02  0.7816164E-02  0.1184000E+00
        -11   -1    0    0    0    0  0.00000000000E+00  0.00000000000E+00  0.45593999997E+02  0.45594000000E+02  0.51100000000E-03 0. -1.
         11   -1    0    0    0    0 -0.00000000000E+00 -0.00000000000E+00 -0.45593999997E+02  0.45594000000E+02  0.51100000000E-03 0.  1.
         23    2    1    2    0    0  0.00000000000E+00  0.35527136788E-14  0.00000000000E+00  0.91188000000E+02  0.91188000000E+02 0.  0.
    9900012    2    3    3    0    0 -0.99790081228E+01  0.24243430002E+02  0.34587552688E+02  0.47787270716E+02  0.19999998504E+02 0.  0.
        -12    1    3    3    0    0  0.99790081228E+01 -0.24243430002E+02 -0.34587552688E+02  0.43400729284E+02  0.00000000000E+00 0.  1.
         11    1    4    4    0    0 -0.51144951018E+01  0.34765359922E+01  0.11676124203E+02  0.13212730199E+02  0.51100000000E-03 0. -1.
        -11    1    4    4    0    0 -0.78729946223E+01  0.42253007891E+01  0.97316718561E+01  0.13211458983E+02  0.51100000000E-03 0.  1.
         12    1    4    4    0    0  0.30084816013E+01  0.16541593221E+02  0.13179756629E+02  0.21363081534E+02  0.00000000000E+00 0. -1.
</event>
<event>
 8    1  0.4042158E-011  0.9118800E+02  0.7816164E-02  0.1184000E+00
        -11   -1    0    0    0    0  0.00000000000E+00  0.00000000000E+00  0.45593999997E+02  0.45594000000E+02  0.51100000000E-03 0. -1.
         11   -1    0    0    0    0 -0.00000000000E+00 -0.00000000000E+00 -0.45593999997E+02  0.45594000000E+02  0.51100000000E-03 0.  1.
         23    2    1    2    0    0  0.88817841970E-15 -0.88817841970E-15  0.00000000000E+00  0.91188000000E+02  0.91188000000E+02 0.  0.
    9900012    2    3    3    0    0 -0.56024526102E+01  0.41758098590E+01 -0.42834548753E+02  0.47787269245E+02  0.19999991796E+02 0.  0.
         12    1    3    3    0    0  0.56024526102E+01 -0.41758098590E+01  0.42834548753E+02  0.43400730755E+02  0.00000000000E+00 0. -1.
         11    1    4    4    0    0  0.62876454836E+01  0.76785609735E+00 -0.10355860492E+02  0.12139519575E+02  0.51100000000E-03 0. -1.
        -11    1    4    4    0    0 -0.28220401016E+01  0.47354964358E+01 -0.11399311374E+02  0.12662272185E+02  0.51100000000E-03 0.  1.
         12    1    4    4    0    0 -0.90680579923E+01 -0.13275426741E+01 -0.21079376886E+02  0.22985477485E+02  0.00000000000E+00 0. -1.
</event>
<event>
 8    1  0.4042158E-011  0.9118800E+02  0.7816164E-02  0.1184000E+00
        -11   -1    0    0    0    0  0.00000000000E+00  0.00000000000E+00  0.45593999997E+02  0.45594000000E+02  0.51100000000E-03 0. -1.
         11   -1    0    0    0    0 -0.00000000000E+00 -0.00000000000E+00 -0.45593999997E+02  0.45594000000E+02  0.51100000000E-03 0.  1.
         23    2    1    2    0    0  0.00000000000E+00 -0.44408920985E-15  0.00000000000E+00  0.91188000000E+02  0.91188000000E+02 0.  0.
    9900012    2    3    3    0    0 -0.33315701114E+02 -0.17315894373E+01  0.27761286478E+02  0.47787269942E+02  0.19999994973E+02 0.  0.
        -12    1    3    3    0    0  0.33315701114E+02  0.17315894373E+01 -0.27761286478E+02  0.43400730058E+02  0.00000000000E+00 0.  1.
         11    1    4    4    0    0 -0.20965695068E+02  0.34499795971E+01  0.20347873392E+02  0.29419358945E+02  0.51100000000E-03 0. -1.
        -11    1    4    4    0    0 -0.11102566338E+02 -0.47680742771E+01  0.98567994024E+01  0.15593524499E+02  0.51100000000E-03 0.  1.
        -12    1    4    4    0    0 -0.12474397084E+01 -0.41349475727E+00 -0.24433863172E+01  0.27743864971E+01  0.00000000000E+00 0.  1.
</event>
<event>
 8    1  0.4042158E-011  0.9118800E+02  0.7816164E-02  0.1184000E+00
        -11   -1    0    0    0    0  0.00000000000E+00  0.00000000000E+00  0.45593999997E+02  0.45594000000E+02  0.51100000000E-03 0. -1.
         11   -1    0    0    0    0 -0.00000000000E+00 -0.00000000000E+00 -0.45593999997E+02  0.45594000000E+02  0.51100000000E-03 0.  1.
         23    2    1    2    0    0  0.00000000000E+00  0.00000000000E+00  0.00000000000E+00  0.91188000000E+02  0.91188000000E+02 0.  0.
    9900012    2    3    3    0    0 -0.49235320429E+01 -0.23565237858E+01  0.43056119703E+02  0.47787264799E+02  0.19999971523E+02 0.  0.
        -12    1    3    3    0    0  0.49235320429E+01  0.23565237858E+01 -0.43056119703E+02  0.43400735201E+02  0.00000000000E+00 0.  1.
         11    1    4    4    0    0 -0.62092401410E+01  0.39996067008E+01  0.87165365239E+01  0.11424951909E+02  0.51100000000E-03 0. -1.
        -11    1    4    4    0    0  0.92738379000E-01 -0.27043165996E+01  0.11318372075E+01  0.29330844521E+01  0.51100000000E-03 0.  1.
         12    1    4    4    0    0  0.11929697191E+01 -0.36518138870E+01  0.33207745972E+02  0.33429228438E+02  0.00000000000E+00 0. -1.
</event>
<event>
 8    1  0.4042158E-011  0.9118800E+02  0.7816164E-02  0.1184000E+00
        -11   -1    0    0    0    0  0.00000000000E+00  0.00000000000E+00  0.45593999997E+02  0.45594000000E+02  0.51100000000E-03 0. -1.
         11   -1    0    0    0    0 -0.00000000000E+00 -0.00000000000E+00 -0.45593999997E+02  0.45594000000E+02  0.51100000000E-03 0.  1.
         23    2    1    2    0    0  0.00000000000E+00  0.00000000000E+00  0.00000000000E+00  0.91188000000E+02  0.91188000000E+02 0.  0.
    9900012    2    3    3    0    0  0.74937948385E+01  0.85098164938E+01 -0.41893311619E+02  0.47787268483E+02  0.19999988319E+02 0.  0.
         12    1    3    3    0    0 -0.74937948385E+01 -0.85098164938E+01  0.41893311619E+02  0.43400731517E+02  0.00000000000E+00 0. -1.
         11    1    4    4    0    0 -0.18699814637E+01  0.31069137372E+01 -0.47977648838E+01  0.60140079636E+01  0.51100000000E-03 0. -1.
        -11    1    4    4    0    0  0.30107750214E+01  0.40016837542E+01 -0.10134226826E+01  0.51093311590E+01  0.51100000000E-03 0.  1.
        -12    1    4    4    0    0  0.63530012808E+01  0.14012190025E+01 -0.36082124053E+02  0.36663929360E+02  0.00000000000E+00 0.  1.
</event>
<event>
 8    1  0.4042158E-011  0.9118800E+02  0.7816164E-02  0.1184000E+00
        -11   -1    0    0    0    0  0.00000000000E+00  0.00000000000E+00  0.45593999997E+02  0.45594000000E+02  0.51100000000E-03 0. -1.
         11   -1    0    0    0    0 -0.00000000000E+00 -0.00000000000E+00 -0.45593999997E+02  0.45594000000E+02  0.51100000000E-03 0.  1.
         23    2    1    2    0    0  0.00000000000E+00  0.17763568394E-14  0.71054273576E-14  0.91188000000E+02  0.91188000000E+02 0.  0.
    9900012    2    3    3    0    0  0.16619119172E+02 -0.88282085928E+01 -0.39108703996E+02  0.47787272848E+02  0.20000008225E+02 0.  0.
         12    1    3    3    0    0 -0.16619119172E+02  0.88282085928E+01  0.39108703996E+02  0.43400727152E+02  0.00000000000E+00 0. -1.
         11    1    4    4    0    0 -0.15205463402E+01 -0.56386509308E+00 -0.58275758148E+01  0.60490201813E+01  0.51100000000E-03 0. -1.
        -11    1    4    4    0    0  0.10005158892E+02  0.36641952297E+01 -0.12359662790E+02  0.16318418909E+02  0.51100000000E-03 0.  1.
        -12    1    4    4    0    0  0.81345066198E+01 -0.11928538729E+02 -0.20921465392E+02  0.25419833758E+02  0.00000000000E+00 0.  1.
</event>
<event>
 8    1  0.4042158E-011  0.9118800E+02  0.7816164E-02  0.1184000E+00
        -11   -1    0    0    0    0  0.00000000000E+00  0.00000000000E+00  0.45593999997E+02  0.45594000000E+02  0.51100000000E-03 0. -1.
         11   -1    0    0    0    0 -0.00000000000E+00 -0.00000000000E+00 -0.45593999997E+02  0.45594000000E+02  0.51100000000E-03 0.  1.
         23    2    1    2    0    0  0.00000000000E+00  0.00000000000E+00 -0.17763568394E-14  0.91188000000E+02  0.91188000000E+02 0.  0.
    9900012    2    3    3    0    0  0.32112139986E+02  0.25190567259E+02  0.14760391679E+02  0.47787269870E+02  0.19999994644E+02 0.  0.
        -12    1    3    3    0    0 -0.32112139986E+02 -0.25190567259E+02 -0.14760391679E+02  0.43400730130E+02  0.00000000000E+00 0.  1.
         11    1    4    4    0    0  0.24025493388E+02  0.21055146285E+02  0.10236365540E+02  0.33545889425E+02  0.51100000000E-03 0. -1.
        -11    1    4    4    0    0 -0.10125660082E+01 -0.21892700234E+01  0.59859076540E+00  0.24852573955E+01  0.51100000000E-03 0.  1.
        -12    1    4    4    0    0  0.90992126069E+01  0.63246909974E+01  0.39254353729E+01  0.11756123049E+02  0.00000000000E+00 0.  1.
</event>
<event>
 8    1  0.4042158E-011  0.9118800E+02  0.7816164E-02  0.1184000E+00
        -11   -1    0    0    0    0  0.00000000000E+00  0.00000000000E+00  0.45593999997E+02  0.45594000000E+02  0.51100000000E-03 0.  1.
         11   -1    0    0    0    0 -0.00000000000E+00 -0.00000000000E+00 -0.45593999997E+02  0.45594000000E+02  0.51100000000E-03 0. -1.
         23    2    1    2    0    0 -0.71054273576E-14  0.22204460493E-15  0.00000000000E+00  0.91188000000E+02  0.91188000000E+02 0.  0.
    9900012    2    3    3    0    0  0.37093618864E+02  0.16430757455E+01  0.22471907768E+02  0.47787275386E+02  0.20000019795E+02 0.  0.
         12    1    3    3    0    0 -0.37093618864E+02 -0.16430757455E+01 -0.22471907768E+02  0.43400724614E+02  0.00000000000E+00 0. -1.
         11    1    4    4    0    0  0.14421284659E+02  0.11826545996E+01  0.39129687651E+01  0.14989444550E+02  0.51100000000E-03 0. -1.
        -11    1    4    4    0    0  0.16987600559E+02  0.84263942399E+00  0.44486411216E+01  0.17580643391E+02  0.51100000000E-03 0.  1.
        -12    1    4    4    0    0  0.56847336459E+01 -0.38221827809E+00  0.14110297881E+02  0.15217187445E+02  0.00000000000E+00 0.  1.
</event>
<event>
 8    1  0.4042158E-011  0.9118800E+02  0.7816164E-02  0.1184000E+00
        -11   -1    0    0    0    0  0.00000000000E+00  0.00000000000E+00  0.45593999997E+02  0.45594000000E+02  0.51100000000E-03 0. -1.
         11   -1    0    0    0    0 -0.00000000000E+00 -0.00000000000E+00 -0.45593999997E+02  0.45594000000E+02  0.51100000000E-03 0.  1.
         23    2    1    2    0    0  0.00000000000E+00  0.00000000000E+00  0.00000000000E+00  0.91188000000E+02  0.91188000000E+02 0.  0.
    9900012    2    3    3    0    0 -0.28911076047E+02  0.18352104182E+02  0.26664070836E+02  0.47787277430E+02  0.20000029114E+02 0.  0.
        -12    1    3    3    0    0  0.28911076047E+02 -0.18352104182E+02 -0.26664070836E+02  0.43400722570E+02  0.00000000000E+00 0.  1.
         11    1    4    4    0    0 -0.24735880484E+02  0.64352786010E+01  0.18084956965E+02  0.31310417797E+02  0.51100000000E-03 0. -1.
        -11    1    4    4    0    0 -0.34674004111E+01  0.19013724410E+01  0.16914511315E+01  0.43010568424E+01  0.51100000000E-03 0.  1.
        -12    1    4    4    0    0 -0.70779515201E+00  0.10015453140E+02  0.68876627395E+01  0.12175802790E+02  0.00000000000E+00 0.  1.
</event>
<event>
 8    1  0.4042158E-011  0.9118800E+02  0.7816164E-02  0.1184000E+00
        -11   -1    0    0    0    0  0.00000000000E+00  0.00000000000E+00  0.45593999997E+02  0.45594000000E+02  0.51100000000E-03 0. -1.
         11   -1    0    0    0    0 -0.00000000000E+00 -0.00000000000E+00 -0.45593999997E+02  0.45594000000E+02  0.51100000000E-03 0.  1.
         23    2    1    2    0    0  0.00000000000E+00  0.00000000000E+00  0.00000000000E+00  0.91188000000E+02  0.91188000000E+02 0.  0.
    9900012    2    3    3    0    0  0.43328978467E+01 -0.28250134843E+02 -0.32661580671E+02  0.47787274496E+02  0.20000015735E+02 0.  0.
         12    1    3    3    0    0 -0.43328978467E+01  0.28250134843E+02  0.32661580671E+02  0.43400725504E+02  0.00000000000E+00 0. -1.
         11    1    4    4    0    0 -0.72537895088E+00 -0.67618374383E+01  0.10789009985E+01  0.68856842645E+01  0.51100000000E-03 0. -1.
        -11    1    4    4    0    0  0.43451915292E+01 -0.68192828679E+01 -0.87416577888E+01  0.11907975874E+02  0.51100000000E-03 0.  1.
        -12    1    4    4    0    0  0.71308526842E+00 -0.14669014537E+02 -0.24998823880E+02  0.28993614357E+02  0.00000000000E+00 0.  1.
</event>
<event>
 8    1  0.4042158E-011  0.9118800E+02  0.7816164E-02  0.1184000E+00
        -11   -1    0    0    0    0  0.00000000000E+00  0.00000000000E+00  0.45593999997E+02  0.45594000000E+02  0.51100000000E-03 0.  1.
         11   -1    0    0    0    0 -0.00000000000E+00 -0.00000000000E+00 -0.45593999997E+02  0.45594000000E+02  0.51100000000E-03 0. -1.
         23    2    1    2    0    0  0.00000000000E+00  0.71054273576E-14  0.00000000000E+00  0.91188000000E+02  0.91188000000E+02 0.  0.
    9900012    2    3    3    0    0 -0.24415086534E+02 -0.34543382572E+02 -0.97098731386E+01  0.47787269979E+02  0.19999995144E+02 0.  0.
         12    1    3    3    0    0  0.24415086534E+02  0.34543382572E+02  0.97098731386E+01  0.43400730021E+02  0.00000000000E+00 0. -1.
         11    1    4    4    0    0 -0.53565964781E+01 -0.32864104078E+01  0.10102310353E+00  0.62852068483E+01  0.51100000000E-03 0. -1.
        -11    1    4    4    0    0 -0.39140078457E+01  0.14305800778E+01 -0.10103129266E-01  0.41672675832E+01  0.51100000000E-03 0.  1.
        -12    1    4    4    0    0 -0.15144482210E+02 -0.32687552242E+02 -0.98007931129E+01  0.37334795548E+02  0.00000000000E+00 0.  1.
</event>
<event>
 8    1  0.4042158E-011  0.9118800E+02  0.7816164E-02  0.1184000E+00
        -11   -1    0    0    0    0  0.00000000000E+00  0.00000000000E+00  0.45593999997E+02  0.45594000000E+02  0.51100000000E-03 0. -1.
         11   -1    0    0    0    0 -0.00000000000E+00 -0.00000000000E+00 -0.45593999997E+02  0.45594000000E+02  0.51100000000E-03 0.  1.
         23    2    1    2    0    0 -0.71054273576E-14  0.00000000000E+00  0.17763568394E-14  0.91188000000E+02  0.91188000000E+02 0.  0.
    9900012    2    3    3    0    0 -0.38393432141E+02  0.13454956519E+02  0.15117266798E+02  0.47787271412E+02  0.20000001677E+02 0.  0.
        -12    1    3    3    0    0  0.38393432141E+02 -0.13454956519E+02 -0.15117266798E+02  0.43400728588E+02  0.00000000000E+00 0.  1.
         11    1    4    4    0    0 -0.93829682179E+01 -0.23536360906E+00  0.10655858731E+01  0.94462141687E+01  0.51100000000E-03 0. -1.
        -11    1    4    4    0    0 -0.38568521564E+00 -0.26642579078E+01  0.78246804508E+00  0.28034407052E+01  0.51100000000E-03 0.  1.
         12    1    4    4    0    0 -0.28624778707E+02  0.16354578036E+02  0.13269212880E+02  0.35537616538E+02  0.00000000000E+00 0. -1.
</event>
<event>
 8    1  0.4042158E-011  0.9118800E+02  0.7816164E-02  0.1184000E+00
        -11   -1    0    0    0    0  0.00000000000E+00  0.00000000000E+00  0.45593999997E+02  0.45594000000E+02  0.51100000000E-03 0. -1.
         11   -1    0    0    0    0 -0.00000000000E+00 -0.00000000000E+00 -0.45593999997E+02  0.45594000000E+02  0.51100000000E-03 0.  1.
         23    2    1    2    0    0 -0.17763568394E-14 -0.35527136788E-14  0.71054273576E-14  0.91188000000E+02  0.91188000000E+02 0.  0.
    9900012    2    3    3    0    0 -0.12893609966E+02 -0.30320911463E+02  0.28249258768E+02  0.47787268775E+02  0.19999989653E+02 0.  0.
        -12    1    3    3    0    0  0.12893609966E+02  0.30320911463E+02 -0.28249258768E+02  0.43400731225E+02  0.00000000000E+00 0.  1.
         11    1    4    4    0    0 -0.16449202390E+02 -0.27305896787E+02  0.27972570680E+02  0.42410528991E+02  0.51100000000E-03 0. -1.
        -11    1    4    4    0    0  0.19945617116E+01 -0.18162890691E+01  0.14729151335E+01  0.30735422001E+01  0.51100000000E-03 0.  1.
         12    1    4    4    0    0  0.15610307119E+01 -0.11987256071E+01 -0.11962270458E+01  0.23031975837E+01  0.00000000000E+00 0. -1.
</event>
<event>
 8    1  0.4042158E-011  0.9118800E+02  0.7816164E-02  0.1184000E+00
        -11   -1    0    0    0    0  0.00000000000E+00  0.00000000000E+00  0.45593999997E+02  0.45594000000E+02  0.51100000000E-03 0.  1.
         11   -1    0    0    0    0 -0.00000000000E+00 -0.00000000000E+00 -0.45593999997E+02  0.45594000000E+02  0.51100000000E-03 0. -1.
         23    2    1    2    0    0  0.88817841970E-15  0.71054273576E-14  0.00000000000E+00  0.91188000000E+02  0.91188000000E+02 0.  0.
    9900012    2    3    3    0    0 -0.47481858790E+01  0.41341295453E+02  0.12327922515E+02  0.47787243642E+02  0.19999875062E+02 0.  0.
        -12    1    3    3    0    0  0.47481858790E+01 -0.41341295453E+02 -0.12327922515E+02  0.43400756358E+02  0.00000000000E+00 0.  1.
         11    1    4    4    0    0  0.30756644840E+00  0.17072752105E+02  0.40166218118E+00  0.17080245734E+02  0.51100000000E-03 0. -1.
        -11    1    4    4    0    0  0.18641024108E+01  0.15125245702E+02  0.16846560732E+01  0.15332514526E+02  0.51100000000E-03 0.  1.
        -12    1    4    4    0    0 -0.69198547382E+01  0.91432976463E+01  0.10241604261E+02  0.15374483383E+02  0.00000000000E+00 0.  1.
</event>
<event>
 8    1  0.4042158E-011  0.9118800E+02  0.7816164E-02  0.1184000E+00
        -11   -1    0    0    0    0  0.00000000000E+00  0.00000000000E+00  0.45593999997E+02  0.45594000000E+02  0.51100000000E-03 0. -1.
         11   -1    0    0    0    0 -0.00000000000E+00 -0.00000000000E+00 -0.45593999997E+02  0.45594000000E+02  0.51100000000E-03 0.  1.
         23    2    1    2    0    0 -0.17763568394E-14 -0.71054273576E-14  0.00000000000E+00  0.91188000000E+02  0.91188000000E+02 0.  0.
    9900012    2    3    3    0    0  0.13551675995E+02 -0.37101165402E+02 -0.17985520263E+02  0.47787270334E+02  0.19999996759E+02 0.  0.
         12    1    3    3    0    0 -0.13551675995E+02  0.37101165402E+02  0.17985520263E+02  0.43400729666E+02  0.00000000000E+00 0. -1.
         11    1    4    4    0    0  0.61622345268E+01 -0.16319310816E+02 -0.14930590660E+02  0.22961175440E+02  0.51100000000E-03 0. -1.
        -11    1    4    4    0    0 -0.10843079234E+01 -0.90444948264E+01 -0.47106464916E+01  0.10255184102E+02  0.51100000000E-03 0.  1.
         12    1    4    4    0    0  0.84737493915E+01 -0.11737359759E+02  0.16557168889E+01  0.14570910791E+02  0.00000000000E+00 0. -1.
</event>
<event>
 8    1  0.4042158E-011  0.9118800E+02  0.7816164E-02  0.1184000E+00
        -11   -1    0    0    0    0  0.00000000000E+00  0.00000000000E+00  0.45593999997E+02  0.45594000000E+02  0.51100000000E-03 0. -1.
         11   -1    0    0    0    0 -0.00000000000E+00 -0.00000000000E+00 -0.45593999997E+02  0.45594000000E+02  0.51100000000E-03 0.  1.
         23    2    1    2    0    0  0.88817841970E-15  0.00000000000E+00  0.00000000000E+00  0.91188000000E+02  0.91188000000E+02 0.  0.
    9900012    2    3    3    0    0  0.74956856089E+01  0.12175631086E+02 -0.40977942165E+02  0.47787273748E+02  0.20000012328E+02 0.  0.
         12    1    3    3    0    0 -0.74956856089E+01 -0.12175631086E+02  0.40977942165E+02  0.43400726252E+02  0.00000000000E+00 0. -1.
         11    1    4    4    0    0  0.47854208003E+01 -0.37885827808E+00 -0.27364385641E+01  0.55255662250E+01  0.51100000000E-03 0. -1.
        -11    1    4    4    0    0  0.20603617577E+01 -0.21210171792E+01 -0.10001672920E+02  0.10429634026E+02  0.51100000000E-03 0.  1.
        -12    1    4    4    0    0  0.64990305089E+00  0.14675506543E+02 -0.28239830681E+02  0.31832073497E+02  0.00000000000E+00 0.  1.
</event>
<event>
 8    1  0.4042158E-011  0.9118800E+02  0.7816164E-02  0.1184000E+00
        -11   -1    0    0    0    0  0.00000000000E+00  0.00000000000E+00  0.45593999997E+02  0.45594000000E+02  0.51100000000E-03 0.  1.
         11   -1    0    0    0    0 -0.00000000000E+00 -0.00000000000E+00 -0.45593999997E+02  0.45594000000E+02  0.51100000000E-03 0. -1.
         23    2    1    2    0    0  0.71054273576E-14  0.22204460493E-15  0.00000000000E+00  0.91188000000E+02  0.91188000000E+02 0.  0.
    9900012    2    3    3    0    0 -0.43394612352E+02 -0.31857859005E+00 -0.65526763384E+00  0.47787271329E+02  0.20000001297E+02 0.  0.
        -12    1    3    3    0    0  0.43394612352E+02  0.31857859005E+00  0.65526763384E+00  0.43400728671E+02  0.00000000000E+00 0.  1.
         11    1    4    4    0    0 -0.18240162766E+02 -0.44012645276E+01  0.39052308445E+01  0.19165737538E+02  0.51100000000E-03 0. -1.
        -11    1    4    4    0    0 -0.24289588063E+02  0.32921872195E+01 -0.62964535287E+00  0.24519768321E+02  0.51100000000E-03 0.  1.
         12    1    4    4    0    0 -0.86486152276E+00  0.79049871810E+00 -0.39308531255E+01  0.41017654700E+01  0.00000000000E+00 0. -1.
</event>
<event>
 8    1  0.4042158E-011  0.9118800E+02  0.7816164E-02  0.1184000E+00
        -11   -1    0    0    0    0  0.00000000000E+00  0.00000000000E+00  0.45593999997E+02  0.45594000000E+02  0.51100000000E-03 0. -1.
         11   -1    0    0    0    0 -0.00000000000E+00 -0.00000000000E+00 -0.45593999997E+02  0.45594000000E+02  0.51100000000E-03 0.  1.
         23    2    1    2    0    0  0.00000000000E+00  0.17763568394E-14  0.00000000000E+00  0.91188000000E+02  0.91188000000E+02 0.  0.
    9900012    2    3    3    0    0  0.30230056055E+02 -0.10894049276E+02 -0.29173390723E+02  0.47787270456E+02  0.19999997316E+02 0.  0.
         12    1    3    3    0    0 -0.30230056055E+02  0.10894049276E+02  0.29173390723E+02  0.43400729544E+02  0.00000000000E+00 0. -1.
         11    1    4    4    0    0  0.56056469303E+01  0.24192747140E+01 -0.12229615480E+02  0.13668930562E+02  0.51100000000E-03 0. -1.
        -11    1    4    4    0    0  0.78971949016E+01 -0.55418611842E+00 -0.15930799064E+01  0.80753150661E+01  0.51100000000E-03 0.  1.
         12    1    4    4    0    0  0.16727214223E+02 -0.12759137871E+02 -0.15350695337E+02  0.26043024828E+02  0.00000000000E+00 0. -1.
</event>
<event>
 8    1  0.4042158E-011  0.9118800E+02  0.7816164E-02  0.1184000E+00
        -11   -1    0    0    0    0  0.00000000000E+00  0.00000000000E+00  0.45593999997E+02  0.45594000000E+02  0.51100000000E-03 0. -1.
         11   -1    0    0    0    0 -0.00000000000E+00 -0.00000000000E+00 -0.45593999997E+02  0.45594000000E+02  0.51100000000E-03 0.  1.
         23    2    1    2    0    0  0.00000000000E+00  0.88817841970E-15  0.35527136788E-14  0.91188000000E+02  0.91188000000E+02 0.  0.
    9900012    2    3    3    0    0  0.38637816968E+02  0.75490196644E+01 -0.18268951166E+02  0.47787272188E+02  0.20000005212E+02 0.  0.
         12    1    3    3    0    0 -0.38637816968E+02 -0.75490196644E+01  0.18268951166E+02  0.43400727812E+02  0.00000000000E+00 0. -1.
         11    1    4    4    0    0  0.30335938848E+02  0.10568510416E+02 -0.12016208817E+02  0.34297986425E+02  0.51100000000E-03 0. -1.
        -11    1    4    4    0    0  0.47050935803E+01 -0.25507226773E+00  0.11102345465E+01  0.48410317568E+01  0.51100000000E-03 0.  1.
        -12    1    4    4    0    0  0.35967845390E+01 -0.27644184838E+01 -0.73629768962E+01  0.86482540057E+01  0.00000000000E+00 0.  1.
</event>
<event>
 8    1  0.4042158E-011  0.9118800E+02  0.7816164E-02  0.1184000E+00
        -11   -1    0    0    0    0  0.00000000000E+00  0.00000000000E+00  0.45593999997E+02  0.45594000000E+02  0.51100000000E-03 0. -1.
         11   -1    0    0    0    0 -0.00000000000E+00 -0.00000000000E+00 -0.45593999997E+02  0.45594000000E+02  0.51100000000E-03 0.  1.
         23    2    1    2    0    0  0.00000000000E+00  0.00000000000E+00  0.00000000000E+00  0.91188000000E+02  0.91188000000E+02 0.  0.
    9900012    2    3    3    0    0 -0.51024871372E+01 -0.37759421610E+02 -0.20780142087E+02  0.47787267282E+02  0.19999982844E+02 0.  0.
         12    1    3    3    0    0  0.51024871372E+01  0.37759421610E+02  0.20780142087E+02  0.43400732718E+02  0.00000000000E+00 0. -1.
         11    1    4    4    0    0 -0.20236992912E+01 -0.38658348738E+01  0.22223032801E+01  0.48968020403E+01  0.51100000000E-03 0.  1.
        -11    1    4    4    0    0 -0.11868901411E+01  0.68579304121E+00 -0.18778762020E+01  0.23249601273E+01  0.51100000000E-03 0. -1.
        -12    1    4    4    0    0 -0.18918977049E+01 -0.34579379778E+02 -0.21124569165E+02  0.40565505114E+02  0.00000000000E+00 0.  1.
</event>
<event>
 8    1  0.4042158E-011  0.9118800E+02  0.7816164E-02  0.1184000E+00
        -11   -1    0    0    0    0  0.00000000000E+00  0.00000000000E+00  0.45593999997E+02  0.45594000000E+02  0.51100000000E-03 0. -1.
         11   -1    0    0    0    0 -0.00000000000E+00 -0.00000000000E+00 -0.45593999997E+02  0.45594000000E+02  0.51100000000E-03 0.  1.
         23    2    1    2    0    0  0.00000000000E+00  0.17763568394E-14  0.00000000000E+00  0.91188000000E+02  0.91188000000E+02 0.  0.
    9900012    2    3    3    0    0 -0.15053853733E+02  0.14104125565E+02 -0.38184789714E+02  0.47787273789E+02  0.20000012515E+02 0.  0.
         12    1    3    3    0    0  0.15053853733E+02 -0.14104125565E+02  0.38184789714E+02  0.43400726211E+02  0.00000000000E+00 0. -1.
         11    1    4    4    0    0 -0.13002992551E+01  0.72196879712E+01 -0.68023352553E+01  0.10004320954E+02  0.51100000000E-03 0. -1.
        -11    1    4    4    0    0 -0.11748245447E+02  0.11014586880E+02 -0.26987897275E+02  0.31427519705E+02  0.51100000000E-03 0.  1.
        -12    1    4    4    0    0 -0.20053090309E+01 -0.41301492872E+01 -0.43945571837E+01  0.63554331311E+01  0.00000000000E+00 0.  1.
</event>
<event>
 8    1  0.4042158E-011  0.9118800E+02  0.7816164E-02  0.1184000E+00
        -11   -1    0    0    0    0  0.00000000000E+00  0.00000000000E+00  0.45593999997E+02  0.45594000000E+02  0.51100000000E-03 0. -1.
         11   -1    0    0    0    0 -0.00000000000E+00 -0.00000000000E+00 -0.45593999997E+02  0.45594000000E+02  0.51100000000E-03 0.  1.
         23    2    1    2    0    0  0.00000000000E+00  0.00000000000E+00  0.00000000000E+00  0.91188000000E+02  0.91188000000E+02 0.  0.
    9900012    2    3    3    0    0 -0.29073614716E+02  0.10249142573E+02 -0.30549994345E+02  0.47787283985E+02  0.20000059002E+02 0.  0.
         12    1    3    3    0    0  0.29073614716E+02 -0.10249142573E+02  0.30549994345E+02  0.43400716015E+02  0.00000000000E+00 0. -1.
         11    1    4    4    0    0 -0.82171036950E+01 -0.29141440364E+01 -0.64438879567E+01  0.10841435369E+02  0.51100000000E-03 0. -1.
        -11    1    4    4    0    0 -0.11846031391E+02  0.12907837262E-01 -0.80649229859E+01  0.14330792349E+02  0.51100000000E-03 0.  1.
         12    1    4    4    0    0 -0.90104796302E+01  0.13150378772E+02 -0.16041183402E+02  0.22615056267E+02  0.00000000000E+00 0. -1.
</event>
<event>
 8    1  0.4042158E-011  0.9118800E+02  0.7816164E-02  0.1184000E+00
        -11   -1    0    0    0    0  0.00000000000E+00  0.00000000000E+00  0.45593999997E+02  0.45594000000E+02  0.51100000000E-03 0.  1.
         11   -1    0    0    0    0 -0.00000000000E+00 -0.00000000000E+00 -0.45593999997E+02  0.45594000000E+02  0.51100000000E-03 0. -1.
         23    2    1    2    0    0  0.00000000000E+00  0.00000000000E+00  0.44408920985E-15  0.91188000000E+02  0.91188000000E+02 0.  0.
    9900012    2    3    3    0    0 -0.25822975737E+02  0.34744163563E+02 -0.31048823662E+01  0.47787271065E+02  0.20000000094E+02 0.  0.
         12    1    3    3    0    0  0.25822975737E+02 -0.34744163563E+02  0.31048823662E+01  0.43400728935E+02  0.00000000000E+00 0. -1.
         11    1    4    4    0    0  0.68305226973E-01  0.68246264185E+01 -0.72971554516E+00  0.68638674517E+01  0.51100000000E-03 0. -1.
        -11    1    4    4    0    0 -0.15908019668E+02  0.23004969322E+02 -0.70651313589E+01  0.28848046461E+02  0.51100000000E-03 0.  1.
         12    1    4    4    0    0 -0.99832612961E+01  0.49145678229E+01  0.46899645378E+01  0.12075357152E+02  0.00000000000E+00 0. -1.
</event>
<event>
 8    1  0.4042158E-011  0.9118800E+02  0.7816164E-02  0.1184000E+00
        -11   -1    0    0    0    0  0.00000000000E+00  0.00000000000E+00  0.45593999997E+02  0.45594000000E+02  0.51100000000E-03 0. -1.
         11   -1    0    0    0    0 -0.00000000000E+00 -0.00000000000E+00 -0.45593999997E+02  0.45594000000E+02  0.51100000000E-03 0.  1.
         23    2    1    2    0    0  0.00000000000E+00  0.88817841970E-15  0.00000000000E+00  0.91188000000E+02  0.91188000000E+02 0.  0.
    9900012    2    3    3    0    0  0.58070454334E+01  0.62511852666E+01  0.42553778405E+02  0.47787272466E+02  0.20000006483E+02 0.  0.
        -12    1    3    3    0    0 -0.58070454334E+01 -0.62511852666E+01 -0.42553778405E+02  0.43400727534E+02  0.00000000000E+00 0.  1.
         11    1    4    4    0    0 -0.11669010121E-01  0.65182642180E+01  0.19105827856E+02  0.20187138552E+02  0.51100000000E-03 0. -1.
        -11    1    4    4    0    0 -0.41386481235E+01  0.69449986000E-01  0.40385413350E+01  0.57829964522E+01  0.51100000000E-03 0.  1.
         12    1    4    4    0    0  0.99573625670E+01 -0.33652893741E+00  0.19409409214E+02  0.21817137462E+02  0.00000000000E+00 0. -1.
</event>
<event>
 8    1  0.4042158E-011  0.9118800E+02  0.7816164E-02  0.1184000E+00
        -11   -1    0    0    0    0  0.00000000000E+00  0.00000000000E+00  0.45593999997E+02  0.45594000000E+02  0.51100000000E-03 0. -1.
         11   -1    0    0    0    0 -0.00000000000E+00 -0.00000000000E+00 -0.45593999997E+02  0.45594000000E+02  0.51100000000E-03 0.  1.
         23    2    1    2    0    0  0.17763568394E-14  0.00000000000E+00  0.00000000000E+00  0.91188000000E+02  0.91188000000E+02 0.  0.
    9900012    2    3    3    0    0 -0.14701427172E+02 -0.17376718291E+02  0.36953226304E+02  0.47787271507E+02  0.20000002110E+02 0.  0.
        -12    1    3    3    0    0  0.14701427172E+02  0.17376718291E+02 -0.36953226304E+02  0.43400728493E+02  0.00000000000E+00 0.  1.
         11    1    4    4    0    0 -0.71376332732E+01  0.10126772303E+01  0.42959722933E+01  0.83920618517E+01  0.51100000000E-03 0. -1.
        -11    1    4    4    0    0 -0.27159451773E+01  0.19517832669E+00  0.54415735813E+01  0.60848316400E+01  0.51100000000E-03 0.  1.
        -12    1    4    4    0    0 -0.48478487215E+01 -0.18584573848E+02  0.27215680429E+02  0.33310378016E+02  0.00000000000E+00 0.  1.
</event>
<event>
 8    1  0.4042158E-011  0.9118800E+02  0.7816164E-02  0.1184000E+00
        -11   -1    0    0    0    0  0.00000000000E+00  0.00000000000E+00  0.45593999997E+02  0.45594000000E+02  0.51100000000E-03 0. -1.
         11   -1    0    0    0    0 -0.00000000000E+00 -0.00000000000E+00 -0.45593999997E+02  0.45594000000E+02  0.51100000000E-03 0.  1.
         23    2    1    2    0    0  0.17763568394E-14 -0.88817841970E-15  0.00000000000E+00  0.91188000000E+02  0.91188000000E+02 0.  0.
    9900012    2    3    3    0    0 -0.10242294514E+02 -0.45218554814E+01  0.41931747113E+02  0.47787272012E+02  0.20000004413E+02 0.  0.
        -12    1    3    3    0    0  0.10242294514E+02  0.45218554814E+01 -0.41931747113E+02  0.43400727988E+02  0.00000000000E+00 0.  1.
         11    1    4    4    0    0 -0.12691773103E+02  0.28948642075E+01  0.24519527938E+02  0.27760918462E+02  0.51100000000E-03 0. -1.
        -11    1    4    4    0    0 -0.34175857951E-01  0.90239057950E+00  0.54200481457E+00  0.10532075899E+01  0.51100000000E-03 0.  1.
        -12    1    4    4    0    0  0.24836544470E+01 -0.83191102685E+01  0.16870214361E+02  0.18973145961E+02  0.00000000000E+00 0.  1.
</event>
<event>
 8    1  0.4042158E-011  0.9118800E+02  0.7816164E-02  0.1184000E+00
        -11   -1    0    0    0    0  0.00000000000E+00  0.00000000000E+00  0.45593999997E+02  0.45594000000E+02  0.51100000000E-03 0.  1.
         11   -1    0    0    0    0 -0.00000000000E+00 -0.00000000000E+00 -0.45593999997E+02  0.45594000000E+02  0.51100000000E-03 0. -1.
         23    2    1    2    0    0 -0.71054273576E-14  0.22204460493E-15  0.00000000000E+00  0.91188000000E+02  0.91188000000E+02 0.  0.
    9900012    2    3    3    0    0  0.41306571403E+02 -0.14245978569E+01 -0.13242359506E+02  0.47787281050E+02  0.20000045617E+02 0.  0.
         12    1    3    3    0    0 -0.41306571403E+02  0.14245978569E+01  0.13242359506E+02  0.43400718950E+02  0.00000000000E+00 0. -1.
         11    1    4    4    0    0  0.35797729330E+02  0.14209738555E+01 -0.11966173938E+02  0.37771496011E+02  0.51100000000E-03 0. -1.
        -11    1    4    4    0    0  0.23122765874E+01  0.25004291136E+01  0.70818319121E+00  0.34785474644E+01  0.51100000000E-03 0.  1.
         12    1    4    4    0    0  0.31965654854E+01 -0.53460008259E+01 -0.19843687591E+01  0.65372375745E+01  0.00000000000E+00 0. -1.
</event>
<event>
 8    1  0.4042158E-011  0.9118800E+02  0.7816164E-02  0.1184000E+00
        -11   -1    0    0    0    0  0.00000000000E+00  0.00000000000E+00  0.45593999997E+02  0.45594000000E+02  0.51100000000E-03 0. -1.
         11   -1    0    0    0    0 -0.00000000000E+00 -0.00000000000E+00 -0.45593999997E+02  0.45594000000E+02  0.51100000000E-03 0.  1.
         23    2    1    2    0    0 -0.88817841970E-15 -0.71054273576E-14  0.00000000000E+00  0.91188000000E+02  0.91188000000E+02 0.  0.
    9900012    2    3    3    0    0 -0.26276126536E+01 -0.40267571248E+02  0.15976259610E+02  0.47787279804E+02  0.20000039936E+02 0.  0.
        -12    1    3    3    0    0  0.26276126536E+01  0.40267571248E+02 -0.15976259610E+02  0.43400720196E+02  0.00000000000E+00 0.  1.
         11    1    4    4    0    0  0.36540321422E+01 -0.17397605462E+02  0.35622798333E+01  0.18130594711E+02  0.51100000000E-03 0.  1.
        -11    1    4    4    0    0 -0.73674663686E+00 -0.46117224757E+01 -0.26282742311E+01  0.53589742951E+01  0.51100000000E-03 0. -1.
         12    1    4    4    0    0 -0.55448981590E+01 -0.18258243310E+02  0.15042254008E+02  0.24297710797E+02  0.00000000000E+00 0. -1.
</event>
<event>
 8    1  0.4042158E-011  0.9118800E+02  0.7816164E-02  0.1184000E+00
        -11   -1    0    0    0    0  0.00000000000E+00  0.00000000000E+00  0.45593999997E+02  0.45594000000E+02  0.51100000000E-03 0. -1.
         11   -1    0    0    0    0 -0.00000000000E+00 -0.00000000000E+00 -0.45593999997E+02  0.45594000000E+02  0.51100000000E-03 0.  1.
         23    2    1    2    0    0  0.22204460493E-15  0.00000000000E+00  0.00000000000E+00  0.91188000000E+02  0.91188000000E+02 0.  0.
    9900012    2    3    3    0    0  0.19390155676E+01  0.13339744566E+02  0.41254268843E+02  0.47787271156E+02  0.20000000507E+02 0.  0.
        -12    1    3    3    0    0 -0.19390155676E+01 -0.13339744566E+02 -0.41254268843E+02  0.43400728844E+02  0.00000000000E+00 0.  1.
         11    1    4    4    0    0 -0.44129330870E+01  0.34085057640E+01  0.88831507213E+01  0.10488196078E+02  0.51100000000E-03 0. -1.
        -11    1    4    4    0    0  0.21827718421E+01  0.84572602426E+01  0.60884990351E+01  0.10647044871E+02  0.51100000000E-03 0.  1.
        -12    1    4    4    0    0  0.41691768124E+01  0.14739785594E+01  0.26282619086E+02  0.26652030207E+02  0.00000000000E+00 0.  1.
</event>
<event>
 8    1  0.4042158E-011  0.9118800E+02  0.7816164E-02  0.1184000E+00
        -11   -1    0    0    0    0  0.00000000000E+00  0.00000000000E+00  0.45593999997E+02  0.45594000000E+02  0.51100000000E-03 0. -1.
         11   -1    0    0    0    0 -0.00000000000E+00 -0.00000000000E+00 -0.45593999997E+02  0.45594000000E+02  0.51100000000E-03 0.  1.
         23    2    1    2    0    0  0.17763568394E-14  0.00000000000E+00  0.00000000000E+00  0.91188000000E+02  0.91188000000E+02 0.  0.
    9900012    2    3    3    0    0 -0.12521207528E+02 -0.24844721529E+02  0.33310397488E+02  0.47787269515E+02  0.19999993026E+02 0.  0.
        -12    1    3    3    0    0  0.12521207528E+02  0.24844721529E+02 -0.33310397488E+02  0.43400730485E+02  0.00000000000E+00 0.  1.
         11    1    4    4    0    0  0.40924119915E+00 -0.53972655102E+01  0.63926622679E+01  0.83764004489E+01  0.51100000000E-03 0. -1.
        -11    1    4    4    0    0  0.38179941994E+01 -0.14672031549E+01  0.52063898187E+01  0.66208957105E+01  0.51100000000E-03 0.  1.
         12    1    4    4    0    0 -0.16748442926E+02 -0.17980252864E+02  0.21711345402E+02  0.32789973356E+02  0.00000000000E+00 0. -1.
</event>
<event>
 8    1  0.4042158E-011  0.9118800E+02  0.7816164E-02  0.1184000E+00
        -11   -1    0    0    0    0  0.00000000000E+00  0.00000000000E+00  0.45593999997E+02  0.45594000000E+02  0.51100000000E-03 0. -1.
         11   -1    0    0    0    0 -0.00000000000E+00 -0.00000000000E+00 -0.45593999997E+02  0.45594000000E+02  0.51100000000E-03 0.  1.
         23    2    1    2    0    0  0.00000000000E+00 -0.17763568394E-14  0.00000000000E+00  0.91188000000E+02  0.91188000000E+02 0.  0.
    9900012    2    3    3    0    0  0.39210532814E+01  0.13075676402E+02  0.41198001653E+02  0.47787270601E+02  0.19999997978E+02 0.  0.
        -12    1    3    3    0    0 -0.39210532814E+01 -0.13075676402E+02 -0.41198001653E+02  0.43400729399E+02  0.00000000000E+00 0.  1.
         11    1    4    4    0    0  0.33105826595E+01  0.11107665085E+02  0.11561599672E+02  0.16371034433E+02  0.51100000000E-03 0. -1.
        -11    1    4    4    0    0 -0.32311020821E+01  0.68070461949E+00  0.29618659369E+01  0.44357670738E+01  0.51100000000E-03 0.  1.
        -12    1    4    4    0    0  0.38415727040E+01  0.12873066981E+01  0.26674536044E+02  0.26980469094E+02  0.00000000000E+00 0.  1.
</event>
<event>
 8    1  0.4042158E-011  0.9118800E+02  0.7816164E-02  0.1184000E+00
        -11   -1    0    0    0    0  0.00000000000E+00  0.00000000000E+00  0.45593999997E+02  0.45594000000E+02  0.51100000000E-03 0. -1.
         11   -1    0    0    0    0 -0.00000000000E+00 -0.00000000000E+00 -0.45593999997E+02  0.45594000000E+02  0.51100000000E-03 0.  1.
         23    2    1    2    0    0 -0.44408920985E-15  0.88817841970E-15  0.00000000000E+00  0.91188000000E+02  0.91188000000E+02 0.  0.
    9900012    2    3    3    0    0  0.23618604604E+01 -0.57817458536E+01 -0.42948998421E+02  0.47787269184E+02  0.19999991518E+02 0.  0.
         12    1    3    3    0    0 -0.23618604604E+01  0.57817458536E+01  0.42948998421E+02  0.43400730816E+02  0.00000000000E+00 0. -1.
         11    1    4    4    0    0 -0.12543060293E+01 -0.64567857460E+01 -0.10456041072E+02  0.12352819959E+02  0.51100000000E-03 0.  1.
        -11    1    4    4    0    0  0.31723318723E+00 -0.61735982083E+01 -0.10746540346E+02  0.12397664353E+02  0.51100000000E-03 0. -1.
         12    1    4    4    0    0  0.32989333025E+01  0.68486381007E+01 -0.21746417003E+02  0.23036784872E+02  0.00000000000E+00 0. -1.
</event>
<event>
 8    1  0.4042158E-011  0.9118800E+02  0.7816164E-02  0.1184000E+00
        -11   -1    0    0    0    0  0.00000000000E+00  0.00000000000E+00  0.45593999997E+02  0.45594000000E+02  0.51100000000E-03 0. -1.
         11   -1    0    0    0    0 -0.00000000000E+00 -0.00000000000E+00 -0.45593999997E+02  0.45594000000E+02  0.51100000000E-03 0.  1.
         23    2    1    2    0    0  0.00000000000E+00 -0.66613381478E-15  0.00000000000E+00  0.91188000000E+02  0.91188000000E+02 0.  0.
    9900012    2    3    3    0    0 -0.16968306465E+02  0.17439549645E+01 -0.39908128069E+02  0.47787268564E+02  0.19999988693E+02 0.  0.
         12    1    3    3    0    0  0.16968306465E+02 -0.17439549645E+01  0.39908128069E+02  0.43400731436E+02  0.00000000000E+00 0. -1.
         11    1    4    4    0    0 -0.72449983149E+01  0.76544683633E+01 -0.13007761516E+02  0.16741647064E+02  0.51100000000E-03 0. -1.
        -11    1    4    4    0    0 -0.96440265429E+01 -0.57335501419E-01 -0.16618228731E+02  0.19213954869E+02  0.51100000000E-03 0.  1.
        -12    1    4    4    0    0 -0.79281607078E-01 -0.58531778974E+01 -0.10282137822E+02  0.11831666631E+02  0.00000000000E+00 0.  1.
</event>
<event>
 8    1  0.4042158E-011  0.9118800E+02  0.7816164E-02  0.1184000E+00
        -11   -1    0    0    0    0  0.00000000000E+00  0.00000000000E+00  0.45593999997E+02  0.45594000000E+02  0.51100000000E-03 0.  1.
         11   -1    0    0    0    0 -0.00000000000E+00 -0.00000000000E+00 -0.45593999997E+02  0.45594000000E+02  0.51100000000E-03 0. -1.
         23    2    1    2    0    0  0.00000000000E+00  0.00000000000E+00  0.00000000000E+00  0.91188000000E+02  0.91188000000E+02 0.  0.
    9900012    2    3    3    0    0 -0.41017048956E+01 -0.41486261324E+02  0.12070246674E+02  0.47787254425E+02  0.19999924227E+02 0.  0.
        -12    1    3    3    0    0  0.41017048956E+01  0.41486261324E+02 -0.12070246674E+02  0.43400745575E+02  0.00000000000E+00 0.  1.
         11    1    4    4    0    0 -0.10997685188E+01 -0.35179399349E+01  0.87036151835E+00  0.37872049871E+01  0.51100000000E-03 0. -1.
        -11    1    4    4    0    0  0.46272869813E+01 -0.46427618220E+01 -0.27072317761E+01  0.70919761910E+01  0.51100000000E-03 0.  1.
         12    1    4    4    0    0 -0.76292233581E+01 -0.33325559567E+02  0.13907116932E+02  0.36908073247E+02  0.00000000000E+00 0. -1.
</event>
<event>
 8    1  0.4042158E-011  0.9118800E+02  0.7816164E-02  0.1184000E+00
        -11   -1    0    0    0    0  0.00000000000E+00  0.00000000000E+00  0.45593999997E+02  0.45594000000E+02  0.51100000000E-03 0. -1.
         11   -1    0    0    0    0 -0.00000000000E+00 -0.00000000000E+00 -0.45593999997E+02  0.45594000000E+02  0.51100000000E-03 0.  1.
         23    2    1    2    0    0  0.00000000000E+00  0.00000000000E+00  0.71054273576E-14  0.91188000000E+02  0.91188000000E+02 0.  0.
    9900012    2    3    3    0    0 -0.20245477015E+02 -0.10868887130E+02  0.36818619029E+02  0.47787277031E+02  0.20000027295E+02 0.  0.
        -12    1    3    3    0    0  0.20245477015E+02  0.10868887130E+02 -0.36818619029E+02  0.43400722969E+02  0.00000000000E+00 0.  1.
         11    1    4    4    0    0 -0.71639420777E+00  0.30945914240E+01  0.40037582917E+01  0.51107531209E+01  0.51100000000E-03 0. -1.
        -11    1    4    4    0    0 -0.48037264872E+00 -0.70705819044E+00 -0.12155709272E+01  0.14860357016E+01  0.51100000000E-03 0.  1.
         12    1    4    4    0    0 -0.19048710159E+02 -0.13256420364E+02  0.34030431665E+02  0.41190488208E+02  0.00000000000E+00 0. -1.
</event>
<event>
 8    1  0.4042158E-011  0.9118800E+02  0.7816164E-02  0.1184000E+00
        -11   -1    0    0    0    0  0.00000000000E+00  0.00000000000E+00  0.45593999997E+02  0.45594000000E+02  0.51100000000E-03 0. -1.
         11   -1    0    0    0    0 -0.00000000000E+00 -0.00000000000E+00 -0.45593999997E+02  0.45594000000E+02  0.51100000000E-03 0.  1.
         23    2    1    2    0    0  0.35527136788E-14 -0.35527136788E-14  0.17763568394E-14  0.91188000000E+02  0.91188000000E+02 0.  0.
    9900012    2    3    3    0    0 -0.30023616040E+02  0.30080033997E+02 -0.87975624556E+01  0.47787273387E+02  0.20000010682E+02 0.  0.
         12    1    3    3    0    0  0.30023616040E+02 -0.30080033997E+02  0.87975624556E+01  0.43400726613E+02  0.00000000000E+00 0. -1.
         11    1    4    4    0    0 -0.99205198849E+01  0.16571916226E+01 -0.72565887362E-01  0.10058243630E+02  0.51100000000E-03 0. -1.
        -11    1    4    4    0    0 -0.22323486961E+01 -0.85943136876E+00 -0.35851878319E+00  0.24187887377E+01  0.51100000000E-03 0.  1.
        -12    1    4    4    0    0 -0.17870747459E+02  0.29282273743E+02 -0.83664777850E+01  0.35310241019E+02  0.00000000000E+00 0.  1.
</event>
<event>
 8    1  0.4042158E-011  0.9118800E+02  0.7816164E-02  0.1184000E+00
        -11   -1    0    0    0    0  0.00000000000E+00  0.00000000000E+00  0.45593999997E+02  0.45594000000E+02  0.51100000000E-03 0. -1.
         11   -1    0    0    0    0 -0.00000000000E+00 -0.00000000000E+00 -0.45593999997E+02  0.45594000000E+02  0.51100000000E-03 0.  1.
         23    2    1    2    0    0  0.00000000000E+00  0.00000000000E+00  0.00000000000E+00  0.91188000000E+02  0.91188000000E+02 0.  0.
    9900012    2    3    3    0    0  0.16384763226E+02 -0.18768014120E+02  0.35537668975E+02  0.47787254198E+02  0.19999923191E+02 0.  0.
        -12    1    3    3    0    0 -0.16384763226E+02  0.18768014120E+02 -0.35537668975E+02  0.43400745802E+02  0.00000000000E+00 0.  1.
         11    1    4    4    0    0 -0.18148765501E+00  0.74246275937E+00 -0.77053411982E+00  0.10853164556E+01  0.51100000000E-03 0. -1.
        -11    1    4    4    0    0  0.26756326171E-01 -0.16060015322E+01  0.12589720141E+02  0.12691769392E+02  0.51100000000E-03 0.  1.
         12    1    4    4    0    0  0.16539494555E+02 -0.17904475347E+02  0.23718482954E+02  0.34010168351E+02  0.00000000000E+00 0. -1.
</event>
<event>
 8    1  0.4042158E-011  0.9118800E+02  0.7816164E-02  0.1184000E+00
        -11   -1    0    0    0    0  0.00000000000E+00  0.00000000000E+00  0.45593999997E+02  0.45594000000E+02  0.51100000000E-03 0. -1.
         11   -1    0    0    0    0 -0.00000000000E+00 -0.00000000000E+00 -0.45593999997E+02  0.45594000000E+02  0.51100000000E-03 0.  1.
         23    2    1    2    0    0  0.00000000000E+00  0.00000000000E+00  0.00000000000E+00  0.91188000000E+02  0.91188000000E+02 0.  0.
    9900012    2    3    3    0    0  0.39913101492E+02 -0.14758880343E+02 -0.85289186591E+01  0.47787277964E+02  0.20000031550E+02 0.  0.
         12    1    3    3    0    0 -0.39913101492E+02  0.14758880343E+02  0.85289186591E+01  0.43400722036E+02  0.00000000000E+00 0. -1.
         11    1    4    4    0    0  0.30276735916E+01 -0.77708226812E+01 -0.91267583237E+00  0.83896048749E+01  0.51100000000E-03 0. -1.
        -11    1    4    4    0    0  0.16860477200E+02 -0.78767575252E+01 -0.36067622342E+01  0.18955941934E+02  0.51100000000E-03 0.  1.
        -12    1    4    4    0    0  0.20024950701E+02  0.88869986346E+00 -0.40094805925E+01  0.20441731155E+02  0.00000000000E+00 0.  1.
</event>
<event>
 8    1  0.4042158E-011  0.9118800E+02  0.7816164E-02  0.1184000E+00
        -11   -1    0    0    0    0  0.00000000000E+00  0.00000000000E+00  0.45593999997E+02  0.45594000000E+02  0.51100000000E-03 0.  1.
         11   -1    0    0    0    0 -0.00000000000E+00 -0.00000000000E+00 -0.45593999997E+02  0.45594000000E+02  0.51100000000E-03 0. -1.
         23    2    1    2    0    0  0.00000000000E+00  0.00000000000E+00  0.17763568394E-14  0.91188000000E+02  0.91188000000E+02 0.  0.
    9900012    2    3    3    0    0 -0.68076261332E+01  0.42044619819E+02  0.83383931654E+01  0.47787278464E+02  0.20000033828E+02 0.  0.
         12    1    3    3    0    0  0.68076261332E+01 -0.42044619819E+02 -0.83383931654E+01  0.43400721536E+02  0.00000000000E+00 0. -1.
         11    1    4    4    0    0 -0.13210887381E+01  0.49490984216E+00  0.11806199006E+01  0.18395855013E+01  0.51100000000E-03 0.  1.
        -11    1    4    4    0    0 -0.47013192018E+01  0.92608053753E+01  0.87926026416E+01  0.13607894029E+02  0.51100000000E-03 0. -1.
         12    1    4    4    0    0 -0.78521819330E+00  0.32288904601E+02 -0.16348293768E+01  0.32339798933E+02  0.00000000000E+00 0. -1.
</event>
<event>
 8    1  0.4042158E-011  0.9118800E+02  0.7816164E-02  0.1184000E+00
        -11   -1    0    0    0    0  0.00000000000E+00  0.00000000000E+00  0.45593999997E+02  0.45594000000E+02  0.51100000000E-03 0. -1.
         11   -1    0    0    0    0 -0.00000000000E+00 -0.00000000000E+00 -0.45593999997E+02  0.45594000000E+02  0.51100000000E-03 0.  1.
         23    2    1    2    0    0 -0.88817841970E-15 -0.22204460493E-15 -0.71054273576E-14  0.91188000000E+02  0.91188000000E+02 0.  0.
    9900012    2    3    3    0    0 -0.38387993559E+01  0.95434918174E+00 -0.43220086298E+02  0.47787273941E+02  0.20000013206E+02 0.  0.
         12    1    3    3    0    0  0.38387993559E+01 -0.95434918174E+00  0.43220086298E+02  0.43400726059E+02  0.00000000000E+00 0. -1.
         11    1    4    4    0    0 -0.56715904319E+01 -0.30450198904E+01 -0.12606743650E+02  0.14155178201E+02  0.51100000000E-03 0. -1.
        -11    1    4    4    0    0  0.34768253674E+01 -0.35313569140E+01 -0.19413919299E+02  0.20036443274E+02  0.51100000000E-03 0.  1.
         12    1    4    4    0    0 -0.16440342914E+01  0.75307259862E+01 -0.11199423349E+02  0.13595652466E+02  0.00000000000E+00 0. -1.
</event>
<event>
 8    1  0.4042158E-011  0.9118800E+02  0.7816164E-02  0.1184000E+00
        -11   -1    0    0    0    0  0.00000000000E+00  0.00000000000E+00  0.45593999997E+02  0.45594000000E+02  0.51100000000E-03 0. -1.
         11   -1    0    0    0    0 -0.00000000000E+00 -0.00000000000E+00 -0.45593999997E+02  0.45594000000E+02  0.51100000000E-03 0.  1.
         23    2    1    2    0    0  0.22204460493E-15  0.00000000000E+00  0.00000000000E+00  0.91188000000E+02  0.91188000000E+02 0.  0.
    9900012    2    3    3    0    0 -0.12797929848E+01 -0.11689859693E+02 -0.41777180091E+02  0.47787268830E+02  0.19999989904E+02 0.  0.
         12    1    3    3    0    0  0.12797929848E+01  0.11689859693E+02  0.41777180091E+02  0.43400731170E+02  0.00000000000E+00 0. -1.
         11    1    4    4    0    0 -0.37656928303E+01  0.29685693004E+01 -0.92844539968E+01  0.10449590062E+02  0.51100000000E-03 0.  1.
        -11    1    4    4    0    0  0.39786249737E+01 -0.37289793122E+00 -0.61658866611E+01  0.73475620534E+01  0.51100000000E-03 0. -1.
        -12    1    4    4    0    0 -0.14927251282E+01 -0.14285531062E+02 -0.26326839433E+02  0.29990116715E+02  0.00000000000E+00 0.  1.
</event>
<event>
 8    1  0.4042158E-011  0.9118800E+02  0.7816164E-02  0.1184000E+00
        -11   -1    0    0    0    0  0.00000000000E+00  0.00000000000E+00  0.45593999997E+02  0.45594000000E+02  0.51100000000E-03 0. -1.
         11   -1    0    0    0    0 -0.00000000000E+00 -0.00000000000E+00 -0.45593999997E+02  0.45594000000E+02  0.51100000000E-03 0.  1.
         23    2    1    2    0    0  0.35527136788E-14  0.35527136788E-14  0.00000000000E+00  0.91188000000E+02  0.91188000000E+02 0.  0.
    9900012    2    3    3    0    0  0.18013211959E+02  0.25348903661E+02  0.30275076933E+02  0.47787274140E+02  0.20000014113E+02 0.  0.
        -12    1    3    3    0    0 -0.18013211959E+02 -0.25348903661E+02 -0.30275076933E+02  0.43400725860E+02  0.00000000000E+00 0.  1.
         11    1    4    4    0    0  0.74729966369E+00  0.47859697720E+00  0.26286705186E+01  0.27744226084E+01  0.51100000000E-03 0. -1.
        -11    1    4    4    0    0  0.22692391890E+01 -0.30379914356E+01  0.22604541839E+01  0.44145771981E+01  0.51100000000E-03 0.  1.
        -12    1    4    4    0    0  0.14996673106E+02  0.27908298119E+02  0.25385952231E+02  0.40598274333E+02  0.00000000000E+00 0.  1.
</event>
<event>
 8    1  0.4042158E-011  0.9118800E+02  0.7816164E-02  0.1184000E+00
        -11   -1    0    0    0    0  0.00000000000E+00  0.00000000000E+00  0.45593999997E+02  0.45594000000E+02  0.51100000000E-03 0. -1.
         11   -1    0    0    0    0 -0.00000000000E+00 -0.00000000000E+00 -0.45593999997E+02  0.45594000000E+02  0.51100000000E-03 0.  1.
         23    2    1    2    0    0  0.00000000000E+00  0.22204460493E-15  0.00000000000E+00  0.91188000000E+02  0.91188000000E+02 0.  0.
    9900012    2    3    3    0    0 -0.31817584170E+02  0.14029139135E+01 -0.29483838142E+02  0.47787267961E+02  0.19999985944E+02 0.  0.
         12    1    3    3    0    0  0.31817584170E+02 -0.14029139135E+01  0.29483838142E+02  0.43400732039E+02  0.00000000000E+00 0. -1.
         11    1    4    4    0    0 -0.86458756937E+01  0.22536220536E+01  0.95195796924E-01  0.89352695187E+01  0.51100000000E-03 0. -1.
        -11    1    4    4    0    0 -0.44589022119E+01  0.38258953004E+01 -0.76813222903E+01  0.96706771310E+01  0.51100000000E-03 0.  1.
        -12    1    4    4    0    0 -0.18712806265E+02 -0.46766034406E+01 -0.21897711649E+02  0.29181321312E+02  0.00000000000E+00 0.  1.
</event>
<event>
 8    1  0.5188722E-011  0.9118800E+02  0.7816164E-02  0.1184000E+00
        -11   -1    0    0    0    0  0.00000000000E+00  0.00000000000E+00  0.45593999997E+02  0.45594000000E+02  0.51100000000E-03 0. -1.
         11   -1    0    0    0    0 -0.00000000000E+00 -0.00000000000E+00 -0.45593999997E+02  0.45594000000E+02  0.51100000000E-03 0.  1.
         23    2    1    2    0    0  0.17763568394E-14  0.00000000000E+00  0.00000000000E+00  0.91188000000E+02  0.91188000000E+02 0.  0.
    9900012    2    3    3    0    0  0.83920295976E+01  0.25325904874E+02  0.34231504414E+02  0.47787268291E+02  0.19999987444E+02 0.  0.
        -12    1    3    3    0    0 -0.83920295976E+01 -0.25325904874E+02 -0.34231504414E+02  0.43400731709E+02  0.00000000000E+00 0.  1.
         11    1    4    4    0    0  0.10468468832E+01  0.10234050602E+02  0.19780653500E+02  0.22295872562E+02  0.51100000000E-03 0. -1.
        -11    1    4    4    0    0 -0.15615361372E+01  0.61616449976E+01  0.10500585570E+02  0.12274630819E+02  0.51100000000E-03 0.  1.
        -12    1    4    4    0    0  0.89067188515E+01  0.89302092744E+01  0.39502653439E+01  0.13216764909E+02  0.00000000000E+00 0.  1.
</event>
<event>
 8    1  0.4042158E-011  0.9118800E+02  0.7816164E-02  0.1184000E+00
        -11   -1    0    0    0    0  0.00000000000E+00  0.00000000000E+00  0.45593999997E+02  0.45594000000E+02  0.51100000000E-03 0.  1.
         11   -1    0    0    0    0 -0.00000000000E+00 -0.00000000000E+00 -0.45593999997E+02  0.45594000000E+02  0.51100000000E-03 0. -1.
         23    2    1    2    0    0  0.17763568394E-14 -0.71054273576E-14 -0.17763568394E-14  0.91188000000E+02  0.91188000000E+02 0.  0.
    9900012    2    3    3    0    0 -0.93271983323E+01  0.41265036465E+02 -0.96862542595E+01  0.47787269767E+02  0.19999994177E+02 0.  0.
        -12    1    3    3    0    0  0.93271983323E+01 -0.41265036465E+02  0.96862542595E+01  0.43400730233E+02  0.00000000000E+00 0.  1.
         11    1    4    4    0    0 -0.62221008524E+01  0.36530011205E+02 -0.14341903133E+02  0.39734700746E+02  0.51100000000E-03 0. -1.
        -11    1    4    4    0    0 -0.32056831623E+01  0.40748386965E+01  0.24243453631E+01  0.57234749620E+01  0.51100000000E-03 0.  1.
         12    1    4    4    0    0  0.10058568242E+00  0.66018656315E+00  0.22313035108E+01  0.23290940589E+01  0.00000000000E+00 0. -1.
</event>
<event>
 8    1  0.4042158E-011  0.9118800E+02  0.7816164E-02  0.1184000E+00
        -11   -1    0    0    0    0  0.00000000000E+00  0.00000000000E+00  0.45593999997E+02  0.45594000000E+02  0.51100000000E-03 0.  1.
         11   -1    0    0    0    0 -0.00000000000E+00 -0.00000000000E+00 -0.45593999997E+02  0.45594000000E+02  0.51100000000E-03 0. -1.
         23    2    1    2    0    0  0.00000000000E+00  0.00000000000E+00 -0.71054273576E-14  0.91188000000E+02  0.91188000000E+02 0.  0.
    9900012    2    3    3    0    0 -0.72044012994E+01 -0.25538518813E+02 -0.34343908140E+02  0.47787269965E+02  0.19999995081E+02 0.  0.
         12    1    3    3    0    0  0.72044012994E+01  0.25538518813E+02  0.34343908140E+02  0.43400730035E+02  0.00000000000E+00 0. -1.
         11    1    4    4    0    0  0.12794280867E+01 -0.61433041074E+01 -0.36819549170E+01  0.72755696586E+01  0.51100000000E-03 0. -1.
        -11    1    4    4    0    0  0.20883283591E+01 -0.10494368208E+02 -0.60685616963E+01  0.12301232489E+02  0.51100000000E-03 0.  1.
         12    1    4    4    0    0 -0.10572157745E+02 -0.89008464975E+01 -0.24593391526E+02  0.28210467818E+02  0.00000000000E+00 0. -1.
</event>
<event>
 8    1  0.4042158E-011  0.9118800E+02  0.7816164E-02  0.1184000E+00
        -11   -1    0    0    0    0  0.00000000000E+00  0.00000000000E+00  0.45593999997E+02  0.45594000000E+02  0.51100000000E-03 0.  1.
         11   -1    0    0    0    0 -0.00000000000E+00 -0.00000000000E+00 -0.45593999997E+02  0.45594000000E+02  0.51100000000E-03 0. -1.
         23    2    1    2    0    0  0.00000000000E+00 -0.88817841970E-15 -0.35527136788E-14  0.91188000000E+02  0.91188000000E+02 0.  0.
    9900012    2    3    3    0    0  0.38406716027E+02 -0.47204356675E+01 -0.19653625345E+02  0.47787270305E+02  0.19999996629E+02 0.  0.
         12    1    3    3    0    0 -0.38406716027E+02  0.47204356675E+01  0.19653625345E+02  0.43400729695E+02  0.00000000000E+00 0. -1.
         11    1    4    4    0    0  0.85383630025E+01 -0.47314082575E+01 -0.43591944024E+01  0.10690764377E+02  0.51100000000E-03 0. -1.
        -11    1    4    4    0    0  0.25033671053E+02 -0.63287300643E+01 -0.11481908418E+02  0.28259011515E+02  0.51100000000E-03 0.  1.
         12    1    4    4    0    0  0.48346819715E+01  0.63397026543E+01 -0.38125225243E+01  0.88374944135E+01  0.00000000000E+00 0. -1.
</event>
<event>
 8    1  0.4307371E-011  0.9118800E+02  0.7816164E-02  0.1184000E+00
        -11   -1    0    0    0    0  0.00000000000E+00  0.00000000000E+00  0.45593999997E+02  0.45594000000E+02  0.51100000000E-03 0. -1.
         11   -1    0    0    0    0 -0.00000000000E+00 -0.00000000000E+00 -0.45593999997E+02  0.45594000000E+02  0.51100000000E-03 0.  1.
         23    2    1    2    0    0 -0.35527136788E-14  0.71054273576E-14 -0.17763568394E-14  0.91188000000E+02  0.91188000000E+02 0.  0.
    9900012    2    3    3    0    0  0.23598356170E+02 -0.35640959879E+02  0.75142225277E+01  0.47787262965E+02  0.19999963162E+02 0.  0.
        -12    1    3    3    0    0 -0.23598356170E+02  0.35640959879E+02 -0.75142225277E+01  0.43400737035E+02  0.00000000000E+00 0.  1.
         11    1    4    4    0    0  0.18297047803E+02 -0.22542724779E+02  0.86533581136E+01  0.30295824889E+02  0.51100000000E-03 0. -1.
        -11    1    4    4    0    0  0.26243343541E+01 -0.26999658555E+01  0.40808407589E+01  0.55524956537E+01  0.51100000000E-03 0.  1.
        -12    1    4    4    0    0  0.26769740131E+01 -0.10398269244E+02 -0.52199763449E+01  0.11938942423E+02  0.00000000000E+00 0.  1.
</event>
<event>
 8    1  0.4042158E-011  0.9118800E+02  0.7816164E-02  0.1184000E+00
        -11   -1    0    0    0    0  0.00000000000E+00  0.00000000000E+00  0.45593999997E+02  0.45594000000E+02  0.51100000000E-03 0. -1.
         11   -1    0    0    0    0 -0.00000000000E+00 -0.00000000000E+00 -0.45593999997E+02  0.45594000000E+02  0.51100000000E-03 0.  1.
         23    2    1    2    0    0  0.35527136788E-14  0.00000000000E+00  0.35527136788E-14  0.91188000000E+02  0.91188000000E+02 0.  0.
    9900012    2    3    3    0    0 -0.27146458947E+02  0.23418147726E+02 -0.24459839602E+02  0.47787266946E+02  0.19999981312E+02 0.  0.
         12    1    3    3    0    0  0.27146458947E+02 -0.23418147726E+02  0.24459839602E+02  0.43400733054E+02  0.00000000000E+00 0. -1.
         11    1    4    4    0    0 -0.60827907440E+01  0.15130199470E+02 -0.38907923971E+01  0.16764890247E+02  0.51100000000E-03 0. -1.
        -11    1    4    4    0    0 -0.13556958747E+02  0.38425246732E+01 -0.98043427650E+01  0.17166282756E+02  0.51100000000E-03 0.  1.
        -12    1    4    4    0    0 -0.75067094561E+01  0.44454235829E+01 -0.10764704440E+02  0.13856093943E+02  0.00000000000E+00 0.  1.
</event>
<event>
 8    1  0.4042158E-011  0.9118800E+02  0.7816164E-02  0.1184000E+00
        -11   -1    0    0    0    0  0.00000000000E+00  0.00000000000E+00  0.45593999997E+02  0.45594000000E+02  0.51100000000E-03 0. -1.
         11   -1    0    0    0    0 -0.00000000000E+00 -0.00000000000E+00 -0.45593999997E+02  0.45594000000E+02  0.51100000000E-03 0.  1.
         23    2    1    2    0    0  0.00000000000E+00  0.00000000000E+00 -0.35527136788E-14  0.91188000000E+02  0.91188000000E+02 0.  0.
    9900012    2    3    3    0    0 -0.28037603859E+02  0.19361807440E+02  0.26881975676E+02  0.47787223121E+02  0.19999781497E+02 0.  0.
        -12    1    3    3    0    0  0.28037603859E+02 -0.19361807440E+02 -0.26881975676E+02  0.43400776879E+02  0.00000000000E+00 0.  1.
         11    1    4    4    0    0  0.54848773725E+00  0.58344023970E+01  0.30100001826E+01  0.65879580666E+01  0.51100000000E-03 0. -1.
        -11    1    4    4    0    0 -0.34066181010E+01  0.65768198916E+01  0.43561949218E+01  0.85927900726E+01  0.51100000000E-03 0.  1.
         12    1    4    4    0    0 -0.25179473495E+02  0.69505851510E+01  0.19515780571E+02  0.32606474982E+02  0.00000000000E+00 0. -1.
</event>
<event>
 8    1  0.4042158E-011  0.9118800E+02  0.7816164E-02  0.1184000E+00
        -11   -1    0    0    0    0  0.00000000000E+00  0.00000000000E+00  0.45593999997E+02  0.45594000000E+02  0.51100000000E-03 0. -1.
         11   -1    0    0    0    0 -0.00000000000E+00 -0.00000000000E+00 -0.45593999997E+02  0.45594000000E+02  0.51100000000E-03 0.  1.
         23    2    1    2    0    0 -0.17763568394E-14  0.00000000000E+00  0.00000000000E+00  0.91188000000E+02  0.91188000000E+02 0.  0.
    9900012    2    3    3    0    0  0.24312828877E+01  0.24096908092E+01  0.43265566119E+02  0.47787228603E+02  0.19999806490E+02 0.  0.
        -12    1    3    3    0    0 -0.24312828877E+01 -0.24096908092E+01 -0.43265566119E+02  0.43400771397E+02  0.00000000000E+00 0.  1.
         11    1    4    4    0    0  0.43715567923E+01 -0.34967320468E+01  0.69148437011E+01  0.88967807362E+01  0.51100000000E-03 0. -1.
        -11    1    4    4    0    0  0.33359463636E+01  0.37902832634E+01  0.52866635748E+01  0.73105127981E+01  0.51100000000E-03 0.  1.
         12    1    4    4    0    0 -0.52762202682E+01  0.21161395926E+01  0.31064058843E+02  0.31579935068E+02  0.00000000000E+00 0. -1.
</event>
<event>
 8    1  0.4042158E-011  0.9118800E+02  0.7816164E-02  0.1184000E+00
        -11   -1    0    0    0    0  0.00000000000E+00  0.00000000000E+00  0.45593999997E+02  0.45594000000E+02  0.51100000000E-03 0. -1.
         11   -1    0    0    0    0 -0.00000000000E+00 -0.00000000000E+00 -0.45593999997E+02  0.45594000000E+02  0.51100000000E-03 0.  1.
         23    2    1    2    0    0  0.00000000000E+00  0.00000000000E+00  0.00000000000E+00  0.91188000000E+02  0.91188000000E+02 0.  0.
    9900012    2    3    3    0    0 -0.39977216139E+02  0.47140739859E+01  0.16224153464E+02  0.47787268907E+02  0.19999990253E+02 0.  0.
        -12    1    3    3    0    0  0.39977216139E+02 -0.47140739859E+01 -0.16224153464E+02  0.43400731093E+02  0.00000000000E+00 0.  1.
         11    1    4    4    0    0 -0.26771566748E+01  0.14190817938E+01  0.78557047829E+00  0.31301888500E+01  0.51100000000E-03 0. -1.
        -11    1    4    4    0    0 -0.32364005121E+02 -0.18445354529E+01  0.62241003044E+01  0.33008643767E+02  0.51100000000E-03 0.  1.
        -12    1    4    4    0    0 -0.49360543438E+01  0.51395276450E+01  0.92144826818E+01  0.11648436289E+02  0.00000000000E+00 0.  1.
</event>
<event>
 8    1  0.4042158E-011  0.9118800E+02  0.7816164E-02  0.1184000E+00
        -11   -1    0    0    0    0  0.00000000000E+00  0.00000000000E+00  0.45593999997E+02  0.45594000000E+02  0.51100000000E-03 0. -1.
         11   -1    0    0    0    0 -0.00000000000E+00 -0.00000000000E+00 -0.45593999997E+02  0.45594000000E+02  0.51100000000E-03 0.  1.
         23    2    1    2    0    0  0.00000000000E+00 -0.22204460493E-15  0.71054273576E-14  0.91188000000E+02  0.91188000000E+02 0.  0.
    9900012    2    3    3    0    0  0.25805349874E+02 -0.75580912951E+00 -0.34887476628E+02  0.47787270109E+02  0.19999995737E+02 0.  0.
         12    1    3    3    0    0 -0.25805349874E+02  0.75580912951E+00  0.34887476628E+02  0.43400729891E+02  0.00000000000E+00 0. -1.
         11    1    4    4    0    0  0.77930521258E+01  0.32481054944E+01 -0.36671199278E+01  0.92048693398E+01  0.51100000000E-03 0. -1.
        -11    1    4    4    0    0  0.72489176501E+01 -0.17325653001E+01 -0.25551426961E+01  0.78789176969E+01  0.51100000000E-03 0.  1.
        -12    1    4    4    0    0  0.10763380098E+02 -0.22713493238E+01 -0.28665214004E+02  0.30703483073E+02  0.00000000000E+00 0.  1.
</event>
<event>
 8    1  0.4042158E-011  0.9118800E+02  0.7816164E-02  0.1184000E+00
        -11   -1    0    0    0    0  0.00000000000E+00  0.00000000000E+00  0.45593999997E+02  0.45594000000E+02  0.51100000000E-03 0. -1.
         11   -1    0    0    0    0 -0.00000000000E+00 -0.00000000000E+00 -0.45593999997E+02  0.45594000000E+02  0.51100000000E-03 0.  1.
         23    2    1    2    0    0  0.11102230246E-15  0.00000000000E+00  0.00000000000E+00  0.91188000000E+02  0.91188000000E+02 0.  0.
    9900012    2    3    3    0    0 -0.39337280015E+00 -0.42947304199E+02 -0.62448131560E+01  0.47787269920E+02  0.19999994873E+02 0.  0.
         12    1    3    3    0    0  0.39337280015E+00  0.42947304199E+02  0.62448131560E+01  0.43400730080E+02  0.00000000000E+00 0. -1.
         11    1    4    4    0    0 -0.13242569794E+01  0.74347177606E+00 -0.38351316479E+00  0.15663618477E+01  0.51100000000E-03 0. -1.
        -11    1    4    4    0    0 -0.44906774154E-01 -0.75171996617E+01 -0.66339191503E+01  0.10025925939E+02  0.51100000000E-03 0.  1.
        -12    1    4    4    0    0  0.97579095341E+00 -0.36173576313E+02  0.77261915907E+00  0.36194982134E+02  0.00000000000E+00 0.  1.
</event>
<event>
 8    1  0.4042158E-011  0.9118800E+02  0.7816164E-02  0.1184000E+00
        -11   -1    0    0    0    0  0.00000000000E+00  0.00000000000E+00  0.45593999997E+02  0.45594000000E+02  0.51100000000E-03 0. -1.
         11   -1    0    0    0    0 -0.00000000000E+00 -0.00000000000E+00 -0.45593999997E+02  0.45594000000E+02  0.51100000000E-03 0.  1.
         23    2    1    2    0    0  0.00000000000E+00  0.88817841970E-15 -0.71054273576E-14  0.91188000000E+02  0.91188000000E+02 0.  0.
    9900012    2    3    3    0    0 -0.18931913067E+02 -0.68185755617E+01  0.38454040082E+02  0.47787268397E+02  0.19999987927E+02 0.  0.
        -12    1    3    3    0    0  0.18931913067E+02  0.68185755617E+01 -0.38454040082E+02  0.43400731603E+02  0.00000000000E+00 0.  1.
         11    1    4    4    0    0 -0.97575181809E+01 -0.77748892542E+00  0.19189714293E+02  0.21542023697E+02  0.51100000000E-03 0. -1.
        -11    1    4    4    0    0 -0.79055876795E+01 -0.82430782679E+01  0.20463574758E+02  0.23435113570E+02  0.51100000000E-03 0.  1.
        -12    1    4    4    0    0 -0.12688072071E+01  0.22019916316E+01 -0.11992489689E+01  0.28101311293E+01  0.00000000000E+00 0.  1.
</event>
<event>
 8    1  0.4042158E-011  0.9118800E+02  0.7816164E-02  0.1184000E+00
        -11   -1    0    0    0    0  0.00000000000E+00  0.00000000000E+00  0.45593999997E+02  0.45594000000E+02  0.51100000000E-03 0. -1.
         11   -1    0    0    0    0 -0.00000000000E+00 -0.00000000000E+00 -0.45593999997E+02  0.45594000000E+02  0.51100000000E-03 0.  1.
         23    2    1    2    0    0 -0.71054273576E-14  0.00000000000E+00  0.35527136788E-14  0.91188000000E+02  0.91188000000E+02 0.  0.
    9900012    2    3    3    0    0  0.33267277595E+02  0.15241802065E+02 -0.23336645062E+02  0.47787270841E+02  0.19999999072E+02 0.  0.
         12    1    3    3    0    0 -0.33267277595E+02 -0.15241802065E+02  0.23336645062E+02  0.43400729159E+02  0.00000000000E+00 0. -1.
         11    1    4    4    0    0  0.69537730767E+01  0.15306425283E+01 -0.16456045557E+01  0.73079300192E+01  0.51100000000E-03 0. -1.
        -11    1    4    4    0    0  0.23512845160E+02  0.17561097457E+02 -0.17736993730E+02  0.34290625224E+02  0.51100000000E-03 0.  1.
         12    1    4    4    0    0  0.28006593582E+01 -0.38499379207E+01 -0.39540467764E+01  0.61887155973E+01  0.00000000000E+00 0. -1.
</event>
<event>
 8    1  0.4042158E-011  0.9118800E+02  0.7816164E-02  0.1184000E+00
        -11   -1    0    0    0    0  0.00000000000E+00  0.00000000000E+00  0.45593999997E+02  0.45594000000E+02  0.51100000000E-03 0.  1.
         11   -1    0    0    0    0 -0.00000000000E+00 -0.00000000000E+00 -0.45593999997E+02  0.45594000000E+02  0.51100000000E-03 0. -1.
         23    2    1    2    0    0  0.00000000000E+00 -0.35527136788E-14  0.00000000000E+00  0.91188000000E+02  0.91188000000E+02 0.  0.
    9900012    2    3    3    0    0  0.16227894079E+02  0.31241479930E+02 -0.25382053163E+02  0.47787271467E+02  0.20000001926E+02 0.  0.
         12    1    3    3    0    0 -0.16227894079E+02 -0.31241479930E+02  0.25382053163E+02  0.43400728533E+02  0.00000000000E+00 0. -1.
         11    1    4    4    0    0  0.28950038289E+01  0.61494313223E+01 -0.13884664799E+02  0.15458993162E+02  0.51100000000E-03 0. -1.
        -11    1    4    4    0    0  0.90543556587E+01  0.78210991739E+01 -0.74049531607E+01  0.14070688692E+02  0.51100000000E-03 0.  1.
        -12    1    4    4    0    0  0.42785345910E+01  0.17270949434E+02 -0.40924352036E+01  0.18257589613E+02  0.00000000000E+00 0.  1.
</event>
<event>
 8    1  0.4042158E-011  0.9118800E+02  0.7816164E-02  0.1184000E+00
        -11   -1    0    0    0    0  0.00000000000E+00  0.00000000000E+00  0.45593999997E+02  0.45594000000E+02  0.51100000000E-03 0. -1.
         11   -1    0    0    0    0 -0.00000000000E+00 -0.00000000000E+00 -0.45593999997E+02  0.45594000000E+02  0.51100000000E-03 0.  1.
         23    2    1    2    0    0  0.00000000000E+00  0.00000000000E+00  0.00000000000E+00  0.91188000000E+02  0.91188000000E+02 0.  0.
    9900012    2    3    3    0    0  0.13849009446E+01 -0.20962073643E+01 -0.43327949267E+02  0.47787271623E+02  0.20000002640E+02 0.  0.
         12    1    3    3    0    0 -0.13849009446E+01  0.20962073643E+01  0.43327949267E+02  0.43400728377E+02  0.00000000000E+00 0. -1.
         11    1    4    4    0    0 -0.36771154910E+01 -0.54269224494E+00 -0.23447555776E+00  0.37243351427E+01  0.51100000000E-03 0. -1.
        -11    1    4    4    0    0 -0.17169459695E+01  0.84434262868E+00 -0.11788766807E+02  0.11943024785E+02  0.51100000000E-03 0.  1.
        -12    1    4    4    0    0  0.67789624051E+01 -0.23978577480E+01 -0.31304706903E+02  0.32119911695E+02  0.00000000000E+00 0.  1.
</event>
<event>
 8    1  0.4042158E-011  0.9118800E+02  0.7816164E-02  0.1184000E+00
        -11   -1    0    0    0    0  0.00000000000E+00  0.00000000000E+00  0.45593999997E+02  0.45594000000E+02  0.51100000000E-03 0. -1.
         11   -1    0    0    0    0 -0.00000000000E+00 -0.00000000000E+00 -0.45593999997E+02  0.45594000000E+02  0.51100000000E-03 0.  1.
         23    2    1    2    0    0  0.00000000000E+00  0.00000000000E+00 -0.35527136788E-14  0.91188000000E+02  0.91188000000E+02 0.  0.
    9900012    2    3    3    0    0 -0.22919329624E+02 -0.32444205622E+02 -0.17484310271E+02  0.47787271268E+02  0.20000001018E+02 0.  0.
         12    1    3    3    0    0  0.22919329624E+02  0.32444205622E+02  0.17484310271E+02  0.43400728732E+02  0.00000000000E+00 0. -1.
         11    1    4    4    0    0 -0.11810742604E+02 -0.41262231302E+01 -0.78701861513E+01  0.14780364965E+02  0.51100000000E-03 0. -1.
        -11    1    4    4    0    0 -0.27585495116E+01 -0.19178606101E+01 -0.30785532723E+01  0.45568931564E+01  0.51100000000E-03 0.  1.
        -12    1    4    4    0    0 -0.83500375088E+01 -0.26400121881E+02 -0.65355708478E+01  0.28450013147E+02  0.00000000000E+00 0.  1.
</event>
<event>
 8    1  0.4042158E-011  0.9118800E+02  0.7816164E-02  0.1184000E+00
        -11   -1    0    0    0    0  0.00000000000E+00  0.00000000000E+00  0.45593999997E+02  0.45594000000E+02  0.51100000000E-03 0. -1.
         11   -1    0    0    0    0 -0.00000000000E+00 -0.00000000000E+00 -0.45593999997E+02  0.45594000000E+02  0.51100000000E-03 0.  1.
         23    2    1    2    0    0  0.00000000000E+00  0.00000000000E+00  0.00000000000E+00  0.91188000000E+02  0.91188000000E+02 0.  0.
    9900012    2    3    3    0    0 -0.33959940500E+02  0.15611942242E+02  0.22059307356E+02  0.47787270279E+02  0.19999996509E+02 0.  0.
        -12    1    3    3    0    0  0.33959940500E+02 -0.15611942242E+02 -0.22059307356E+02  0.43400729721E+02  0.00000000000E+00 0.  1.
         11    1    4    4    0    0 -0.72441965849E+01  0.67686203907E+01  0.48020923424E+01  0.11016020029E+02  0.51100000000E-03 0. -1.
        -11    1    4    4    0    0 -0.78885611941E+01 -0.21786693024E+00  0.13360060585E+02  0.15516703348E+02  0.51100000000E-03 0.  1.
         12    1    4    4    0    0 -0.18827182721E+02  0.90611887816E+01  0.38971544285E+01  0.21254546901E+02  0.00000000000E+00 0. -1.
</event>
<event>
 8    1  0.4042158E-011  0.9118800E+02  0.7816164E-02  0.1184000E+00
        -11   -1    0    0    0    0  0.00000000000E+00  0.00000000000E+00  0.45593999997E+02  0.45594000000E+02  0.51100000000E-03 0. -1.
         11   -1    0    0    0    0 -0.00000000000E+00 -0.00000000000E+00 -0.45593999997E+02  0.45594000000E+02  0.51100000000E-03 0.  1.
         23    2    1    2    0    0  0.00000000000E+00  0.17763568394E-14  0.00000000000E+00  0.91188000000E+02  0.91188000000E+02 0.  0.
    9900012    2    3    3    0    0  0.20135196941E+02  0.13676984071E+02 -0.35932402615E+02  0.47787267209E+02  0.19999982511E+02 0.  0.
         12    1    3    3    0    0 -0.20135196941E+02 -0.13676984071E+02  0.35932402615E+02  0.43400732791E+02  0.00000000000E+00 0. -1.
         11    1    4    4    0    0  0.77738751184E+01  0.44170473640E+01 -0.14490038187E+02  0.17026586525E+02  0.51100000000E-03 0. -1.
        -11    1    4    4    0    0  0.39389769192E+01  0.10284972311E+02 -0.18949470320E+02  0.21917541382E+02  0.51100000000E-03 0.  1.
         12    1    4    4    0    0  0.84223449034E+01 -0.10250356039E+01 -0.24928941088E+01  0.88431393011E+01  0.00000000000E+00 0. -1.
</event>
<event>
 8    1  0.4042158E-011  0.9118800E+02  0.7816164E-02  0.1184000E+00
        -11   -1    0    0    0    0  0.00000000000E+00  0.00000000000E+00  0.45593999997E+02  0.45594000000E+02  0.51100000000E-03 0. -1.
         11   -1    0    0    0    0 -0.00000000000E+00 -0.00000000000E+00 -0.45593999997E+02  0.45594000000E+02  0.51100000000E-03 0.  1.
         23    2    1    2    0    0  0.44408920985E-15 -0.35527136788E-14  0.00000000000E+00  0.91188000000E+02  0.91188000000E+02 0.  0.
    9900012    2    3    3    0    0 -0.27206102940E+01  0.31022665154E+02 -0.30229382979E+02  0.47787273406E+02  0.20000010766E+02 0.  0.
         12    1    3    3    0    0  0.27206102940E+01 -0.31022665154E+02  0.30229382979E+02  0.43400726594E+02  0.00000000000E+00 0. -1.
         11    1    4    4    0    0 -0.48532097272E+01  0.17008692318E+02 -0.14269062201E+02  0.22725655004E+02  0.51100000000E-03 0. -1.
        -11    1    4    4    0    0 -0.19267587156E+01  0.77286078436E+01 -0.61443868655E+00  0.79888242883E+01  0.51100000000E-03 0.  1.
        -12    1    4    4    0    0  0.40593581489E+01  0.62853649928E+01 -0.15345882091E+02  0.17072794113E+02  0.00000000000E+00 0.  1.
</event>
<event>
 8    1  0.4042158E-011  0.9118800E+02  0.7816164E-02  0.1184000E+00
        -11   -1    0    0    0    0  0.00000000000E+00  0.00000000000E+00  0.45593999997E+02  0.45594000000E+02  0.51100000000E-03 0. -1.
         11   -1    0    0    0    0 -0.00000000000E+00 -0.00000000000E+00 -0.45593999997E+02  0.45594000000E+02  0.51100000000E-03 0.  1.
         23    2    1    2    0    0 -0.35527136788E-14  0.00000000000E+00  0.00000000000E+00  0.91188000000E+02  0.91188000000E+02 0.  0.
    9900012    2    3    3    0    0  0.22626674023E+02 -0.26379817907E+02 -0.25995422860E+02  0.47787272128E+02  0.20000004940E+02 0.  0.
         12    1    3    3    0    0 -0.22626674023E+02  0.26379817907E+02  0.25995422860E+02  0.43400727872E+02  0.00000000000E+00 0. -1.
         11    1    4    4    0    0  0.11929801116E+01 -0.21301375719E+01 -0.18688716164E+01  0.30746331491E+01  0.51100000000E-03 0. -1.
        -11    1    4    4    0    0  0.32919949479E+01 -0.14096365702E+02 -0.17879177906E+02  0.23004559539E+02  0.51100000000E-03 0.  1.
         12    1    4    4    0    0  0.18141698964E+02 -0.10153314633E+02 -0.62473733377E+01  0.21708079440E+02  0.00000000000E+00 0. -1.
</event>
<event>
 8    1  0.4042158E-011  0.9118800E+02  0.7816164E-02  0.1184000E+00
        -11   -1    0    0    0    0  0.00000000000E+00  0.00000000000E+00  0.45593999997E+02  0.45594000000E+02  0.51100000000E-03 0.  1.
         11   -1    0    0    0    0 -0.00000000000E+00 -0.00000000000E+00 -0.45593999997E+02  0.45594000000E+02  0.51100000000E-03 0. -1.
         23    2    1    2    0    0  0.35527136788E-14 -0.71054273576E-14  0.00000000000E+00  0.91188000000E+02  0.91188000000E+02 0.  0.
    9900012    2    3    3    0    0 -0.24372433535E+02  0.35407900741E+02  0.59905943537E+01  0.47787283739E+02  0.20000057879E+02 0.  0.
         12    1    3    3    0    0  0.24372433535E+02 -0.35407900741E+02 -0.59905943537E+01  0.43400716261E+02  0.00000000000E+00 0. -1.
         11    1    4    4    0    0 -0.30223399207E+01 -0.73433773683E+00 -0.22721111067E+00  0.31185598692E+01  0.51100000000E-03 0. -1.
        -11    1    4    4    0    0 -0.17235383662E+02  0.19275331010E+02 -0.97633372350E+00  0.25875665466E+02  0.51100000000E-03 0.  1.
        -12    1    4    4    0    0 -0.41147099523E+01  0.16866907468E+02  0.71941391878E+01  0.18793058404E+02  0.00000000000E+00 0.  1.
</event>
<event>
 8    1  0.4042158E-011  0.9118800E+02  0.7816164E-02  0.1184000E+00
        -11   -1    0    0    0    0  0.00000000000E+00  0.00000000000E+00  0.45593999997E+02  0.45594000000E+02  0.51100000000E-03 0. -1.
         11   -1    0    0    0    0 -0.00000000000E+00 -0.00000000000E+00 -0.45593999997E+02  0.45594000000E+02  0.51100000000E-03 0.  1.
         23    2    1    2    0    0  0.00000000000E+00  0.00000000000E+00 -0.35527136788E-14  0.91188000000E+02  0.91188000000E+02 0.  0.
    9900012    2    3    3    0    0  0.14671418529E+02  0.35287799297E+02 -0.20570468397E+02  0.47787268775E+02  0.19999989651E+02 0.  0.
         12    1    3    3    0    0 -0.14671418529E+02 -0.35287799297E+02  0.20570468397E+02  0.43400731225E+02  0.00000000000E+00 0. -1.
         11    1    4    4    0    0  0.31688526973E+01  0.80526200278E+01 -0.46997565744E+00  0.86664406828E+01  0.51100000000E-03 0.  1.
        -11    1    4    4    0    0  0.14400735223E+02  0.26965803083E+02 -0.17542801119E+02  0.35246071870E+02  0.51100000000E-03 0. -1.
         12    1    4    4    0    0 -0.28981693921E+01  0.26937618529E+00 -0.25576916199E+01  0.38747562216E+01  0.00000000000E+00 0. -1.
</event>
<event>
 8    1  0.4042158E-011  0.9118800E+02  0.7816164E-02  0.1184000E+00
        -11   -1    0    0    0    0  0.00000000000E+00  0.00000000000E+00  0.45593999997E+02  0.45594000000E+02  0.51100000000E-03 0. -1.
         11   -1    0    0    0    0 -0.00000000000E+00 -0.00000000000E+00 -0.45593999997E+02  0.45594000000E+02  0.51100000000E-03 0.  1.
         23    2    1    2    0    0  0.26645352591E-14 -0.35527136788E-14  0.00000000000E+00  0.91188000000E+02  0.91188000000E+02 0.  0.
    9900012    2    3    3    0    0  0.49656579164E+01 -0.16043881369E+02  0.40019488172E+02  0.47787270496E+02  0.19999997499E+02 0.  0.
        -12    1    3    3    0    0 -0.49656579164E+01  0.16043881369E+02 -0.40019488172E+02  0.43400729504E+02  0.00000000000E+00 0.  1.
         11    1    4    4    0    0  0.82018281285E+01 -0.10463526773E+02  0.23926224255E+02  0.27371875795E+02  0.51100000000E-03 0. -1.
        -11    1    4    4    0    0  0.17276820009E+01 -0.41594974301E+01  0.14230792844E+02  0.14926545789E+02  0.51100000000E-03 0.  1.
        -12    1    4    4    0    0 -0.49638522130E+01 -0.14208571654E+01  0.18624710738E+01  0.54888489119E+01  0.00000000000E+00 0.  1.
</event>
<event>
 8    1  0.4042158E-011  0.9118800E+02  0.7816164E-02  0.1184000E+00
        -11   -1    0    0    0    0  0.00000000000E+00  0.00000000000E+00  0.45593999997E+02  0.45594000000E+02  0.51100000000E-03 0. -1.
         11   -1    0    0    0    0 -0.00000000000E+00 -0.00000000000E+00 -0.45593999997E+02  0.45594000000E+02  0.51100000000E-03 0.  1.
         23    2    1    2    0    0  0.00000000000E+00  0.00000000000E+00 -0.35527136788E-14  0.91188000000E+02  0.91188000000E+02 0.  0.
    9900012    2    3    3    0    0  0.22437626948E+02 -0.28229320316E+02 -0.24151224609E+02  0.47787270989E+02  0.19999999749E+02 0.  0.
         12    1    3    3    0    0 -0.22437626948E+02  0.28229320316E+02  0.24151224609E+02  0.43400729011E+02  0.00000000000E+00 0. -1.
         11    1    4    4    0    0  0.54948505951E+00 -0.36555680154E+01 -0.87428043105E+01  0.94921935726E+01  0.51100000000E-03 0. -1.
        -11    1    4    4    0    0  0.70354068021E+01 -0.15316248645E+02 -0.11376963806E+02  0.20335184463E+02  0.51100000000E-03 0.  1.
         12    1    4    4    0    0  0.14852735086E+02 -0.92575036557E+01 -0.40314564926E+01  0.17959892954E+02  0.00000000000E+00 0. -1.
</event>
<event>
 8    1  0.4042158E-011  0.9118800E+02  0.7816164E-02  0.1184000E+00
        -11   -1    0    0    0    0  0.00000000000E+00  0.00000000000E+00  0.45593999997E+02  0.45594000000E+02  0.51100000000E-03 0. -1.
         11   -1    0    0    0    0 -0.00000000000E+00 -0.00000000000E+00 -0.45593999997E+02  0.45594000000E+02  0.51100000000E-03 0.  1.
         23    2    1    2    0    0  0.00000000000E+00  0.00000000000E+00  0.00000000000E+00  0.91188000000E+02  0.91188000000E+02 0.  0.
    9900012    2    3    3    0    0 -0.40508948277E+02 -0.13489181051E+02 -0.77903994675E+01  0.47787271667E+02  0.20000002840E+02 0.  0.
         12    1    3    3    0    0  0.40508948277E+02  0.13489181051E+02  0.77903994675E+01  0.43400728333E+02  0.00000000000E+00 0. -1.
         11    1    4    4    0    0 -0.74194747676E+01 -0.10001622124E+02 -0.59293485744E+01  0.13792687400E+02  0.51100000000E-03 0. -1.
        -11    1    4    4    0    0 -0.38115253805E+01 -0.12355646856E+01  0.18191891799E+01  0.44004312689E+01  0.51100000000E-03 0.  1.
        -12    1    4    4    0    0 -0.29277948129E+02 -0.22519942416E+01 -0.36802400730E+01  0.29594152998E+02  0.00000000000E+00 0.  1.
</event>
<event>
 8    1  0.4042158E-011  0.9118800E+02  0.7816164E-02  0.1184000E+00
        -11   -1    0    0    0    0  0.00000000000E+00  0.00000000000E+00  0.45593999997E+02  0.45594000000E+02  0.51100000000E-03 0. -1.
         11   -1    0    0    0    0 -0.00000000000E+00 -0.00000000000E+00 -0.45593999997E+02  0.45594000000E+02  0.51100000000E-03 0.  1.
         23    2    1    2    0    0  0.17763568394E-14  0.00000000000E+00  0.00000000000E+00  0.91188000000E+02  0.91188000000E+02 0.  0.
    9900012    2    3    3    0    0 -0.10274630631E+02  0.26331574628E+02 -0.32934835375E+02  0.47787271456E+02  0.20000001877E+02 0.  0.
         12    1    3    3    0    0  0.10274630631E+02 -0.26331574628E+02  0.32934835375E+02  0.43400728544E+02  0.00000000000E+00 0. -1.
         11    1    4    4    0    0 -0.47792545825E+01  0.10466018864E+02 -0.10265250258E+02  0.15419279761E+02  0.51100000000E-03 0. -1.
        -11    1    4    4    0    0 -0.86359095178E+01  0.17512066785E+02 -0.19778409427E+02  0.27792748983E+02  0.51100000000E-03 0.  1.
        -12    1    4    4    0    0  0.31405334694E+01 -0.16465110209E+01 -0.28911756895E+01  0.45752427129E+01  0.00000000000E+00 0.  1.
</event>
<event>
 8    1  0.4042158E-011  0.9118800E+02  0.7816164E-02  0.1184000E+00
        -11   -1    0    0    0    0  0.00000000000E+00  0.00000000000E+00  0.45593999997E+02  0.45594000000E+02  0.51100000000E-03 0. -1.
         11   -1    0    0    0    0 -0.00000000000E+00 -0.00000000000E+00 -0.45593999997E+02  0.45594000000E+02  0.51100000000E-03 0.  1.
         23    2    1    2    0    0  0.88817841970E-15  0.00000000000E+00  0.00000000000E+00  0.91188000000E+02  0.91188000000E+02 0.  0.
    9900012    2    3    3    0    0 -0.72021448521E+01 -0.22486307261E+02  0.36415898053E+02  0.47787279549E+02  0.20000038775E+02 0.  0.
        -12    1    3    3    0    0  0.72021448521E+01  0.22486307261E+02 -0.36415898053E+02  0.43400720451E+02  0.00000000000E+00 0.  1.
         11    1    4    4    0    0  0.40191389584E+01 -0.34973283666E+01  0.88345731720E+01  0.10316708151E+02  0.51100000000E-03 0. -1.
        -11    1    4    4    0    0 -0.11438246347E+01 -0.14077174750E+02  0.14477985482E+02  0.20225905359E+02  0.51100000000E-03 0.  1.
        -12    1    4    4    0    0 -0.10077459176E+02 -0.49118041437E+01  0.13103339399E+02  0.17244666039E+02  0.00000000000E+00 0.  1.
</event>
<event>
 8    1  0.4042158E-011  0.9118800E+02  0.7816164E-02  0.1184000E+00
        -11   -1    0    0    0    0  0.00000000000E+00  0.00000000000E+00  0.45593999997E+02  0.45594000000E+02  0.51100000000E-03 0. -1.
         11   -1    0    0    0    0 -0.00000000000E+00 -0.00000000000E+00 -0.45593999997E+02  0.45594000000E+02  0.51100000000E-03 0.  1.
         23    2    1    2    0    0 -0.88817841970E-15  0.00000000000E+00  0.00000000000E+00  0.91188000000E+02  0.91188000000E+02 0.  0.
    9900012    2    3    3    0    0  0.37771828947E+01 -0.12600158076E+02 -0.41359306306E+02  0.47787270602E+02  0.19999997983E+02 0.  0.
         12    1    3    3    0    0 -0.37771828947E+01  0.12600158076E+02  0.41359306306E+02  0.43400729398E+02  0.00000000000E+00 0. -1.
         11    1    4    4    0    0  0.24293157567E+01 -0.15494336618E+01 -0.22468568613E+02  0.22652569291E+02  0.51100000000E-03 0. -1.
        -11    1    4    4    0    0  0.40691975813E+01  0.99092316942E+00 -0.39927308172E+01  0.57863803300E+01  0.51100000000E-03 0.  1.
        -12    1    4    4    0    0 -0.27213304434E+01 -0.12041647584E+02 -0.14898006876E+02  0.19348320981E+02  0.00000000000E+00 0.  1.
</event>
<event>
 8    1  0.4042158E-011  0.9118800E+02  0.7816164E-02  0.1184000E+00
        -11   -1    0    0    0    0  0.00000000000E+00  0.00000000000E+00  0.45593999997E+02  0.45594000000E+02  0.51100000000E-03 0. -1.
         11   -1    0    0    0    0 -0.00000000000E+00 -0.00000000000E+00 -0.45593999997E+02  0.45594000000E+02  0.51100000000E-03 0.  1.
         23    2    1    2    0    0 -0.27755575616E-15  0.71054273576E-14  0.35527136788E-14  0.91188000000E+02  0.91188000000E+02 0.  0.
    9900012    2    3    3    0    0  0.49799983074E+00 -0.35750670762E+02 -0.24602136020E+02  0.47787267742E+02  0.19999984945E+02 0.  0.
         12    1    3    3    0    0 -0.49799983074E+00  0.35750670762E+02  0.24602136020E+02  0.43400732258E+02  0.00000000000E+00 0. -1.
         11    1    4    4    0    0  0.47771295373E+01 -0.14302612162E+02 -0.82829434633E+01  0.17204442274E+02  0.51100000000E-03 0. -1.
        -11    1    4    4    0    0 -0.10690937990E+01 -0.18152219877E+02 -0.18093387537E+02  0.25651836598E+02  0.51100000000E-03 0.  1.
         12    1    4    4    0    0 -0.32100359076E+01 -0.32958387225E+01  0.17741949806E+01  0.49309888706E+01  0.00000000000E+00 0. -1.
</event>
<event>
 8    1  0.4042158E-011  0.9118800E+02  0.7816164E-02  0.1184000E+00
        -11   -1    0    0    0    0  0.00000000000E+00  0.00000000000E+00  0.45593999997E+02  0.45594000000E+02  0.51100000000E-03 0. -1.
         11   -1    0    0    0    0 -0.00000000000E+00 -0.00000000000E+00 -0.45593999997E+02  0.45594000000E+02  0.51100000000E-03 0.  1.
         23    2    1    2    0    0 -0.22204460493E-15  0.00000000000E+00  0.00000000000E+00  0.91188000000E+02  0.91188000000E+02 0.  0.
    9900012    2    3    3    0    0 -0.13541896007E+01 -0.62457147812E+00  0.43375099734E+02  0.47787271942E+02  0.20000004091E+02 0.  0.
        -12    1    3    3    0    0  0.13541896007E+01  0.62457147812E+00 -0.43375099734E+02  0.43400728058E+02  0.00000000000E+00 0.  1.
         11    1    4    4    0    0 -0.27016643088E+01  0.33559386719E+01  0.20013557779E+01  0.47504462546E+01  0.51100000000E-03 0.  1.
        -11    1    4    4    0    0  0.43036073604E+00  0.37751097718E+01  0.97796118765E+01  0.10491781206E+02  0.51100000000E-03 0. -1.
         12    1    4    4    0    0  0.91711397207E+00 -0.77556199218E+01  0.31594132080E+02  0.32545044481E+02  0.00000000000E+00 0. -1.
</event>
<event>
 8    1  0.4042158E-011  0.9118800E+02  0.7816164E-02  0.1184000E+00
        -11   -1    0    0    0    0  0.00000000000E+00  0.00000000000E+00  0.45593999997E+02  0.45594000000E+02  0.51100000000E-03 0. -1.
         11   -1    0    0    0    0 -0.00000000000E+00 -0.00000000000E+00 -0.45593999997E+02  0.45594000000E+02  0.51100000000E-03 0.  1.
         23    2    1    2    0    0  0.17763568394E-14  0.00000000000E+00  0.35527136788E-14  0.91188000000E+02  0.91188000000E+02 0.  0.
    9900012    2    3    3    0    0  0.13411897116E+02 -0.37055097047E+02  0.18184173643E+02  0.47787269908E+02  0.19999994821E+02 0.  0.
        -12    1    3    3    0    0 -0.13411897116E+02  0.37055097047E+02 -0.18184173643E+02  0.43400730092E+02  0.00000000000E+00 0.  1.
         11    1    4    4    0    0  0.53006175632E+00  0.34879831886E+00  0.19680507447E+01  0.20678127883E+01  0.51100000000E-03 0. -1.
        -11    1    4    4    0    0  0.60858498990E+01 -0.26414908615E+01  0.57652455181E+01  0.87893742161E+01  0.51100000000E-03 0.  1.
         12    1    4    4    0    0  0.67959854610E+01 -0.34762404504E+02  0.10450877380E+02  0.36930082904E+02  0.00000000000E+00 0. -1.
</event>
<event>
 8    1  0.4042158E-011  0.9118800E+02  0.7816164E-02  0.1184000E+00
        -11   -1    0    0    0    0  0.00000000000E+00  0.00000000000E+00  0.45593999997E+02  0.45594000000E+02  0.51100000000E-03 0. -1.
         11   -1    0    0    0    0 -0.00000000000E+00 -0.00000000000E+00 -0.45593999997E+02  0.45594000000E+02  0.51100000000E-03 0.  1.
         23    2    1    2    0    0  0.00000000000E+00  0.22204460493E-15  0.00000000000E+00  0.91188000000E+02  0.91188000000E+02 0.  0.
    9900012    2    3    3    0    0 -0.41189501492E+01  0.99410457769E+00 -0.43193388823E+02  0.47787276132E+02  0.20000023195E+02 0.  0.
         12    1    3    3    0    0  0.41189501492E+01 -0.99410457769E+00  0.43193388823E+02  0.43400723868E+02  0.00000000000E+00 0. -1.
         11    1    4    4    0    0 -0.66541052158E-01  0.96438003778E-01  0.88819137954E+00  0.89588625841E+00  0.51100000000E-03 0. -1.
        -11    1    4    4    0    0  0.17880285775E+01  0.32682488654E+01 -0.17907913150E+01  0.41334526289E+01  0.51100000000E-03 0.  1.
        -12    1    4    4    0    0 -0.58404376746E+01 -0.23705822915E+01 -0.42290788888E+02  0.42757937244E+02  0.00000000000E+00 0.  1.
</event>
<event>
 8    1  0.4042158E-011  0.9118800E+02  0.7816164E-02  0.1184000E+00
        -11   -1    0    0    0    0  0.00000000000E+00  0.00000000000E+00  0.45593999997E+02  0.45594000000E+02  0.51100000000E-03 0.  1.
         11   -1    0    0    0    0 -0.00000000000E+00 -0.00000000000E+00 -0.45593999997E+02  0.45594000000E+02  0.51100000000E-03 0. -1.
         23    2    1    2    0    0 -0.35527136788E-14  0.00000000000E+00 -0.71054273576E-14  0.91188000000E+02  0.91188000000E+02 0.  0.
    9900012    2    3    3    0    0 -0.21580581241E+02 -0.10102505519E+02  0.36274520306E+02  0.47787275030E+02  0.20000018172E+02 0.  0.
        -12    1    3    3    0    0  0.21580581241E+02  0.10102505519E+02 -0.36274520306E+02  0.43400724970E+02  0.00000000000E+00 0.  1.
         11    1    4    4    0    0  0.50118232058E+00 -0.38773294786E-01 -0.12648492034E+01  0.13610770938E+01  0.51100000000E-03 0. -1.
        -11    1    4    4    0    0 -0.20837824008E+02 -0.42448621735E+01  0.27608955704E+02  0.34849507882E+02  0.51100000000E-03 0.  1.
         12    1    4    4    0    0 -0.12439395539E+01 -0.58188700503E+01  0.99304138053E+01  0.11576690055E+02  0.00000000000E+00 0. -1.
</event>
<event>
 8    1  0.4042158E-011  0.9118800E+02  0.7816164E-02  0.1184000E+00
        -11   -1    0    0    0    0  0.00000000000E+00  0.00000000000E+00  0.45593999997E+02  0.45594000000E+02  0.51100000000E-03 0. -1.
         11   -1    0    0    0    0 -0.00000000000E+00 -0.00000000000E+00 -0.45593999997E+02  0.45594000000E+02  0.51100000000E-03 0.  1.
         23    2    1    2    0    0  0.00000000000E+00  0.00000000000E+00  0.35527136788E-14  0.91188000000E+02  0.91188000000E+02 0.  0.
    9900012    2    3    3    0    0 -0.34792305210E+02 -0.50266068414E+01 -0.25452931810E+02  0.47787274017E+02  0.20000013551E+02 0.  0.
         12    1    3    3    0    0  0.34792305210E+02  0.50266068414E+01  0.25452931810E+02  0.43400725983E+02  0.00000000000E+00 0. -1.
         11    1    4    4    0    0 -0.29552601481E+02 -0.13297542676E+01 -0.15527929190E+02  0.33410194341E+02  0.51100000000E-03 0. -1.
        -11    1    4    4    0    0 -0.31523509776E+01 -0.31058178631E+01 -0.21807824419E+00  0.44306861395E+01  0.51100000000E-03 0.  1.
         12    1    4    4    0    0 -0.20873527512E+01 -0.59103471070E+00 -0.97069243757E+01  0.99463935359E+01  0.00000000000E+00 0. -1.
</event>
<event>
 8    1  0.4042158E-011  0.9118800E+02  0.7816164E-02  0.1184000E+00
        -11   -1    0    0    0    0  0.00000000000E+00  0.00000000000E+00  0.45593999997E+02  0.45594000000E+02  0.51100000000E-03 0. -1.
         11   -1    0    0    0    0 -0.00000000000E+00 -0.00000000000E+00 -0.45593999997E+02  0.45594000000E+02  0.51100000000E-03 0.  1.
         23    2    1    2    0    0  0.35527136788E-14 -0.17763568394E-14  0.71054273576E-14  0.91188000000E+02  0.91188000000E+02 0.  0.
    9900012    2    3    3    0    0 -0.16557584701E+02  0.13816773744E+02 -0.37663864573E+02  0.47787267951E+02  0.19999985895E+02 0.  0.
         12    1    3    3    0    0  0.16557584701E+02 -0.13816773744E+02  0.37663864573E+02  0.43400732049E+02  0.00000000000E+00 0. -1.
         11    1    4    4    0    0 -0.10676195255E+02  0.81234325570E+01 -0.91589094752E+01  0.16243673373E+02  0.51100000000E-03 0. -1.
        -11    1    4    4    0    0 -0.77821826058E+01  0.49010976364E+00 -0.14139567907E+02  0.16147134562E+02  0.51100000000E-03 0.  1.
        -12    1    4    4    0    0  0.19007931592E+01  0.52032314236E+01 -0.14365387191E+02  0.15396460016E+02  0.00000000000E+00 0.  1.
</event>
<event>
 8    1  0.4042158E-011  0.9118800E+02  0.7816164E-02  0.1184000E+00
        -11   -1    0    0    0    0  0.00000000000E+00  0.00000000000E+00  0.45593999997E+02  0.45594000000E+02  0.51100000000E-03 0. -1.
         11   -1    0    0    0    0 -0.00000000000E+00 -0.00000000000E+00 -0.45593999997E+02  0.45594000000E+02  0.51100000000E-03 0.  1.
         23    2    1    2    0    0  0.00000000000E+00 -0.35527136788E-14  0.14210854715E-13  0.91188000000E+02  0.91188000000E+02 0.  0.
    9900012    2    3    3    0    0 -0.18553783497E+02 -0.17054043460E+02  0.35334683483E+02  0.47787272618E+02  0.20000007177E+02 0.  0.
        -12    1    3    3    0    0  0.18553783497E+02  0.17054043460E+02 -0.35334683483E+02  0.43400727382E+02  0.00000000000E+00 0.  1.
         11    1    4    4    0    0 -0.94112066171E+01 -0.11482943627E+02  0.30018250733E+02  0.33489165139E+02  0.51100000000E-03 0. -1.
        -11    1    4    4    0    0 -0.43820738959E+01  0.15977134644E+01  0.20195784482E+01  0.50827116102E+01  0.51100000000E-03 0.  1.
        -12    1    4    4    0    0 -0.47605029840E+01 -0.71688132968E+01  0.32968543018E+01  0.92153958696E+01  0.00000000000E+00 0.  1.
</event>
<event>
 8    1  0.4042158E-011  0.9118800E+02  0.7816164E-02  0.1184000E+00
        -11   -1    0    0    0    0  0.00000000000E+00  0.00000000000E+00  0.45593999997E+02  0.45594000000E+02  0.51100000000E-03 0.  1.
         11   -1    0    0    0    0 -0.00000000000E+00 -0.00000000000E+00 -0.45593999997E+02  0.45594000000E+02  0.51100000000E-03 0. -1.
         23    2    1    2    0    0 -0.35527136788E-14  0.00000000000E+00  0.35527136788E-14  0.91188000000E+02  0.91188000000E+02 0.  0.
    9900012    2    3    3    0    0  0.29854540654E+02 -0.26276600879E+02 -0.17374382795E+02  0.47787279627E+02  0.20000039131E+02 0.  0.
         12    1    3    3    0    0 -0.29854540654E+02  0.26276600879E+02  0.17374382795E+02  0.43400720373E+02  0.00000000000E+00 0. -1.
         11    1    4    4    0    0  0.38025071654E+01 -0.83887080884E+01 -0.41738929070E+01  0.10111917049E+02  0.51100000000E-03 0. -1.
        -11    1    4    4    0    0  0.21393191485E+02 -0.19294684989E+02 -0.15008231256E+02  0.32483850087E+02  0.51100000000E-03 0.  1.
         12    1    4    4    0    0  0.46588420029E+01  0.14067921985E+01  0.18077413684E+01  0.51915124918E+01  0.00000000000E+00 0. -1.
</event>
<event>
 8    1  0.4042158E-011  0.9118800E+02  0.7816164E-02  0.1184000E+00
        -11   -1    0    0    0    0  0.00000000000E+00  0.00000000000E+00  0.45593999997E+02  0.45594000000E+02  0.51100000000E-03 0. -1.
         11   -1    0    0    0    0 -0.00000000000E+00 -0.00000000000E+00 -0.45593999997E+02  0.45594000000E+02  0.51100000000E-03 0.  1.
         23    2    1    2    0    0  0.35527136788E-14  0.00000000000E+00  0.00000000000E+00  0.91188000000E+02  0.91188000000E+02 0.  0.
    9900012    2    3    3    0    0  0.17260731027E+02  0.34277774397E+02 -0.20266295598E+02  0.47787292743E+02  0.20000098930E+02 0.  0.
         12    1    3    3    0    0 -0.17260731027E+02 -0.34277774397E+02  0.20266295598E+02  0.43400707257E+02  0.00000000000E+00 0. -1.
         11    1    4    4    0    0  0.77535676789E+01  0.49217512607E+01 -0.32385899688E+01  0.97380651297E+01  0.51100000000E-03 0. -1.
        -11    1    4    4    0    0 -0.13179857809E+01 -0.10887376943E+01 -0.99940888573E+00  0.19802158134E+01  0.51100000000E-03 0.  1.
        -12    1    4    4    0    0  0.10825149129E+02  0.30444760831E+02 -0.16028296743E+02  0.36069011799E+02  0.00000000000E+00 0.  1.
</event>
<event>
 8    1  0.4042158E-011  0.9118800E+02  0.7816164E-02  0.1184000E+00
        -11   -1    0    0    0    0  0.00000000000E+00  0.00000000000E+00  0.45593999997E+02  0.45594000000E+02  0.51100000000E-03 0.  1.
         11   -1    0    0    0    0 -0.00000000000E+00 -0.00000000000E+00 -0.45593999997E+02  0.45594000000E+02  0.51100000000E-03 0. -1.
         23    2    1    2    0    0  0.00000000000E+00  0.00000000000E+00  0.00000000000E+00  0.91188000000E+02  0.91188000000E+02 0.  0.
    9900012    2    3    3    0    0 -0.32435352626E+02 -0.23905173346E+02 -0.16128043195E+02  0.47787272011E+02  0.20000004407E+02 0.  0.
         12    1    3    3    0    0  0.32435352626E+02  0.23905173346E+02  0.16128043195E+02  0.43400727989E+02  0.00000000000E+00 0. -1.
         11    1    4    4    0    0  0.18397729387E+00 -0.41198060761E+00  0.15372749357E+01  0.16021205182E+01  0.51100000000E-03 0.  1.
        -11    1    4    4    0    0 -0.14233357899E+02 -0.11999029924E+02 -0.65817991659E+00  0.18627892990E+02  0.51100000000E-03 0. -1.
         12    1    4    4    0    0 -0.18385972021E+02 -0.11494162815E+02 -0.17007138214E+02  0.27557258503E+02  0.00000000000E+00 0. -1.
</event>
<event>
 8    1  0.4042158E-011  0.9118800E+02  0.7816164E-02  0.1184000E+00
        -11   -1    0    0    0    0  0.00000000000E+00  0.00000000000E+00  0.45593999997E+02  0.45594000000E+02  0.51100000000E-03 0. -1.
         11   -1    0    0    0    0 -0.00000000000E+00 -0.00000000000E+00 -0.45593999997E+02  0.45594000000E+02  0.51100000000E-03 0.  1.
         23    2    1    2    0    0  0.17763568394E-14  0.17763568394E-14  0.00000000000E+00  0.91188000000E+02  0.91188000000E+02 0.  0.
    9900012    2    3    3    0    0  0.10824893832E+02 -0.82419041609E+01  0.41213068212E+02  0.47787259199E+02  0.19999945990E+02 0.  0.
        -12    1    3    3    0    0 -0.10824893832E+02  0.82419041609E+01 -0.41213068212E+02  0.43400740801E+02  0.00000000000E+00 0.  1.
         11    1    4    4    0    0  0.54021505212E+01  0.11013156133E+01  0.14397168490E+02  0.15416698321E+02  0.51100000000E-03 0. -1.
        -11    1    4    4    0    0  0.55162340610E+01 -0.63896563328E+00  0.17285292972E+01  0.58159203131E+01  0.51100000000E-03 0.  1.
         12    1    4    4    0    0 -0.93490750231E-01 -0.87042541409E+01  0.25087370425E+02  0.26554640564E+02  0.00000000000E+00 0. -1.
</event>
<event>
 8    1  0.4042158E-011  0.9118800E+02  0.7816164E-02  0.1184000E+00
        -11   -1    0    0    0    0  0.00000000000E+00  0.00000000000E+00  0.45593999997E+02  0.45594000000E+02  0.51100000000E-03 0. -1.
         11   -1    0    0    0    0 -0.00000000000E+00 -0.00000000000E+00 -0.45593999997E+02  0.45594000000E+02  0.51100000000E-03 0.  1.
         23    2    1    2    0    0 -0.71054273576E-14 -0.35527136788E-14 -0.88817841970E-15  0.91188000000E+02  0.91188000000E+02 0.  0.
    9900012    2    3    3    0    0  0.32662789141E+02  0.27563144985E+02  0.75523801521E+01  0.47787271873E+02  0.20000003780E+02 0.  0.
        -12    1    3    3    0    0 -0.32662789141E+02 -0.27563144985E+02 -0.75523801521E+01  0.43400728127E+02  0.00000000000E+00 0.  1.
         11    1    4    4    0    0  0.17934979948E+02  0.20236037284E+02  0.43773173662E+01  0.27391999166E+02  0.51100000000E-03 0. -1.
        -11    1    4    4    0    0  0.50007816019E+01  0.79466287964E+01 -0.16281193685E+01  0.95292968679E+01  0.51100000000E-03 0.  1.
         12    1    4    4    0    0  0.97270275912E+01 -0.61952109510E+00  0.48031821545E+01  0.10865975840E+02  0.00000000000E+00 0. -1.
</event>
<event>
 8    1  0.4042158E-011  0.9118800E+02  0.7816164E-02  0.1184000E+00
        -11   -1    0    0    0    0  0.00000000000E+00  0.00000000000E+00  0.45593999997E+02  0.45594000000E+02  0.51100000000E-03 0. -1.
         11   -1    0    0    0    0 -0.00000000000E+00 -0.00000000000E+00 -0.45593999997E+02  0.45594000000E+02  0.51100000000E-03 0.  1.
         23    2    1    2    0    0  0.00000000000E+00  0.17763568394E-14 -0.35527136788E-14  0.91188000000E+02  0.91188000000E+02 0.  0.
    9900012    2    3    3    0    0 -0.28535322914E+02  0.14621712988E+02 -0.29250025575E+02  0.47787272579E+02  0.20000006998E+02 0.  0.
         12    1    3    3    0    0  0.28535322914E+02 -0.14621712988E+02  0.29250025575E+02  0.43400727421E+02  0.00000000000E+00 0. -1.
         11    1    4    4    0    0 -0.69330076813E+01  0.25343840542E+01 -0.13619873766E+02  0.15491631925E+02  0.51100000000E-03 0. -1.
        -11    1    4    4    0    0 -0.15691720222E+02  0.12639331589E+02 -0.16813358535E+02  0.26242557269E+02  0.51100000000E-03 0.  1.
         12    1    4    4    0    0 -0.59105950100E+01 -0.55200265584E+00  0.11832067257E+01  0.60530833845E+01  0.00000000000E+00 0. -1.
</event>
<event>
 8    1  0.4042158E-011  0.9118800E+02  0.7816164E-02  0.1184000E+00
        -11   -1    0    0    0    0  0.00000000000E+00  0.00000000000E+00  0.45593999997E+02  0.45594000000E+02  0.51100000000E-03 0.  1.
         11   -1    0    0    0    0 -0.00000000000E+00 -0.00000000000E+00 -0.45593999997E+02  0.45594000000E+02  0.51100000000E-03 0. -1.
         23    2    1    2    0    0  0.00000000000E+00  0.00000000000E+00  0.00000000000E+00  0.91188000000E+02  0.91188000000E+02 0.  0.
    9900012    2    3    3    0    0 -0.23966995073E+02 -0.34688804159E+02 -0.10290447313E+02  0.47787270828E+02  0.19999999011E+02 0.  0.
        -12    1    3    3    0    0  0.23966995073E+02  0.34688804159E+02  0.10290447313E+02  0.43400729172E+02  0.00000000000E+00 0.  1.
         11    1    4    4    0    0 -0.16351128535E+02 -0.95762755288E+01 -0.17263373155E+01  0.19027472195E+02  0.51100000000E-03 0. -1.
        -11    1    4    4    0    0  0.14674835804E+01 -0.13508674122E+01 -0.32976497030E+00  0.20216567514E+01  0.51100000000E-03 0.  1.
        -12    1    4    4    0    0 -0.90833501189E+01 -0.23761661218E+02 -0.82343450272E+01  0.26738141881E+02  0.00000000000E+00 0.  1.
</event>
<event>
 8    1  0.4042158E-011  0.9118800E+02  0.7816164E-02  0.1184000E+00
        -11   -1    0    0    0    0  0.00000000000E+00  0.00000000000E+00  0.45593999997E+02  0.45594000000E+02  0.51100000000E-03 0. -1.
         11   -1    0    0    0    0 -0.00000000000E+00 -0.00000000000E+00 -0.45593999997E+02  0.45594000000E+02  0.51100000000E-03 0.  1.
         23    2    1    2    0    0  0.00000000000E+00  0.00000000000E+00  0.00000000000E+00  0.91188000000E+02  0.91188000000E+02 0.  0.
    9900012    2    3    3    0    0 -0.14457981250E+02 -0.22169720495E+02  0.34396202134E+02  0.47787211414E+02  0.19999728119E+02 0.  0.
        -12    1    3    3    0    0  0.14457981250E+02  0.22169720495E+02 -0.34396202134E+02  0.43400788586E+02  0.00000000000E+00 0.  1.
         11    1    4    4    0    0 -0.73557964631E+01 -0.59220243821E+01  0.18526820965E+02  0.20794739953E+02  0.51100000000E-03 0. -1.
        -11    1    4    4    0    0 -0.42910849950E+01  0.88640355025E-01  0.38555529397E+00  0.43092830834E+01  0.51100000000E-03 0.  1.
        -12    1    4    4    0    0 -0.28110997915E+01 -0.16336336468E+02  0.15483825875E+02  0.22683188377E+02  0.00000000000E+00 0.  1.
</event>
<event>
 8    1  0.4042158E-011  0.9118800E+02  0.7816164E-02  0.1184000E+00
        -11   -1    0    0    0    0  0.00000000000E+00  0.00000000000E+00  0.45593999997E+02  0.45594000000E+02  0.51100000000E-03 0. -1.
         11   -1    0    0    0    0 -0.00000000000E+00 -0.00000000000E+00 -0.45593999997E+02  0.45594000000E+02  0.51100000000E-03 0.  1.
         23    2    1    2    0    0 -0.17763568394E-14  0.00000000000E+00  0.00000000000E+00  0.91188000000E+02  0.91188000000E+02 0.  0.
    9900012    2    3    3    0    0  0.15368800513E+02  0.10040036290E+02  0.39327101055E+02  0.47787271489E+02  0.20000002025E+02 0.  0.
        -12    1    3    3    0    0 -0.15368800513E+02 -0.10040036290E+02 -0.39327101055E+02  0.43400728511E+02  0.00000000000E+00 0.  1.
         11    1    4    4    0    0  0.26779507746E+01  0.12167661517E+02  0.23409934283E+02  0.26518831621E+02  0.51100000000E-03 0. -1.
        -11    1    4    4    0    0  0.24200858235E+01  0.49995184069E+00  0.44239660175E+00  0.25104745071E+01  0.51100000000E-03 0.  1.
        -12    1    4    4    0    0  0.10270763915E+02 -0.26275770679E+01  0.15474770171E+02  0.18757965361E+02  0.00000000000E+00 0.  1.
</event>
<event>
 8    1  0.4042158E-011  0.9118800E+02  0.7816164E-02  0.1184000E+00
        -11   -1    0    0    0    0  0.00000000000E+00  0.00000000000E+00  0.45593999997E+02  0.45594000000E+02  0.51100000000E-03 0.  1.
         11   -1    0    0    0    0 -0.00000000000E+00 -0.00000000000E+00 -0.45593999997E+02  0.45594000000E+02  0.51100000000E-03 0. -1.
         23    2    1    2    0    0  0.00000000000E+00  0.00000000000E+00  0.00000000000E+00  0.91188000000E+02  0.91188000000E+02 0.  0.
    9900012    2    3    3    0    0  0.34134064856E+02  0.24250359548E+02  0.11419646777E+02  0.47787278182E+02  0.20000032544E+02 0.  0.
         12    1    3    3    0    0 -0.34134064856E+02 -0.24250359548E+02 -0.11419646777E+02  0.43400721818E+02  0.00000000000E+00 0. -1.
         11    1    4    4    0    0  0.58774056013E+01 -0.12499598125E+00  0.14401156750E+01  0.60525576425E+01  0.51100000000E-03 0. -1.
        -11    1    4    4    0    0  0.12213138232E+02  0.13301808545E+02 -0.30128466382E+01  0.18307815303E+02  0.51100000000E-03 0.  1.
        -12    1    4    4    0    0  0.16043521022E+02  0.11073546984E+02  0.12992377740E+02  0.23426905236E+02  0.00000000000E+00 0.  1.
</event>
<event>
 8    1  0.4042158E-011  0.9118800E+02  0.7816164E-02  0.1184000E+00
        -11   -1    0    0    0    0  0.00000000000E+00  0.00000000000E+00  0.45593999997E+02  0.45594000000E+02  0.51100000000E-03 0.  1.
         11   -1    0    0    0    0 -0.00000000000E+00 -0.00000000000E+00 -0.45593999997E+02  0.45594000000E+02  0.51100000000E-03 0. -1.
         23    2    1    2    0    0  0.71054273576E-14 -0.35527136788E-14  0.17763568394E-14  0.91188000000E+02  0.91188000000E+02 0.  0.
    9900012    2    3    3    0    0  0.38715223610E+02 -0.14745084196E+02  0.12935870933E+02  0.47787276459E+02  0.20000024685E+02 0.  0.
        -12    1    3    3    0    0 -0.38715223610E+02  0.14745084196E+02 -0.12935870933E+02  0.43400723541E+02  0.00000000000E+00 0.  1.
         11    1    4    4    0    0  0.36785113958E+02 -0.16858477006E+02  0.10930776940E+02  0.41914612496E+02  0.51100000000E-03 0. -1.
        -11    1    4    4    0    0 -0.35781736266E+00 -0.13172765394E+01  0.23451490551E+00  0.13850083929E+01  0.51100000000E-03 0.  1.
        -12    1    4    4    0    0  0.22879270144E+01  0.34306693495E+01  0.17705790869E+01  0.44876555696E+01  0.00000000000E+00 0.  1.
</event>
<event>
 8    1  0.4042158E-011  0.9118800E+02  0.7816164E-02  0.1184000E+00
        -11   -1    0    0    0    0  0.00000000000E+00  0.00000000000E+00  0.45593999997E+02  0.45594000000E+02  0.51100000000E-03 0. -1.
         11   -1    0    0    0    0 -0.00000000000E+00 -0.00000000000E+00 -0.45593999997E+02  0.45594000000E+02  0.51100000000E-03 0.  1.
         23    2    1    2    0    0  0.00000000000E+00  0.00000000000E+00  0.00000000000E+00  0.91188000000E+02  0.91188000000E+02 0.  0.
    9900012    2    3    3    0    0 -0.21149048659E+02  0.20078140100E+02 -0.32143567772E+02  0.47787275143E+02  0.20000018685E+02 0.  0.
         12    1    3    3    0    0  0.21149048659E+02 -0.20078140100E+02  0.32143567772E+02  0.43400724857E+02  0.00000000000E+00 0. -1.
         11    1    4    4    0    0 -0.16098943232E+01  0.72116913982E+01 -0.64921463647E+01  0.98360671631E+01  0.51100000000E-03 0. -1.
        -11    1    4    4    0    0  0.78990327111E+00  0.63612483061E+01 -0.80154992639E+01  0.10263413462E+02  0.51100000000E-03 0.  1.
         12    1    4    4    0    0 -0.20329057607E+02  0.65052003956E+01 -0.17635922143E+02  0.27687794517E+02  0.00000000000E+00 0. -1.
</event>
<event>
 8    1  0.4042158E-011  0.9118800E+02  0.7816164E-02  0.1184000E+00
        -11   -1    0    0    0    0  0.00000000000E+00  0.00000000000E+00  0.45593999997E+02  0.45594000000E+02  0.51100000000E-03 0. -1.
         11   -1    0    0    0    0 -0.00000000000E+00 -0.00000000000E+00 -0.45593999997E+02  0.45594000000E+02  0.51100000000E-03 0.  1.
         23    2    1    2    0    0 -0.17763568394E-14  0.00000000000E+00  0.00000000000E+00  0.91188000000E+02  0.91188000000E+02 0.  0.
    9900012    2    3    3    0    0  0.14660965646E+02 -0.17916622133E+02  0.36710680057E+02  0.47787270829E+02  0.19999999018E+02 0.  0.
        -12    1    3    3    0    0 -0.14660965646E+02  0.17916622133E+02 -0.36710680057E+02  0.43400729171E+02  0.00000000000E+00 0.  1.
         11    1    4    4    0    0  0.34128113529E+01 -0.85800181683E+01  0.22489561052E+02  0.24311403696E+02  0.51100000000E-03 0. -1.
        -11    1    4    4    0    0  0.99537054364E+01 -0.74179991620E+01  0.16214798872E+02  0.20421132834E+02  0.51100000000E-03 0.  1.
        -12    1    4    4    0    0  0.12944488565E+01 -0.19186048023E+01 -0.19936798670E+01  0.30547342996E+01  0.00000000000E+00 0.  1.
</event>
<event>
 8    1  0.4042158E-011  0.9118800E+02  0.7816164E-02  0.1184000E+00
        -11   -1    0    0    0    0  0.00000000000E+00  0.00000000000E+00  0.45593999997E+02  0.45594000000E+02  0.51100000000E-03 0. -1.
         11   -1    0    0    0    0 -0.00000000000E+00 -0.00000000000E+00 -0.45593999997E+02  0.45594000000E+02  0.51100000000E-03 0.  1.
         23    2    1    2    0    0  0.44408920985E-15  0.00000000000E+00  0.00000000000E+00  0.91188000000E+02  0.91188000000E+02 0.  0.
    9900012    2    3    3    0    0  0.10074528434E+01 -0.29070449733E+02 -0.32210513783E+02  0.47787271814E+02  0.20000003508E+02 0.  0.
         12    1    3    3    0    0 -0.10074528434E+01  0.29070449733E+02  0.32210513783E+02  0.43400728186E+02  0.00000000000E+00 0. -1.
         11    1    4    4    0    0  0.67865208333E+00  0.20772019050E+01 -0.27324591606E+01  0.34988097590E+01  0.51100000000E-03 0. -1.
        -11    1    4    4    0    0 -0.38238766118E+01 -0.45703464130E+01 -0.36007859401E+01  0.69624534702E+01  0.51100000000E-03 0.  1.
         12    1    4    4    0    0  0.41526773718E+01 -0.26577305225E+02 -0.25877268683E+02  0.37326008585E+02  0.00000000000E+00 0. -1.
</event>
<event>
 8    1  0.4042158E-011  0.9118800E+02  0.7816164E-02  0.1184000E+00
        -11   -1    0    0    0    0  0.00000000000E+00  0.00000000000E+00  0.45593999997E+02  0.45594000000E+02  0.51100000000E-03 0. -1.
         11   -1    0    0    0    0 -0.00000000000E+00 -0.00000000000E+00 -0.45593999997E+02  0.45594000000E+02  0.51100000000E-03 0.  1.
         23    2    1    2    0    0  0.71054273576E-14  0.17763568394E-14  0.00000000000E+00  0.91188000000E+02  0.91188000000E+02 0.  0.
    9900012    2    3    3    0    0  0.34078923561E+02  0.11256911484E+02  0.24403492523E+02  0.47787291082E+02  0.20000091361E+02 0.  0.
        -12    1    3    3    0    0 -0.34078923561E+02 -0.11256911484E+02 -0.24403492523E+02  0.43400708918E+02  0.00000000000E+00 0.  1.
         11    1    4    4    0    0  0.23079362507E+02  0.47606074001E+01  0.22232836418E+02  0.32397829742E+02  0.51100000000E-03 0. -1.
        -11    1    4    4    0    0 -0.74972086037E+00 -0.69489908731E+00  0.12052369962E+01  0.15803678648E+01  0.51100000000E-03 0.  1.
         12    1    4    4    0    0  0.11749281915E+02  0.71912031714E+01  0.96541910856E+00  0.13809093476E+02  0.00000000000E+00 0. -1.
</event>
<event>
 8    1  0.4042158E-011  0.9118800E+02  0.7816164E-02  0.1184000E+00
        -11   -1    0    0    0    0  0.00000000000E+00  0.00000000000E+00  0.45593999997E+02  0.45594000000E+02  0.51100000000E-03 0. -1.
         11   -1    0    0    0    0 -0.00000000000E+00 -0.00000000000E+00 -0.45593999997E+02  0.45594000000E+02  0.51100000000E-03 0.  1.
         23    2    1    2    0    0  0.00000000000E+00  0.00000000000E+00  0.00000000000E+00  0.91188000000E+02  0.91188000000E+02 0.  0.
    9900012    2    3    3    0    0 -0.49466031471E+01 -0.27800856225E+02  0.32958565070E+02  0.47787268428E+02  0.19999988069E+02 0.  0.
        -12    1    3    3    0    0  0.49466031471E+01  0.27800856225E+02 -0.32958565070E+02  0.43400731572E+02  0.00000000000E+00 0.  1.
         11    1    4    4    0    0 -0.28032238142E+01 -0.49654732058E+01  0.11465713671E+01  0.58162371058E+01  0.51100000000E-03 0. -1.
        -11    1    4    4    0    0  0.40699858160E+01 -0.13093761752E+02  0.90053901756E+01  0.16404524798E+02  0.51100000000E-03 0.  1.
        -12    1    4    4    0    0 -0.62133651489E+01 -0.97416212669E+01  0.22806603528E+02  0.25566506524E+02  0.00000000000E+00 0.  1.
</event>
<event>
 8    1  0.4042158E-011  0.9118800E+02  0.7816164E-02  0.1184000E+00
        -11   -1    0    0    0    0  0.00000000000E+00  0.00000000000E+00  0.45593999997E+02  0.45594000000E+02  0.51100000000E-03 0. -1.
         11   -1    0    0    0    0 -0.00000000000E+00 -0.00000000000E+00 -0.45593999997E+02  0.45594000000E+02  0.51100000000E-03 0.  1.
         23    2    1    2    0    0 -0.17763568394E-14  0.53290705182E-14 -0.14210854715E-13  0.91188000000E+02  0.91188000000E+02 0.  0.
    9900012    2    3    3    0    0 -0.12196203104E+02  0.13073663503E+02 -0.39546878845E+02  0.47787266436E+02  0.19999978987E+02 0.  0.
         12    1    3    3    0    0  0.12196203104E+02 -0.13073663503E+02  0.39546878845E+02  0.43400733564E+02  0.00000000000E+00 0. -1.
         11    1    4    4    0    0 -0.65352318332E+01  0.41366402059E+01 -0.43721172274E+01  0.88846191037E+01  0.51100000000E-03 0. -1.
        -11    1    4    4    0    0 -0.75333534197E+01  0.97349595776E+01 -0.34691688228E+02  0.36810787604E+02  0.51100000000E-03 0.  1.
         12    1    4    4    0    0  0.18723821490E+01 -0.79793628023E+00 -0.48307338999E+00  0.20918597275E+01  0.00000000000E+00 0. -1.
</event>
<event>
 8    1  0.4469861E-011  0.9118800E+02  0.7816164E-02  0.1184000E+00
        -11   -1    0    0    0    0  0.00000000000E+00  0.00000000000E+00  0.45593999997E+02  0.45594000000E+02  0.51100000000E-03 0. -1.
         11   -1    0    0    0    0 -0.00000000000E+00 -0.00000000000E+00 -0.45593999997E+02  0.45594000000E+02  0.51100000000E-03 0.  1.
         23    2    1    2    0    0  0.00000000000E+00  0.00000000000E+00  0.71054273576E-14  0.91188000000E+02  0.91188000000E+02 0.  0.
    9900012    2    3    3    0    0 -0.52117821081E+01 -0.32302359456E+01  0.42965402399E+02  0.47787275348E+02  0.20000019623E+02 0.  0.
        -12    1    3    3    0    0  0.52117821081E+01  0.32302359456E+01 -0.42965402399E+02  0.43400724652E+02  0.00000000000E+00 0.  1.
         11    1    4    4    0    0 -0.23522999854E+01 -0.15521468116E+01  0.23058266132E+02  0.23229853901E+02  0.51100000000E-03 0. -1.
        -11    1    4    4    0    0 -0.26502744955E+01 -0.53983989899E+01  0.19944072163E+02  0.20831050892E+02  0.51100000000E-03 0.  1.
        -12    1    4    4    0    0 -0.20920762713E+00  0.37203098559E+01 -0.36935897025E-01  0.37263705554E+01  0.00000000000E+00 0.  1.
</event>
<event>
 8    1  0.4042158E-011  0.9118800E+02  0.7816164E-02  0.1184000E+00
        -11   -1    0    0    0    0  0.00000000000E+00  0.00000000000E+00  0.45593999997E+02  0.45594000000E+02  0.51100000000E-03 0.  1.
         11   -1    0    0    0    0 -0.00000000000E+00 -0.00000000000E+00 -0.45593999997E+02  0.45594000000E+02  0.51100000000E-03 0. -1.
         23    2    1    2    0    0  0.71054273576E-14  0.00000000000E+00  0.00000000000E+00  0.91188000000E+02  0.91188000000E+02 0.  0.
    9900012    2    3    3    0    0 -0.43284058316E+02  0.23189638411E+01  0.21762706081E+01  0.47787269000E+02  0.19999990678E+02 0.  0.
        -12    1    3    3    0    0  0.43284058316E+02 -0.23189638411E+01 -0.21762706081E+01  0.43400731000E+02  0.00000000000E+00 0.  1.
         11    1    4    4    0    0 -0.26238974745E+01  0.32952620368E+01  0.33445923330E+01  0.53786511304E+01  0.51100000000E-03 0. -1.
        -11    1    4    4    0    0 -0.82626156566E+01  0.38531356735E+01 -0.30112041328E+01  0.96012927566E+01  0.51100000000E-03 0.  1.
         12    1    4    4    0    0 -0.32397545185E+02 -0.48294338692E+01  0.18428824079E+01  0.32807325113E+02  0.00000000000E+00 0. -1.
</event>
<event>
 8    1  0.4042158E-011  0.9118800E+02  0.7816164E-02  0.1184000E+00
        -11   -1    0    0    0    0  0.00000000000E+00  0.00000000000E+00  0.45593999997E+02  0.45594000000E+02  0.51100000000E-03 0. -1.
         11   -1    0    0    0    0 -0.00000000000E+00 -0.00000000000E+00 -0.45593999997E+02  0.45594000000E+02  0.51100000000E-03 0.  1.
         23    2    1    2    0    0 -0.10547118734E-14 -0.17763568394E-14  0.00000000000E+00  0.91188000000E+02  0.91188000000E+02 0.  0.
    9900012    2    3    3    0    0 -0.41481399322E+00 -0.74268188667E+01  0.42758548406E+02  0.47787272231E+02  0.20000005410E+02 0.  0.
        -12    1    3    3    0    0  0.41481399322E+00  0.74268188667E+01 -0.42758548406E+02  0.43400727769E+02  0.00000000000E+00 0.  1.
         11    1    4    4    0    0 -0.87074994232E+00 -0.70573668762E+00  0.56168718215E+01  0.57276102395E+01  0.51100000000E-03 0. -1.
        -11    1    4    4    0    0 -0.65705773145E+01 -0.62452894540E+01  0.80363759243E+01  0.12114432090E+02  0.51100000000E-03 0.  1.
        -12    1    4    4    0    0  0.70265132636E+01 -0.47579272503E+00  0.29105300660E+02  0.29945229901E+02  0.00000000000E+00 0.  1.
</event>
<event>
 8    1  0.4042158E-011  0.9118800E+02  0.7816164E-02  0.1184000E+00
        -11   -1    0    0    0    0  0.00000000000E+00  0.00000000000E+00  0.45593999997E+02  0.45594000000E+02  0.51100000000E-03 0. -1.
         11   -1    0    0    0    0 -0.00000000000E+00 -0.00000000000E+00 -0.45593999997E+02  0.45594000000E+02  0.51100000000E-03 0.  1.
         23    2    1    2    0    0  0.35527136788E-14  0.00000000000E+00  0.00000000000E+00  0.91188000000E+02  0.91188000000E+02 0.  0.
    9900012    2    3    3    0    0  0.21056829736E+02  0.87002678596E+01  0.36939663118E+02  0.47787269008E+02  0.19999990713E+02 0.  0.
        -12    1    3    3    0    0 -0.21056829736E+02 -0.87002678596E+01 -0.36939663118E+02  0.43400730992E+02  0.00000000000E+00 0.  1.
         11    1    4    4    0    0  0.85878164839E+01 -0.15445853322E+01  0.11967551344E+02  0.14810760319E+02  0.51100000000E-03 0. -1.
        -11    1    4    4    0    0  0.11532399489E+02  0.31131863348E+01  0.75583060839E+01  0.14135634342E+02  0.51100000000E-03 0.  1.
        -12    1    4    4    0    0  0.93661376364E+00  0.71316668570E+01  0.17413805691E+02  0.18840874346E+02  0.00000000000E+00 0.  1.
</event>
<event>
 8    1  0.4042158E-011  0.9118800E+02  0.7816164E-02  0.1184000E+00
        -11   -1    0    0    0    0  0.00000000000E+00  0.00000000000E+00  0.45593999997E+02  0.45594000000E+02  0.51100000000E-03 0. -1.
         11   -1    0    0    0    0 -0.00000000000E+00 -0.00000000000E+00 -0.45593999997E+02  0.45594000000E+02  0.51100000000E-03 0.  1.
         23    2    1    2    0    0  0.44408920985E-15  0.17763568394E-14  0.00000000000E+00  0.91188000000E+02  0.91188000000E+02 0.  0.
    9900012    2    3    3    0    0 -0.11884819067E+01  0.61113067336E+00  0.43380148533E+02  0.47787271243E+02  0.20000000904E+02 0.  0.
        -12    1    3    3    0    0  0.11884819067E+01 -0.61113067336E+00 -0.43380148533E+02  0.43400728757E+02  0.00000000000E+00 0.  1.
         11    1    4    4    0    0 -0.56595973420E+01  0.38861273295E+01  0.11219004417E+02  0.13152911771E+02  0.51100000000E-03 0. -1.
        -11    1    4    4    0    0  0.24738522124E+01  0.43072584812E+01  0.11087016752E+02  0.12148841966E+02  0.51100000000E-03 0.  1.
        -12    1    4    4    0    0  0.19972632229E+01 -0.75822551374E+01  0.21074127363E+02  0.22485517505E+02  0.00000000000E+00 0.  1.
</event>
<event>
 8    1  0.4042158E-011  0.9118800E+02  0.7816164E-02  0.1184000E+00
        -11   -1    0    0    0    0  0.00000000000E+00  0.00000000000E+00  0.45593999997E+02  0.45594000000E+02  0.51100000000E-03 0. -1.
         11   -1    0    0    0    0 -0.00000000000E+00 -0.00000000000E+00 -0.45593999997E+02  0.45594000000E+02  0.51100000000E-03 0.  1.
         23    2    1    2    0    0  0.00000000000E+00  0.00000000000E+00  0.00000000000E+00  0.91188000000E+02  0.91188000000E+02 0.  0.
    9900012    2    3    3    0    0 -0.11205729194E+02  0.22180403683E+02 -0.35582078322E+02  0.47787274522E+02  0.20000015854E+02 0.  0.
         12    1    3    3    0    0  0.11205729194E+02 -0.22180403683E+02  0.35582078322E+02  0.43400725478E+02  0.00000000000E+00 0. -1.
         11    1    4    4    0    0  0.31594156660E+00  0.83502032855E+01 -0.10312384265E+01  0.84195704722E+01  0.51100000000E-03 0. -1.
        -11    1    4    4    0    0 -0.41211672029E+01  0.37281104304E+01 -0.59290573450E+01  0.81262874523E+01  0.51100000000E-03 0.  1.
        -12    1    4    4    0    0 -0.74005035573E+01  0.10102089967E+02 -0.28621782551E+02  0.31241416597E+02  0.00000000000E+00 0.  1.
</event>
<event>
 8    1  0.4042158E-011  0.9118800E+02  0.7816164E-02  0.1184000E+00
        -11   -1    0    0    0    0  0.00000000000E+00  0.00000000000E+00  0.45593999997E+02  0.45594000000E+02  0.51100000000E-03 0. -1.
         11   -1    0    0    0    0 -0.00000000000E+00 -0.00000000000E+00 -0.45593999997E+02  0.45594000000E+02  0.51100000000E-03 0.  1.
         23    2    1    2    0    0  0.00000000000E+00  0.00000000000E+00 -0.88817841970E-15  0.91188000000E+02  0.91188000000E+02 0.  0.
    9900012    2    3    3    0    0 -0.20113815425E+02 -0.38241917612E+02 -0.40759371286E+01  0.47787273081E+02  0.20000009287E+02 0.  0.
         12    1    3    3    0    0  0.20113815425E+02  0.38241917612E+02  0.40759371286E+01  0.43400726919E+02  0.00000000000E+00 0. -1.
         11    1    4    4    0    0 -0.26332432946E+01 -0.71337464027E+00 -0.24465632134E+01  0.36644979799E+01  0.51100000000E-03 0. -1.
        -11    1    4    4    0    0 -0.10145205003E+02 -0.64070850961E+01  0.99999353799E+00  0.12040594309E+02  0.51100000000E-03 0.  1.
        -12    1    4    4    0    0 -0.73353671272E+01 -0.31121457876E+02 -0.26293674532E+01  0.32082180793E+02  0.00000000000E+00 0.  1.
</event>
<event>
 8    1  0.4042158E-011  0.9118800E+02  0.7816164E-02  0.1184000E+00
        -11   -1    0    0    0    0  0.00000000000E+00  0.00000000000E+00  0.45593999997E+02  0.45594000000E+02  0.51100000000E-03 0. -1.
         11   -1    0    0    0    0 -0.00000000000E+00 -0.00000000000E+00 -0.45593999997E+02  0.45594000000E+02  0.51100000000E-03 0.  1.
         23    2    1    2    0    0  0.00000000000E+00 -0.22204460493E-15  0.00000000000E+00  0.91188000000E+02  0.91188000000E+02 0.  0.
    9900012    2    3    3    0    0  0.88964096745E+01  0.11186944903E+01 -0.42464403476E+02  0.47787272529E+02  0.20000006767E+02 0.  0.
         12    1    3    3    0    0 -0.88964096745E+01 -0.11186944903E+01  0.42464403476E+02  0.43400727471E+02  0.00000000000E+00 0. -1.
         11    1    4    4    0    0  0.48064843626E+00 -0.21718688636E+01  0.79979643536E+00  0.23638341480E+01  0.51100000000E-03 0. -1.
        -11    1    4    4    0    0  0.61942017390E+01  0.26504198165E+01 -0.98758280335E+01  0.11955117732E+02  0.51100000000E-03 0.  1.
         12    1    4    4    0    0  0.22215594992E+01  0.64014353749E+00 -0.33388371878E+02  0.33468320648E+02  0.00000000000E+00 0. -1.
</event>
<event>
 8    1  0.4042158E-011  0.9118800E+02  0.7816164E-02  0.1184000E+00
        -11   -1    0    0    0    0  0.00000000000E+00  0.00000000000E+00  0.45593999997E+02  0.45594000000E+02  0.51100000000E-03 0. -1.
         11   -1    0    0    0    0 -0.00000000000E+00 -0.00000000000E+00 -0.45593999997E+02  0.45594000000E+02  0.51100000000E-03 0.  1.
         23    2    1    2    0    0  0.00000000000E+00  0.00000000000E+00  0.00000000000E+00  0.91188000000E+02  0.91188000000E+02 0.  0.
    9900012    2    3    3    0    0 -0.12002596890E+02  0.20452642448E+02 -0.36349005248E+02  0.47787273073E+02  0.20000009250E+02 0.  0.
         12    1    3    3    0    0  0.12002596890E+02 -0.20452642448E+02  0.36349005248E+02  0.43400726927E+02  0.00000000000E+00 0. -1.
         11    1    4    4    0    0  0.30421860408E+01  0.72836686751E+01 -0.67969392214E+01  0.10416578532E+02  0.51100000000E-03 0. -1.
        -11    1    4    4    0    0 -0.13077666688E+01 -0.19908357719E+01 -0.37477806180E+01  0.44406689308E+01  0.51100000000E-03 0.  1.
        -12    1    4    4    0    0 -0.13737016262E+02  0.15159809545E+02 -0.25804285409E+02  0.32930025610E+02  0.00000000000E+00 0.  1.
</event>
<event>
 8    1  0.4042158E-011  0.9118800E+02  0.7816164E-02  0.1184000E+00
        -11   -1    0    0    0    0  0.00000000000E+00  0.00000000000E+00  0.45593999997E+02  0.45594000000E+02  0.51100000000E-03 0. -1.
         11   -1    0    0    0    0 -0.00000000000E+00 -0.00000000000E+00 -0.45593999997E+02  0.45594000000E+02  0.51100000000E-03 0.  1.
         23    2    1    2    0    0 -0.13322676296E-14  0.88817841970E-15  0.00000000000E+00  0.91188000000E+02  0.91188000000E+02 0.  0.
    9900012    2    3    3    0    0 -0.14055443949E+01  0.17113264461E+01 -0.43344186445E+02  0.47787277749E+02  0.20000030571E+02 0.  0.
         12    1    3    3    0    0  0.14055443949E+01 -0.17113264461E+01  0.43344186445E+02  0.43400722251E+02  0.00000000000E+00 0. -1.
         11    1    4    4    0    0  0.12834074225E+01 -0.33950890951E-01 -0.51232403763E+00  0.13823036772E+01  0.51100000000E-03 0. -1.
        -11    1    4    4    0    0  0.52721663754E+01 -0.30486350675E+01 -0.29697062836E+02  0.30315102761E+02  0.51100000000E-03 0.  1.
         12    1    4    4    0    0 -0.79611181928E+01  0.47939124046E+01 -0.13134799572E+02  0.16089871311E+02  0.00000000000E+00 0. -1.
</event>
<event>
 8    1  0.4042158E-011  0.9118800E+02  0.7816164E-02  0.1184000E+00
        -11   -1    0    0    0    0  0.00000000000E+00  0.00000000000E+00  0.45593999997E+02  0.45594000000E+02  0.51100000000E-03 0.  1.
         11   -1    0    0    0    0 -0.00000000000E+00 -0.00000000000E+00 -0.45593999997E+02  0.45594000000E+02  0.51100000000E-03 0. -1.
         23    2    1    2    0    0  0.00000000000E+00  0.00000000000E+00  0.00000000000E+00  0.91188000000E+02  0.91188000000E+02 0.  0.
    9900012    2    3    3    0    0 -0.20820117090E+02  0.30825923355E+02  0.22358630024E+02  0.47787272323E+02  0.20000005830E+02 0.  0.
         12    1    3    3    0    0  0.20820117090E+02 -0.30825923355E+02 -0.22358630024E+02  0.43400727677E+02  0.00000000000E+00 0. -1.
         11    1    4    4    0    0 -0.84006355954E-01  0.10609901053E+01 -0.35540639333E+00  0.11220833467E+01  0.51100000000E-03 0. -1.
        -11    1    4    4    0    0 -0.77217860306E+01  0.26068968805E+02  0.16209110747E+02  0.31653631474E+02  0.51100000000E-03 0.  1.
         12    1    4    4    0    0 -0.13014324703E+02  0.36959644450E+01  0.65049256705E+01  0.15011557502E+02  0.00000000000E+00 0. -1.
</event>
<event>
 8    1  0.4042158E-011  0.9118800E+02  0.7816164E-02  0.1184000E+00
        -11   -1    0    0    0    0  0.00000000000E+00  0.00000000000E+00  0.45593999997E+02  0.45594000000E+02  0.51100000000E-03 0.  1.
         11   -1    0    0    0    0 -0.00000000000E+00 -0.00000000000E+00 -0.45593999997E+02  0.45594000000E+02  0.51100000000E-03 0. -1.
         23    2    1    2    0    0  0.35527136788E-14  0.00000000000E+00 -0.88817841970E-15  0.91188000000E+02  0.91188000000E+02 0.  0.
    9900012    2    3    3    0    0  0.31637133850E+02 -0.29168416343E+02  0.56496854528E+01  0.47787266182E+02  0.19999977831E+02 0.  0.
         12    1    3    3    0    0 -0.31637133850E+02  0.29168416343E+02 -0.56496854528E+01  0.43400733818E+02  0.00000000000E+00 0. -1.
         11    1    4    4    0    0  0.26525280266E+01 -0.29766648883E+01 -0.44955756393E+01  0.60088800436E+01  0.51100000000E-03 0. -1.
        -11    1    4    4    0    0  0.13433470939E+02 -0.14645453449E+02 -0.85603681617E-01  0.19873469160E+02  0.51100000000E-03 0.  1.
        -12    1    4    4    0    0  0.15551134884E+02 -0.11546298006E+02  0.10230864774E+02  0.21904916979E+02  0.00000000000E+00 0.  1.
</event>
<event>
 8    1  0.4042158E-011  0.9118800E+02  0.7816164E-02  0.1184000E+00
        -11   -1    0    0    0    0  0.00000000000E+00  0.00000000000E+00  0.45593999997E+02  0.45594000000E+02  0.51100000000E-03 0. -1.
         11   -1    0    0    0    0 -0.00000000000E+00 -0.00000000000E+00 -0.45593999997E+02  0.45594000000E+02  0.51100000000E-03 0.  1.
         23    2    1    2    0    0 -0.88817841970E-15  0.00000000000E+00  0.00000000000E+00  0.91188000000E+02  0.91188000000E+02 0.  0.
    9900012    2    3    3    0    0  0.56264642244E+01  0.30008609815E+02 -0.30845575551E+02  0.47787270815E+02  0.19999998954E+02 0.  0.
         12    1    3    3    0    0 -0.56264642244E+01 -0.30008609815E+02  0.30845575551E+02  0.43400729185E+02  0.00000000000E+00 0. -1.
         11    1    4    4    0    0  0.58671869749E+01  0.45170261498E+01 -0.54709086479E+01  0.92064243835E+01  0.51100000000E-03 0. -1.
        -11    1    4    4    0    0  0.46735906906E+01  0.23152128422E+02 -0.20685497929E+02  0.31396708829E+02  0.51100000000E-03 0.  1.
        -12    1    4    4    0    0 -0.49143134411E+01  0.23394552431E+01 -0.46891689741E+01  0.71841376030E+01  0.00000000000E+00 0.  1.
</event>
<event>
 8    1  0.4042158E-011  0.9118800E+02  0.7816164E-02  0.1184000E+00
        -11   -1    0    0    0    0  0.00000000000E+00  0.00000000000E+00  0.45593999997E+02  0.45594000000E+02  0.51100000000E-03 0.  1.
         11   -1    0    0    0    0 -0.00000000000E+00 -0.00000000000E+00 -0.45593999997E+02  0.45594000000E+02  0.51100000000E-03 0. -1.
         23    2    1    2    0    0 -0.35527136788E-14  0.00000000000E+00  0.00000000000E+00  0.91188000000E+02  0.91188000000E+02 0.  0.
    9900012    2    3    3    0    0 -0.16857283114E+02  0.34309527831E+02 -0.20550225210E+02  0.47787269014E+02  0.19999990741E+02 0.  0.
         12    1    3    3    0    0  0.16857283114E+02 -0.34309527831E+02  0.20550225210E+02  0.43400730986E+02  0.00000000000E+00 0. -1.
         11    1    4    4    0    0 -0.10485319342E+02  0.94495074177E+01 -0.73469054196E+01  0.15912640624E+02  0.51100000000E-03 0. -1.
        -11    1    4    4    0    0 -0.89815782551E+01  0.17680553247E+02 -0.13879686201E+02  0.24205710078E+02  0.51100000000E-03 0.  1.
         12    1    4    4    0    0  0.26096144832E+01  0.71794671667E+01  0.67636641051E+00  0.76689183116E+01  0.00000000000E+00 0. -1.
</event>
<event>
 8    1  0.4042158E-011  0.9118800E+02  0.7816164E-02  0.1184000E+00
        -11   -1    0    0    0    0  0.00000000000E+00  0.00000000000E+00  0.45593999997E+02  0.45594000000E+02  0.51100000000E-03 0. -1.
         11   -1    0    0    0    0 -0.00000000000E+00 -0.00000000000E+00 -0.45593999997E+02  0.45594000000E+02  0.51100000000E-03 0.  1.
         23    2    1    2    0    0  0.00000000000E+00  0.00000000000E+00 -0.71054273576E-14  0.91188000000E+02  0.91188000000E+02 0.  0.
    9900012    2    3    3    0    0  0.17823441027E+02 -0.12607327831E+02  0.37510044814E+02  0.47787271584E+02  0.20000002459E+02 0.  0.
        -12    1    3    3    0    0 -0.17823441027E+02  0.12607327831E+02 -0.37510044814E+02  0.43400728416E+02  0.00000000000E+00 0.  1.
         11    1    4    4    0    0  0.17575050916E-01 -0.13914225220E+01 -0.12803477200E+01  0.18909405232E+01  0.51100000000E-03 0. -1.
        -11    1    4    4    0    0  0.50219734880E+01 -0.23419985703E+01  0.19000099859E+01  0.58579188476E+01  0.51100000000E-03 0.  1.
         12    1    4    4    0    0  0.12783892488E+02 -0.88739067392E+01  0.36890382548E+02  0.40038412213E+02  0.00000000000E+00 0. -1.
</event>
<event>
 8    1  0.4042158E-011  0.9118800E+02  0.7816164E-02  0.1184000E+00
        -11   -1    0    0    0    0  0.00000000000E+00  0.00000000000E+00  0.45593999997E+02  0.45594000000E+02  0.51100000000E-03 0. -1.
         11   -1    0    0    0    0 -0.00000000000E+00 -0.00000000000E+00 -0.45593999997E+02  0.45594000000E+02  0.51100000000E-03 0.  1.
         23    2    1    2    0    0  0.35527136788E-14 -0.35527136788E-14 -0.71054273576E-14  0.91188000000E+02  0.91188000000E+02 0.  0.
    9900012    2    3    3    0    0 -0.17512378388E+02  0.11245844772E+02  0.38085050674E+02  0.47787268367E+02  0.19999987792E+02 0.  0.
        -12    1    3    3    0    0  0.17512378388E+02 -0.11245844772E+02 -0.38085050674E+02  0.43400731633E+02  0.00000000000E+00 0.  1.
         11    1    4    4    0    0  0.11246126000E+01 -0.15800001413E+01  0.44145309678E+01  0.48217463510E+01  0.51100000000E-03 0.  1.
        -11    1    4    4    0    0 -0.20389773176E+02  0.12859757727E+02  0.33401416407E+02  0.41191878292E+02  0.51100000000E-03 0. -1.
         12    1    4    4    0    0  0.17527821872E+01 -0.33912813832E-01  0.26910329895E+00  0.17736437241E+01  0.00000000000E+00 0. -1.
</event>
<event>
 8    1  0.4042158E-011  0.9118800E+02  0.7816164E-02  0.1184000E+00
        -11   -1    0    0    0    0  0.00000000000E+00  0.00000000000E+00  0.45593999997E+02  0.45594000000E+02  0.51100000000E-03 0. -1.
         11   -1    0    0    0    0 -0.00000000000E+00 -0.00000000000E+00 -0.45593999997E+02  0.45594000000E+02  0.51100000000E-03 0.  1.
         23    2    1    2    0    0  0.00000000000E+00  0.17763568394E-14 -0.71054273576E-14  0.91188000000E+02  0.91188000000E+02 0.  0.
    9900012    2    3    3    0    0  0.10793571971E+02  0.10435844545E+02 -0.40721191788E+02  0.47787268349E+02  0.19999987709E+02 0.  0.
         12    1    3    3    0    0 -0.10793571971E+02 -0.10435844545E+02  0.40721191788E+02  0.43400731651E+02  0.00000000000E+00 0. -1.
         11    1    4    4    0    0 -0.15613117007E+00  0.66063131809E+01 -0.96023547639E+01  0.11656456068E+02  0.51100000000E-03 0. -1.
        -11    1    4    4    0    0 -0.30674162466E+01  0.26727022607E+01 -0.48225416552E+01  0.63094602052E+01  0.51100000000E-03 0.  1.
        -12    1    4    4    0    0  0.14017119388E+02  0.11568291032E+01 -0.26296295369E+02  0.29821352076E+02  0.00000000000E+00 0.  1.
</event>
<event>
 8    1  0.4042158E-011  0.9118800E+02  0.7816164E-02  0.1184000E+00
        -11   -1    0    0    0    0  0.00000000000E+00  0.00000000000E+00  0.45593999997E+02  0.45594000000E+02  0.51100000000E-03 0. -1.
         11   -1    0    0    0    0 -0.00000000000E+00 -0.00000000000E+00 -0.45593999997E+02  0.45594000000E+02  0.51100000000E-03 0.  1.
         23    2    1    2    0    0  0.00000000000E+00  0.00000000000E+00  0.00000000000E+00  0.91188000000E+02  0.91188000000E+02 0.  0.
    9900012    2    3    3    0    0  0.16073617086E+02  0.23750680290E+02 -0.32575564141E+02  0.47787270057E+02  0.19999995500E+02 0.  0.
         12    1    3    3    0    0 -0.16073617086E+02 -0.23750680290E+02  0.32575564141E+02  0.43400729943E+02  0.00000000000E+00 0. -1.
         11    1    4    4    0    0  0.26028068484E+01  0.20491822465E+00 -0.90789973970E+01  0.94469460126E+01  0.51100000000E-03 0. -1.
        -11    1    4    4    0    0  0.13467909461E+02  0.10542553240E+02 -0.11204390210E+02  0.20446720381E+02  0.51100000000E-03 0.  1.
        -12    1    4    4    0    0  0.29007763518E-02  0.13003208825E+02 -0.12292176534E+02  0.17893603664E+02  0.00000000000E+00 0.  1.
</event>
<event>
 8    1  0.4042158E-011  0.9118800E+02  0.7816164E-02  0.1184000E+00
        -11   -1    0    0    0    0  0.00000000000E+00  0.00000000000E+00  0.45593999997E+02  0.45594000000E+02  0.51100000000E-03 0. -1.
         11   -1    0    0    0    0 -0.00000000000E+00 -0.00000000000E+00 -0.45593999997E+02  0.45594000000E+02  0.51100000000E-03 0.  1.
         23    2    1    2    0    0  0.00000000000E+00  0.00000000000E+00  0.00000000000E+00  0.91188000000E+02  0.91188000000E+02 0.  0.
    9900012    2    3    3    0    0 -0.22696604323E+02  0.47446363751E+01 -0.36687546034E+02  0.47787268945E+02  0.19999990428E+02 0.  0.
         12    1    3    3    0    0  0.22696604323E+02 -0.47446363751E+01  0.36687546034E+02  0.43400731055E+02  0.00000000000E+00 0. -1.
         11    1    4    4    0    0 -0.98619390998E+01 -0.50719206595E+01 -0.19630120679E+02  0.22546038679E+02  0.51100000000E-03 0. -1.
        -11    1    4    4    0    0 -0.97092450568E+01  0.33702987749E+01 -0.14198526972E+02  0.17527878418E+02  0.51100000000E-03 0.  1.
        -12    1    4    4    0    0 -0.31254201660E+01  0.64462582597E+01 -0.28588983829E+01  0.77133518478E+01  0.00000000000E+00 0.  1.
</event>
<event>
 8    1  0.4329066E-011  0.9118800E+02  0.7816164E-02  0.1184000E+00
        -11   -1    0    0    0    0  0.00000000000E+00  0.00000000000E+00  0.45593999997E+02  0.45594000000E+02  0.51100000000E-03 0. -1.
         11   -1    0    0    0    0 -0.00000000000E+00 -0.00000000000E+00 -0.45593999997E+02  0.45594000000E+02  0.51100000000E-03 0.  1.
         23    2    1    2    0    0  0.00000000000E+00 -0.35527136788E-14  0.00000000000E+00  0.91188000000E+02  0.91188000000E+02 0.  0.
    9900012    2    3    3    0    0  0.54063667359E+01 -0.31919235700E+02  0.28906031473E+02  0.47787250415E+02  0.19999905944E+02 0.  0.
        -12    1    3    3    0    0 -0.54063667359E+01  0.31919235700E+02 -0.28906031473E+02  0.43400749585E+02  0.00000000000E+00 0.  1.
         11    1    4    4    0    0  0.37409171413E+01 -0.13823164853E+02  0.14945095913E+02  0.20698556465E+02  0.51100000000E-03 0. -1.
        -11    1    4    4    0    0 -0.19060166506E+01 -0.89398299414E+00  0.84013396301E+01  0.86610976734E+01  0.51100000000E-03 0.  1.
        -12    1    4    4    0    0  0.35714662451E+01 -0.17202087853E+02  0.55595959296E+01  0.18427596277E+02  0.00000000000E+00 0.  1.
</event>
<event>
 8    1  0.4042158E-011  0.9118800E+02  0.7816164E-02  0.1184000E+00
        -11   -1    0    0    0    0  0.00000000000E+00  0.00000000000E+00  0.45593999997E+02  0.45594000000E+02  0.51100000000E-03 0. -1.
         11   -1    0    0    0    0 -0.00000000000E+00 -0.00000000000E+00 -0.45593999997E+02  0.45594000000E+02  0.51100000000E-03 0.  1.
         23    2    1    2    0    0  0.22204460493E-15 -0.22204460493E-15  0.00000000000E+00  0.91188000000E+02  0.91188000000E+02 0.  0.
    9900012    2    3    3    0    0 -0.33857229579E+00 -0.17242904975E+01  0.43365139976E+02  0.47787272194E+02  0.20000005242E+02 0.  0.
        -12    1    3    3    0    0  0.33857229579E+00  0.17242904975E+01 -0.43365139976E+02  0.43400727806E+02  0.00000000000E+00 0.  1.
         11    1    4    4    0    0 -0.40750405876E+01  0.12447232506E+01  0.22515578402E+02  0.22915203747E+02  0.51100000000E-03 0. -1.
        -11    1    4    4    0    0  0.44096613412E+01  0.38212067079E+01  0.14165844670E+02  0.15320505518E+02  0.51100000000E-03 0.  1.
        -12    1    4    4    0    0 -0.67319304934E+00 -0.67902204561E+01  0.66837169046E+01  0.95515629289E+01  0.00000000000E+00 0.  1.
</event>
<event>
 8    1  0.4042158E-011  0.9118800E+02  0.7816164E-02  0.1184000E+00
        -11   -1    0    0    0    0  0.00000000000E+00  0.00000000000E+00  0.45593999997E+02  0.45594000000E+02  0.51100000000E-03 0. -1.
         11   -1    0    0    0    0 -0.00000000000E+00 -0.00000000000E+00 -0.45593999997E+02  0.45594000000E+02  0.51100000000E-03 0.  1.
         23    2    1    2    0    0 -0.17763568394E-14  0.00000000000E+00  0.00000000000E+00  0.91188000000E+02  0.91188000000E+02 0.  0.
    9900012    2    3    3    0    0  0.14576253909E+02 -0.10857620148E+01 -0.40865356648E+02  0.47787269233E+02  0.19999991739E+02 0.  0.
         12    1    3    3    0    0 -0.14576253909E+02  0.10857620148E+01  0.40865356648E+02  0.43400730767E+02  0.00000000000E+00 0. -1.
         11    1    4    4    0    0  0.27050928376E+01  0.42944706287E+01 -0.16154354651E+02  0.16932902282E+02  0.51100000000E-03 0. -1.
        -11    1    4    4    0    0  0.73560711769E+01 -0.18308490343E+01 -0.23876380169E+02  0.25050854707E+02  0.51100000000E-03 0.  1.
         12    1    4    4    0    0  0.45150898948E+01 -0.35493836092E+01 -0.83462182859E+00  0.58035122435E+01  0.00000000000E+00 0. -1.
</event>
<event>
 8    1  0.4042158E-011  0.9118800E+02  0.7816164E-02  0.1184000E+00
        -11   -1    0    0    0    0  0.00000000000E+00  0.00000000000E+00  0.45593999997E+02  0.45594000000E+02  0.51100000000E-03 0.  1.
         11   -1    0    0    0    0 -0.00000000000E+00 -0.00000000000E+00 -0.45593999997E+02  0.45594000000E+02  0.51100000000E-03 0. -1.
         23    2    1    2    0    0  0.00000000000E+00  0.00000000000E+00 -0.35527136788E-14  0.91188000000E+02  0.91188000000E+02 0.  0.
    9900012    2    3    3    0    0  0.16132798347E+02 -0.37781121915E+02 -0.13997968648E+02  0.47787268647E+02  0.19999989070E+02 0.  0.
        -12    1    3    3    0    0 -0.16132798347E+02  0.37781121915E+02  0.13997968648E+02  0.43400731353E+02  0.00000000000E+00 0.  1.
         11    1    4    4    0    0  0.14080971223E+01 -0.10442273644E+02  0.14330980759E+01  0.10633794559E+02  0.51100000000E-03 0. -1.
        -11    1    4    4    0    0  0.53867372766E+01 -0.22766902229E+02 -0.10970424276E+02  0.25839871993E+02  0.51100000000E-03 0.  1.
         12    1    4    4    0    0  0.93379639480E+01 -0.45719460426E+01 -0.44606424482E+01  0.11313602095E+02  0.00000000000E+00 0. -1.
</event>
<event>
 8    1  0.4042158E-011  0.9118800E+02  0.7816164E-02  0.1184000E+00
        -11   -1    0    0    0    0  0.00000000000E+00  0.00000000000E+00  0.45593999997E+02  0.45594000000E+02  0.51100000000E-03 0. -1.
         11   -1    0    0    0    0 -0.00000000000E+00 -0.00000000000E+00 -0.45593999997E+02  0.45594000000E+02  0.51100000000E-03 0.  1.
         23    2    1    2    0    0  0.00000000000E+00 -0.94368957093E-15  0.71054273576E-14  0.91188000000E+02  0.91188000000E+02 0.  0.
    9900012    2    3    3    0    0  0.13661689474E+02  0.24005120747E+00 -0.41193753910E+02  0.47787254095E+02  0.19999922722E+02 0.  0.
         12    1    3    3    0    0 -0.13661689474E+02 -0.24005120747E+00  0.41193753910E+02  0.43400745905E+02  0.00000000000E+00 0. -1.
         11    1    4    4    0    0  0.40456379951E+01  0.72471162726E+01 -0.10598727730E+02  0.13461831629E+02  0.51100000000E-03 0. -1.
        -11    1    4    4    0    0  0.55365353410E+01 -0.21815697430E-01 -0.21279032715E+02  0.21987517665E+02  0.51100000000E-03 0.  1.
         12    1    4    4    0    0  0.40795161381E+01 -0.69852493677E+01 -0.93159934649E+01  0.12337904801E+02  0.00000000000E+00 0. -1.
</event>
<event>
 8    1  0.4042158E-011  0.9118800E+02  0.7816164E-02  0.1184000E+00
        -11   -1    0    0    0    0  0.00000000000E+00  0.00000000000E+00  0.45593999997E+02  0.45594000000E+02  0.51100000000E-03 0. -1.
         11   -1    0    0    0    0 -0.00000000000E+00 -0.00000000000E+00 -0.45593999997E+02  0.45594000000E+02  0.51100000000E-03 0.  1.
         23    2    1    2    0    0  0.44408920985E-15 -0.35527136788E-14 -0.71054273576E-14  0.91188000000E+02  0.91188000000E+02 0.  0.
    9900012    2    3    3    0    0 -0.19675183368E+01  0.24466354132E+02  0.35793145600E+02  0.47787275526E+02  0.20000020432E+02 0.  0.
        -12    1    3    3    0    0  0.19675183368E+01 -0.24466354132E+02 -0.35793145600E+02  0.43400724474E+02  0.00000000000E+00 0.  1.
         11    1    4    4    0    0  0.99147983976E+00  0.10993106657E+02  0.12834439431E+02  0.16927913693E+02  0.51100000000E-03 0. -1.
        -11    1    4    4    0    0 -0.43682511628E+01  0.92151578078E+01  0.33349005537E+01  0.10729506681E+02  0.51100000000E-03 0.  1.
        -12    1    4    4    0    0  0.14092529863E+01  0.42580896676E+01  0.19623805616E+02  0.20129855152E+02  0.00000000000E+00 0.  1.
</event>
<event>
 8    1  0.4042158E-011  0.9118800E+02  0.7816164E-02  0.1184000E+00
        -11   -1    0    0    0    0  0.00000000000E+00  0.00000000000E+00  0.45593999997E+02  0.45594000000E+02  0.51100000000E-03 0. -1.
         11   -1    0    0    0    0 -0.00000000000E+00 -0.00000000000E+00 -0.45593999997E+02  0.45594000000E+02  0.51100000000E-03 0.  1.
         23    2    1    2    0    0  0.00000000000E+00  0.00000000000E+00  0.00000000000E+00  0.91188000000E+02  0.91188000000E+02 0.  0.
    9900012    2    3    3    0    0 -0.41215249400E+02  0.92465380422E+01  0.99714889014E+01  0.47787241484E+02  0.19999865221E+02 0.  0.
        -12    1    3    3    0    0  0.41215249400E+02 -0.92465380422E+01 -0.99714889014E+01  0.43400758516E+02  0.00000000000E+00 0.  1.
         11    1    4    4    0    0 -0.18238212400E+02  0.82896497020E+01 -0.35948512129E+01  0.20353713156E+02  0.51100000000E-03 0.  1.
        -11    1    4    4    0    0 -0.83728793058E+01 -0.52663840863E+00  0.17049138658E+01  0.85609104326E+01  0.51100000000E-03 0. -1.
        -12    1    4    4    0    0 -0.14604157694E+02  0.14835267488E+01  0.11861426249E+02  0.18872617895E+02  0.00000000000E+00 0.  1.
</event>
<event>
 8    1  0.4042158E-011  0.9118800E+02  0.7816164E-02  0.1184000E+00
        -11   -1    0    0    0    0  0.00000000000E+00  0.00000000000E+00  0.45593999997E+02  0.45594000000E+02  0.51100000000E-03 0. -1.
         11   -1    0    0    0    0 -0.00000000000E+00 -0.00000000000E+00 -0.45593999997E+02  0.45594000000E+02  0.51100000000E-03 0.  1.
         23    2    1    2    0    0  0.00000000000E+00  0.00000000000E+00 -0.35527136788E-14  0.91188000000E+02  0.91188000000E+02 0.  0.
    9900012    2    3    3    0    0  0.11753523046E+02 -0.37307880594E+02  0.18804257203E+02  0.47787270198E+02  0.19999996140E+02 0.  0.
        -12    1    3    3    0    0 -0.11753523046E+02  0.37307880594E+02 -0.18804257203E+02  0.43400729802E+02  0.00000000000E+00 0.  1.
         11    1    4    4    0    0  0.98646042955E+01 -0.15773900405E+02  0.77620573705E+01  0.20158766996E+02  0.51100000000E-03 0. -1.
        -11    1    4    4    0    0  0.26957184674E+01 -0.51082003826E+01  0.94904535412E+01  0.11109874792E+02  0.51100000000E-03 0.  1.
        -12    1    4    4    0    0 -0.80679971706E+00 -0.16425779806E+02  0.15517462915E+01  0.16518628411E+02  0.00000000000E+00 0.  1.
</event>
<event>
 8    1  0.4042158E-011  0.9118800E+02  0.7816164E-02  0.1184000E+00
        -11   -1    0    0    0    0  0.00000000000E+00  0.00000000000E+00  0.45593999997E+02  0.45594000000E+02  0.51100000000E-03 0. -1.
         11   -1    0    0    0    0 -0.00000000000E+00 -0.00000000000E+00 -0.45593999997E+02  0.45594000000E+02  0.51100000000E-03 0.  1.
         23    2    1    2    0    0  0.35527136788E-14 -0.17763568394E-14  0.71054273576E-14  0.91188000000E+02  0.91188000000E+02 0.  0.
    9900012    2    3    3    0    0  0.15320514950E+02 -0.98939143349E+01 -0.39382934976E+02  0.47787270899E+02  0.19999999337E+02 0.  0.
         12    1    3    3    0    0 -0.15320514950E+02  0.98939143349E+01  0.39382934976E+02  0.43400729101E+02  0.00000000000E+00 0. -1.
         11    1    4    4    0    0  0.44031817946E+01 -0.33090096831E+01 -0.20241453643E+02  0.20977464118E+02  0.51100000000E-03 0.  1.
        -11    1    4    4    0    0  0.76592603139E+01 -0.89577161166E+01 -0.19477034506E+02  0.22765320556E+02  0.51100000000E-03 0. -1.
         12    1    4    4    0    0  0.32580728418E+01  0.23728114649E+01  0.33555317385E+00  0.40444862248E+01  0.00000000000E+00 0. -1.
</event>
<event>
 8    1  0.4042158E-011  0.9118800E+02  0.7816164E-02  0.1184000E+00
        -11   -1    0    0    0    0  0.00000000000E+00  0.00000000000E+00  0.45593999997E+02  0.45594000000E+02  0.51100000000E-03 0. -1.
         11   -1    0    0    0    0 -0.00000000000E+00 -0.00000000000E+00 -0.45593999997E+02  0.45594000000E+02  0.51100000000E-03 0.  1.
         23    2    1    2    0    0  0.00000000000E+00  0.00000000000E+00 -0.17763568394E-14  0.91188000000E+02  0.91188000000E+02 0.  0.
    9900012    2    3    3    0    0 -0.26131976494E+02 -0.32043350024E+02  0.13189629846E+02  0.47787276369E+02  0.20000024277E+02 0.  0.
        -12    1    3    3    0    0  0.26131976494E+02  0.32043350024E+02 -0.13189629846E+02  0.43400723631E+02  0.00000000000E+00 0.  1.
         11    1    4    4    0    0 -0.16301328666E+02 -0.21895852568E+02  0.52193335092E+01  0.27792141309E+02  0.51100000000E-03 0. -1.
        -11    1    4    4    0    0 -0.65150142220E+01 -0.52023791434E+01 -0.18228171858E+01  0.85342147746E+01  0.51100000000E-03 0.  1.
        -12    1    4    4    0    0 -0.33156336051E+01 -0.49451183124E+01  0.97931135230E+01  0.11460920286E+02  0.00000000000E+00 0.  1.
</event>
<event>
 8    1  0.4042158E-011  0.9118800E+02  0.7816164E-02  0.1184000E+00
        -11   -1    0    0    0    0  0.00000000000E+00  0.00000000000E+00  0.45593999997E+02  0.45594000000E+02  0.51100000000E-03 0.  1.
         11   -1    0    0    0    0 -0.00000000000E+00 -0.00000000000E+00 -0.45593999997E+02  0.45594000000E+02  0.51100000000E-03 0. -1.
         23    2    1    2    0    0  0.44408920985E-15  0.00000000000E+00 -0.44408920985E-15  0.91188000000E+02  0.91188000000E+02 0.  0.
    9900012    2    3    3    0    0  0.26096215360E+01  0.43210316677E+02  0.31115392171E+01  0.47787271110E+02  0.20000000297E+02 0.  0.
        -12    1    3    3    0    0 -0.26096215360E+01 -0.43210316677E+02 -0.31115392171E+01  0.43400728890E+02  0.00000000000E+00 0.  1.
         11    1    4    4    0    0 -0.50125931661E+01  0.18849840878E+02 -0.61617811528E+01  0.20455076109E+02  0.51100000000E-03 0. -1.
        -11    1    4    4    0    0  0.16645124145E+01  0.84381742955E+01  0.19359865198E+01  0.88159759009E+01  0.51100000000E-03 0.  1.
         12    1    4    4    0    0  0.59577022877E+01  0.15922301503E+02  0.73373338501E+01  0.18516219100E+02  0.00000000000E+00 0. -1.
</event>
<event>
 8    1  0.4042158E-011  0.9118800E+02  0.7816164E-02  0.1184000E+00
        -11   -1    0    0    0    0  0.00000000000E+00  0.00000000000E+00  0.45593999997E+02  0.45594000000E+02  0.51100000000E-03 0. -1.
         11   -1    0    0    0    0 -0.00000000000E+00 -0.00000000000E+00 -0.45593999997E+02  0.45594000000E+02  0.51100000000E-03 0.  1.
         23    2    1    2    0    0  0.00000000000E+00 -0.11102230246E-15  0.00000000000E+00  0.91188000000E+02  0.91188000000E+02 0.  0.
    9900012    2    3    3    0    0  0.27810377104E+02 -0.94288397895E+00  0.33306420069E+02  0.47787265874E+02  0.19999976426E+02 0.  0.
        -12    1    3    3    0    0 -0.27810377104E+02  0.94288397895E+00 -0.33306420069E+02  0.43400734126E+02  0.00000000000E+00 0.  1.
         11    1    4    4    0    0  0.85688713595E+01  0.49868567533E+00  0.19756034748E+02  0.21540082474E+02  0.51100000000E-03 0. -1.
        -11    1    4    4    0    0  0.10461934333E+02 -0.59230085973E+01  0.10406973119E+02  0.15900917917E+02  0.51100000000E-03 0.  1.
         12    1    4    4    0    0  0.87795714122E+01  0.44814389430E+01  0.31434122015E+01  0.10346265483E+02  0.00000000000E+00 0. -1.
</event>
<event>
 8    1  0.4042158E-011  0.9118800E+02  0.7816164E-02  0.1184000E+00
        -11   -1    0    0    0    0  0.00000000000E+00  0.00000000000E+00  0.45593999997E+02  0.45594000000E+02  0.51100000000E-03 0. -1.
         11   -1    0    0    0    0 -0.00000000000E+00 -0.00000000000E+00 -0.45593999997E+02  0.45594000000E+02  0.51100000000E-03 0.  1.
         23    2    1    2    0    0 -0.17763568394E-14  0.17763568394E-14  0.00000000000E+00  0.91188000000E+02  0.91188000000E+02 0.  0.
    9900012    2    3    3    0    0  0.15508519945E+02 -0.88404009999E+01  0.39559526513E+02  0.47787273984E+02  0.20000013405E+02 0.  0.
        -12    1    3    3    0    0 -0.15508519945E+02  0.88404009999E+01 -0.39559526513E+02  0.43400726016E+02  0.00000000000E+00 0.  1.
         11    1    4    4    0    0  0.13466522019E+02 -0.12221771462E+02  0.29207234623E+02  0.34406125437E+02  0.51100000000E-03 0. -1.
        -11    1    4    4    0    0  0.21019237752E+01  0.19899615704E+01  0.11320685338E+02  0.11684859751E+02  0.51100000000E-03 0.  1.
         12    1    4    4    0    0 -0.59925849715E-01  0.13914088916E+01 -0.96839344834E+00  0.16962887967E+01  0.00000000000E+00 0. -1.
</event>
<event>
 8    1  0.4042158E-011  0.9118800E+02  0.7816164E-02  0.1184000E+00
        -11   -1    0    0    0    0  0.00000000000E+00  0.00000000000E+00  0.45593999997E+02  0.45594000000E+02  0.51100000000E-03 0. -1.
         11   -1    0    0    0    0 -0.00000000000E+00 -0.00000000000E+00 -0.45593999997E+02  0.45594000000E+02  0.51100000000E-03 0.  1.
         23    2    1    2    0    0  0.00000000000E+00  0.00000000000E+00  0.00000000000E+00  0.91188000000E+02  0.91188000000E+02 0.  0.
    9900012    2    3    3    0    0  0.97960877151E+01 -0.24235412127E+02 -0.34645417095E+02  0.47787268886E+02  0.19999990160E+02 0.  0.
         12    1    3    3    0    0 -0.97960877151E+01  0.24235412127E+02  0.34645417095E+02  0.43400731114E+02  0.00000000000E+00 0. -1.
         11    1    4    4    0    0  0.17288093865E+01 -0.13926337007E+01 -0.38534478005E+00  0.22531536521E+01  0.51100000000E-03 0. -1.
        -11    1    4    4    0    0 -0.33428930992E+01 -0.45485088158E+01 -0.17009025085E+02  0.17921238833E+02  0.51100000000E-03 0.  1.
        -12    1    4    4    0    0  0.11410171428E+02 -0.18294269610E+02 -0.17251047231E+02  0.27612876401E+02  0.00000000000E+00 0.  1.
</event>
<event>
 8    1  0.4042158E-011  0.9118800E+02  0.7816164E-02  0.1184000E+00
        -11   -1    0    0    0    0  0.00000000000E+00  0.00000000000E+00  0.45593999997E+02  0.45594000000E+02  0.51100000000E-03 0. -1.
         11   -1    0    0    0    0 -0.00000000000E+00 -0.00000000000E+00 -0.45593999997E+02  0.45594000000E+02  0.51100000000E-03 0.  1.
         23    2    1    2    0    0  0.88817841970E-15  0.00000000000E+00  0.00000000000E+00  0.91188000000E+02  0.91188000000E+02 0.  0.
    9900012    2    3    3    0    0 -0.49425308087E+01 -0.14749846268E+02  0.40517117100E+02  0.47787270124E+02  0.19999995802E+02 0.  0.
        -12    1    3    3    0    0  0.49425308087E+01  0.14749846268E+02 -0.40517117100E+02  0.43400729876E+02  0.00000000000E+00 0.  1.
         11    1    4    4    0    0  0.25946484381E+01 -0.67927557887E+01  0.20974984934E+02  0.22199633442E+02  0.51100000000E-03 0. -1.
        -11    1    4    4    0    0  0.86804044030E+00  0.25114792921E+01  0.57809632709E+01  0.63624334213E+01  0.51100000000E-03 0.  1.
         12    1    4    4    0    0 -0.84052196871E+01 -0.10468569772E+02  0.13761168895E+02  0.19225203260E+02  0.00000000000E+00 0. -1.
</event>
<event>
 8    1  0.4042158E-011  0.9118800E+02  0.7816164E-02  0.1184000E+00
        -11   -1    0    0    0    0  0.00000000000E+00  0.00000000000E+00  0.45593999997E+02  0.45594000000E+02  0.51100000000E-03 0.  1.
         11   -1    0    0    0    0 -0.00000000000E+00 -0.00000000000E+00 -0.45593999997E+02  0.45594000000E+02  0.51100000000E-03 0. -1.
         23    2    1    2    0    0  0.00000000000E+00  0.35527136788E-14  0.00000000000E+00  0.91188000000E+02  0.91188000000E+02 0.  0.
    9900012    2    3    3    0    0  0.35774983271E+02 -0.23445947705E+02 -0.73526155749E+01  0.47787275955E+02  0.20000022387E+02 0.  0.
         12    1    3    3    0    0 -0.35774983271E+02  0.23445947705E+02  0.73526155749E+01  0.43400724045E+02  0.00000000000E+00 0. -1.
         11    1    4    4    0    0  0.12647680864E+02 -0.33096358711E+01 -0.64019222904E+01  0.14556858524E+02  0.51100000000E-03 0. -1.
        -11    1    4    4    0    0  0.43222625509E+01 -0.48213009851E+01 -0.55709953583E+01  0.85418315537E+01  0.51100000000E-03 0.  1.
        -12    1    4    4    0    0  0.18805039857E+02 -0.15315010849E+02  0.46203020738E+01  0.24688585876E+02  0.00000000000E+00 0.  1.
</event>
<event>
 8    1  0.4042158E-011  0.9118800E+02  0.7816164E-02  0.1184000E+00
        -11   -1    0    0    0    0  0.00000000000E+00  0.00000000000E+00  0.45593999997E+02  0.45594000000E+02  0.51100000000E-03 0. -1.
         11   -1    0    0    0    0 -0.00000000000E+00 -0.00000000000E+00 -0.45593999997E+02  0.45594000000E+02  0.51100000000E-03 0.  1.
         23    2    1    2    0    0  0.00000000000E+00  0.00000000000E+00  0.00000000000E+00  0.91188000000E+02  0.91188000000E+02 0.  0.
    9900012    2    3    3    0    0 -0.33063146195E+02 -0.27579265340E+02  0.54622321569E+01  0.47787268518E+02  0.19999988482E+02 0.  0.
        -12    1    3    3    0    0  0.33063146195E+02  0.27579265340E+02 -0.54622321569E+01  0.43400731482E+02  0.00000000000E+00 0.  1.
         11    1    4    4    0    0 -0.53666847284E+01 -0.90031593600E+01  0.60670717898E+01  0.12110637630E+02  0.51100000000E-03 0. -1.
        -11    1    4    4    0    0 -0.28991684704E+01  0.17796711374E+01  0.10256836070E+01  0.35530879949E+01  0.51100000000E-03 0.  1.
        -12    1    4    4    0    0 -0.24797292996E+02 -0.20355777118E+02 -0.16305232399E+01  0.32123542894E+02  0.00000000000E+00 0.  1.
</event>
<event>
 8    1  0.4042158E-011  0.9118800E+02  0.7816164E-02  0.1184000E+00
        -11   -1    0    0    0    0  0.00000000000E+00  0.00000000000E+00  0.45593999997E+02  0.45594000000E+02  0.51100000000E-03 0. -1.
         11   -1    0    0    0    0 -0.00000000000E+00 -0.00000000000E+00 -0.45593999997E+02  0.45594000000E+02  0.51100000000E-03 0.  1.
         23    2    1    2    0    0  0.00000000000E+00  0.35527136788E-14  0.00000000000E+00  0.91188000000E+02  0.91188000000E+02 0.  0.
    9900012    2    3    3    0    0  0.91512017002E+01  0.29633345769E+02 -0.30360225845E+02  0.47787274345E+02  0.20000015047E+02 0.  0.
         12    1    3    3    0    0 -0.91512017002E+01 -0.29633345769E+02  0.30360225845E+02  0.43400725655E+02  0.00000000000E+00 0. -1.
         11    1    4    4    0    0  0.55591481408E+01  0.26479281101E+02 -0.16848425434E+02  0.31873592448E+02  0.51100000000E-03 0. -1.
        -11    1    4    4    0    0  0.12591253742E+00  0.46094100106E+01 -0.81745851864E+01  0.93854332795E+01  0.51100000000E-03 0.  1.
         12    1    4    4    0    0  0.34661410220E+01 -0.14553453425E+01 -0.53372152244E+01  0.65282486168E+01  0.00000000000E+00 0. -1.
</event>
<event>
 8    1  0.4042158E-011  0.9118800E+02  0.7816164E-02  0.1184000E+00
        -11   -1    0    0    0    0  0.00000000000E+00  0.00000000000E+00  0.45593999997E+02  0.45594000000E+02  0.51100000000E-03 0. -1.
         11   -1    0    0    0    0 -0.00000000000E+00 -0.00000000000E+00 -0.45593999997E+02  0.45594000000E+02  0.51100000000E-03 0.  1.
         23    2    1    2    0    0  0.17763568394E-14  0.00000000000E+00  0.00000000000E+00  0.91188000000E+02  0.91188000000E+02 0.  0.
    9900012    2    3    3    0    0 -0.12545968811E+02  0.24438632629E+02  0.33600226720E+02  0.47787270354E+02  0.19999996851E+02 0.  0.
        -12    1    3    3    0    0  0.12545968811E+02 -0.24438632629E+02 -0.33600226720E+02  0.43400729646E+02  0.00000000000E+00 0.  1.
         11    1    4    4    0    0 -0.45902175859E+01  0.24146365442E+01  0.15031995440E+02  0.15901617978E+02  0.51100000000E-03 0. -1.
        -11    1    4    4    0    0 -0.41127503163E+01  0.74372907293E+00  0.41852056759E+01  0.59147100444E+01  0.51100000000E-03 0.  1.
        -12    1    4    4    0    0 -0.38430009092E+01  0.21280267012E+02  0.14383025604E+02  0.25970942332E+02  0.00000000000E+00 0.  1.
</event>
<event>
 8    1  0.4042158E-011  0.9118800E+02  0.7816164E-02  0.1184000E+00
        -11   -1    0    0    0    0  0.00000000000E+00  0.00000000000E+00  0.45593999997E+02  0.45594000000E+02  0.51100000000E-03 0. -1.
         11   -1    0    0    0    0 -0.00000000000E+00 -0.00000000000E+00 -0.45593999997E+02  0.45594000000E+02  0.51100000000E-03 0.  1.
         23    2    1    2    0    0  0.00000000000E+00  0.00000000000E+00  0.00000000000E+00  0.91188000000E+02  0.91188000000E+02 0.  0.
    9900012    2    3    3    0    0  0.17059906052E+02  0.11088352626E+02 -0.38335769138E+02  0.47787272427E+02  0.20000006304E+02 0.  0.
         12    1    3    3    0    0 -0.17059906052E+02 -0.11088352626E+02  0.38335769138E+02  0.43400727573E+02  0.00000000000E+00 0. -1.
         11    1    4    4    0    0  0.92066254612E+01 -0.29715164087E+01 -0.12643612815E+02  0.15920201237E+02  0.51100000000E-03 0. -1.
        -11    1    4    4    0    0 -0.20814306936E+01  0.45658430857E+01 -0.55293905988E+01  0.74668224480E+01  0.51100000000E-03 0.  1.
        -12    1    4    4    0    0  0.99347112848E+01  0.94940259487E+01 -0.20162765724E+02  0.24400248742E+02  0.00000000000E+00 0.  1.
</event>
<event>
 8    1  0.4042158E-011  0.9118800E+02  0.7816164E-02  0.1184000E+00
        -11   -1    0    0    0    0  0.00000000000E+00  0.00000000000E+00  0.45593999997E+02  0.45594000000E+02  0.51100000000E-03 0. -1.
         11   -1    0    0    0    0 -0.00000000000E+00 -0.00000000000E+00 -0.45593999997E+02  0.45594000000E+02  0.51100000000E-03 0.  1.
         23    2    1    2    0    0  0.17763568394E-14  0.00000000000E+00  0.00000000000E+00  0.91188000000E+02  0.91188000000E+02 0.  0.
    9900012    2    3    3    0    0 -0.13032144218E+02  0.23229828713E+02 -0.34266040646E+02  0.47787271130E+02  0.20000000388E+02 0.  0.
         12    1    3    3    0    0  0.13032144218E+02 -0.23229828713E+02  0.34266040646E+02  0.43400728870E+02  0.00000000000E+00 0. -1.
         11    1    4    4    0    0 -0.98983969606E+01  0.15104071805E+02 -0.15333509862E+02  0.23690246357E+02  0.51100000000E-03 0. -1.
        -11    1    4    4    0    0 -0.39209863704E+01  0.47837904278E+00 -0.32440518817E+00  0.39633596370E+01  0.51100000000E-03 0.  1.
        -12    1    4    4    0    0  0.78723911343E+00  0.76473778653E+01 -0.18608125595E+02  0.20133665136E+02  0.00000000000E+00 0.  1.
</event>
<event>
 8    1  0.4042158E-011  0.9118800E+02  0.7816164E-02  0.1184000E+00
        -11   -1    0    0    0    0  0.00000000000E+00  0.00000000000E+00  0.45593999997E+02  0.45594000000E+02  0.51100000000E-03 0. -1.
         11   -1    0    0    0    0 -0.00000000000E+00 -0.00000000000E+00 -0.45593999997E+02  0.45594000000E+02  0.51100000000E-03 0.  1.
         23    2    1    2    0    0  0.88817841970E-15  0.35527136788E-14  0.00000000000E+00  0.91188000000E+02  0.91188000000E+02 0.  0.
    9900012    2    3    3    0    0 -0.40539607213E+01 -0.15159273943E+02 -0.40464618415E+02  0.47787268123E+02  0.19999986679E+02 0.  0.
         12    1    3    3    0    0  0.40539607213E+01  0.15159273943E+02  0.40464618415E+02  0.43400731877E+02  0.00000000000E+00 0. -1.
         11    1    4    4    0    0  0.44154291813E+00 -0.10558337774E+01 -0.15171936646E+00  0.11544540447E+01  0.51100000000E-03 0. -1.
        -11    1    4    4    0    0  0.53010092112E+01 -0.35689370646E+01 -0.24213444078E+02  0.25042541501E+02  0.51100000000E-03 0.  1.
         12    1    4    4    0    0 -0.97965128506E+01 -0.10534503101E+02 -0.16099454970E+02  0.21590272577E+02  0.00000000000E+00 0. -1.
</event>
<event>
 8    1  0.4042158E-011  0.9118800E+02  0.7816164E-02  0.1184000E+00
        -11   -1    0    0    0    0  0.00000000000E+00  0.00000000000E+00  0.45593999997E+02  0.45594000000E+02  0.51100000000E-03 0. -1.
         11   -1    0    0    0    0 -0.00000000000E+00 -0.00000000000E+00 -0.45593999997E+02  0.45594000000E+02  0.51100000000E-03 0.  1.
         23    2    1    2    0    0  0.00000000000E+00  0.00000000000E+00  0.00000000000E+00  0.91188000000E+02  0.91188000000E+02 0.  0.
    9900012    2    3    3    0    0 -0.18056354927E+01 -0.21340103851E+02 -0.37748681602E+02  0.47787270575E+02  0.19999997862E+02 0.  0.
         12    1    3    3    0    0  0.18056354927E+01  0.21340103851E+02  0.37748681602E+02  0.43400729425E+02  0.00000000000E+00 0. -1.
         11    1    4    4    0    0  0.40431520890E+01 -0.91942888726E-01 -0.61081590231E+01  0.73256494062E+01  0.51100000000E-03 0. -1.
        -11    1    4    4    0    0  0.37684351419E+01 -0.75147868214E+01 -0.94242618440E+01  0.12628928536E+02  0.51100000000E-03 0.  1.
        -12    1    4    4    0    0 -0.96172227235E+01 -0.13733374141E+02 -0.22216260735E+02  0.27832692634E+02  0.00000000000E+00 0.  1.
</event>
<event>
 8    1  0.4042158E-011  0.9118800E+02  0.7816164E-02  0.1184000E+00
        -11   -1    0    0    0    0  0.00000000000E+00  0.00000000000E+00  0.45593999997E+02  0.45594000000E+02  0.51100000000E-03 0. -1.
         11   -1    0    0    0    0 -0.00000000000E+00 -0.00000000000E+00 -0.45593999997E+02  0.45594000000E+02  0.51100000000E-03 0.  1.
         23    2    1    2    0    0 -0.55511151231E-15  0.71054273576E-14  0.00000000000E+00  0.91188000000E+02  0.91188000000E+02 0.  0.
    9900012    2    3    3    0    0 -0.10743285818E+00 -0.42637451970E+02  0.81030624037E+01  0.47787268754E+02  0.19999989558E+02 0.  0.
        -12    1    3    3    0    0  0.10743285818E+00  0.42637451970E+02 -0.81030624037E+01  0.43400731246E+02  0.00000000000E+00 0.  1.
         11    1    4    4    0    0 -0.51784050217E+01 -0.36994797214E+02  0.69988559959E+01  0.38005458621E+02  0.51100000000E-03 0. -1.
        -11    1    4    4    0    0 -0.13239772360E+01 -0.23551918947E+00  0.15768319970E+00  0.13539753553E+01  0.51100000000E-03 0.  1.
        -12    1    4    4    0    0  0.63949493995E+01 -0.54071355667E+01  0.94652320806E+00  0.84278347778E+01  0.00000000000E+00 0.  1.
</event>
<event>
 8    1  0.4042158E-011  0.9118800E+02  0.7816164E-02  0.1184000E+00
        -11   -1    0    0    0    0  0.00000000000E+00  0.00000000000E+00  0.45593999997E+02  0.45594000000E+02  0.51100000000E-03 0. -1.
         11   -1    0    0    0    0 -0.00000000000E+00 -0.00000000000E+00 -0.45593999997E+02  0.45594000000E+02  0.51100000000E-03 0.  1.
         23    2    1    2    0    0  0.00000000000E+00 -0.35527136788E-14  0.00000000000E+00  0.91188000000E+02  0.91188000000E+02 0.  0.
    9900012    2    3    3    0    0  0.33492865428E+02 -0.16915161238E+02 -0.21811210416E+02  0.47787267125E+02  0.19999982128E+02 0.  0.
         12    1    3    3    0    0 -0.33492865428E+02  0.16915161238E+02  0.21811210416E+02  0.43400732875E+02  0.00000000000E+00 0. -1.
         11    1    4    4    0    0  0.33960619675E+01 -0.40168677219E+01  0.16133965662E+01  0.55019552818E+01  0.51100000000E-03 0. -1.
        -11    1    4    4    0    0  0.99012022928E+01 -0.30240742928E+01 -0.78799373914E+00  0.10382666640E+02  0.51100000000E-03 0.  1.
         12    1    4    4    0    0  0.20195601168E+02 -0.98742192234E+01 -0.22636613243E+02  0.31902645203E+02  0.00000000000E+00 0. -1.
</event>
<event>
 8    1  0.4042158E-011  0.9118800E+02  0.7816164E-02  0.1184000E+00
        -11   -1    0    0    0    0  0.00000000000E+00  0.00000000000E+00  0.45593999997E+02  0.45594000000E+02  0.51100000000E-03 0. -1.
         11   -1    0    0    0    0 -0.00000000000E+00 -0.00000000000E+00 -0.45593999997E+02  0.45594000000E+02  0.51100000000E-03 0.  1.
         23    2    1    2    0    0  0.35527136788E-14  0.35527136788E-14  0.00000000000E+00  0.91188000000E+02  0.91188000000E+02 0.  0.
    9900012    2    3    3    0    0 -0.30351437519E+02  0.30579797730E+02  0.52240143793E+01  0.47787261355E+02  0.19999955823E+02 0.  0.
         12    1    3    3    0    0  0.30351437519E+02 -0.30579797730E+02 -0.52240143793E+01  0.43400738645E+02  0.00000000000E+00 0. -1.
         11    1    4    4    0    0 -0.14600845044E+02  0.11916304922E+02  0.25064742555E+00  0.18847966028E+02  0.51100000000E-03 0. -1.
        -11    1    4    4    0    0 -0.17873377526E+02  0.18787308609E+02  0.31191283161E+01  0.26117992853E+02  0.51100000000E-03 0.  1.
         12    1    4    4    0    0  0.21227850514E+01 -0.12381580046E+00  0.18542386376E+01  0.28213024744E+01  0.00000000000E+00 0. -1.
</event>
<event>
 8    1  0.4042158E-011  0.9118800E+02  0.7816164E-02  0.1184000E+00
        -11   -1    0    0    0    0  0.00000000000E+00  0.00000000000E+00  0.45593999997E+02  0.45594000000E+02  0.51100000000E-03 0. -1.
         11   -1    0    0    0    0 -0.00000000000E+00 -0.00000000000E+00 -0.45593999997E+02  0.45594000000E+02  0.51100000000E-03 0.  1.
         23    2    1    2    0    0  0.35527136788E-14 -0.35527136788E-14  0.00000000000E+00  0.91188000000E+02  0.91188000000E+02 0.  0.
    9900012    2    3    3    0    0 -0.25378574795E+02  0.24835612235E+02  0.24954839135E+02  0.47787266251E+02  0.19999978144E+02 0.  0.
        -12    1    3    3    0    0  0.25378574795E+02 -0.24835612235E+02 -0.24954839135E+02  0.43400733749E+02  0.00000000000E+00 0.  1.
         11    1    4    4    0    0 -0.20731241745E+02  0.19904176308E+02  0.10025637045E+02  0.30438035699E+02  0.51100000000E-03 0. -1.
        -11    1    4    4    0    0 -0.10921914945E+01  0.12290221583E+01  0.89213069748E-01  0.16466137857E+01  0.51100000000E-03 0.  1.
        -12    1    4    4    0    0 -0.35551415557E+01  0.37024137687E+01  0.14839989020E+02  0.15702616766E+02  0.00000000000E+00 0.  1.
</event>
<event>
 8    1  0.4042158E-011  0.9118800E+02  0.7816164E-02  0.1184000E+00
        -11   -1    0    0    0    0  0.00000000000E+00  0.00000000000E+00  0.45593999997E+02  0.45594000000E+02  0.51100000000E-03 0. -1.
         11   -1    0    0    0    0 -0.00000000000E+00 -0.00000000000E+00 -0.45593999997E+02  0.45594000000E+02  0.51100000000E-03 0.  1.
         23    2    1    2    0    0  0.00000000000E+00  0.35527136788E-14  0.00000000000E+00  0.91188000000E+02  0.91188000000E+02 0.  0.
    9900012    2    3    3    0    0 -0.26710368523E+02  0.22473364811E+02  0.25790063682E+02  0.47787270775E+02  0.19999998770E+02 0.  0.
        -12    1    3    3    0    0  0.26710368523E+02 -0.22473364811E+02 -0.25790063682E+02  0.43400729225E+02  0.00000000000E+00 0.  1.
         11    1    4    4    0    0 -0.97460369902E+01 -0.22982888027E+01  0.72144889162E+01  0.12341645718E+02  0.51100000000E-03 0. -1.
        -11    1    4    4    0    0 -0.66281265916E+01  0.70785862548E+01  0.59352946041E+01  0.11369528037E+02  0.51100000000E-03 0.  1.
         12    1    4    4    0    0 -0.10336204941E+02  0.17693067359E+02  0.12640280161E+02  0.24076097020E+02  0.00000000000E+00 0. -1.
</event>
<event>
 8    1  0.4042158E-011  0.9118800E+02  0.7816164E-02  0.1184000E+00
        -11   -1    0    0    0    0  0.00000000000E+00  0.00000000000E+00  0.45593999997E+02  0.45594000000E+02  0.51100000000E-03 0. -1.
         11   -1    0    0    0    0 -0.00000000000E+00 -0.00000000000E+00 -0.45593999997E+02  0.45594000000E+02  0.51100000000E-03 0.  1.
         23    2    1    2    0    0  0.00000000000E+00  0.00000000000E+00  0.00000000000E+00  0.91188000000E+02  0.91188000000E+02 0.  0.
    9900012    2    3    3    0    0  0.38907381200E+02  0.15152704315E+02  0.11842070132E+02  0.47787269766E+02  0.19999994170E+02 0.  0.
        -12    1    3    3    0    0 -0.38907381200E+02 -0.15152704315E+02 -0.11842070132E+02  0.43400730234E+02  0.00000000000E+00 0.  1.
         11    1    4    4    0    0  0.10312948176E+02  0.14793142457E+00 -0.65078925941E-01  0.10314214431E+02  0.51100000000E-03 0. -1.
        -11    1    4    4    0    0  0.17397851054E+02  0.23436273033E+01  0.10631382904E+02  0.20523257854E+02  0.51100000000E-03 0.  1.
         12    1    4    4    0    0  0.11196581969E+02  0.12661145587E+02  0.12757661545E+01  0.16949797481E+02  0.00000000000E+00 0. -1.
</event>
<event>
 8    1  0.4042158E-011  0.9118800E+02  0.7816164E-02  0.1184000E+00
        -11   -1    0    0    0    0  0.00000000000E+00  0.00000000000E+00  0.45593999997E+02  0.45594000000E+02  0.51100000000E-03 0. -1.
         11   -1    0    0    0    0 -0.00000000000E+00 -0.00000000000E+00 -0.45593999997E+02  0.45594000000E+02  0.51100000000E-03 0.  1.
         23    2    1    2    0    0 -0.71054273576E-14  0.88817841970E-15  0.17763568394E-14  0.91188000000E+02  0.91188000000E+02 0.  0.
    9900012    2    3    3    0    0  0.40078122218E+02 -0.77185735652E+01 -0.14757712705E+02  0.47787281772E+02  0.20000048913E+02 0.  0.
         12    1    3    3    0    0 -0.40078122218E+02  0.77185735652E+01  0.14757712705E+02  0.43400718228E+02  0.00000000000E+00 0. -1.
         11    1    4    4    0    0  0.87020426579E+01 -0.34514889806E+01 -0.64745168543E+01  0.11382341207E+02  0.51100000000E-03 0. -1.
        -11    1    4    4    0    0  0.24498571927E+02 -0.22427939884E+01 -0.12998601034E+02  0.27823978516E+02  0.51100000000E-03 0.  1.
        -12    1    4    4    0    0  0.68775076327E+01 -0.20242905962E+01  0.47154051829E+01  0.85809620495E+01  0.00000000000E+00 0.  1.
</event>
<event>
 8    1  0.4042158E-011  0.9118800E+02  0.7816164E-02  0.1184000E+00
        -11   -1    0    0    0    0  0.00000000000E+00  0.00000000000E+00  0.45593999997E+02  0.45594000000E+02  0.51100000000E-03 0. -1.
         11   -1    0    0    0    0 -0.00000000000E+00 -0.00000000000E+00 -0.45593999997E+02  0.45594000000E+02  0.51100000000E-03 0.  1.
         23    2    1    2    0    0  0.88817841970E-15  0.00000000000E+00  0.71054273576E-14  0.91188000000E+02  0.91188000000E+02 0.  0.
    9900012    2    3    3    0    0 -0.12395913350E+01 -0.28476684771E+01 -0.43289468115E+02  0.47787264383E+02  0.19999969629E+02 0.  0.
         12    1    3    3    0    0  0.12395913350E+01  0.28476684771E+01  0.43289468115E+02  0.43400735617E+02  0.00000000000E+00 0. -1.
         11    1    4    4    0    0  0.84922602323E+00  0.18312622981E+01 -0.61160953913E+00  0.21092114480E+01  0.51100000000E-03 0. -1.
        -11    1    4    4    0    0 -0.69142110656E+01 -0.82411622167E+00 -0.86997867806E+01  0.11143238869E+02  0.51100000000E-03 0.  1.
         12    1    4    4    0    0  0.48253937074E+01 -0.38548145536E+01 -0.33978071795E+02  0.34534814066E+02  0.00000000000E+00 0. -1.
</event>
<event>
 8    1  0.4042158E-011  0.9118800E+02  0.7816164E-02  0.1184000E+00
        -11   -1    0    0    0    0  0.00000000000E+00  0.00000000000E+00  0.45593999997E+02  0.45594000000E+02  0.51100000000E-03 0. -1.
         11   -1    0    0    0    0 -0.00000000000E+00 -0.00000000000E+00 -0.45593999997E+02  0.45594000000E+02  0.51100000000E-03 0.  1.
         23    2    1    2    0    0  0.35527136788E-14  0.00000000000E+00  0.00000000000E+00  0.91188000000E+02  0.91188000000E+02 0.  0.
    9900012    2    3    3    0    0 -0.16584955532E+02 -0.80268596682E+01 -0.39295444882E+02  0.47787271727E+02  0.20000003111E+02 0.  0.
         12    1    3    3    0    0  0.16584955532E+02  0.80268596682E+01  0.39295444882E+02  0.43400728273E+02  0.00000000000E+00 0. -1.
         11    1    4    4    0    0  0.25054177078E+00 -0.40223892321E+00 -0.52293462338E+01  0.52507741929E+01  0.51100000000E-03 0. -1.
        -11    1    4    4    0    0 -0.19899132667E+02 -0.63044479241E+01 -0.23382905741E+02  0.31344566127E+02  0.51100000000E-03 0.  1.
        -12    1    4    4    0    0  0.30636353636E+01 -0.13201728209E+01 -0.10683192908E+02  0.11191931407E+02  0.00000000000E+00 0.  1.
</event>
<event>
 8    1  0.4042158E-011  0.9118800E+02  0.7816164E-02  0.1184000E+00
        -11   -1    0    0    0    0  0.00000000000E+00  0.00000000000E+00  0.45593999997E+02  0.45594000000E+02  0.51100000000E-03 0. -1.
         11   -1    0    0    0    0 -0.00000000000E+00 -0.00000000000E+00 -0.45593999997E+02  0.45594000000E+02  0.51100000000E-03 0.  1.
         23    2    1    2    0    0  0.00000000000E+00  0.35527136788E-14  0.00000000000E+00  0.91188000000E+02  0.91188000000E+02 0.  0.
    9900012    2    3    3    0    0  0.91262118361E+01 -0.31445128237E+02  0.28487528074E+02  0.47787273184E+02  0.20000009757E+02 0.  0.
        -12    1    3    3    0    0 -0.91262118361E+01  0.31445128237E+02 -0.28487528074E+02  0.43400726816E+02  0.00000000000E+00 0.  1.
         11    1    4    4    0    0 -0.12112686800E+00 -0.15847145169E+02  0.12586069203E+02  0.20237485515E+02  0.51100000000E-03 0. -1.
        -11    1    4    4    0    0 -0.16008894319E+01  0.49977977761E-01 -0.11646770751E+01  0.19803579782E+01  0.51100000000E-03 0.  1.
        -12    1    4    4    0    0  0.10848228136E+02 -0.15647961046E+02  0.17066135946E+02  0.25569429691E+02  0.00000000000E+00 0.  1.
</event>
<event>
 8    1  0.4042158E-011  0.9118800E+02  0.7816164E-02  0.1184000E+00
        -11   -1    0    0    0    0  0.00000000000E+00  0.00000000000E+00  0.45593999997E+02  0.45594000000E+02  0.51100000000E-03 0. -1.
         11   -1    0    0    0    0 -0.00000000000E+00 -0.00000000000E+00 -0.45593999997E+02  0.45594000000E+02  0.51100000000E-03 0.  1.
         23    2    1    2    0    0  0.35527136788E-14  0.00000000000E+00  0.00000000000E+00  0.91188000000E+02  0.91188000000E+02 0.  0.
    9900012    2    3    3    0    0  0.30400868795E+02 -0.16272192543E+02  0.26355764139E+02  0.47787269856E+02  0.19999994581E+02 0.  0.
        -12    1    3    3    0    0 -0.30400868795E+02  0.16272192543E+02 -0.26355764139E+02  0.43400730144E+02  0.00000000000E+00 0.  1.
         11    1    4    4    0    0  0.21899095906E+02 -0.77509963341E+01  0.83945853568E+01  0.24700554837E+02  0.51100000000E-03 0.  1.
        -11    1    4    4    0    0  0.62728047003E+01 -0.65468426155E+00  0.84527681208E+01  0.10546372810E+02  0.51100000000E-03 0. -1.
        -12    1    4    4    0    0  0.22289681893E+01 -0.78665119476E+01  0.95084106617E+01  0.12540342209E+02  0.00000000000E+00 0.  1.
</event>
<event>
 8    1  0.4042158E-011  0.9118800E+02  0.7816164E-02  0.1184000E+00
        -11   -1    0    0    0    0  0.00000000000E+00  0.00000000000E+00  0.45593999997E+02  0.45594000000E+02  0.51100000000E-03 0. -1.
         11   -1    0    0    0    0 -0.00000000000E+00 -0.00000000000E+00 -0.45593999997E+02  0.45594000000E+02  0.51100000000E-03 0.  1.
         23    2    1    2    0    0  0.88817841970E-15  0.00000000000E+00  0.00000000000E+00  0.91188000000E+02  0.91188000000E+02 0.  0.
    9900012    2    3    3    0    0  0.42650772035E+01 -0.88300826665E+01 -0.42278386743E+02  0.47787271561E+02  0.20000002355E+02 0.  0.
         12    1    3    3    0    0 -0.42650772035E+01  0.88300826665E+01  0.42278386743E+02  0.43400728439E+02  0.00000000000E+00 0. -1.
         11    1    4    4    0    0  0.37333304209E+01 -0.12735111518E+01 -0.70449807019E+01  0.80741154336E+01  0.51100000000E-03 0.  1.
        -11    1    4    4    0    0  0.39306853211E+01  0.33246395459E+01 -0.41734991753E+01  0.66273381407E+01  0.51100000000E-03 0. -1.
        -12    1    4    4    0    0 -0.33989385385E+01 -0.10881211061E+02 -0.31059906866E+02  0.33085817987E+02  0.00000000000E+00 0.  1.
</event>
<event>
 8    1  0.4042158E-011  0.9118800E+02  0.7816164E-02  0.1184000E+00
        -11   -1    0    0    0    0  0.00000000000E+00  0.00000000000E+00  0.45593999997E+02  0.45594000000E+02  0.51100000000E-03 0. -1.
         11   -1    0    0    0    0 -0.00000000000E+00 -0.00000000000E+00 -0.45593999997E+02  0.45594000000E+02  0.51100000000E-03 0.  1.
         23    2    1    2    0    0  0.35527136788E-14  0.17763568394E-14  0.00000000000E+00  0.91188000000E+02  0.91188000000E+02 0.  0.
    9900012    2    3    3    0    0  0.23608781871E+02  0.84660271258E+01 -0.35419953759E+02  0.47787293543E+02  0.20000102579E+02 0.  0.
         12    1    3    3    0    0 -0.23608781871E+02 -0.84660271258E+01  0.35419953759E+02  0.43400706457E+02  0.00000000000E+00 0. -1.
         11    1    4    4    0    0  0.67745743844E+01  0.42279267513E+01 -0.59291012697E+01  0.99460778618E+01  0.51100000000E-03 0. -1.
        -11    1    4    4    0    0  0.12572340254E+02  0.95121503440E+01 -0.14635427798E+02  0.21511403737E+02  0.51100000000E-03 0.  1.
        -12    1    4    4    0    0  0.42618672322E+01 -0.52740499695E+01 -0.14855424691E+02  0.16329811944E+02  0.00000000000E+00 0.  1.
</event>
<event>
 8    1  0.4042158E-011  0.9118800E+02  0.7816164E-02  0.1184000E+00
        -11   -1    0    0    0    0  0.00000000000E+00  0.00000000000E+00  0.45593999997E+02  0.45594000000E+02  0.51100000000E-03 0. -1.
         11   -1    0    0    0    0 -0.00000000000E+00 -0.00000000000E+00 -0.45593999997E+02  0.45594000000E+02  0.51100000000E-03 0.  1.
         23    2    1    2    0    0  0.88817841970E-15  0.17763568394E-14  0.00000000000E+00  0.91188000000E+02  0.91188000000E+02 0.  0.
    9900012    2    3    3    0    0 -0.34674780757E+01  0.13972822401E+02 -0.40943378373E+02  0.47787269561E+02  0.19999993236E+02 0.  0.
         12    1    3    3    0    0  0.34674780757E+01 -0.13972822401E+02  0.40943378373E+02  0.43400730439E+02  0.00000000000E+00 0. -1.
         11    1    4    4    0    0  0.32479637854E+01  0.96462245028E+01 -0.22681329423E+02  0.24860442888E+02  0.51100000000E-03 0. -1.
        -11    1    4    4    0    0  0.23736661000E+01  0.35026223743E+01 -0.31583656013E+01  0.52799552824E+01  0.51100000000E-03 0.  1.
        -12    1    4    4    0    0 -0.90891079612E+01  0.82397552346E+00 -0.15103683348E+02  0.17646871391E+02  0.00000000000E+00 0.  1.
</event>
<event>
 8    1  0.4042158E-011  0.9118800E+02  0.7816164E-02  0.1184000E+00
        -11   -1    0    0    0    0  0.00000000000E+00  0.00000000000E+00  0.45593999997E+02  0.45594000000E+02  0.51100000000E-03 0. -1.
         11   -1    0    0    0    0 -0.00000000000E+00 -0.00000000000E+00 -0.45593999997E+02  0.45594000000E+02  0.51100000000E-03 0.  1.
         23    2    1    2    0    0  0.00000000000E+00  0.00000000000E+00 -0.35527136788E-14  0.91188000000E+02  0.91188000000E+02 0.  0.
    9900012    2    3    3    0    0 -0.25422855595E+02  0.18361776914E+02  0.30002453018E+02  0.47787266998E+02  0.19999981550E+02 0.  0.
        -12    1    3    3    0    0  0.25422855595E+02 -0.18361776914E+02 -0.30002453018E+02  0.43400733002E+02  0.00000000000E+00 0.  1.
         11    1    4    4    0    0 -0.93969619993E+01  0.90076099111E+01  0.20301090911E+02  0.24115850048E+02  0.51100000000E-03 0. -1.
        -11    1    4    4    0    0 -0.54579742215E+01  0.22312347585E+01  0.91873695427E+01  0.10916760075E+02  0.51100000000E-03 0.  1.
        -12    1    4    4    0    0 -0.10567919374E+02  0.71229322439E+01  0.51399256509E+00  0.12754656875E+02  0.00000000000E+00 0.  1.
</event>
<event>
 8    1  0.4042158E-011  0.9118800E+02  0.7816164E-02  0.1184000E+00
        -11   -1    0    0    0    0  0.00000000000E+00  0.00000000000E+00  0.45593999997E+02  0.45594000000E+02  0.51100000000E-03 0.  1.
         11   -1    0    0    0    0 -0.00000000000E+00 -0.00000000000E+00 -0.45593999997E+02  0.45594000000E+02  0.51100000000E-03 0. -1.
         23    2    1    2    0    0  0.71054273576E-14 -0.35527136788E-14 -0.35527136788E-14  0.91188000000E+02  0.91188000000E+02 0.  0.
    9900012    2    3    3    0    0 -0.32699800936E+02  0.24213337989E+02  0.15101671333E+02  0.47787271954E+02  0.20000004149E+02 0.  0.
        -12    1    3    3    0    0  0.32699800936E+02 -0.24213337989E+02 -0.15101671333E+02  0.43400728046E+02  0.00000000000E+00 0.  1.
         11    1    4    4    0    0 -0.19916209602E+01  0.98529692770E+01 -0.57223788535E+00  0.10068515982E+02  0.51100000000E-03 0. -1.
        -11    1    4    4    0    0 -0.70727296292E+01  0.11501131628E+01  0.23478731349E+01  0.75404756623E+01  0.51100000000E-03 0.  1.
         12    1    4    4    0    0 -0.23635450347E+02  0.13210255549E+02  0.13326036083E+02  0.30178280310E+02  0.00000000000E+00 0. -1.
</event>
<event>
 8    1  0.4042158E-011  0.9118800E+02  0.7816164E-02  0.1184000E+00
        -11   -1    0    0    0    0  0.00000000000E+00  0.00000000000E+00  0.45593999997E+02  0.45594000000E+02  0.51100000000E-03 0. -1.
         11   -1    0    0    0    0 -0.00000000000E+00 -0.00000000000E+00 -0.45593999997E+02  0.45594000000E+02  0.51100000000E-03 0.  1.
         23    2    1    2    0    0 -0.35527136788E-14  0.00000000000E+00  0.00000000000E+00  0.91188000000E+02  0.91188000000E+02 0.  0.
    9900012    2    3    3    0    0  0.30758384742E+02  0.22949306378E+02 -0.20270049038E+02  0.47787265177E+02  0.19999973247E+02 0.  0.
         12    1    3    3    0    0 -0.30758384742E+02 -0.22949306378E+02  0.20270049038E+02  0.43400734823E+02  0.00000000000E+00 0. -1.
         11    1    4    4    0    0  0.29121056194E+01 -0.20320685354E+01 -0.18846001426E+01  0.40201218426E+01  0.51100000000E-03 0. -1.
        -11    1    4    4    0    0  0.11802814427E+01  0.79468868649E+01 -0.45400669165E+01  0.92281245654E+01  0.51100000000E-03 0.  1.
        -12    1    4    4    0    0  0.26665997680E+02  0.17034488049E+02 -0.13845381979E+02  0.34539018769E+02  0.00000000000E+00 0.  1.
</event>
<event>
 8    1  0.4042158E-011  0.9118800E+02  0.7816164E-02  0.1184000E+00
        -11   -1    0    0    0    0  0.00000000000E+00  0.00000000000E+00  0.45593999997E+02  0.45594000000E+02  0.51100000000E-03 0. -1.
         11   -1    0    0    0    0 -0.00000000000E+00 -0.00000000000E+00 -0.45593999997E+02  0.45594000000E+02  0.51100000000E-03 0.  1.
         23    2    1    2    0    0  0.44408920985E-15  0.00000000000E+00  0.00000000000E+00  0.91188000000E+02  0.91188000000E+02 0.  0.
    9900012    2    3    3    0    0 -0.37952202497E+01  0.34461390099E+02  0.26108083762E+02  0.47787272563E+02  0.20000006925E+02 0.  0.
        -12    1    3    3    0    0  0.37952202497E+01 -0.34461390099E+02 -0.26108083762E+02  0.43400727437E+02  0.00000000000E+00 0.  1.
         11    1    4    4    0    0 -0.49905203435E+01  0.11955201226E+02  0.12164435246E+02  0.17770920482E+02  0.51100000000E-03 0. -1.
        -11    1    4    4    0    0 -0.20867029117E+01 -0.13368958536E+01  0.86759608930E+00  0.26257080570E+01  0.51100000000E-03 0.  1.
        -12    1    4    4    0    0  0.32820030055E+01  0.23843084727E+02  0.13076052427E+02  0.27390644024E+02  0.00000000000E+00 0.  1.
</event>
<event>
 8    1  0.4042158E-011  0.9118800E+02  0.7816164E-02  0.1184000E+00
        -11   -1    0    0    0    0  0.00000000000E+00  0.00000000000E+00  0.45593999997E+02  0.45594000000E+02  0.51100000000E-03 0. -1.
         11   -1    0    0    0    0 -0.00000000000E+00 -0.00000000000E+00 -0.45593999997E+02  0.45594000000E+02  0.51100000000E-03 0.  1.
         23    2    1    2    0    0  0.00000000000E+00  0.00000000000E+00  0.35527136788E-14  0.91188000000E+02  0.91188000000E+02 0.  0.
    9900012    2    3    3    0    0  0.17122210705E+02 -0.27572265640E+02  0.28813595542E+02  0.47787271665E+02  0.20000002829E+02 0.  0.
        -12    1    3    3    0    0 -0.17122210705E+02  0.27572265640E+02 -0.28813595542E+02  0.43400728335E+02  0.00000000000E+00 0.  1.
         11    1    4    4    0    0 -0.86738496110E+00  0.89063546374E-01  0.18189129037E+01  0.20171101602E+01  0.51100000000E-03 0. -1.
        -11    1    4    4    0    0 -0.23306493545E+01 -0.92182293396E+01  0.64443430049E+01  0.11486393498E+02  0.51100000000E-03 0.  1.
         12    1    4    4    0    0  0.20320245021E+02 -0.18443099847E+02  0.20550339633E+02  0.34283768006E+02  0.00000000000E+00 0. -1.
</event>
<event>
 8    1  0.4987148E-011  0.9118800E+02  0.7816164E-02  0.1184000E+00
        -11   -1    0    0    0    0  0.00000000000E+00  0.00000000000E+00  0.45593999997E+02  0.45594000000E+02  0.51100000000E-03 0. -1.
         11   -1    0    0    0    0 -0.00000000000E+00 -0.00000000000E+00 -0.45593999997E+02  0.45594000000E+02  0.51100000000E-03 0.  1.
         23    2    1    2    0    0  0.00000000000E+00  0.00000000000E+00 -0.71054273576E-14  0.91188000000E+02  0.91188000000E+02 0.  0.
    9900012    2    3    3    0    0  0.17864116667E+02 -0.22439742075E+02  0.32572299603E+02  0.47787269705E+02  0.19999993893E+02 0.  0.
        -12    1    3    3    0    0 -0.17864116667E+02  0.22439742075E+02 -0.32572299603E+02  0.43400730295E+02  0.00000000000E+00 0.  1.
         11    1    4    4    0    0  0.11615008113E+02 -0.12568989928E+02  0.25993156409E+02  0.31121248394E+02  0.51100000000E-03 0. -1.
        -11    1    4    4    0    0  0.88626224692E+01 -0.76893540639E+01  0.61120603749E+01  0.13229872457E+02  0.51100000000E-03 0.  1.
        -12    1    4    4    0    0 -0.26135139151E+01 -0.21813980830E+01  0.46708281963E+00  0.34361488532E+01  0.00000000000E+00 0.  1.
</event>
<event>
 8    1  0.4042158E-011  0.9118800E+02  0.7816164E-02  0.1184000E+00
        -11   -1    0    0    0    0  0.00000000000E+00  0.00000000000E+00  0.45593999997E+02  0.45594000000E+02  0.51100000000E-03 0. -1.
         11   -1    0    0    0    0 -0.00000000000E+00 -0.00000000000E+00 -0.45593999997E+02  0.45594000000E+02  0.51100000000E-03 0.  1.
         23    2    1    2    0    0  0.00000000000E+00  0.00000000000E+00  0.00000000000E+00  0.91188000000E+02  0.91188000000E+02 0.  0.
    9900012    2    3    3    0    0 -0.27764903741E+02 -0.86599093023E+01  0.32213963091E+02  0.47787270433E+02  0.19999997213E+02 0.  0.
        -12    1    3    3    0    0  0.27764903741E+02  0.86599093023E+01 -0.32213963091E+02  0.43400729567E+02  0.00000000000E+00 0.  1.
         11    1    4    4    0    0 -0.20469861042E+02  0.17918642626E+01  0.21448290207E+02  0.29702780032E+02  0.51100000000E-03 0. -1.
        -11    1    4    4    0    0 -0.26070481687E+01 -0.28378143761E+01  0.77378037442E+01  0.86442754255E+01  0.51100000000E-03 0.  1.
        -12    1    4    4    0    0 -0.46879945307E+01 -0.76139591889E+01  0.30278691407E+01  0.94402149755E+01  0.00000000000E+00 0.  1.
</event>
<event>
 8    1  0.4042158E-011  0.9118800E+02  0.7816164E-02  0.1184000E+00
        -11   -1    0    0    0    0  0.00000000000E+00  0.00000000000E+00  0.45593999997E+02  0.45594000000E+02  0.51100000000E-03 0. -1.
         11   -1    0    0    0    0 -0.00000000000E+00 -0.00000000000E+00 -0.45593999997E+02  0.45594000000E+02  0.51100000000E-03 0.  1.
         23    2    1    2    0    0  0.00000000000E+00 -0.35527136788E-14 -0.35527136788E-14  0.91188000000E+02  0.91188000000E+02 0.  0.
    9900012    2    3    3    0    0 -0.57817595862E+01 -0.29272144866E+02 -0.31517225516E+02  0.47787277504E+02  0.20000029451E+02 0.  0.
         12    1    3    3    0    0  0.57817595862E+01  0.29272144866E+02  0.31517225516E+02  0.43400722496E+02  0.00000000000E+00 0. -1.
         11    1    4    4    0    0 -0.33885246515E+01 -0.13714901465E+02 -0.17750133389E+02  0.22685851474E+02  0.51100000000E-03 0.  1.
        -11    1    4    4    0    0  0.38659831469E+01 -0.60992108696E+01 -0.11432323402E+02  0.13521990147E+02  0.51100000000E-03 0. -1.
         12    1    4    4    0    0 -0.62592180817E+01 -0.94580325314E+01 -0.23347687252E+01  0.11579435883E+02  0.00000000000E+00 0. -1.
</event>
<event>
 8    1  0.4042158E-011  0.9118800E+02  0.7816164E-02  0.1184000E+00
        -11   -1    0    0    0    0  0.00000000000E+00  0.00000000000E+00  0.45593999997E+02  0.45594000000E+02  0.51100000000E-03 0. -1.
         11   -1    0    0    0    0 -0.00000000000E+00 -0.00000000000E+00 -0.45593999997E+02  0.45594000000E+02  0.51100000000E-03 0.  1.
         23    2    1    2    0    0  0.00000000000E+00 -0.17763568394E-14  0.00000000000E+00  0.91188000000E+02  0.91188000000E+02 0.  0.
    9900012    2    3    3    0    0 -0.70034233427E+01 -0.10133587609E+02  0.41615923976E+02  0.47787278063E+02  0.20000031998E+02 0.  0.
        -12    1    3    3    0    0  0.70034233427E+01  0.10133587609E+02 -0.41615923976E+02  0.43400721937E+02  0.00000000000E+00 0.  1.
         11    1    4    4    0    0  0.61848352909E+01 -0.38927277552E+01  0.11451348284E+02  0.13584509367E+02  0.51100000000E-03 0.  1.
        -11    1    4    4    0    0 -0.36365311517E+01 -0.54151708589E+01  0.12865608724E+02  0.14424712210E+02  0.51100000000E-03 0. -1.
        -12    1    4    4    0    0 -0.95517274819E+01 -0.82568899512E+00  0.17298966967E+02  0.19778056485E+02  0.00000000000E+00 0.  1.
</event>
<event>
 8    1  0.4042158E-011  0.9118800E+02  0.7816164E-02  0.1184000E+00
        -11   -1    0    0    0    0  0.00000000000E+00  0.00000000000E+00  0.45593999997E+02  0.45594000000E+02  0.51100000000E-03 0. -1.
         11   -1    0    0    0    0 -0.00000000000E+00 -0.00000000000E+00 -0.45593999997E+02  0.45594000000E+02  0.51100000000E-03 0.  1.
         23    2    1    2    0    0  0.00000000000E+00  0.00000000000E+00  0.00000000000E+00  0.91188000000E+02  0.91188000000E+02 0.  0.
    9900012    2    3    3    0    0 -0.32508108312E+02  0.16775521752E+02 -0.23354394524E+02  0.47787274434E+02  0.20000015455E+02 0.  0.
         12    1    3    3    0    0  0.32508108312E+02 -0.16775521752E+02  0.23354394524E+02  0.43400725566E+02  0.00000000000E+00 0. -1.
         11    1    4    4    0    0  0.11548924446E+00 -0.15661423822E+01 -0.58723984803E+01  0.60787501922E+01  0.51100000000E-03 0. -1.
        -11    1    4    4    0    0 -0.83155819521E+01  0.47700792883E+01 -0.73580877262E+01  0.12084867184E+02  0.51100000000E-03 0.  1.
         12    1    4    4    0    0 -0.24308015604E+02  0.13571584846E+02 -0.10123908317E+02  0.29623657058E+02  0.00000000000E+00 0. -1.
</event>
<event>
 8    1  0.4042158E-011  0.9118800E+02  0.7816164E-02  0.1184000E+00
        -11   -1    0    0    0    0  0.00000000000E+00  0.00000000000E+00  0.45593999997E+02  0.45594000000E+02  0.51100000000E-03 0. -1.
         11   -1    0    0    0    0 -0.00000000000E+00 -0.00000000000E+00 -0.45593999997E+02  0.45594000000E+02  0.51100000000E-03 0.  1.
         23    2    1    2    0    0  0.00000000000E+00 -0.35527136788E-14  0.00000000000E+00  0.91188000000E+02  0.91188000000E+02 0.  0.
    9900012    2    3    3    0    0 -0.19450007051E+02 -0.30064117056E+02  0.24524885834E+02  0.47787263442E+02  0.19999965336E+02 0.  0.
        -12    1    3    3    0    0  0.19450007051E+02  0.30064117056E+02 -0.24524885834E+02  0.43400736558E+02  0.00000000000E+00 0.  1.
         11    1    4    4    0    0 -0.72585367114E+01 -0.64159776073E+01  0.13292846854E+02  0.16448431585E+02  0.51100000000E-03 0. -1.
        -11    1    4    4    0    0 -0.57452351534E+01 -0.19368490062E+01  0.49737406159E+01  0.78420154945E+01  0.51100000000E-03 0.  1.
        -12    1    4    4    0    0 -0.64462351862E+01 -0.21711290443E+02  0.62582983635E+01  0.23496816362E+02  0.00000000000E+00 0.  1.
</event>
<event>
 8    1  0.4042158E-011  0.9118800E+02  0.7816164E-02  0.1184000E+00
        -11   -1    0    0    0    0  0.00000000000E+00  0.00000000000E+00  0.45593999997E+02  0.45594000000E+02  0.51100000000E-03 0. -1.
         11   -1    0    0    0    0 -0.00000000000E+00 -0.00000000000E+00 -0.45593999997E+02  0.45594000000E+02  0.51100000000E-03 0.  1.
         23    2    1    2    0    0 -0.35527136788E-14  0.55511151231E-15  0.00000000000E+00  0.91188000000E+02  0.91188000000E+02 0.  0.
    9900012    2    3    3    0    0  0.21261567065E+02  0.59905955132E+00 -0.37831344598E+02  0.47787265669E+02  0.19999975489E+02 0.  0.
         12    1    3    3    0    0 -0.21261567065E+02 -0.59905955132E+00  0.37831344598E+02  0.43400734331E+02  0.00000000000E+00 0. -1.
         11    1    4    4    0    0  0.48407373145E+01  0.57026135479E+01 -0.15012183661E+02  0.16772542966E+02  0.51100000000E-03 0.  1.
        -11    1    4    4    0    0  0.63759290173E+01  0.38486833230E+01 -0.96251271203E+01  0.12169959182E+02  0.51100000000E-03 0. -1.
         12    1    4    4    0    0  0.10044900733E+02 -0.89522373195E+01 -0.13194033817E+02  0.18844763520E+02  0.00000000000E+00 0. -1.
</event>
<event>
 8    1  0.4042158E-011  0.9118800E+02  0.7816164E-02  0.1184000E+00
        -11   -1    0    0    0    0  0.00000000000E+00  0.00000000000E+00  0.45593999997E+02  0.45594000000E+02  0.51100000000E-03 0. -1.
         11   -1    0    0    0    0 -0.00000000000E+00 -0.00000000000E+00 -0.45593999997E+02  0.45594000000E+02  0.51100000000E-03 0.  1.
         23    2    1    2    0    0  0.00000000000E+00  0.00000000000E+00 -0.35527136788E-14  0.91188000000E+02  0.91188000000E+02 0.  0.
    9900012    2    3    3    0    0 -0.22799931489E+01 -0.29393421708E+02  0.31850454085E+02  0.47787273809E+02  0.20000012605E+02 0.  0.
        -12    1    3    3    0    0  0.22799931489E+01  0.29393421708E+02 -0.31850454085E+02  0.43400726191E+02  0.00000000000E+00 0.  1.
         11    1    4    4    0    0  0.27111073992E+01 -0.12995588386E+01  0.33580680040E+01  0.45072804977E+01  0.51100000000E-03 0. -1.
        -11    1    4    4    0    0  0.13857361186E+01 -0.13532411026E+02  0.22497996261E+02  0.26290801601E+02  0.51100000000E-03 0.  1.
        -12    1    4    4    0    0 -0.63768366667E+01 -0.14561451844E+02  0.59943898194E+01  0.16989191710E+02  0.00000000000E+00 0.  1.
</event>
<event>
 8    1  0.4042158E-011  0.9118800E+02  0.7816164E-02  0.1184000E+00
        -11   -1    0    0    0    0  0.00000000000E+00  0.00000000000E+00  0.45593999997E+02  0.45594000000E+02  0.51100000000E-03 0. -1.
         11   -1    0    0    0    0 -0.00000000000E+00 -0.00000000000E+00 -0.45593999997E+02  0.45594000000E+02  0.51100000000E-03 0.  1.
         23    2    1    2    0    0  0.00000000000E+00 -0.71054273576E-14  0.00000000000E+00  0.91188000000E+02  0.91188000000E+02 0.  0.
    9900012    2    3    3    0    0 -0.20088216898E+01 -0.41226118409E+02  0.13416197992E+02  0.47787279128E+02  0.20000036856E+02 0.  0.
         12    1    3    3    0    0  0.20088216898E+01  0.41226118409E+02 -0.13416197992E+02  0.43400720872E+02  0.00000000000E+00 0. -1.
         11    1    4    4    0    0 -0.44822586600E+01 -0.16528728597E+01  0.34329069087E+01  0.58828123793E+01  0.51100000000E-03 0. -1.
        -11    1    4    4    0    0 -0.21109803485E+01 -0.75324883720E+01 -0.61392179855E+00  0.78467521525E+01  0.51100000000E-03 0.  1.
        -12    1    4    4    0    0  0.45844173187E+01 -0.32040757177E+02  0.10597212882E+02  0.34057714596E+02  0.00000000000E+00 0.  1.
</event>
<event>
 8    1  0.4042158E-011  0.9118800E+02  0.7816164E-02  0.1184000E+00
        -11   -1    0    0    0    0  0.00000000000E+00  0.00000000000E+00  0.45593999997E+02  0.45594000000E+02  0.51100000000E-03 0. -1.
         11   -1    0    0    0    0 -0.00000000000E+00 -0.00000000000E+00 -0.45593999997E+02  0.45594000000E+02  0.51100000000E-03 0.  1.
         23    2    1    2    0    0  0.00000000000E+00  0.44408920985E-15  0.00000000000E+00  0.91188000000E+02  0.91188000000E+02 0.  0.
    9900012    2    3    3    0    0  0.11485486325E+02 -0.31608419855E+01 -0.41733869941E+02  0.47787271684E+02  0.20000002915E+02 0.  0.
         12    1    3    3    0    0 -0.11485486325E+02  0.31608419855E+01  0.41733869941E+02  0.43400728316E+02  0.00000000000E+00 0. -1.
         11    1    4    4    0    0  0.78206910359E-01 -0.39692371227E+01 -0.18099323462E+02  0.18529610619E+02  0.51100000000E-03 0. -1.
        -11    1    4    4    0    0 -0.50406028791E+00 -0.25253238966E+01 -0.12011632947E+02  0.12284570154E+02  0.51100000000E-03 0.  1.
        -12    1    4    4    0    0  0.11911339702E+02  0.33337190338E+01 -0.11622913532E+02  0.16973090911E+02  0.00000000000E+00 0.  1.
</event>
<event>
 8    1  0.4042158E-011  0.9118800E+02  0.7816164E-02  0.1184000E+00
        -11   -1    0    0    0    0  0.00000000000E+00  0.00000000000E+00  0.45593999997E+02  0.45594000000E+02  0.51100000000E-03 0. -1.
         11   -1    0    0    0    0 -0.00000000000E+00 -0.00000000000E+00 -0.45593999997E+02  0.45594000000E+02  0.51100000000E-03 0.  1.
         23    2    1    2    0    0  0.35527136788E-14 -0.35527136788E-14 -0.35527136788E-14  0.91188000000E+02  0.91188000000E+02 0.  0.
    9900012    2    3    3    0    0  0.27504806663E+02  0.20603591743E+02  0.26506623775E+02  0.47787268598E+02  0.19999988845E+02 0.  0.
        -12    1    3    3    0    0 -0.27504806663E+02 -0.20603591743E+02 -0.26506623775E+02  0.43400731402E+02  0.00000000000E+00 0.  1.
         11    1    4    4    0    0  0.13401699294E+02  0.10997903945E+02  0.20355041174E+02  0.26737373405E+02  0.51100000000E-03 0. -1.
        -11    1    4    4    0    0  0.56854178625E+01  0.36619953272E+01  0.81112376179E+01  0.10560604244E+02  0.51100000000E-03 0.  1.
        -12    1    4    4    0    0  0.84176895060E+01  0.59436924717E+01 -0.19596550169E+01  0.10489290949E+02  0.00000000000E+00 0.  1.
</event>
<event>
 8    1  0.4042158E-011  0.9118800E+02  0.7816164E-02  0.1184000E+00
        -11   -1    0    0    0    0  0.00000000000E+00  0.00000000000E+00  0.45593999997E+02  0.45594000000E+02  0.51100000000E-03 0. -1.
         11   -1    0    0    0    0 -0.00000000000E+00 -0.00000000000E+00 -0.45593999997E+02  0.45594000000E+02  0.51100000000E-03 0.  1.
         23    2    1    2    0    0  0.00000000000E+00  0.88817841970E-15  0.00000000000E+00  0.91188000000E+02  0.91188000000E+02 0.  0.
    9900012    2    3    3    0    0  0.24900156601E+02  0.45911817673E+01 -0.35249490633E+02  0.47787270298E+02  0.19999996595E+02 0.  0.
         12    1    3    3    0    0 -0.24900156601E+02 -0.45911817673E+01  0.35249490633E+02  0.43400729702E+02  0.00000000000E+00 0. -1.
         11    1    4    4    0    0  0.12097043441E+02  0.12856055675E+01 -0.19472322645E+02  0.22960021584E+02  0.51100000000E-03 0.  1.
        -11    1    4    4    0    0  0.12971505152E+01  0.42702103835E+01  0.89057913649E+00  0.45508710856E+01  0.51100000000E-03 0. -1.
         12    1    4    4    0    0  0.11505962645E+02 -0.96463418373E+00 -0.16667747125E+02  0.20276377628E+02  0.00000000000E+00 0. -1.
</event>
<event>
 8    1  0.4042158E-011  0.9118800E+02  0.7816164E-02  0.1184000E+00
        -11   -1    0    0    0    0  0.00000000000E+00  0.00000000000E+00  0.45593999997E+02  0.45594000000E+02  0.51100000000E-03 0.  1.
         11   -1    0    0    0    0 -0.00000000000E+00 -0.00000000000E+00 -0.45593999997E+02  0.45594000000E+02  0.51100000000E-03 0. -1.
         23    2    1    2    0    0  0.00000000000E+00  0.00000000000E+00  0.00000000000E+00  0.91188000000E+02  0.91188000000E+02 0.  0.
    9900012    2    3    3    0    0  0.21005909417E+02 -0.16079312928E+02 -0.34406842865E+02  0.47787269930E+02  0.19999994919E+02 0.  0.
         12    1    3    3    0    0 -0.21005909417E+02  0.16079312928E+02  0.34406842865E+02  0.43400730070E+02  0.00000000000E+00 0. -1.
         11    1    4    4    0    0  0.14820044711E+02 -0.46831860376E+01 -0.23110105396E+02  0.27850366755E+02  0.51100000000E-03 0. -1.
        -11    1    4    4    0    0  0.73314958554E+01 -0.32189443620E+01 -0.41606566959E+01  0.90234970320E+01  0.51100000000E-03 0.  1.
         12    1    4    4    0    0 -0.11456311500E+01 -0.81771825289E+01 -0.71360807728E+01  0.10913406143E+02  0.00000000000E+00 0. -1.
</event>
<event>
 8    1  0.4042158E-011  0.9118800E+02  0.7816164E-02  0.1184000E+00
        -11   -1    0    0    0    0  0.00000000000E+00  0.00000000000E+00  0.45593999997E+02  0.45594000000E+02  0.51100000000E-03 0. -1.
         11   -1    0    0    0    0 -0.00000000000E+00 -0.00000000000E+00 -0.45593999997E+02  0.45594000000E+02  0.51100000000E-03 0.  1.
         23    2    1    2    0    0 -0.17763568394E-14  0.00000000000E+00  0.35527136788E-14  0.91188000000E+02  0.91188000000E+02 0.  0.
    9900012    2    3    3    0    0  0.13843430426E+02 -0.27357873389E+02 -0.30716925489E+02  0.47787270584E+02  0.19999997902E+02 0.  0.
         12    1    3    3    0    0 -0.13843430426E+02  0.27357873389E+02  0.30716925489E+02  0.43400729416E+02  0.00000000000E+00 0. -1.
         11    1    4    4    0    0  0.47021657471E+00 -0.80641391994E+01 -0.39985638007E+01  0.90133211073E+01  0.51100000000E-03 0. -1.
        -11    1    4    4    0    0  0.66779027569E+01 -0.20233268259E+02 -0.21048510762E+02  0.29950281054E+02  0.51100000000E-03 0.  1.
         12    1    4    4    0    0  0.66953110939E+01  0.93953406915E+00 -0.56698509263E+01  0.88236684230E+01  0.00000000000E+00 0. -1.
</event>
<event>
 8    1  0.4042158E-011  0.9118800E+02  0.7816164E-02  0.1184000E+00
        -11   -1    0    0    0    0  0.00000000000E+00  0.00000000000E+00  0.45593999997E+02  0.45594000000E+02  0.51100000000E-03 0. -1.
         11   -1    0    0    0    0 -0.00000000000E+00 -0.00000000000E+00 -0.45593999997E+02  0.45594000000E+02  0.51100000000E-03 0.  1.
         23    2    1    2    0    0  0.35527136788E-14  0.00000000000E+00  0.00000000000E+00  0.91188000000E+02  0.91188000000E+02 0.  0.
    9900012    2    3    3    0    0 -0.25960076668E+02  0.28505699705E+02 -0.19927938043E+02  0.47787271769E+02  0.20000003303E+02 0.  0.
         12    1    3    3    0    0  0.25960076668E+02 -0.28505699705E+02  0.19927938043E+02  0.43400728231E+02  0.00000000000E+00 0. -1.
         11    1    4    4    0    0 -0.39522245683E+01  0.73299249708E+01  0.28926054776E+00  0.83325596933E+01  0.51100000000E-03 0. -1.
        -11    1    4    4    0    0 -0.19712210955E+02  0.19303536073E+02 -0.10877803432E+02  0.29656776181E+02  0.51100000000E-03 0.  1.
         12    1    4    4    0    0 -0.22956411449E+01  0.18722386620E+01 -0.93393951588E+01  0.97979358951E+01  0.00000000000E+00 0. -1.
</event>
<event>
 8    1  0.4042158E-011  0.9118800E+02  0.7816164E-02  0.1184000E+00
        -11   -1    0    0    0    0  0.00000000000E+00  0.00000000000E+00  0.45593999997E+02  0.45594000000E+02  0.51100000000E-03 0.  1.
         11   -1    0    0    0    0 -0.00000000000E+00 -0.00000000000E+00 -0.45593999997E+02  0.45594000000E+02  0.51100000000E-03 0. -1.
         23    2    1    2    0    0  0.71054273576E-14 -0.35527136788E-14  0.17763568394E-14  0.91188000000E+02  0.91188000000E+02 0.  0.
    9900012    2    3    3    0    0  0.36946515279E+02 -0.16909416601E+02  0.15252879005E+02  0.47787266377E+02  0.19999978720E+02 0.  0.
        -12    1    3    3    0    0 -0.36946515279E+02  0.16909416601E+02 -0.15252879005E+02  0.43400733623E+02  0.00000000000E+00 0.  1.
         11    1    4    4    0    0  0.24182173791E+02 -0.74938822763E+01  0.91770044964E+01  0.26928668972E+02  0.51100000000E-03 0. -1.
        -11    1    4    4    0    0  0.10450139675E+02 -0.26650197272E+00  0.23628497259E+01  0.10717252522E+02  0.51100000000E-03 0.  1.
         12    1    4    4    0    0  0.23142018137E+01 -0.91490323517E+01  0.37130247825E+01  0.10141344883E+02  0.00000000000E+00 0. -1.
</event>
<event>
 8    1  0.4042158E-011  0.9118800E+02  0.7816164E-02  0.1184000E+00
        -11   -1    0    0    0    0  0.00000000000E+00  0.00000000000E+00  0.45593999997E+02  0.45594000000E+02  0.51100000000E-03 0.  1.
         11   -1    0    0    0    0 -0.00000000000E+00 -0.00000000000E+00 -0.45593999997E+02  0.45594000000E+02  0.51100000000E-03 0. -1.
         23    2    1    2    0    0  0.00000000000E+00  0.00000000000E+00 -0.88817841970E-15  0.91188000000E+02  0.91188000000E+02 0.  0.
    9900012    2    3    3    0    0  0.27993931823E+02  0.32395002209E+02  0.71082430254E+01  0.47787268370E+02  0.19999987808E+02 0.  0.
        -12    1    3    3    0    0 -0.27993931823E+02 -0.32395002209E+02 -0.71082430254E+01  0.43400731630E+02  0.00000000000E+00 0.  1.
         11    1    4    4    0    0  0.21334327703E+01  0.68014613811E+01  0.15880449163E+01  0.73029650979E+01  0.51100000000E-03 0. -1.
        -11    1    4    4    0    0  0.15511602740E+01 -0.13068439603E+01 -0.26312054101E+01  0.33222253842E+01  0.51100000000E-03 0.  1.
         12    1    4    4    0    0  0.24309338779E+02  0.26900384789E+02  0.81514035192E+01  0.37162077888E+02  0.00000000000E+00 0. -1.
</event>
<event>
 8    1  0.4042158E-011  0.9118800E+02  0.7816164E-02  0.1184000E+00
        -11   -1    0    0    0    0  0.00000000000E+00  0.00000000000E+00  0.45593999997E+02  0.45594000000E+02  0.51100000000E-03 0.  1.
         11   -1    0    0    0    0 -0.00000000000E+00 -0.00000000000E+00 -0.45593999997E+02  0.45594000000E+02  0.51100000000E-03 0. -1.
         23    2    1    2    0    0  0.00000000000E+00  0.00000000000E+00  0.00000000000E+00  0.91188000000E+02  0.91188000000E+02 0.  0.
    9900012    2    3    3    0    0  0.75920148013E+01 -0.38599093210E+02 -0.18332891821E+02  0.47787267196E+02  0.19999982455E+02 0.  0.
         12    1    3    3    0    0 -0.75920148013E+01  0.38599093210E+02  0.18332891821E+02  0.43400732804E+02  0.00000000000E+00 0. -1.
         11    1    4    4    0    0  0.38640059836E+01 -0.21519813806E+02 -0.69729791082E+01  0.22948973101E+02  0.51100000000E-03 0. -1.
        -11    1    4    4    0    0 -0.23315759850E+01 -0.13058824999E+02 -0.27128857245E+01  0.13539900522E+02  0.51100000000E-03 0.  1.
         12    1    4    4    0    0  0.60595848028E+01 -0.40204544049E+01 -0.86470269884E+01  0.11298393573E+02  0.00000000000E+00 0. -1.
</event>
<event>
 8    1  0.4042158E-011  0.9118800E+02  0.7816164E-02  0.1184000E+00
        -11   -1    0    0    0    0  0.00000000000E+00  0.00000000000E+00  0.45593999997E+02  0.45594000000E+02  0.51100000000E-03 0. -1.
         11   -1    0    0    0    0 -0.00000000000E+00 -0.00000000000E+00 -0.45593999997E+02  0.45594000000E+02  0.51100000000E-03 0.  1.
         23    2    1    2    0    0  0.35527136788E-14  0.88817841970E-15  0.00000000000E+00  0.91188000000E+02  0.91188000000E+02 0.  0.
    9900012    2    3    3    0    0 -0.27290841589E+02 -0.71618716026E+01 -0.32977883262E+02  0.47787271620E+02  0.20000002623E+02 0.  0.
         12    1    3    3    0    0  0.27290841589E+02  0.71618716026E+01  0.32977883262E+02  0.43400728380E+02  0.00000000000E+00 0. -1.
         11    1    4    4    0    0 -0.94053124728E+00 -0.35303080013E+01 -0.28620506189E+01  0.46410136412E+01  0.51100000000E-03 0. -1.
        -11    1    4    4    0    0 -0.83912529201E+01  0.60081539076E+00 -0.20883502886E+02  0.22514324279E+02  0.51100000000E-03 0.  1.
        -12    1    4    4    0    0 -0.17959057422E+02 -0.42323789920E+01 -0.92323297568E+01  0.20631933699E+02  0.00000000000E+00 0.  1.
</event>
<event>
 8    1  0.4042158E-011  0.9118800E+02  0.7816164E-02  0.1184000E+00
        -11   -1    0    0    0    0  0.00000000000E+00  0.00000000000E+00  0.45593999997E+02  0.45594000000E+02  0.51100000000E-03 0. -1.
         11   -1    0    0    0    0 -0.00000000000E+00 -0.00000000000E+00 -0.45593999997E+02  0.45594000000E+02  0.51100000000E-03 0.  1.
         23    2    1    2    0    0  0.00000000000E+00 -0.88817841970E-15  0.00000000000E+00  0.91188000000E+02  0.91188000000E+02 0.  0.
    9900012    2    3    3    0    0  0.16898152257E+02 -0.41955438401E+01  0.39755168622E+02  0.47787267633E+02  0.19999984446E+02 0.  0.
        -12    1    3    3    0    0 -0.16898152257E+02  0.41955438401E+01 -0.39755168622E+02  0.43400732367E+02  0.00000000000E+00 0.  1.
         11    1    4    4    0    0  0.72579300391E+01 -0.23236966119E+01  0.52587987189E+01  0.92591618748E+01  0.51100000000E-03 0. -1.
        -11    1    4    4    0    0 -0.44367528603E+00  0.45531526363E+01  0.14756718169E+02  0.15449555918E+02  0.51100000000E-03 0.  1.
         12    1    4    4    0    0  0.10083897504E+02 -0.64249998645E+01  0.19739651735E+02  0.23078549840E+02  0.00000000000E+00 0. -1.
</event>
<event>
 8    1  0.4042158E-011  0.9118800E+02  0.7816164E-02  0.1184000E+00
        -11   -1    0    0    0    0  0.00000000000E+00  0.00000000000E+00  0.45593999997E+02  0.45594000000E+02  0.51100000000E-03 0. -1.
         11   -1    0    0    0    0 -0.00000000000E+00 -0.00000000000E+00 -0.45593999997E+02  0.45594000000E+02  0.51100000000E-03 0.  1.
         23    2    1    2    0    0  0.17763568394E-14 -0.88817841970E-15  0.71054273576E-14  0.91188000000E+02  0.91188000000E+02 0.  0.
    9900012    2    3    3    0    0 -0.95549127015E+01 -0.47295170601E+01 -0.42070875080E+02  0.47787271684E+02  0.20000002917E+02 0.  0.
         12    1    3    3    0    0  0.95549127015E+01  0.47295170601E+01  0.42070875080E+02  0.43400728316E+02  0.00000000000E+00 0. -1.
         11    1    4    4    0    0 -0.82201447941E+01 -0.14371544456E+01 -0.11492754631E+02  0.14202802632E+02  0.51100000000E-03 0. -1.
        -11    1    4    4    0    0 -0.51988886379E+01  0.31739667306E+01 -0.16976565542E+02  0.18036249215E+02  0.51100000000E-03 0.  1.
         12    1    4    4    0    0  0.38641207305E+01 -0.64663293451E+01 -0.13601554907E+02  0.15548219837E+02  0.00000000000E+00 0. -1.
</event>
<event>
 8    1  0.4042158E-011  0.9118800E+02  0.7816164E-02  0.1184000E+00
        -11   -1    0    0    0    0  0.00000000000E+00  0.00000000000E+00  0.45593999997E+02  0.45594000000E+02  0.51100000000E-03 0. -1.
         11   -1    0    0    0    0 -0.00000000000E+00 -0.00000000000E+00 -0.45593999997E+02  0.45594000000E+02  0.51100000000E-03 0.  1.
         23    2    1    2    0    0 -0.17763568394E-14 -0.71054273576E-14 -0.35527136788E-14  0.91188000000E+02  0.91188000000E+02 0.  0.
    9900012    2    3    3    0    0 -0.97559734997E+01 -0.38121286371E+02 -0.18308795215E+02  0.47787268719E+02  0.19999989400E+02 0.  0.
         12    1    3    3    0    0  0.97559734997E+01  0.38121286371E+02  0.18308795215E+02  0.43400731281E+02  0.00000000000E+00 0. -1.
         11    1    4    4    0    0 -0.11228770340E+02 -0.18062094483E+02 -0.14937300133E+02  0.25989372366E+02  0.51100000000E-03 0. -1.
        -11    1    4    4    0    0 -0.26274372928E+01 -0.29883498331E+01 -0.60065705576E+00  0.40242329222E+01  0.51100000000E-03 0.  1.
         12    1    4    4    0    0  0.41002341331E+01 -0.17070842054E+02 -0.27708380255E+01  0.17773663431E+02  0.00000000000E+00 0. -1.
</event>
<event>
 8    1  0.4042158E-011  0.9118800E+02  0.7816164E-02  0.1184000E+00
        -11   -1    0    0    0    0  0.00000000000E+00  0.00000000000E+00  0.45593999997E+02  0.45594000000E+02  0.51100000000E-03 0. -1.
         11   -1    0    0    0    0 -0.00000000000E+00 -0.00000000000E+00 -0.45593999997E+02  0.45594000000E+02  0.51100000000E-03 0.  1.
         23    2    1    2    0    0  0.00000000000E+00  0.00000000000E+00  0.00000000000E+00  0.91188000000E+02  0.91188000000E+02 0.  0.
    9900012    2    3    3    0    0  0.14659937792E+02  0.30494791710E+02  0.27180450023E+02  0.47787274650E+02  0.20000016438E+02 0.  0.
        -12    1    3    3    0    0 -0.14659937792E+02 -0.30494791710E+02 -0.27180450023E+02  0.43400725350E+02  0.00000000000E+00 0.  1.
         11    1    4    4    0    0  0.26070288682E+01  0.11199831461E+01  0.32076751451E+01  0.42825391842E+01  0.51100000000E-03 0. -1.
        -11    1    4    4    0    0  0.26787422131E+01  0.17162657913E+02  0.32221363481E+01  0.17666766807E+02  0.51100000000E-03 0.  1.
        -12    1    4    4    0    0  0.93741667111E+01  0.12212150650E+02  0.20750638529E+02  0.25837968659E+02  0.00000000000E+00 0.  1.
</event>
<event>
 8    1  0.4042158E-011  0.9118800E+02  0.7816164E-02  0.1184000E+00
        -11   -1    0    0    0    0  0.00000000000E+00  0.00000000000E+00  0.45593999997E+02  0.45594000000E+02  0.51100000000E-03 0.  1.
         11   -1    0    0    0    0 -0.00000000000E+00 -0.00000000000E+00 -0.45593999997E+02  0.45594000000E+02  0.51100000000E-03 0. -1.
         23    2    1    2    0    0 -0.71054273576E-14  0.35527136788E-14 -0.17763568394E-14  0.91188000000E+02  0.91188000000E+02 0.  0.
    9900012    2    3    3    0    0 -0.33456891261E+02 -0.22743728796E+02  0.15715683309E+02  0.47787268736E+02  0.19999989473E+02 0.  0.
        -12    1    3    3    0    0  0.33456891261E+02  0.22743728796E+02 -0.15715683309E+02  0.43400731264E+02  0.00000000000E+00 0.  1.
         11    1    4    4    0    0 -0.19266699315E+02 -0.82072613005E+01  0.44392356910E+01  0.21407280405E+02  0.51100000000E-03 0. -1.
        -11    1    4    4    0    0 -0.15547958790E+02 -0.10786100460E+02  0.61763370530E+01  0.19905429544E+02  0.51100000000E-03 0.  1.
        -12    1    4    4    0    0  0.13577668442E+01 -0.37503670359E+01  0.51001105650E+01  0.64745587867E+01  0.00000000000E+00 0.  1.
</event>
<event>
 8    1  0.4042158E-011  0.9118800E+02  0.7816164E-02  0.1184000E+00
        -11   -1    0    0    0    0  0.00000000000E+00  0.00000000000E+00  0.45593999997E+02  0.45594000000E+02  0.51100000000E-03 0. -1.
         11   -1    0    0    0    0 -0.00000000000E+00 -0.00000000000E+00 -0.45593999997E+02  0.45594000000E+02  0.51100000000E-03 0.  1.
         23    2    1    2    0    0  0.00000000000E+00 -0.71054273576E-14  0.00000000000E+00  0.91188000000E+02  0.91188000000E+02 0.  0.
    9900012    2    3    3    0    0 -0.94472349929E+01 -0.32981607042E+02  0.26581698293E+02  0.47787270326E+02  0.19999996723E+02 0.  0.
        -12    1    3    3    0    0  0.94472349929E+01  0.32981607042E+02 -0.26581698293E+02  0.43400729674E+02  0.00000000000E+00 0.  1.
         11    1    4    4    0    0 -0.92075956567E+00  0.13994968804E+00 -0.99801112008E+00  0.13650679653E+01  0.51100000000E-03 0. -1.
        -11    1    4    4    0    0 -0.59895301003E+00 -0.21260777172E+02  0.92462945207E+01  0.23192096785E+02  0.51100000000E-03 0.  1.
         12    1    4    4    0    0 -0.79275224172E+01 -0.11860779558E+02  0.18333414893E+02  0.23230105575E+02  0.00000000000E+00 0. -1.
</event>
<event>
 8    1  0.4042158E-011  0.9118800E+02  0.7816164E-02  0.1184000E+00
        -11   -1    0    0    0    0  0.00000000000E+00  0.00000000000E+00  0.45593999997E+02  0.45594000000E+02  0.51100000000E-03 0. -1.
         11   -1    0    0    0    0 -0.00000000000E+00 -0.00000000000E+00 -0.45593999997E+02  0.45594000000E+02  0.51100000000E-03 0.  1.
         23    2    1    2    0    0 -0.35527136788E-14  0.00000000000E+00  0.00000000000E+00  0.91188000000E+02  0.91188000000E+02 0.  0.
    9900012    2    3    3    0    0  0.20965522139E+02 -0.37793988873E+02 -0.39603825099E+01  0.47787270247E+02  0.19999996365E+02 0.  0.
         12    1    3    3    0    0 -0.20965522139E+02  0.37793988873E+02  0.39603825099E+01  0.43400729753E+02  0.00000000000E+00 0. -1.
         11    1    4    4    0    0  0.88228993280E+01 -0.77701995612E+01  0.56719200195E+01  0.13053360898E+02  0.51100000000E-03 0. -1.
        -11    1    4    4    0    0  0.91083733858E+01 -0.12336595630E+02 -0.31606281816E+01  0.15657063206E+02  0.51100000000E-03 0.  1.
        -12    1    4    4    0    0  0.30342494248E+01 -0.17687193681E+02 -0.64716743479E+01  0.19076846143E+02  0.00000000000E+00 0.  1.
</event>
<event>
 8    1  0.4042158E-011  0.9118800E+02  0.7816164E-02  0.1184000E+00
        -11   -1    0    0    0    0  0.00000000000E+00  0.00000000000E+00  0.45593999997E+02  0.45594000000E+02  0.51100000000E-03 0.  1.
         11   -1    0    0    0    0 -0.00000000000E+00 -0.00000000000E+00 -0.45593999997E+02  0.45594000000E+02  0.51100000000E-03 0. -1.
         23    2    1    2    0    0  0.00000000000E+00 -0.71054273576E-14  0.00000000000E+00  0.91188000000E+02  0.91188000000E+02 0.  0.
    9900012    2    3    3    0    0 -0.11203384503E+02 -0.32400654964E+02 -0.26614002711E+02  0.47787269514E+02  0.19999993023E+02 0.  0.
         12    1    3    3    0    0  0.11203384503E+02  0.32400654964E+02  0.26614002711E+02  0.43400730486E+02  0.00000000000E+00 0. -1.
         11    1    4    4    0    0  0.81291089093E+00  0.15744058775E+00 -0.28080376462E+01  0.29275736265E+01  0.51100000000E-03 0. -1.
        -11    1    4    4    0    0 -0.37949546170E+01 -0.28668909890E+02 -0.18502985009E+02  0.34331742300E+02  0.51100000000E-03 0.  1.
         12    1    4    4    0    0 -0.82213407766E+01 -0.38891856614E+01 -0.53029800559E+01  0.10527953588E+02  0.00000000000E+00 0. -1.
</event>
<event>
 8    1  0.4042158E-011  0.9118800E+02  0.7816164E-02  0.1184000E+00
        -11   -1    0    0    0    0  0.00000000000E+00  0.00000000000E+00  0.45593999997E+02  0.45594000000E+02  0.51100000000E-03 0. -1.
         11   -1    0    0    0    0 -0.00000000000E+00 -0.00000000000E+00 -0.45593999997E+02  0.45594000000E+02  0.51100000000E-03 0.  1.
         23    2    1    2    0    0 -0.88817841970E-15 -0.71054273576E-14  0.35527136788E-14  0.91188000000E+02  0.91188000000E+02 0.  0.
    9900012    2    3    3    0    0  0.74398087098E+01  0.38575673655E+02 -0.18444241756E+02  0.47787269527E+02  0.19999993084E+02 0.  0.
         12    1    3    3    0    0 -0.74398087098E+01 -0.38575673655E+02  0.18444241756E+02  0.43400730473E+02  0.00000000000E+00 0. -1.
         11    1    4    4    0    0  0.40886249286E+01  0.21732681488E+02 -0.15014068720E+02  0.26729170550E+02  0.51100000000E-03 0.  1.
        -11    1    4    4    0    0 -0.16696724847E+01  0.11856985425E+02 -0.61700909748E+01  0.13470186802E+02  0.51100000000E-03 0. -1.
        -12    1    4    4    0    0  0.50208562658E+01  0.49860067417E+01  0.27399179395E+01  0.75879121757E+01  0.00000000000E+00 0.  1.
</event>
<event>
 8    1  0.4042158E-011  0.9118800E+02  0.7816164E-02  0.1184000E+00
        -11   -1    0    0    0    0  0.00000000000E+00  0.00000000000E+00  0.45593999997E+02  0.45594000000E+02  0.51100000000E-03 0. -1.
         11   -1    0    0    0    0 -0.00000000000E+00 -0.00000000000E+00 -0.45593999997E+02  0.45594000000E+02  0.51100000000E-03 0.  1.
         23    2    1    2    0    0  0.00000000000E+00  0.00000000000E+00  0.00000000000E+00  0.91188000000E+02  0.91188000000E+02 0.  0.
    9900012    2    3    3    0    0 -0.22370236557E+02 -0.33986709562E+02  0.15102938691E+02  0.47787278029E+02  0.20000031845E+02 0.  0.
        -12    1    3    3    0    0  0.22370236557E+02  0.33986709562E+02 -0.15102938691E+02  0.43400721971E+02  0.00000000000E+00 0.  1.
         11    1    4    4    0    0 -0.11857075358E+02 -0.10614200199E+02  0.94367503228E+01  0.18501452344E+02  0.51100000000E-03 0. -1.
        -11    1    4    4    0    0 -0.11711910344E+02 -0.11140327335E+02  0.52235057885E+01  0.16987075971E+02  0.51100000000E-03 0.  1.
        -12    1    4    4    0    0  0.11987491446E+01 -0.12232182028E+02  0.44268258006E+00  0.12298749715E+02  0.00000000000E+00 0.  1.
</event>
<event>
 8    1  0.4042158E-011  0.9118800E+02  0.7816164E-02  0.1184000E+00
        -11   -1    0    0    0    0  0.00000000000E+00  0.00000000000E+00  0.45593999997E+02  0.45594000000E+02  0.51100000000E-03 0. -1.
         11   -1    0    0    0    0 -0.00000000000E+00 -0.00000000000E+00 -0.45593999997E+02  0.45594000000E+02  0.51100000000E-03 0.  1.
         23    2    1    2    0    0  0.88817841970E-15 -0.35527136788E-14  0.00000000000E+00  0.91188000000E+02  0.91188000000E+02 0.  0.
    9900012    2    3    3    0    0 -0.74179125412E+01  0.19455971529E+02 -0.38079693374E+02  0.47787270720E+02  0.19999998519E+02 0.  0.
         12    1    3    3    0    0  0.74179125412E+01 -0.19455971529E+02  0.38079693374E+02  0.43400729280E+02  0.00000000000E+00 0. -1.
         11    1    4    4    0    0 -0.47574407810E+01  0.13008946353E+02 -0.13606916450E+02  0.19416851020E+02  0.51100000000E-03 0. -1.
        -11    1    4    4    0    0 -0.35068183978E+01  0.82837825978E+01 -0.24745443497E+02  0.26329751300E+02  0.51100000000E-03 0.  1.
        -12    1    4    4    0    0  0.84634663769E+00 -0.18367574214E+01  0.27266657302E+00  0.20406683994E+01  0.00000000000E+00 0.  1.
</event>
<event>
 8    1  0.4042158E-011  0.9118800E+02  0.7816164E-02  0.1184000E+00
        -11   -1    0    0    0    0  0.00000000000E+00  0.00000000000E+00  0.45593999997E+02  0.45594000000E+02  0.51100000000E-03 0. -1.
         11   -1    0    0    0    0 -0.00000000000E+00 -0.00000000000E+00 -0.45593999997E+02  0.45594000000E+02  0.51100000000E-03 0.  1.
         23    2    1    2    0    0  0.00000000000E+00  0.17763568394E-14  0.71054273576E-14  0.91188000000E+02  0.91188000000E+02 0.  0.
    9900012    2    3    3    0    0  0.67082995172E+01 -0.96583590677E+01 -0.41777242699E+02  0.47787272013E+02  0.20000004414E+02 0.  0.
         12    1    3    3    0    0 -0.67082995172E+01  0.96583590677E+01  0.41777242699E+02  0.43400727987E+02  0.00000000000E+00 0. -1.
         11    1    4    4    0    0  0.11704629792E+01 -0.44978632827E+01 -0.18309281599E+01  0.49953033825E+01  0.51100000000E-03 0. -1.
        -11    1    4    4    0    0  0.64998915012E+01 -0.20065843482E+01 -0.72949553240E+01  0.99745347618E+01  0.51100000000E-03 0.  1.
         12    1    4    4    0    0 -0.96205496322E+00 -0.31539114369E+01 -0.32651359215E+02  0.32817433868E+02  0.00000000000E+00 0. -1.
</event>
<event>
 8    1  0.4042158E-011  0.9118800E+02  0.7816164E-02  0.1184000E+00
        -11   -1    0    0    0    0  0.00000000000E+00  0.00000000000E+00  0.45593999997E+02  0.45594000000E+02  0.51100000000E-03 0.  1.
         11   -1    0    0    0    0 -0.00000000000E+00 -0.00000000000E+00 -0.45593999997E+02  0.45594000000E+02  0.51100000000E-03 0. -1.
         23    2    1    2    0    0  0.00000000000E+00  0.00000000000E+00  0.00000000000E+00  0.91188000000E+02  0.91188000000E+02 0.  0.
    9900012    2    3    3    0    0  0.16487701919E+02 -0.39875354444E+02 -0.46620576740E+01  0.47787274334E+02  0.20000014998E+02 0.  0.
        -12    1    3    3    0    0 -0.16487701919E+02  0.39875354444E+02  0.46620576740E+01  0.43400725666E+02  0.00000000000E+00 0.  1.
         11    1    4    4    0    0  0.16686141143E+02 -0.18512882238E+02 -0.30975914748E+01  0.25114720548E+02  0.51100000000E-03 0. -1.
        -11    1    4    4    0    0  0.25892178524E+01 -0.27036391006E+01 -0.20349794270E-01  0.37435448239E+01  0.51100000000E-03 0.  1.
        -12    1    4    4    0    0 -0.27876570763E+01 -0.18658833105E+02 -0.15441164049E+01  0.18929008962E+02  0.00000000000E+00 0.  1.
</event>
<event>
 8    1  0.4042158E-011  0.9118800E+02  0.7816164E-02  0.1184000E+00
        -11   -1    0    0    0    0  0.00000000000E+00  0.00000000000E+00  0.45593999997E+02  0.45594000000E+02  0.51100000000E-03 0. -1.
         11   -1    0    0    0    0 -0.00000000000E+00 -0.00000000000E+00 -0.45593999997E+02  0.45594000000E+02  0.51100000000E-03 0.  1.
         23    2    1    2    0    0  0.00000000000E+00  0.00000000000E+00  0.00000000000E+00  0.91188000000E+02  0.91188000000E+02 0.  0.
    9900012    2    3    3    0    0 -0.42121668220E+02  0.66424645043E+01 -0.80787119311E+01  0.47787275872E+02  0.20000022013E+02 0.  0.
         12    1    3    3    0    0  0.42121668220E+02 -0.66424645043E+01  0.80787119311E+01  0.43400724128E+02  0.00000000000E+00 0. -1.
         11    1    4    4    0    0 -0.71560007766E+01  0.58608693456E+01  0.81685155622E+00  0.92857623988E+01  0.51100000000E-03 0. -1.
        -11    1    4    4    0    0 -0.14869538459E+02  0.53462274579E+01  0.59617223923E+00  0.15812676675E+02  0.51100000000E-03 0.  1.
        -12    1    4    4    0    0 -0.20096128985E+02 -0.45646322992E+01 -0.94917357265E+01  0.22688836799E+02  0.00000000000E+00 0.  1.
</event>
<event>
 8    1  0.4042158E-011  0.9118800E+02  0.7816164E-02  0.1184000E+00
        -11   -1    0    0    0    0  0.00000000000E+00  0.00000000000E+00  0.45593999997E+02  0.45594000000E+02  0.51100000000E-03 0. -1.
         11   -1    0    0    0    0 -0.00000000000E+00 -0.00000000000E+00 -0.45593999997E+02  0.45594000000E+02  0.51100000000E-03 0.  1.
         23    2    1    2    0    0  0.00000000000E+00  0.00000000000E+00  0.00000000000E+00  0.91188000000E+02  0.91188000000E+02 0.  0.
    9900012    2    3    3    0    0 -0.16004217552E+02 -0.15515488257E+02  0.37239202161E+02  0.47787268060E+02  0.19999986394E+02 0.  0.
        -12    1    3    3    0    0  0.16004217552E+02  0.15515488257E+02 -0.37239202161E+02  0.43400731940E+02  0.00000000000E+00 0.  1.
         11    1    4    4    0    0 -0.59146164514E+01 -0.29348493797E+01  0.15449991523E+02  0.16801734047E+02  0.51100000000E-03 0. -1.
        -11    1    4    4    0    0  0.16854652529E+01  0.19700106556E+01  0.58558875603E+01  0.64041513476E+01  0.51100000000E-03 0.  1.
         12    1    4    4    0    0 -0.11775066353E+02 -0.14550649533E+02  0.15933323077E+02  0.24581382666E+02  0.00000000000E+00 0. -1.
</event>
<event>
 8    1  0.4042158E-011  0.9118800E+02  0.7816164E-02  0.1184000E+00
        -11   -1    0    0    0    0  0.00000000000E+00  0.00000000000E+00  0.45593999997E+02  0.45594000000E+02  0.51100000000E-03 0. -1.
         11   -1    0    0    0    0 -0.00000000000E+00 -0.00000000000E+00 -0.45593999997E+02  0.45594000000E+02  0.51100000000E-03 0.  1.
         23    2    1    2    0    0 -0.17763568394E-14 -0.17763568394E-14  0.00000000000E+00  0.91188000000E+02  0.91188000000E+02 0.  0.
    9900012    2    3    3    0    0 -0.99205513522E+01 -0.12651505071E+02  0.40313092540E+02  0.47787270169E+02  0.19999996009E+02 0.  0.
        -12    1    3    3    0    0  0.99205513522E+01  0.12651505071E+02 -0.40313092540E+02  0.43400729831E+02  0.00000000000E+00 0.  1.
         11    1    4    4    0    0 -0.19793742563E+01 -0.22679046378E+01  0.54096481299E+00  0.30584239540E+01  0.51100000000E-03 0. -1.
        -11    1    4    4    0    0 -0.49232156613E+01 -0.56862697956E+01  0.39909034505E+01  0.85146360608E+01  0.51100000000E-03 0.  1.
         12    1    4    4    0    0 -0.30179614346E+01 -0.46973306380E+01  0.35781224277E+02  0.36214210154E+02  0.00000000000E+00 0. -1.
</event>
<event>
 8    1  0.4042158E-011  0.9118800E+02  0.7816164E-02  0.1184000E+00
        -11   -1    0    0    0    0  0.00000000000E+00  0.00000000000E+00  0.45593999997E+02  0.45594000000E+02  0.51100000000E-03 0.  1.
         11   -1    0    0    0    0 -0.00000000000E+00 -0.00000000000E+00 -0.45593999997E+02  0.45594000000E+02  0.51100000000E-03 0. -1.
         23    2    1    2    0    0  0.71054273576E-14 -0.35527136788E-14 -0.35527136788E-14  0.91188000000E+02  0.91188000000E+02 0.  0.
    9900012    2    3    3    0    0 -0.21012095893E+02  0.30150647484E+02  0.23087953572E+02  0.47787270540E+02  0.19999997701E+02 0.  0.
        -12    1    3    3    0    0  0.21012095893E+02 -0.30150647484E+02 -0.23087953572E+02  0.43400729460E+02  0.00000000000E+00 0.  1.
         11    1    4    4    0    0 -0.14320680910E+02  0.10256943105E+02  0.16449297062E+02  0.24101165069E+02  0.51100000000E-03 0. -1.
        -11    1    4    4    0    0 -0.41182241646E+01  0.19156793411E+01  0.18488059976E+01  0.49038435421E+01  0.51100000000E-03 0.  1.
        -12    1    4    4    0    0 -0.25731908188E+01  0.17978025038E+02  0.47898505115E+01  0.18782261929E+02  0.00000000000E+00 0.  1.
</event>
<event>
 8    1  0.4042158E-011  0.9118800E+02  0.7816164E-02  0.1184000E+00
        -11   -1    0    0    0    0  0.00000000000E+00  0.00000000000E+00  0.45593999997E+02  0.45594000000E+02  0.51100000000E-03 0.  1.
         11   -1    0    0    0    0 -0.00000000000E+00 -0.00000000000E+00 -0.45593999997E+02  0.45594000000E+02  0.51100000000E-03 0. -1.
         23    2    1    2    0    0  0.00000000000E+00 -0.35527136788E-14  0.00000000000E+00  0.91188000000E+02  0.91188000000E+02 0.  0.
    9900012    2    3    3    0    0 -0.35443294617E+02  0.24866555064E+02 -0.30084075186E+01  0.47787271782E+02  0.20000003364E+02 0.  0.
        -12    1    3    3    0    0  0.35443294617E+02 -0.24866555064E+02  0.30084075186E+01  0.43400728218E+02  0.00000000000E+00 0.  1.
         11    1    4    4    0    0 -0.30146880560E+02  0.18974290558E+02 -0.44774847194E+01  0.35901336734E+02  0.51100000000E-03 0. -1.
        -11    1    4    4    0    0 -0.64983654154E+01  0.65129545508E+01 -0.80962088397E+00  0.92359523759E+01  0.51100000000E-03 0.  1.
        -12    1    4    4    0    0  0.12019513584E+01 -0.62069004468E+00  0.22786980848E+01  0.26499826718E+01  0.00000000000E+00 0.  1.
</event>
<event>
 8    1  0.4042158E-011  0.9118800E+02  0.7816164E-02  0.1184000E+00
        -11   -1    0    0    0    0  0.00000000000E+00  0.00000000000E+00  0.45593999997E+02  0.45594000000E+02  0.51100000000E-03 0. -1.
         11   -1    0    0    0    0 -0.00000000000E+00 -0.00000000000E+00 -0.45593999997E+02  0.45594000000E+02  0.51100000000E-03 0.  1.
         23    2    1    2    0    0  0.00000000000E+00  0.00000000000E+00  0.00000000000E+00  0.91188000000E+02  0.91188000000E+02 0.  0.
    9900012    2    3    3    0    0  0.20703872940E+02  0.14639536500E+02 -0.35222964251E+02  0.47787267353E+02  0.19999983171E+02 0.  0.
         12    1    3    3    0    0 -0.20703872940E+02 -0.14639536500E+02  0.35222964251E+02  0.43400732647E+02  0.00000000000E+00 0. -1.
         11    1    4    4    0    0  0.45034839149E+01  0.18802914441E+01 -0.36368768024E+00  0.48937850664E+01  0.51100000000E-03 0. -1.
        -11    1    4    4    0    0 -0.17662355985E+01  0.51933834426E+01 -0.70826142559E+01  0.89584733483E+01  0.51100000000E-03 0.  1.
         12    1    4    4    0    0  0.17966624623E+02  0.75658616129E+01 -0.27776662315E+02  0.33935008939E+02  0.00000000000E+00 0. -1.
</event>
<event>
 8    1  0.4042158E-011  0.9118800E+02  0.7816164E-02  0.1184000E+00
        -11   -1    0    0    0    0  0.00000000000E+00  0.00000000000E+00  0.45593999997E+02  0.45594000000E+02  0.51100000000E-03 0. -1.
         11   -1    0    0    0    0 -0.00000000000E+00 -0.00000000000E+00 -0.45593999997E+02  0.45594000000E+02  0.51100000000E-03 0.  1.
         23    2    1    2    0    0  0.22204460493E-15  0.71054273576E-14 -0.35527136788E-14  0.91188000000E+02  0.91188000000E+02 0.  0.
    9900012    2    3    3    0    0  0.37141110704E+00  0.34549415897E+02 -0.26264487345E+02  0.47787269815E+02  0.19999994397E+02 0.  0.
         12    1    3    3    0    0 -0.37141110704E+00 -0.34549415897E+02  0.26264487345E+02  0.43400730185E+02  0.00000000000E+00 0. -1.
         11    1    4    4    0    0 -0.33512185201E+01  0.18060615480E+02 -0.10708680599E+02  0.21262463111E+02  0.51100000000E-03 0. -1.
        -11    1    4    4    0    0 -0.28072075404E+01  0.14123119775E+02 -0.11876125920E+02  0.18665082199E+02  0.51100000000E-03 0.  1.
         12    1    4    4    0    0  0.65298371675E+01  0.23656806422E+01 -0.36796808260E+01  0.78597245064E+01  0.00000000000E+00 0. -1.
</event>
<event>
 8    1  0.4042158E-011  0.9118800E+02  0.7816164E-02  0.1184000E+00
        -11   -1    0    0    0    0  0.00000000000E+00  0.00000000000E+00  0.45593999997E+02  0.45594000000E+02  0.51100000000E-03 0. -1.
         11   -1    0    0    0    0 -0.00000000000E+00 -0.00000000000E+00 -0.45593999997E+02  0.45594000000E+02  0.51100000000E-03 0.  1.
         23    2    1    2    0    0  0.00000000000E+00 -0.35527136788E-14  0.00000000000E+00  0.91188000000E+02  0.91188000000E+02 0.  0.
    9900012    2    3    3    0    0 -0.16202119521E+02 -0.23521795707E+02 -0.32677805217E+02  0.47787279913E+02  0.20000040435E+02 0.  0.
         12    1    3    3    0    0  0.16202119521E+02  0.23521795707E+02  0.32677805217E+02  0.43400720087E+02  0.00000000000E+00 0. -1.
         11    1    4    4    0    0  0.11156887815E+01 -0.56405601125E+01 -0.35214947559E+01  0.67425221851E+01  0.51100000000E-03 0. -1.
        -11    1    4    4    0    0  0.52419430971E-01 -0.57992229894E+01 -0.13593059753E+02  0.14778532024E+02  0.51100000000E-03 0.  1.
         12    1    4    4    0    0 -0.17370227733E+02 -0.12082012605E+02 -0.15563250708E+02  0.26266225704E+02  0.00000000000E+00 0. -1.
</event>
<event>
 8    1  0.4042158E-011  0.9118800E+02  0.7816164E-02  0.1184000E+00
        -11   -1    0    0    0    0  0.00000000000E+00  0.00000000000E+00  0.45593999997E+02  0.45594000000E+02  0.51100000000E-03 0. -1.
         11   -1    0    0    0    0 -0.00000000000E+00 -0.00000000000E+00 -0.45593999997E+02  0.45594000000E+02  0.51100000000E-03 0.  1.
         23    2    1    2    0    0  0.00000000000E+00  0.35527136788E-14  0.00000000000E+00  0.91188000000E+02  0.91188000000E+02 0.  0.
    9900012    2    3    3    0    0 -0.35881744517E+02 -0.19248691514E+02 -0.15020379318E+02  0.47787268331E+02  0.19999987627E+02 0.  0.
         12    1    3    3    0    0  0.35881744517E+02  0.19248691514E+02  0.15020379318E+02  0.43400731669E+02  0.00000000000E+00 0. -1.
         11    1    4    4    0    0 -0.24491193821E+02 -0.89534273947E+01 -0.91154017974E+00  0.26092400093E+02  0.51100000000E-03 0.  1.
        -11    1    4    4    0    0 -0.27349680709E+01 -0.76738184753E-01 -0.88789875608E+00  0.28765089188E+01  0.51100000000E-03 0. -1.
        -12    1    4    4    0    0 -0.86555826254E+01 -0.10218525934E+02 -0.13220940382E+02  0.18818359319E+02  0.00000000000E+00 0.  1.
</event>
<event>
 8    1  0.4042158E-011  0.9118800E+02  0.7816164E-02  0.1184000E+00
        -11   -1    0    0    0    0  0.00000000000E+00  0.00000000000E+00  0.45593999997E+02  0.45594000000E+02  0.51100000000E-03 0.  1.
         11   -1    0    0    0    0 -0.00000000000E+00 -0.00000000000E+00 -0.45593999997E+02  0.45594000000E+02  0.51100000000E-03 0. -1.
         23    2    1    2    0    0  0.00000000000E+00  0.00000000000E+00 -0.88817841970E-15  0.91188000000E+02  0.91188000000E+02 0.  0.
    9900012    2    3    3    0    0 -0.21144901471E+02 -0.37500898016E+02  0.54953903008E+01  0.47787268153E+02  0.19999986819E+02 0.  0.
        -12    1    3    3    0    0  0.21144901471E+02  0.37500898016E+02 -0.54953903008E+01  0.43400731847E+02  0.00000000000E+00 0.  1.
         11    1    4    4    0    0 -0.72608528196E+01 -0.23830074892E+02  0.60314059300E+01  0.25631432086E+02  0.51100000000E-03 0. -1.
        -11    1    4    4    0    0 -0.94706594751E+01 -0.98289317726E+01  0.45658463038E+01  0.14392645463E+02  0.51100000000E-03 0.  1.
        -12    1    4    4    0    0 -0.44133891765E+01 -0.38418913516E+01 -0.51018619330E+01  0.77631906047E+01  0.00000000000E+00 0.  1.
</event>
<event>
 8    1  0.4042158E-011  0.9118800E+02  0.7816164E-02  0.1184000E+00
        -11   -1    0    0    0    0  0.00000000000E+00  0.00000000000E+00  0.45593999997E+02  0.45594000000E+02  0.51100000000E-03 0. -1.
         11   -1    0    0    0    0 -0.00000000000E+00 -0.00000000000E+00 -0.45593999997E+02  0.45594000000E+02  0.51100000000E-03 0.  1.
         23    2    1    2    0    0 -0.35527136788E-14  0.00000000000E+00  0.00000000000E+00  0.91188000000E+02  0.91188000000E+02 0.  0.
    9900012    2    3    3    0    0 -0.27599420479E+02 -0.12427407119E+02 -0.31103952560E+02  0.47787258954E+02  0.19999944877E+02 0.  0.
         12    1    3    3    0    0  0.27599420479E+02  0.12427407119E+02  0.31103952560E+02  0.43400741046E+02  0.00000000000E+00 0. -1.
         11    1    4    4    0    0 -0.36330198172E+01 -0.20584334092E+00 -0.31985381484E+01  0.48447756419E+01  0.51100000000E-03 0. -1.
        -11    1    4    4    0    0 -0.26589353047E+02 -0.13104129893E+02 -0.23919778942E+02  0.38090257817E+02  0.51100000000E-03 0.  1.
         12    1    4    4    0    0  0.26229523853E+01  0.88256611473E+00 -0.39856354692E+01  0.48522254952E+01  0.00000000000E+00 0. -1.
</event>
<event>
 8    1  0.4042158E-011  0.9118800E+02  0.7816164E-02  0.1184000E+00
        -11   -1    0    0    0    0  0.00000000000E+00  0.00000000000E+00  0.45593999997E+02  0.45594000000E+02  0.51100000000E-03 0. -1.
         11   -1    0    0    0    0 -0.00000000000E+00 -0.00000000000E+00 -0.45593999997E+02  0.45594000000E+02  0.51100000000E-03 0.  1.
         23    2    1    2    0    0  0.17763568394E-14  0.00000000000E+00  0.00000000000E+00  0.91188000000E+02  0.91188000000E+02 0.  0.
    9900012    2    3    3    0    0  0.12782354627E+02 -0.37481209844E+02 -0.17759324818E+02  0.47787270753E+02  0.19999998671E+02 0.  0.
         12    1    3    3    0    0 -0.12782354627E+02  0.37481209844E+02  0.17759324818E+02  0.43400729247E+02  0.00000000000E+00 0. -1.
         11    1    4    4    0    0  0.12434660942E+02 -0.13969048344E+02 -0.59158527214E+01  0.19615106884E+02  0.51100000000E-03 0. -1.
        -11    1    4    4    0    0  0.40463729064E+01 -0.80497289121E+01 -0.13187279676E+01  0.91055100335E+01  0.51100000000E-03 0.  1.
        -12    1    4    4    0    0 -0.36986792210E+01 -0.15462432587E+02 -0.10524744129E+02  0.19066653835E+02  0.00000000000E+00 0.  1.
</event>
<event>
 8    1  0.4042158E-011  0.9118800E+02  0.7816164E-02  0.1184000E+00
        -11   -1    0    0    0    0  0.00000000000E+00  0.00000000000E+00  0.45593999997E+02  0.45594000000E+02  0.51100000000E-03 0. -1.
         11   -1    0    0    0    0 -0.00000000000E+00 -0.00000000000E+00 -0.45593999997E+02  0.45594000000E+02  0.51100000000E-03 0.  1.
         23    2    1    2    0    0  0.00000000000E+00  0.00000000000E+00  0.71054273576E-14  0.91188000000E+02  0.91188000000E+02 0.  0.
    9900012    2    3    3    0    0 -0.13188363821E+02  0.19789440080E+02  0.36305208029E+02  0.47787274096E+02  0.20000013913E+02 0.  0.
        -12    1    3    3    0    0  0.13188363821E+02 -0.19789440080E+02 -0.36305208029E+02  0.43400725904E+02  0.00000000000E+00 0.  1.
         11    1    4    4    0    0 -0.21700589713E+01  0.11872301937E+02  0.13939702016E+02  0.18438438160E+02  0.51100000000E-03 0. -1.
        -11    1    4    4    0    0 -0.88233394339E+01  0.10594277364E+02  0.11527864979E+02  0.17971691709E+02  0.51100000000E-03 0.  1.
        -12    1    4    4    0    0 -0.21949654156E+01 -0.26771392213E+01  0.10837641034E+02  0.11377144227E+02  0.00000000000E+00 0.  1.
</event>
<event>
 8    1  0.4042158E-011  0.9118800E+02  0.7816164E-02  0.1184000E+00
        -11   -1    0    0    0    0  0.00000000000E+00  0.00000000000E+00  0.45593999997E+02  0.45594000000E+02  0.51100000000E-03 0. -1.
         11   -1    0    0    0    0 -0.00000000000E+00 -0.00000000000E+00 -0.45593999997E+02  0.45594000000E+02  0.51100000000E-03 0.  1.
         23    2    1    2    0    0  0.00000000000E+00 -0.35527136788E-14  0.35527136788E-14  0.91188000000E+02  0.91188000000E+02 0.  0.
    9900012    2    3    3    0    0  0.33869182361E+02  0.21958522564E+02 -0.15947569858E+02  0.47787271765E+02  0.20000003284E+02 0.  0.
         12    1    3    3    0    0 -0.33869182361E+02 -0.21958522564E+02  0.15947569858E+02  0.43400728235E+02  0.00000000000E+00 0. -1.
         11    1    4    4    0    0  0.15375333690E+02  0.12713787916E+02 -0.12077756792E+02  0.23321953148E+02  0.51100000000E-03 0. -1.
        -11    1    4    4    0    0  0.47053782655E+01  0.84193674744E+01 -0.44885869794E+01  0.10638315027E+02  0.51100000000E-03 0.  1.
         12    1    4    4    0    0  0.13788470405E+02  0.82536717308E+00  0.61877391378E+00  0.13827003589E+02  0.00000000000E+00 0. -1.
</event>
<event>
 8    1  0.4042158E-011  0.9118800E+02  0.7816164E-02  0.1184000E+00
        -11   -1    0    0    0    0  0.00000000000E+00  0.00000000000E+00  0.45593999997E+02  0.45594000000E+02  0.51100000000E-03 0. -1.
         11   -1    0    0    0    0 -0.00000000000E+00 -0.00000000000E+00 -0.45593999997E+02  0.45594000000E+02  0.51100000000E-03 0.  1.
         23    2    1    2    0    0  0.00000000000E+00  0.17763568394E-14  0.88817841970E-15  0.91188000000E+02  0.91188000000E+02 0.  0.
    9900012    2    3    3    0    0 -0.40550522752E+02 -0.13512458431E+02 -0.75294080397E+01  0.47787269433E+02  0.19999992653E+02 0.  0.
         12    1    3    3    0    0  0.40550522752E+02  0.13512458431E+02  0.75294080397E+01  0.43400730567E+02  0.00000000000E+00 0. -1.
         11    1    4    4    0    0 -0.29834810890E+02 -0.96464956317E+01  0.18605219845E+01  0.31410704563E+02  0.51100000000E-03 0. -1.
        -11    1    4    4    0    0 -0.24428343762E+01  0.10794048738E+01  0.32651447706E+00  0.26905699463E+01  0.51100000000E-03 0.  1.
         12    1    4    4    0    0 -0.82728774861E+01 -0.49453676726E+01 -0.97164445013E+01  0.13685994924E+02  0.00000000000E+00 0. -1.
</event>
<event>
 8    1  0.4042158E-011  0.9118800E+02  0.7816164E-02  0.1184000E+00
        -11   -1    0    0    0    0  0.00000000000E+00  0.00000000000E+00  0.45593999997E+02  0.45594000000E+02  0.51100000000E-03 0. -1.
         11   -1    0    0    0    0 -0.00000000000E+00 -0.00000000000E+00 -0.45593999997E+02  0.45594000000E+02  0.51100000000E-03 0.  1.
         23    2    1    2    0    0  0.17763568394E-14  0.00000000000E+00  0.71054273576E-14  0.91188000000E+02  0.91188000000E+02 0.  0.
    9900012    2    3    3    0    0  0.24095243004E+01  0.24871963995E+02 -0.35485250776E+02  0.47787269327E+02  0.19999992167E+02 0.  0.
         12    1    3    3    0    0 -0.24095243004E+01 -0.24871963995E+02  0.35485250776E+02  0.43400730673E+02  0.00000000000E+00 0. -1.
         11    1    4    4    0    0  0.24754478209E+01 -0.75699038899E+00 -0.41854633983E+01  0.49212783382E+01  0.51100000000E-03 0. -1.
        -11    1    4    4    0    0  0.59713168744E+01  0.12814035568E+02 -0.10121595924E+02  0.17386858172E+02  0.51100000000E-03 0.  1.
        -12    1    4    4    0    0 -0.60372403950E+01  0.12814918816E+02 -0.21178191454E+02  0.25479132817E+02  0.00000000000E+00 0.  1.
</event>
<event>
 8    1  0.4042158E-011  0.9118800E+02  0.7816164E-02  0.1184000E+00
        -11   -1    0    0    0    0  0.00000000000E+00  0.00000000000E+00  0.45593999997E+02  0.45594000000E+02  0.51100000000E-03 0.  1.
         11   -1    0    0    0    0 -0.00000000000E+00 -0.00000000000E+00 -0.45593999997E+02  0.45594000000E+02  0.51100000000E-03 0. -1.
         23    2    1    2    0    0 -0.35527136788E-14  0.00000000000E+00  0.00000000000E+00  0.91188000000E+02  0.91188000000E+02 0.  0.
    9900012    2    3    3    0    0 -0.16954639289E+02 -0.17569330751E+02  0.35881500222E+02  0.47787271497E+02  0.20000002061E+02 0.  0.
        -12    1    3    3    0    0  0.16954639289E+02  0.17569330751E+02 -0.35881500222E+02  0.43400728503E+02  0.00000000000E+00 0.  1.
         11    1    4    4    0    0 -0.39699443993E+01 -0.79475951573E+01  0.16093852706E+02  0.18383058029E+02  0.51100000000E-03 0.  1.
        -11    1    4    4    0    0 -0.14861823625E+02 -0.45056990687E+01  0.10879904601E+02  0.18961736470E+02  0.51100000000E-03 0. -1.
         12    1    4    4    0    0  0.18771287351E+01 -0.51160365250E+01  0.89077429146E+01  0.10442476998E+02  0.00000000000E+00 0. -1.
</event>
<event>
 8    1  0.4042158E-011  0.9118800E+02  0.7816164E-02  0.1184000E+00
        -11   -1    0    0    0    0  0.00000000000E+00  0.00000000000E+00  0.45593999997E+02  0.45594000000E+02  0.51100000000E-03 0. -1.
         11   -1    0    0    0    0 -0.00000000000E+00 -0.00000000000E+00 -0.45593999997E+02  0.45594000000E+02  0.51100000000E-03 0.  1.
         23    2    1    2    0    0  0.00000000000E+00 -0.71054273576E-14  0.00000000000E+00  0.91188000000E+02  0.91188000000E+02 0.  0.
    9900012    2    3    3    0    0  0.63632925450E+01  0.27743305177E+02 -0.32763403129E+02  0.47787273523E+02  0.20000011300E+02 0.  0.
         12    1    3    3    0    0 -0.63632925450E+01 -0.27743305177E+02  0.32763403129E+02  0.43400726477E+02  0.00000000000E+00 0. -1.
         11    1    4    4    0    0  0.92340249056E+01  0.16270908659E+02 -0.19924663250E+02  0.27331335321E+02  0.51100000000E-03 0. -1.
        -11    1    4    4    0    0 -0.16846346964E+01  0.73157558303E+01 -0.14082033603E+02  0.15958131096E+02  0.51100000000E-03 0.  1.
         12    1    4    4    0    0 -0.11860976642E+01  0.41566406882E+01  0.12432937237E+01  0.44978071061E+01  0.00000000000E+00 0. -1.
</event>
<event>
 8    1  0.4042158E-011  0.9118800E+02  0.7816164E-02  0.1184000E+00
        -11   -1    0    0    0    0  0.00000000000E+00  0.00000000000E+00  0.45593999997E+02  0.45594000000E+02  0.51100000000E-03 0. -1.
         11   -1    0    0    0    0 -0.00000000000E+00 -0.00000000000E+00 -0.45593999997E+02  0.45594000000E+02  0.51100000000E-03 0.  1.
         23    2    1    2    0    0  0.00000000000E+00  0.00000000000E+00  0.00000000000E+00  0.91188000000E+02  0.91188000000E+02 0.  0.
    9900012    2    3    3    0    0 -0.15272515398E+02  0.18408258562E+02  0.36214770199E+02  0.47787270854E+02  0.19999999130E+02 0.  0.
        -12    1    3    3    0    0  0.15272515398E+02 -0.18408258562E+02 -0.36214770199E+02  0.43400729146E+02  0.00000000000E+00 0.  1.
         11    1    4    4    0    0 -0.34805358573E+01  0.10559061501E+02  0.97808687786E+01  0.14807879793E+02  0.51100000000E-03 0. -1.
        -11    1    4    4    0    0 -0.32987723417E+01  0.51366037447E+01  0.12063764223E+01  0.62226956639E+01  0.51100000000E-03 0.  1.
        -12    1    4    4    0    0 -0.84932071992E+01  0.27125933167E+01  0.25227524998E+02  0.26756695397E+02  0.00000000000E+00 0.  1.
</event>
<event>
 8    1  0.4042158E-011  0.9118800E+02  0.7816164E-02  0.1184000E+00
        -11   -1    0    0    0    0  0.00000000000E+00  0.00000000000E+00  0.45593999997E+02  0.45594000000E+02  0.51100000000E-03 0. -1.
         11   -1    0    0    0    0 -0.00000000000E+00 -0.00000000000E+00 -0.45593999997E+02  0.45594000000E+02  0.51100000000E-03 0.  1.
         23    2    1    2    0    0  0.00000000000E+00  0.00000000000E+00  0.00000000000E+00  0.91188000000E+02  0.91188000000E+02 0.  0.
    9900012    2    3    3    0    0  0.28559436272E+01  0.37802523303E+02 -0.21129048349E+02  0.47787264220E+02  0.19999968886E+02 0.  0.
         12    1    3    3    0    0 -0.28559436272E+01 -0.37802523303E+02  0.21129048349E+02  0.43400735780E+02  0.00000000000E+00 0. -1.
         11    1    4    4    0    0 -0.43137163978E+01  0.15606381288E+02 -0.38800931402E+01  0.16649997270E+02  0.51100000000E-03 0. -1.
        -11    1    4    4    0    0  0.37496048571E+01  0.19555351173E+02 -0.90550162518E+01  0.21873834041E+02  0.51100000000E-03 0.  1.
        -12    1    4    4    0    0  0.34200551679E+01  0.26407908425E+01 -0.81939389572E+01  0.92634329090E+01  0.00000000000E+00 0.  1.
</event>
<event>
 8    1  0.4042158E-011  0.9118800E+02  0.7816164E-02  0.1184000E+00
        -11   -1    0    0    0    0  0.00000000000E+00  0.00000000000E+00  0.45593999997E+02  0.45594000000E+02  0.51100000000E-03 0. -1.
         11   -1    0    0    0    0 -0.00000000000E+00 -0.00000000000E+00 -0.45593999997E+02  0.45594000000E+02  0.51100000000E-03 0.  1.
         23    2    1    2    0    0  0.00000000000E+00 -0.88817841970E-15  0.71054273576E-14  0.91188000000E+02  0.91188000000E+02 0.  0.
    9900012    2    3    3    0    0 -0.24771107498E+02  0.42576640429E+01 -0.35382025396E+02  0.47787272000E+02  0.20000004357E+02 0.  0.
         12    1    3    3    0    0  0.24771107498E+02 -0.42576640429E+01  0.35382025396E+02  0.43400728000E+02  0.00000000000E+00 0. -1.
         11    1    4    4    0    0 -0.31654326761E-01  0.19924515952E+01 -0.11127022223E+01  0.22823172111E+01  0.51100000000E-03 0. -1.
        -11    1    4    4    0    0 -0.16585147474E+02  0.11923274083E+01 -0.89506560533E+01  0.18883935115E+02  0.51100000000E-03 0.  1.
        -12    1    4    4    0    0 -0.81543056977E+01  0.10728850395E+01 -0.25318667121E+02  0.26621019674E+02  0.00000000000E+00 0.  1.
</event>
<event>
 8    1  0.4042158E-011  0.9118800E+02  0.7816164E-02  0.1184000E+00
        -11   -1    0    0    0    0  0.00000000000E+00  0.00000000000E+00  0.45593999997E+02  0.45594000000E+02  0.51100000000E-03 0. -1.
         11   -1    0    0    0    0 -0.00000000000E+00 -0.00000000000E+00 -0.45593999997E+02  0.45594000000E+02  0.51100000000E-03 0.  1.
         23    2    1    2    0    0  0.00000000000E+00  0.71054273576E-14 -0.35527136788E-14  0.91188000000E+02  0.91188000000E+02 0.  0.
    9900012    2    3    3    0    0 -0.91891492721E+01 -0.35575579251E+02  0.23098931859E+02  0.47787274702E+02  0.20000016675E+02 0.  0.
        -12    1    3    3    0    0  0.91891492721E+01  0.35575579251E+02 -0.23098931859E+02  0.43400725298E+02  0.00000000000E+00 0.  1.
         11    1    4    4    0    0  0.12440748996E+01 -0.15581374437E+02  0.18368296649E+02  0.24118898684E+02  0.51100000000E-03 0. -1.
        -11    1    4    4    0    0 -0.14123258962E+00 -0.41556780595E+01  0.18891797015E+01  0.45671223965E+01  0.51100000000E-03 0.  1.
        -12    1    4    4    0    0 -0.10291991582E+02 -0.15838526755E+02  0.28414555086E+01  0.19101253621E+02  0.00000000000E+00 0.  1.
</event>
<event>
 8    1  0.4042158E-011  0.9118800E+02  0.7816164E-02  0.1184000E+00
        -11   -1    0    0    0    0  0.00000000000E+00  0.00000000000E+00  0.45593999997E+02  0.45594000000E+02  0.51100000000E-03 0. -1.
         11   -1    0    0    0    0 -0.00000000000E+00 -0.00000000000E+00 -0.45593999997E+02  0.45594000000E+02  0.51100000000E-03 0.  1.
         23    2    1    2    0    0  0.88817841970E-15  0.00000000000E+00  0.35527136788E-14  0.91188000000E+02  0.91188000000E+02 0.  0.
    9900012    2    3    3    0    0 -0.64473707503E+01  0.33962113451E+02 -0.26241751223E+02  0.47787271355E+02  0.20000001417E+02 0.  0.
         12    1    3    3    0    0  0.64473707503E+01 -0.33962113451E+02  0.26241751223E+02  0.43400728645E+02  0.00000000000E+00 0. -1.
         11    1    4    4    0    0  0.98883028870E+00 -0.12217748811E+01 -0.32058866450E+01  0.35704661658E+01  0.51100000000E-03 0. -1.
        -11    1    4    4    0    0 -0.78239046275E+00  0.18051583230E+02 -0.17167096703E+02  0.24923502993E+02  0.51100000000E-03 0.  1.
        -12    1    4    4    0    0 -0.66538105763E+01  0.17132305101E+02 -0.58687678749E+01  0.19293302196E+02  0.00000000000E+00 0.  1.
</event>
<event>
 8    1  0.4042158E-011  0.9118800E+02  0.7816164E-02  0.1184000E+00
        -11   -1    0    0    0    0  0.00000000000E+00  0.00000000000E+00  0.45593999997E+02  0.45594000000E+02  0.51100000000E-03 0. -1.
         11   -1    0    0    0    0 -0.00000000000E+00 -0.00000000000E+00 -0.45593999997E+02  0.45594000000E+02  0.51100000000E-03 0.  1.
         23    2    1    2    0    0  0.00000000000E+00 -0.88817841970E-15  0.00000000000E+00  0.91188000000E+02  0.91188000000E+02 0.  0.
    9900012    2    3    3    0    0 -0.22081467234E+02 -0.69867545527E+01 -0.36704460063E+02  0.47787270479E+02  0.19999997423E+02 0.  0.
         12    1    3    3    0    0  0.22081467234E+02  0.69867545527E+01  0.36704460063E+02  0.43400729521E+02  0.00000000000E+00 0. -1.
         11    1    4    4    0    0 -0.33552691646E+01 -0.32474061584E+01 -0.33993517646E+01  0.57757311749E+01  0.51100000000E-03 0. -1.
        -11    1    4    4    0    0 -0.92899888116E+01  0.66029245922E+01 -0.12304648695E+02  0.16772205730E+02  0.51100000000E-03 0.  1.
        -12    1    4    4    0    0 -0.94362092581E+01 -0.10342272987E+02 -0.21000459604E+02  0.25239333574E+02  0.00000000000E+00 0.  1.
</event>
<event>
 8    1  0.4042158E-011  0.9118800E+02  0.7816164E-02  0.1184000E+00
        -11   -1    0    0    0    0  0.00000000000E+00  0.00000000000E+00  0.45593999997E+02  0.45594000000E+02  0.51100000000E-03 0.  1.
         11   -1    0    0    0    0 -0.00000000000E+00 -0.00000000000E+00 -0.45593999997E+02  0.45594000000E+02  0.51100000000E-03 0. -1.
         23    2    1    2    0    0  0.11102230246E-15 -0.71054273576E-14  0.00000000000E+00  0.91188000000E+02  0.91188000000E+02 0.  0.
    9900012    2    3    3    0    0  0.64028539932E-01 -0.33334510324E+02 -0.27792610084E+02  0.47787275888E+02  0.20000022082E+02 0.  0.
         12    1    3    3    0    0 -0.64028539932E-01  0.33334510324E+02  0.27792610084E+02  0.43400724112E+02  0.00000000000E+00 0. -1.
         11    1    4    4    0    0 -0.48008859077E+00 -0.73703013752E+01 -0.86947439031E+01  0.11408347786E+02  0.51100000000E-03 0. -1.
        -11    1    4    4    0    0 -0.21869293639E+01 -0.86946885508E+01  0.17867174999E+01  0.91418066444E+01  0.51100000000E-03 0.  1.
        -12    1    4    4    0    0  0.27310464946E+01 -0.17269520398E+02 -0.20884583681E+02  0.27237121457E+02  0.00000000000E+00 0.  1.
</event>
<event>
 8    1  0.4042158E-011  0.9118800E+02  0.7816164E-02  0.1184000E+00
        -11   -1    0    0    0    0  0.00000000000E+00  0.00000000000E+00  0.45593999997E+02  0.45594000000E+02  0.51100000000E-03 0. -1.
         11   -1    0    0    0    0 -0.00000000000E+00 -0.00000000000E+00 -0.45593999997E+02  0.45594000000E+02  0.51100000000E-03 0.  1.
         23    2    1    2    0    0 -0.88817841970E-15  0.00000000000E+00  0.00000000000E+00  0.91188000000E+02  0.91188000000E+02 0.  0.
    9900012    2    3    3    0    0  0.60029192829E+01  0.48193369307E+01 -0.42712548295E+02  0.47787276156E+02  0.20000023303E+02 0.  0.
         12    1    3    3    0    0 -0.60029192829E+01 -0.48193369307E+01  0.42712548295E+02  0.43400723844E+02  0.00000000000E+00 0. -1.
         11    1    4    4    0    0 -0.29613907362E+01  0.28667805651E+01 -0.60943198919E+01  0.73572414061E+01  0.51100000000E-03 0. -1.
        -11    1    4    4    0    0 -0.29300430369E+01  0.16247367741E+00 -0.14730274087E+01  0.32834981197E+01  0.51100000000E-03 0.  1.
        -12    1    4    4    0    0  0.11894353056E+02  0.17900826882E+01 -0.35145200994E+02  0.37146536630E+02  0.00000000000E+00 0.  1.
</event>
<event>
 8    1  0.4042158E-011  0.9118800E+02  0.7816164E-02  0.1184000E+00
        -11   -1    0    0    0    0  0.00000000000E+00  0.00000000000E+00  0.45593999997E+02  0.45594000000E+02  0.51100000000E-03 0. -1.
         11   -1    0    0    0    0 -0.00000000000E+00 -0.00000000000E+00 -0.45593999997E+02  0.45594000000E+02  0.51100000000E-03 0.  1.
         23    2    1    2    0    0  0.00000000000E+00  0.17763568394E-14  0.00000000000E+00  0.91188000000E+02  0.91188000000E+02 0.  0.
    9900012    2    3    3    0    0 -0.10994455588E+02  0.11063779110E+02  0.40501130393E+02  0.47787230134E+02  0.19999813471E+02 0.  0.
        -12    1    3    3    0    0  0.10994455588E+02 -0.11063779110E+02 -0.40501130393E+02  0.43400769866E+02  0.00000000000E+00 0.  1.
         11    1    4    4    0    0 -0.91279163085E+01  0.10114420889E+02  0.20801111273E+02  0.24865771585E+02  0.51100000000E-03 0. -1.
        -11    1    4    4    0    0 -0.61252229138E+01  0.31407692802E+01  0.10619976894E+02  0.12655698199E+02  0.51100000000E-03 0.  1.
        -12    1    4    4    0    0  0.42586836341E+01 -0.21914110598E+01  0.90800422265E+01  0.10265760350E+02  0.00000000000E+00 0.  1.
</event>
<event>
 8    1  0.4042158E-011  0.9118800E+02  0.7816164E-02  0.1184000E+00
        -11   -1    0    0    0    0  0.00000000000E+00  0.00000000000E+00  0.45593999997E+02  0.45594000000E+02  0.51100000000E-03 0. -1.
         11   -1    0    0    0    0 -0.00000000000E+00 -0.00000000000E+00 -0.45593999997E+02  0.45594000000E+02  0.51100000000E-03 0.  1.
         23    2    1    2    0    0  0.17763568394E-14  0.88817841970E-15  0.00000000000E+00  0.91188000000E+02  0.91188000000E+02 0.  0.
    9900012    2    3    3    0    0 -0.13335567046E+02  0.53613473644E+01  0.40951705196E+02  0.47787267835E+02  0.19999985368E+02 0.  0.
        -12    1    3    3    0    0  0.13335567046E+02 -0.53613473644E+01 -0.40951705196E+02  0.43400732165E+02  0.00000000000E+00 0.  1.
         11    1    4    4    0    0 -0.81609358530E+00 -0.29025991862E-02  0.93471011814E+01  0.93826604927E+01  0.51100000000E-03 0. -1.
        -11    1    4    4    0    0 -0.10736452019E+02 -0.23578841616E+01  0.82555747060E+01  0.13747200939E+02  0.51100000000E-03 0.  1.
        -12    1    4    4    0    0 -0.17830214420E+01  0.77221341251E+01  0.23349029308E+02  0.24657406404E+02  0.00000000000E+00 0.  1.
</event>
<event>
 8    1  0.4042158E-011  0.9118800E+02  0.7816164E-02  0.1184000E+00
        -11   -1    0    0    0    0  0.00000000000E+00  0.00000000000E+00  0.45593999997E+02  0.45594000000E+02  0.51100000000E-03 0. -1.
         11   -1    0    0    0    0 -0.00000000000E+00 -0.00000000000E+00 -0.45593999997E+02  0.45594000000E+02  0.51100000000E-03 0.  1.
         23    2    1    2    0    0  0.00000000000E+00  0.00000000000E+00  0.00000000000E+00  0.91188000000E+02  0.91188000000E+02 0.  0.
    9900012    2    3    3    0    0  0.23097635569E+02  0.70445972654E+01 -0.36062393321E+02  0.47787270380E+02  0.19999996969E+02 0.  0.
         12    1    3    3    0    0 -0.23097635569E+02 -0.70445972654E+01  0.36062393321E+02  0.43400729620E+02  0.00000000000E+00 0. -1.
         11    1    4    4    0    0  0.95047207665E+01  0.45237609307E+00 -0.38383396242E+01  0.10260468425E+02  0.51100000000E-03 0. -1.
        -11    1    4    4    0    0  0.39913735662E+01 -0.34136332580E+01 -0.71244997859E+01  0.88511271839E+01  0.51100000000E-03 0.  1.
         12    1    4    4    0    0  0.96015412367E+01  0.10005854430E+02 -0.25099553911E+02  0.28675674770E+02  0.00000000000E+00 0. -1.
</event>
<event>
 8    1  0.4042158E-011  0.9118800E+02  0.7816164E-02  0.1184000E+00
        -11   -1    0    0    0    0  0.00000000000E+00  0.00000000000E+00  0.45593999997E+02  0.45594000000E+02  0.51100000000E-03 0. -1.
         11   -1    0    0    0    0 -0.00000000000E+00 -0.00000000000E+00 -0.45593999997E+02  0.45594000000E+02  0.51100000000E-03 0.  1.
         23    2    1    2    0    0  0.88817841970E-15  0.00000000000E+00  0.00000000000E+00  0.91188000000E+02  0.91188000000E+02 0.  0.
    9900012    2    3    3    0    0  0.50498846309E+01  0.26171616383E+02 -0.34251547458E+02  0.47787270257E+02  0.19999996412E+02 0.  0.
         12    1    3    3    0    0 -0.50498846309E+01 -0.26171616383E+02  0.34251547458E+02  0.43400729743E+02  0.00000000000E+00 0. -1.
         11    1    4    4    0    0 -0.90639312703E+00  0.11280490486E+02 -0.46096667595E+01  0.12219658015E+02  0.51100000000E-03 0. -1.
        -11    1    4    4    0    0 -0.22132942739E+01  0.78140952994E+01 -0.81222371296E+01  0.11486056466E+02  0.51100000000E-03 0.  1.
        -12    1    4    4    0    0  0.81695720318E+01  0.70770305975E+01 -0.21519643569E+02  0.24081555776E+02  0.00000000000E+00 0.  1.
</event>
<event>
 8    1  0.4042158E-011  0.9118800E+02  0.7816164E-02  0.1184000E+00
        -11   -1    0    0    0    0  0.00000000000E+00  0.00000000000E+00  0.45593999997E+02  0.45594000000E+02  0.51100000000E-03 0. -1.
         11   -1    0    0    0    0 -0.00000000000E+00 -0.00000000000E+00 -0.45593999997E+02  0.45594000000E+02  0.51100000000E-03 0.  1.
         23    2    1    2    0    0 -0.88817841970E-15  0.00000000000E+00  0.35527136788E-14  0.91188000000E+02  0.91188000000E+02 0.  0.
    9900012    2    3    3    0    0 -0.77149615980E+01 -0.35490880980E+02  0.23759211996E+02  0.47787269362E+02  0.19999992331E+02 0.  0.
        -12    1    3    3    0    0  0.77149615980E+01  0.35490880980E+02 -0.23759211996E+02  0.43400730638E+02  0.00000000000E+00 0.  1.
         11    1    4    4    0    0  0.11572659970E+01 -0.19637080081E+02  0.11433755231E+02  0.22752690778E+02  0.51100000000E-03 0. -1.
        -11    1    4    4    0    0  0.14776294153E+00 -0.11895701426E+02  0.59544440256E+01  0.13303569078E+02  0.51100000000E-03 0.  1.
        -12    1    4    4    0    0 -0.90199905366E+01 -0.39580994737E+01  0.63710127393E+01  0.11731009507E+02  0.00000000000E+00 0.  1.
</event>
<event>
 8    1  0.4042158E-011  0.9118800E+02  0.7816164E-02  0.1184000E+00
        -11   -1    0    0    0    0  0.00000000000E+00  0.00000000000E+00  0.45593999997E+02  0.45594000000E+02  0.51100000000E-03 0. -1.
         11   -1    0    0    0    0 -0.00000000000E+00 -0.00000000000E+00 -0.45593999997E+02  0.45594000000E+02  0.51100000000E-03 0.  1.
         23    2    1    2    0    0 -0.44408920985E-15 -0.22204460493E-15  0.00000000000E+00  0.91188000000E+02  0.91188000000E+02 0.  0.
    9900012    2    3    3    0    0 -0.38275314097E+01  0.15564730093E+01  0.43203598248E+02  0.47787268364E+02  0.19999987780E+02 0.  0.
        -12    1    3    3    0    0  0.38275314097E+01 -0.15564730093E+01 -0.43203598248E+02  0.43400731636E+02  0.00000000000E+00 0.  1.
         11    1    4    4    0    0 -0.89108713042E+00 -0.22996141240E+00 -0.38723024769E+00  0.99843179589E+00  0.51100000000E-03 0. -1.
        -11    1    4    4    0    0  0.68245519955E+01 -0.86546547024E+00  0.16990345825E+02  0.18330177084E+02  0.51100000000E-03 0.  1.
         12    1    4    4    0    0 -0.97609962748E+01  0.26518998919E+01  0.26600482671E+02  0.28458659484E+02  0.00000000000E+00 0. -1.
</event>
<event>
 8    1  0.4042158E-011  0.9118800E+02  0.7816164E-02  0.1184000E+00
        -11   -1    0    0    0    0  0.00000000000E+00  0.00000000000E+00  0.45593999997E+02  0.45594000000E+02  0.51100000000E-03 0. -1.
         11   -1    0    0    0    0 -0.00000000000E+00 -0.00000000000E+00 -0.45593999997E+02  0.45594000000E+02  0.51100000000E-03 0.  1.
         23    2    1    2    0    0  0.00000000000E+00  0.00000000000E+00  0.00000000000E+00  0.91188000000E+02  0.91188000000E+02 0.  0.
    9900012    2    3    3    0    0  0.41048044909E+02 -0.10391411921E+02  0.95236521218E+01  0.47787269795E+02  0.19999994303E+02 0.  0.
        -12    1    3    3    0    0 -0.41048044909E+02  0.10391411921E+02 -0.95236521218E+01  0.43400730205E+02  0.00000000000E+00 0.  1.
         11    1    4    4    0    0  0.12423416656E+02 -0.36596632668E+01  0.61308393774E+01  0.14329047713E+02  0.51100000000E-03 0. -1.
        -11    1    4    4    0    0  0.23955233979E+02 -0.97007846590E+01  0.70943625144E+01  0.26800903674E+02  0.51100000000E-03 0.  1.
        -12    1    4    4    0    0  0.46693942744E+01  0.29690360047E+01 -0.37015497699E+01  0.66573184080E+01  0.00000000000E+00 0.  1.
</event>
<event>
 8    1  0.4042158E-011  0.9118800E+02  0.7816164E-02  0.1184000E+00
        -11   -1    0    0    0    0  0.00000000000E+00  0.00000000000E+00  0.45593999997E+02  0.45594000000E+02  0.51100000000E-03 0. -1.
         11   -1    0    0    0    0 -0.00000000000E+00 -0.00000000000E+00 -0.45593999997E+02  0.45594000000E+02  0.51100000000E-03 0.  1.
         23    2    1    2    0    0 -0.88817841970E-15  0.71054273576E-14  0.00000000000E+00  0.91188000000E+02  0.91188000000E+02 0.  0.
    9900012    2    3    3    0    0  0.62681423381E+01 -0.32112571893E+02  0.28515197494E+02  0.47787269936E+02  0.19999994947E+02 0.  0.
        -12    1    3    3    0    0 -0.62681423381E+01  0.32112571893E+02 -0.28515197494E+02  0.43400730064E+02  0.00000000000E+00 0.  1.
         11    1    4    4    0    0 -0.12125188909E+01 -0.87576653944E+01 -0.63430411122E+00  0.88639295568E+01  0.51100000000E-03 0. -1.
        -11    1    4    4    0    0  0.44473649116E+01 -0.38078630554E+01  0.49423943836E+01  0.76619930965E+01  0.51100000000E-03 0.  1.
        -12    1    4    4    0    0  0.30332963174E+01 -0.19547043443E+02  0.24207107221E+02  0.31261347283E+02  0.00000000000E+00 0.  1.
</event>
<event>
 8    1  0.4042158E-011  0.9118800E+02  0.7816164E-02  0.1184000E+00
        -11   -1    0    0    0    0  0.00000000000E+00  0.00000000000E+00  0.45593999997E+02  0.45594000000E+02  0.51100000000E-03 0. -1.
         11   -1    0    0    0    0 -0.00000000000E+00 -0.00000000000E+00 -0.45593999997E+02  0.45594000000E+02  0.51100000000E-03 0.  1.
         23    2    1    2    0    0  0.11102230246E-15  0.00000000000E+00  0.71054273576E-14  0.91188000000E+02  0.91188000000E+02 0.  0.
    9900012    2    3    3    0    0 -0.71001426027E+00 -0.26161554337E+02 -0.34622138182E+02  0.47787268464E+02  0.19999988235E+02 0.  0.
         12    1    3    3    0    0  0.71001426027E+00  0.26161554337E+02  0.34622138182E+02  0.43400731536E+02  0.00000000000E+00 0. -1.
         11    1    4    4    0    0 -0.40571380969E+00  0.56345027726E+00  0.56193818925E+00  0.89322712676E+00  0.51100000000E-03 0. -1.
        -11    1    4    4    0    0 -0.12969188012E+01 -0.22622532472E+02 -0.17273165686E+02  0.28492511769E+02  0.51100000000E-03 0.  1.
        -12    1    4    4    0    0  0.99261835058E+00 -0.41024721418E+01 -0.17910910686E+02  0.18401529568E+02  0.00000000000E+00 0.  1.
</event>
<event>
 8    1  0.4042158E-011  0.9118800E+02  0.7816164E-02  0.1184000E+00
        -11   -1    0    0    0    0  0.00000000000E+00  0.00000000000E+00  0.45593999997E+02  0.45594000000E+02  0.51100000000E-03 0. -1.
         11   -1    0    0    0    0 -0.00000000000E+00 -0.00000000000E+00 -0.45593999997E+02  0.45594000000E+02  0.51100000000E-03 0.  1.
         23    2    1    2    0    0 -0.35527136788E-14  0.35527136788E-14  0.35527136788E-14  0.91188000000E+02  0.91188000000E+02 0.  0.
    9900012    2    3    3    0    0 -0.23164970311E+02  0.26377705145E+02  0.25519087201E+02  0.47787274318E+02  0.20000014924E+02 0.  0.
        -12    1    3    3    0    0  0.23164970311E+02 -0.26377705145E+02 -0.25519087201E+02  0.43400725682E+02  0.00000000000E+00 0.  1.
         11    1    4    4    0    0 -0.93948351514E+01  0.16844582052E+01  0.71006626520E+01  0.11896206846E+02  0.51100000000E-03 0. -1.
        -11    1    4    4    0    0 -0.54346881002E+01  0.49448853084E+01 -0.41215870194E+00  0.73591847725E+01  0.51100000000E-03 0.  1.
        -12    1    4    4    0    0 -0.83354470591E+01  0.19748361631E+02  0.18830583250E+02  0.28531882699E+02  0.00000000000E+00 0.  1.
</event>
<event>
 8    1  0.4042158E-011  0.9118800E+02  0.7816164E-02  0.1184000E+00
        -11   -1    0    0    0    0  0.00000000000E+00  0.00000000000E+00  0.45593999997E+02  0.45594000000E+02  0.51100000000E-03 0. -1.
         11   -1    0    0    0    0 -0.00000000000E+00 -0.00000000000E+00 -0.45593999997E+02  0.45594000000E+02  0.51100000000E-03 0.  1.
         23    2    1    2    0    0  0.00000000000E+00  0.00000000000E+00  0.00000000000E+00  0.91188000000E+02  0.91188000000E+02 0.  0.
    9900012    2    3    3    0    0  0.10030458051E+02 -0.13609339538E+02  0.39972478318E+02  0.47787271500E+02  0.20000002079E+02 0.  0.
        -12    1    3    3    0    0 -0.10030458051E+02  0.13609339538E+02 -0.39972478318E+02  0.43400728500E+02  0.00000000000E+00 0.  1.
         11    1    4    4    0    0 -0.27102095315E-01  0.80272022010E+00  0.85226204001E+00  0.11710871536E+01  0.51100000000E-03 0. -1.
        -11    1    4    4    0    0 -0.27053683168E+01 -0.32526683937E+01  0.22430646712E+02  0.22826142504E+02  0.51100000000E-03 0.  1.
         12    1    4    4    0    0  0.12762928463E+02 -0.11159391365E+02  0.16689569566E+02  0.23790041843E+02  0.00000000000E+00 0. -1.
</event>
<event>
 8    1  0.4042158E-011  0.9118800E+02  0.7816164E-02  0.1184000E+00
        -11   -1    0    0    0    0  0.00000000000E+00  0.00000000000E+00  0.45593999997E+02  0.45594000000E+02  0.51100000000E-03 0. -1.
         11   -1    0    0    0    0 -0.00000000000E+00 -0.00000000000E+00 -0.45593999997E+02  0.45594000000E+02  0.51100000000E-03 0.  1.
         23    2    1    2    0    0  0.00000000000E+00  0.00000000000E+00 -0.35527136788E-14  0.91188000000E+02  0.91188000000E+02 0.  0.
    9900012    2    3    3    0    0 -0.27428688749E+02  0.11934391610E+02 -0.31446155020E+02  0.47787270338E+02  0.19999996781E+02 0.  0.
         12    1    3    3    0    0  0.27428688749E+02 -0.11934391610E+02  0.31446155020E+02  0.43400729662E+02  0.00000000000E+00 0. -1.
         11    1    4    4    0    0 -0.75973690804E-02  0.30013968155E-01  0.16034917143E+01  0.16037906650E+01  0.51100000000E-03 0. -1.
        -11    1    4    4    0    0 -0.77501044736E+01  0.97391798886E+01 -0.11924960527E+02  0.17237181559E+02  0.51100000000E-03 0.  1.
        -12    1    4    4    0    0 -0.19670986907E+02  0.21651977537E+01 -0.21124686207E+02  0.28946298115E+02  0.00000000000E+00 0.  1.
</event>
<event>
 8    1  0.4042158E-011  0.9118800E+02  0.7816164E-02  0.1184000E+00
        -11   -1    0    0    0    0  0.00000000000E+00  0.00000000000E+00  0.45593999997E+02  0.45594000000E+02  0.51100000000E-03 0. -1.
         11   -1    0    0    0    0 -0.00000000000E+00 -0.00000000000E+00 -0.45593999997E+02  0.45594000000E+02  0.51100000000E-03 0.  1.
         23    2    1    2    0    0 -0.35527136788E-14 -0.44408920985E-15  0.00000000000E+00  0.91188000000E+02  0.91188000000E+02 0.  0.
    9900012    2    3    3    0    0 -0.25439062507E+02  0.37745947807E+01  0.34960405277E+02  0.47787269543E+02  0.19999993156E+02 0.  0.
        -12    1    3    3    0    0  0.25439062507E+02 -0.37745947807E+01 -0.34960405277E+02  0.43400730457E+02  0.00000000000E+00 0.  1.
         11    1    4    4    0    0 -0.21986578749E+01  0.27904591310E+01  0.44566329344E+01  0.56993276784E+01  0.51100000000E-03 0.  1.
        -11    1    4    4    0    0 -0.87049733715E+01 -0.78478326653E+01  0.96798702441E+01  0.15200819950E+02  0.51100000000E-03 0. -1.
         12    1    4    4    0    0 -0.14535431261E+02  0.88319683151E+01  0.20823902099E+02  0.26887121915E+02  0.00000000000E+00 0. -1.
</event>
<event>
 8    1  0.4042158E-011  0.9118800E+02  0.7816164E-02  0.1184000E+00
        -11   -1    0    0    0    0  0.00000000000E+00  0.00000000000E+00  0.45593999997E+02  0.45594000000E+02  0.51100000000E-03 0. -1.
         11   -1    0    0    0    0 -0.00000000000E+00 -0.00000000000E+00 -0.45593999997E+02  0.45594000000E+02  0.51100000000E-03 0.  1.
         23    2    1    2    0    0  0.44408920985E-15  0.35527136788E-14  0.00000000000E+00  0.91188000000E+02  0.91188000000E+02 0.  0.
    9900012    2    3    3    0    0 -0.11487386728E+01  0.28532603222E+02 -0.32683237943E+02  0.47787273168E+02  0.20000009681E+02 0.  0.
         12    1    3    3    0    0  0.11487386728E+01 -0.28532603222E+02  0.32683237943E+02  0.43400726832E+02  0.00000000000E+00 0. -1.
         11    1    4    4    0    0 -0.57043054163E+01  0.15191144944E+01 -0.53088257615E+01  0.79391712639E+01  0.51100000000E-03 0. -1.
        -11    1    4    4    0    0 -0.91187069851E+00  0.45436585225E+01 -0.96718914670E+01  0.10724822877E+02  0.51100000000E-03 0.  1.
        -12    1    4    4    0    0  0.54674374420E+01  0.22469830205E+02 -0.17702520714E+02  0.29123279026E+02  0.00000000000E+00 0.  1.
</event>
<event>
 8    1  0.4042158E-011  0.9118800E+02  0.7816164E-02  0.1184000E+00
        -11   -1    0    0    0    0  0.00000000000E+00  0.00000000000E+00  0.45593999997E+02  0.45594000000E+02  0.51100000000E-03 0. -1.
         11   -1    0    0    0    0 -0.00000000000E+00 -0.00000000000E+00 -0.45593999997E+02  0.45594000000E+02  0.51100000000E-03 0.  1.
         23    2    1    2    0    0  0.00000000000E+00  0.71054273576E-14  0.00000000000E+00  0.91188000000E+02  0.91188000000E+02 0.  0.
    9900012    2    3    3    0    0 -0.97291982911E+00  0.38600966593E+02  0.19815195380E+02  0.47787272324E+02  0.20000005834E+02 0.  0.
        -12    1    3    3    0    0  0.97291982911E+00 -0.38600966593E+02 -0.19815195380E+02  0.43400727676E+02  0.00000000000E+00 0.  1.
         11    1    4    4    0    0 -0.39035971651E+00  0.27450241505E+02  0.39760482081E+01  0.27739450229E+02  0.51100000000E-03 0.  1.
        -11    1    4    4    0    0 -0.21982921448E+01  0.24783178536E+01  0.29946116544E+01  0.44656743006E+01  0.51100000000E-03 0. -1.
         12    1    4    4    0    0  0.16157320322E+01  0.86724072341E+01  0.12844535517E+02  0.15582147794E+02  0.00000000000E+00 0. -1.
</event>
<event>
 8    1  0.4042158E-011  0.9118800E+02  0.7816164E-02  0.1184000E+00
        -11   -1    0    0    0    0  0.00000000000E+00  0.00000000000E+00  0.45593999997E+02  0.45594000000E+02  0.51100000000E-03 0. -1.
         11   -1    0    0    0    0 -0.00000000000E+00 -0.00000000000E+00 -0.45593999997E+02  0.45594000000E+02  0.51100000000E-03 0.  1.
         23    2    1    2    0    0  0.13322676296E-14 -0.35527136788E-14  0.71054273576E-14  0.91188000000E+02  0.91188000000E+02 0.  0.
    9900012    2    3    3    0    0 -0.97557275781E+00 -0.21545919855E+02 -0.37662245647E+02  0.47787272451E+02  0.20000006414E+02 0.  0.
         12    1    3    3    0    0  0.97557275781E+00  0.21545919855E+02  0.37662245647E+02  0.43400727549E+02  0.00000000000E+00 0. -1.
         11    1    4    4    0    0  0.70663753611E+00 -0.12533968885E+02 -0.16243429006E+02  0.20529215736E+02  0.51100000000E-03 0. -1.
        -11    1    4    4    0    0 -0.66111008258E+01 -0.89573082973E+01 -0.18314758289E+02  0.21432927880E+02  0.51100000000E-03 0.  1.
         12    1    4    4    0    0  0.49288905319E+01 -0.54642673360E-01 -0.31040583521E+01  0.58251288355E+01  0.00000000000E+00 0. -1.
</event>
<event>
 8    1  0.4042158E-011  0.9118800E+02  0.7816164E-02  0.1184000E+00
        -11   -1    0    0    0    0  0.00000000000E+00  0.00000000000E+00  0.45593999997E+02  0.45594000000E+02  0.51100000000E-03 0. -1.
         11   -1    0    0    0    0 -0.00000000000E+00 -0.00000000000E+00 -0.45593999997E+02  0.45594000000E+02  0.51100000000E-03 0.  1.
         23    2    1    2    0    0  0.71054273576E-14  0.00000000000E+00 -0.35527136788E-14  0.91188000000E+02  0.91188000000E+02 0.  0.
    9900012    2    3    3    0    0 -0.33869753004E+02 -0.39610961812E+01 -0.26847214771E+02  0.47787269678E+02  0.19999993771E+02 0.  0.
         12    1    3    3    0    0  0.33869753004E+02  0.39610961812E+01  0.26847214771E+02  0.43400730322E+02  0.00000000000E+00 0. -1.
         11    1    4    4    0    0 -0.60723440225E+01 -0.41408019854E+01 -0.11729373763E+02  0.13841886148E+02  0.51100000000E-03 0.  1.
        -11    1    4    4    0    0 -0.62151712321E+01 -0.32759959376E+01 -0.86654348161E+01  0.11155727840E+02  0.51100000000E-03 0. -1.
         12    1    4    4    0    0 -0.21582237750E+02  0.34557017418E+01 -0.64524061917E+01  0.22789655690E+02  0.00000000000E+00 0. -1.
</event>
<event>
 8    1  0.4042158E-011  0.9118800E+02  0.7816164E-02  0.1184000E+00
        -11   -1    0    0    0    0  0.00000000000E+00  0.00000000000E+00  0.45593999997E+02  0.45594000000E+02  0.51100000000E-03 0.  1.
         11   -1    0    0    0    0 -0.00000000000E+00 -0.00000000000E+00 -0.45593999997E+02  0.45594000000E+02  0.51100000000E-03 0. -1.
         23    2    1    2    0    0  0.35527136788E-14  0.00000000000E+00 -0.17763568394E-14  0.91188000000E+02  0.91188000000E+02 0.  0.
    9900012    2    3    3    0    0 -0.16714824308E+02  0.39929941688E+02 -0.31364667585E+01  0.47787273986E+02  0.20000013411E+02 0.  0.
        -12    1    3    3    0    0  0.16714824308E+02 -0.39929941688E+02  0.31364667585E+01  0.43400726014E+02  0.00000000000E+00 0.  1.
         11    1    4    4    0    0 -0.18932271915E+01 -0.19563253940E+00 -0.19685513001E+00  0.19134611291E+01  0.51100000000E-03 0. -1.
        -11    1    4    4    0    0 -0.80559717268E+01  0.14515614801E+02  0.63924331284E+01  0.17789461911E+02  0.51100000000E-03 0.  1.
         12    1    4    4    0    0 -0.67656253897E+01  0.25609959426E+02 -0.93320447569E+01  0.28084350946E+02  0.00000000000E+00 0. -1.
</event>
<event>
 8    1  0.4042158E-011  0.9118800E+02  0.7816164E-02  0.1184000E+00
        -11   -1    0    0    0    0  0.00000000000E+00  0.00000000000E+00  0.45593999997E+02  0.45594000000E+02  0.51100000000E-03 0. -1.
         11   -1    0    0    0    0 -0.00000000000E+00 -0.00000000000E+00 -0.45593999997E+02  0.45594000000E+02  0.51100000000E-03 0.  1.
         23    2    1    2    0    0  0.00000000000E+00  0.00000000000E+00  0.00000000000E+00  0.91188000000E+02  0.91188000000E+02 0.  0.
    9900012    2    3    3    0    0  0.23341547899E+02 -0.92063151367E+01 -0.35412412427E+02  0.47787273616E+02  0.20000011726E+02 0.  0.
         12    1    3    3    0    0 -0.23341547899E+02  0.92063151367E+01  0.35412412427E+02  0.43400726384E+02  0.00000000000E+00 0. -1.
         11    1    4    4    0    0 -0.84971964894E+00 -0.13838176880E+01 -0.73974714457E+01  0.75736093725E+01  0.51100000000E-03 0. -1.
        -11    1    4    4    0    0  0.24023534757E+01  0.64065623153E+00 -0.11062967223E+02  0.11338914704E+02  0.51100000000E-03 0.  1.
         12    1    4    4    0    0  0.21788914072E+02 -0.84631536802E+01 -0.16951973759E+02  0.28874749540E+02  0.00000000000E+00 0. -1.
</event>
<event>
 8    1  0.4042158E-011  0.9118800E+02  0.7816164E-02  0.1184000E+00
        -11   -1    0    0    0    0  0.00000000000E+00  0.00000000000E+00  0.45593999997E+02  0.45594000000E+02  0.51100000000E-03 0. -1.
         11   -1    0    0    0    0 -0.00000000000E+00 -0.00000000000E+00 -0.45593999997E+02  0.45594000000E+02  0.51100000000E-03 0.  1.
         23    2    1    2    0    0  0.88817841970E-15  0.00000000000E+00  0.00000000000E+00  0.91188000000E+02  0.91188000000E+02 0.  0.
    9900012    2    3    3    0    0 -0.65355436117E+01 -0.32445207910E+02 -0.28075227556E+02  0.47787271331E+02  0.20000001306E+02 0.  0.
         12    1    3    3    0    0  0.65355436117E+01  0.32445207910E+02  0.28075227556E+02  0.43400728669E+02  0.00000000000E+00 0. -1.
         11    1    4    4    0    0  0.27586035793E+01 -0.12147487946E+01 -0.45736491581E+01  0.54775701934E+01  0.51100000000E-03 0. -1.
        -11    1    4    4    0    0  0.21269701449E+01 -0.17321113523E+01 -0.48943634941E+01  0.56106154749E+01  0.51100000000E-03 0.  1.
        -12    1    4    4    0    0 -0.11421117336E+02 -0.29498347764E+02 -0.18607214904E+02  0.36699085663E+02  0.00000000000E+00 0.  1.
</event>
<event>
 8    1  0.4042158E-011  0.9118800E+02  0.7816164E-02  0.1184000E+00
        -11   -1    0    0    0    0  0.00000000000E+00  0.00000000000E+00  0.45593999997E+02  0.45594000000E+02  0.51100000000E-03 0. -1.
         11   -1    0    0    0    0 -0.00000000000E+00 -0.00000000000E+00 -0.45593999997E+02  0.45594000000E+02  0.51100000000E-03 0.  1.
         23    2    1    2    0    0  0.00000000000E+00  0.35527136788E-14  0.00000000000E+00  0.91188000000E+02  0.91188000000E+02 0.  0.
    9900012    2    3    3    0    0  0.11243227788E+02  0.20425741379E+02  0.36606031950E+02  0.47787278150E+02  0.20000032396E+02 0.  0.
        -12    1    3    3    0    0 -0.11243227788E+02 -0.20425741379E+02 -0.36606031950E+02  0.43400721850E+02  0.00000000000E+00 0.  1.
         11    1    4    4    0    0 -0.10932828623E+01  0.45612865972E+01  0.45991342550E+01  0.65690668283E+01  0.51100000000E-03 0.  1.
        -11    1    4    4    0    0  0.42644410669E+01 -0.31442651498E+01  0.72220785272E+01  0.89571356728E+01  0.51100000000E-03 0. -1.
         12    1    4    4    0    0  0.80720695833E+01  0.19008719932E+02  0.24784819168E+02  0.32261075649E+02  0.00000000000E+00 0. -1.
</event>
<event>
 8    1  0.4042158E-011  0.9118800E+02  0.7816164E-02  0.1184000E+00
        -11   -1    0    0    0    0  0.00000000000E+00  0.00000000000E+00  0.45593999997E+02  0.45594000000E+02  0.51100000000E-03 0. -1.
         11   -1    0    0    0    0 -0.00000000000E+00 -0.00000000000E+00 -0.45593999997E+02  0.45594000000E+02  0.51100000000E-03 0.  1.
         23    2    1    2    0    0  0.00000000000E+00  0.00000000000E+00  0.71054273576E-14  0.91188000000E+02  0.91188000000E+02 0.  0.
    9900012    2    3    3    0    0  0.39938840625E+01  0.19580696807E+02  0.38526207131E+02  0.47787269208E+02  0.19999991629E+02 0.  0.
        -12    1    3    3    0    0 -0.39938840625E+01 -0.19580696807E+02 -0.38526207131E+02  0.43400730792E+02  0.00000000000E+00 0.  1.
         11    1    4    4    0    0  0.81791310901E+01  0.57368151944E+01  0.22187382263E+02  0.24332882400E+02  0.51100000000E-03 0. -1.
        -11    1    4    4    0    0  0.19352345095E+01  0.83580370321E+01  0.76586238759E+01  0.11500279804E+02  0.51100000000E-03 0.  1.
         12    1    4    4    0    0 -0.61204815370E+01  0.54858445802E+01  0.86802009922E+01  0.11954107004E+02  0.00000000000E+00 0. -1.
</event>
<event>
 8    1  0.4042158E-011  0.9118800E+02  0.7816164E-02  0.1184000E+00
        -11   -1    0    0    0    0  0.00000000000E+00  0.00000000000E+00  0.45593999997E+02  0.45594000000E+02  0.51100000000E-03 0. -1.
         11   -1    0    0    0    0 -0.00000000000E+00 -0.00000000000E+00 -0.45593999997E+02  0.45594000000E+02  0.51100000000E-03 0.  1.
         23    2    1    2    0    0  0.00000000000E+00 -0.35527136788E-14  0.35527136788E-14  0.91188000000E+02  0.91188000000E+02 0.  0.
    9900012    2    3    3    0    0  0.17476346961E+02  0.25180368311E+02 -0.30727020012E+02  0.47787269474E+02  0.19999992840E+02 0.  0.
         12    1    3    3    0    0 -0.17476346961E+02 -0.25180368311E+02  0.30727020012E+02  0.43400730526E+02  0.00000000000E+00 0. -1.
         11    1    4    4    0    0  0.34606251161E+01  0.12968398898E+01  0.11767465476E+01  0.38784600801E+01  0.51100000000E-03 0. -1.
        -11    1    4    4    0    0  0.72990760169E+01  0.35937487943E+01 -0.13209895694E+02  0.15514280054E+02  0.51100000000E-03 0.  1.
         12    1    4    4    0    0  0.67166458282E+01  0.20289779627E+02 -0.18693870866E+02  0.28394529340E+02  0.00000000000E+00 0. -1.
</event>
<event>
 8    1  0.4042158E-011  0.9118800E+02  0.7816164E-02  0.1184000E+00
        -11   -1    0    0    0    0  0.00000000000E+00  0.00000000000E+00  0.45593999997E+02  0.45594000000E+02  0.51100000000E-03 0. -1.
         11   -1    0    0    0    0 -0.00000000000E+00 -0.00000000000E+00 -0.45593999997E+02  0.45594000000E+02  0.51100000000E-03 0.  1.
         23    2    1    2    0    0  0.00000000000E+00  0.00000000000E+00  0.00000000000E+00  0.91188000000E+02  0.91188000000E+02 0.  0.
    9900012    2    3    3    0    0 -0.15463942897E+02  0.34384064235E+02 -0.21499441232E+02  0.47787269862E+02  0.19999994609E+02 0.  0.
         12    1    3    3    0    0  0.15463942897E+02 -0.34384064235E+02  0.21499441232E+02  0.43400730138E+02  0.00000000000E+00 0. -1.
         11    1    4    4    0    0 -0.30625969854E+01  0.29352953193E+01 -0.73520193542E+01  0.84880885806E+01  0.51100000000E-03 0. -1.
        -11    1    4    4    0    0 -0.39491879466E-02  0.19015517555E+02 -0.87360470591E+01  0.20926262016E+02  0.51100000000E-03 0.  1.
         12    1    4    4    0    0 -0.12397396723E+02  0.12433251361E+02 -0.54113748185E+01  0.18372919266E+02  0.00000000000E+00 0. -1.
</event>
<event>
 8    1  0.4042158E-011  0.9118800E+02  0.7816164E-02  0.1184000E+00
        -11   -1    0    0    0    0  0.00000000000E+00  0.00000000000E+00  0.45593999997E+02  0.45594000000E+02  0.51100000000E-03 0. -1.
         11   -1    0    0    0    0 -0.00000000000E+00 -0.00000000000E+00 -0.45593999997E+02  0.45594000000E+02  0.51100000000E-03 0.  1.
         23    2    1    2    0    0  0.00000000000E+00 -0.17763568394E-14  0.00000000000E+00  0.91188000000E+02  0.91188000000E+02 0.  0.
    9900012    2    3    3    0    0 -0.53947035723E+01 -0.11518476974E+02 -0.41495119458E+02  0.47787273309E+02  0.20000010326E+02 0.  0.
         12    1    3    3    0    0  0.53947035723E+01  0.11518476974E+02  0.41495119458E+02  0.43400726691E+02  0.00000000000E+00 0. -1.
         11    1    4    4    0    0  0.48058197904E+01 -0.91823152178E+01 -0.16360037620E+02  0.19366508405E+02  0.51100000000E-03 0. -1.
        -11    1    4    4    0    0 -0.45739848166E+00  0.12423623052E+01 -0.98868368753E+01  0.99750800061E+01  0.51100000000E-03 0.  1.
        -12    1    4    4    0    0 -0.97431248810E+01 -0.35785240611E+01 -0.15248244963E+02  0.18445684898E+02  0.00000000000E+00 0.  1.
</event>
<event>
 8    1  0.4042158E-011  0.9118800E+02  0.7816164E-02  0.1184000E+00
        -11   -1    0    0    0    0  0.00000000000E+00  0.00000000000E+00  0.45593999997E+02  0.45594000000E+02  0.51100000000E-03 0. -1.
         11   -1    0    0    0    0 -0.00000000000E+00 -0.00000000000E+00 -0.45593999997E+02  0.45594000000E+02  0.51100000000E-03 0.  1.
         23    2    1    2    0    0  0.00000000000E+00  0.00000000000E+00  0.00000000000E+00  0.91188000000E+02  0.91188000000E+02 0.  0.
    9900012    2    3    3    0    0  0.62049437832E+01  0.14833930779E+02  0.40312235627E+02  0.47787272230E+02  0.20000005405E+02 0.  0.
        -12    1    3    3    0    0 -0.62049437832E+01 -0.14833930779E+02 -0.40312235627E+02  0.43400727770E+02  0.00000000000E+00 0.  1.
         11    1    4    4    0    0  0.74357277149E+01  0.13463856959E+02  0.16419325294E+02  0.22497994005E+02  0.51100000000E-03 0. -1.
        -11    1    4    4    0    0 -0.22006617663E+01  0.84502368162E+00  0.13442577454E+01  0.27136702783E+01  0.51100000000E-03 0.  1.
         12    1    4    4    0    0  0.96987783464E+00  0.52505013885E+00  0.22548652587E+02  0.22575607947E+02  0.00000000000E+00 0. -1.
</event>
<event>
 8    1  0.4042158E-011  0.9118800E+02  0.7816164E-02  0.1184000E+00
        -11   -1    0    0    0    0  0.00000000000E+00  0.00000000000E+00  0.45593999997E+02  0.45594000000E+02  0.51100000000E-03 0. -1.
         11   -1    0    0    0    0 -0.00000000000E+00 -0.00000000000E+00 -0.45593999997E+02  0.45594000000E+02  0.51100000000E-03 0.  1.
         23    2    1    2    0    0  0.00000000000E+00  0.00000000000E+00  0.00000000000E+00  0.91188000000E+02  0.91188000000E+02 0.  0.
    9900012    2    3    3    0    0  0.82331022498E+01 -0.20435612835E+02 -0.37392854301E+02  0.47787265013E+02  0.19999972501E+02 0.  0.
         12    1    3    3    0    0 -0.82331022498E+01  0.20435612835E+02  0.37392854301E+02  0.43400734987E+02  0.00000000000E+00 0. -1.
         11    1    4    4    0    0 -0.22904353830E+01  0.58813740418E-01 -0.79656988400E+01  0.82886616272E+01  0.51100000000E-03 0. -1.
        -11    1    4    4    0    0  0.28710467030E+01 -0.79401761225E+00  0.33308905226E+00  0.29973858139E+01  0.51100000000E-03 0.  1.
        -12    1    4    4    0    0  0.76524909297E+01 -0.19700408963E+02 -0.29760244513E+02  0.36501217572E+02  0.00000000000E+00 0.  1.
</event>
<event>
 8    1  0.4042158E-011  0.9118800E+02  0.7816164E-02  0.1184000E+00
        -11   -1    0    0    0    0  0.00000000000E+00  0.00000000000E+00  0.45593999997E+02  0.45594000000E+02  0.51100000000E-03 0.  1.
         11   -1    0    0    0    0 -0.00000000000E+00 -0.00000000000E+00 -0.45593999997E+02  0.45594000000E+02  0.51100000000E-03 0. -1.
         23    2    1    2    0    0 -0.71054273576E-14  0.00000000000E+00  0.35527136788E-14  0.91188000000E+02  0.91188000000E+02 0.  0.
    9900012    2    3    3    0    0  0.32560260899E+02  0.81657960503E+01 -0.27509499023E+02  0.47787270151E+02  0.19999995925E+02 0.  0.
         12    1    3    3    0    0 -0.32560260899E+02 -0.81657960503E+01  0.27509499023E+02  0.43400729849E+02  0.00000000000E+00 0. -1.
         11    1    4    4    0    0  0.68518093955E+01  0.81998638825E+00  0.85703723504E+00  0.69537171896E+01  0.51100000000E-03 0. -1.
        -11    1    4    4    0    0  0.15378973347E+02  0.85334589252E+01 -0.11480843390E+02  0.21003392765E+02  0.51100000000E-03 0.  1.
         12    1    4    4    0    0  0.10329478157E+02 -0.11876492632E+01 -0.16885692868E+02  0.19830160196E+02  0.00000000000E+00 0. -1.
</event>
<event>
 8    1  0.4042158E-011  0.9118800E+02  0.7816164E-02  0.1184000E+00
        -11   -1    0    0    0    0  0.00000000000E+00  0.00000000000E+00  0.45593999997E+02  0.45594000000E+02  0.51100000000E-03 0. -1.
         11   -1    0    0    0    0 -0.00000000000E+00 -0.00000000000E+00 -0.45593999997E+02  0.45594000000E+02  0.51100000000E-03 0.  1.
         23    2    1    2    0    0  0.00000000000E+00  0.66613381478E-15  0.00000000000E+00  0.91188000000E+02  0.91188000000E+02 0.  0.
    9900012    2    3    3    0    0 -0.17988139957E+02  0.16481042290E+01 -0.39463074436E+02  0.47787266474E+02  0.19999979160E+02 0.  0.
         12    1    3    3    0    0  0.17988139957E+02 -0.16481042290E+01  0.39463074436E+02  0.43400733526E+02  0.00000000000E+00 0. -1.
         11    1    4    4    0    0  0.14321804059E+01 -0.10890158992E+01 -0.26284050785E+01  0.31852173963E+01  0.51100000000E-03 0. -1.
        -11    1    4    4    0    0 -0.41046033048E+01 -0.50726778135E+01 -0.43311166401E+01  0.78318835602E+01  0.51100000000E-03 0.  1.
        -12    1    4    4    0    0 -0.15315717058E+02  0.78097979418E+01 -0.32503552718E+02  0.36770165517E+02  0.00000000000E+00 0.  1.
</event>
<event>
 8    1  0.4042158E-011  0.9118800E+02  0.7816164E-02  0.1184000E+00
        -11   -1    0    0    0    0  0.00000000000E+00  0.00000000000E+00  0.45593999997E+02  0.45594000000E+02  0.51100000000E-03 0. -1.
         11   -1    0    0    0    0 -0.00000000000E+00 -0.00000000000E+00 -0.45593999997E+02  0.45594000000E+02  0.51100000000E-03 0.  1.
         23    2    1    2    0    0  0.00000000000E+00 -0.35527136788E-14  0.00000000000E+00  0.91188000000E+02  0.91188000000E+02 0.  0.
    9900012    2    3    3    0    0 -0.12621756655E+02  0.26881112354E+02  0.31649893482E+02  0.47787323740E+02  0.20000240258E+02 0.  0.
        -12    1    3    3    0    0  0.12621756655E+02 -0.26881112354E+02 -0.31649893482E+02  0.43400676260E+02  0.00000000000E+00 0.  1.
         11    1    4    4    0    0  0.23444427920E+01  0.45958142232E+00  0.15518634631E+01  0.28488431965E+01  0.51100000000E-03 0. -1.
        -11    1    4    4    0    0 -0.48748725815E+01  0.27244266191E+01  0.12652273094E+02  0.13829927614E+02  0.51100000000E-03 0.  1.
        -12    1    4    4    0    0 -0.10091326866E+02  0.23697104313E+02  0.17445756924E+02  0.31108552930E+02  0.00000000000E+00 0.  1.
</event>
<event>
 8    1  0.4042158E-011  0.9118800E+02  0.7816164E-02  0.1184000E+00
        -11   -1    0    0    0    0  0.00000000000E+00  0.00000000000E+00  0.45593999997E+02  0.45594000000E+02  0.51100000000E-03 0. -1.
         11   -1    0    0    0    0 -0.00000000000E+00 -0.00000000000E+00 -0.45593999997E+02  0.45594000000E+02  0.51100000000E-03 0.  1.
         23    2    1    2    0    0 -0.17763568394E-14  0.17763568394E-14  0.00000000000E+00  0.91188000000E+02  0.91188000000E+02 0.  0.
    9900012    2    3    3    0    0  0.14586749265E+02 -0.14855971446E+02 -0.38080837970E+02  0.47787270027E+02  0.19999995360E+02 0.  0.
         12    1    3    3    0    0 -0.14586749265E+02  0.14855971446E+02  0.38080837970E+02  0.43400729973E+02  0.00000000000E+00 0. -1.
         11    1    4    4    0    0  0.65611630034E+01 -0.17642741675E+01 -0.49247358043E+01  0.83913375751E+01  0.51100000000E-03 0. -1.
        -11    1    4    4    0    0  0.10049598702E+02 -0.80376590770E+01 -0.30955503838E+02  0.33523747040E+02  0.51100000000E-03 0.  1.
        -12    1    4    4    0    0 -0.20240124406E+01 -0.50540382018E+01 -0.22005983277E+01  0.58721854113E+01  0.00000000000E+00 0.  1.
</event>
<event>
 8    1  0.4042158E-011  0.9118800E+02  0.7816164E-02  0.1184000E+00
        -11   -1    0    0    0    0  0.00000000000E+00  0.00000000000E+00  0.45593999997E+02  0.45594000000E+02  0.51100000000E-03 0.  1.
         11   -1    0    0    0    0 -0.00000000000E+00 -0.00000000000E+00 -0.45593999997E+02  0.45594000000E+02  0.51100000000E-03 0. -1.
         23    2    1    2    0    0 -0.71054273576E-14 -0.17763568394E-14  0.17763568394E-14  0.91188000000E+02  0.91188000000E+02 0.  0.
    9900012    2    3    3    0    0  0.40833849000E+02  0.10543341109E+02 -0.10249765101E+02  0.47787274770E+02  0.20000016986E+02 0.  0.
         12    1    3    3    0    0 -0.40833849000E+02 -0.10543341109E+02  0.10249765101E+02  0.43400725230E+02  0.00000000000E+00 0. -1.
         11    1    4    4    0    0  0.33688055597E+01 -0.45871710943E+00 -0.36198971801E+01  0.49661784242E+01  0.51100000000E-03 0. -1.
        -11    1    4    4    0    0  0.37113076588E+02  0.66901426367E+01 -0.73901547109E+01  0.38428542117E+02  0.51100000000E-03 0.  1.
         12    1    4    4    0    0  0.35196685252E+00  0.43119155820E+01  0.76028679032E+00  0.43925542291E+01  0.00000000000E+00 0. -1.
</event>
<event>
 8    1  0.4042158E-011  0.9118800E+02  0.7816164E-02  0.1184000E+00
        -11   -1    0    0    0    0  0.00000000000E+00  0.00000000000E+00  0.45593999997E+02  0.45594000000E+02  0.51100000000E-03 0. -1.
         11   -1    0    0    0    0 -0.00000000000E+00 -0.00000000000E+00 -0.45593999997E+02  0.45594000000E+02  0.51100000000E-03 0.  1.
         23    2    1    2    0    0 -0.88817841970E-15 -0.71054273576E-14 -0.35527136788E-14  0.91188000000E+02  0.91188000000E+02 0.  0.
    9900012    2    3    3    0    0 -0.41634189990E+01  0.37662187020E+02  0.21162450354E+02  0.47787266206E+02  0.19999977940E+02 0.  0.
        -12    1    3    3    0    0  0.41634189990E+01 -0.37662187020E+02 -0.21162450354E+02  0.43400733794E+02  0.00000000000E+00 0.  1.
         11    1    4    4    0    0  0.15580909845E+01  0.23358467700E+02  0.13320532667E+02  0.26934777735E+02  0.51100000000E-03 0. -1.
        -11    1    4    4    0    0  0.36146578680E+01  0.36752726143E+01  0.16766132823E+01  0.54207391241E+01  0.51100000000E-03 0.  1.
         12    1    4    4    0    0 -0.93361678515E+01  0.10628446705E+02  0.61653044042E+01  0.15431749347E+02  0.00000000000E+00 0. -1.
</event>
<event>
 8    1  0.4042158E-011  0.9118800E+02  0.7816164E-02  0.1184000E+00
        -11   -1    0    0    0    0  0.00000000000E+00  0.00000000000E+00  0.45593999997E+02  0.45594000000E+02  0.51100000000E-03 0. -1.
         11   -1    0    0    0    0 -0.00000000000E+00 -0.00000000000E+00 -0.45593999997E+02  0.45594000000E+02  0.51100000000E-03 0.  1.
         23    2    1    2    0    0  0.00000000000E+00  0.88817841970E-15  0.71054273576E-14  0.91188000000E+02  0.91188000000E+02 0.  0.
    9900012    2    3    3    0    0  0.21496227973E+02  0.74119750884E+01  0.36967528082E+02  0.47787270464E+02  0.19999997352E+02 0.  0.
        -12    1    3    3    0    0 -0.21496227973E+02 -0.74119750884E+01 -0.36967528082E+02  0.43400729536E+02  0.00000000000E+00 0.  1.
         11    1    4    4    0    0  0.16301367844E+02  0.27787818043E+01  0.27431640819E+02  0.32030472057E+02  0.51100000000E-03 0. -1.
        -11    1    4    4    0    0  0.87785797592E+00 -0.30578986766E+01  0.47645706119E+01  0.57290934989E+01  0.51100000000E-03 0.  1.
         12    1    4    4    0    0  0.43170021527E+01  0.76910919607E+01  0.47713166514E+01  0.10027704908E+02  0.00000000000E+00 0. -1.
</event>
<event>
 8    1  0.4042158E-011  0.9118800E+02  0.7816164E-02  0.1184000E+00
        -11   -1    0    0    0    0  0.00000000000E+00  0.00000000000E+00  0.45593999997E+02  0.45594000000E+02  0.51100000000E-03 0. -1.
         11   -1    0    0    0    0 -0.00000000000E+00 -0.00000000000E+00 -0.45593999997E+02  0.45594000000E+02  0.51100000000E-03 0.  1.
         23    2    1    2    0    0  0.00000000000E+00 -0.17763568394E-14  0.00000000000E+00  0.91188000000E+02  0.91188000000E+02 0.  0.
    9900012    2    3    3    0    0  0.26443389388E+02  0.15099517427E+02  0.30925316526E+02  0.47787268773E+02  0.19999989643E+02 0.  0.
        -12    1    3    3    0    0 -0.26443389388E+02 -0.15099517427E+02 -0.30925316526E+02  0.43400731227E+02  0.00000000000E+00 0.  1.
         11    1    4    4    0    0  0.69450633068E+01  0.91056297863E+00  0.14843997429E+02  0.16413631201E+02  0.51100000000E-03 0. -1.
        -11    1    4    4    0    0  0.26426764598E+01 -0.69537804746E+00  0.62700204341E+01  0.68396232357E+01  0.51100000000E-03 0.  1.
        -12    1    4    4    0    0  0.16855649621E+02  0.14884332495E+02  0.98112986624E+01  0.24534014336E+02  0.00000000000E+00 0.  1.
</event>
<event>
 8    1  0.4042158E-011  0.9118800E+02  0.7816164E-02  0.1184000E+00
        -11   -1    0    0    0    0  0.00000000000E+00  0.00000000000E+00  0.45593999997E+02  0.45594000000E+02  0.51100000000E-03 0. -1.
         11   -1    0    0    0    0 -0.00000000000E+00 -0.00000000000E+00 -0.45593999997E+02  0.45594000000E+02  0.51100000000E-03 0.  1.
         23    2    1    2    0    0 -0.35527136788E-14 -0.71054273576E-14 -0.35527136788E-14  0.91188000000E+02  0.91188000000E+02 0.  0.
    9900012    2    3    3    0    0 -0.21120791555E+02 -0.29411027179E+02 -0.23927566890E+02  0.47787253314E+02  0.19999919159E+02 0.  0.
         12    1    3    3    0    0  0.21120791555E+02  0.29411027179E+02  0.23927566890E+02  0.43400746686E+02  0.00000000000E+00 0. -1.
         11    1    4    4    0    0 -0.17735477031E+01 -0.14735086473E+02 -0.10649048675E+02  0.18266649467E+02  0.51100000000E-03 0. -1.
        -11    1    4    4    0    0 -0.56164371601E+01 -0.77715217141E+01 -0.99047149709E+01  0.13785655408E+02  0.51100000000E-03 0.  1.
         12    1    4    4    0    0 -0.13730806692E+02 -0.69044189923E+01 -0.33738032443E+01  0.15734948438E+02  0.00000000000E+00 0. -1.
</event>
<event>
 8    1  0.4042158E-011  0.9118800E+02  0.7816164E-02  0.1184000E+00
        -11   -1    0    0    0    0  0.00000000000E+00  0.00000000000E+00  0.45593999997E+02  0.45594000000E+02  0.51100000000E-03 0. -1.
         11   -1    0    0    0    0 -0.00000000000E+00 -0.00000000000E+00 -0.45593999997E+02  0.45594000000E+02  0.51100000000E-03 0.  1.
         23    2    1    2    0    0  0.00000000000E+00 -0.88817841970E-15  0.00000000000E+00  0.91188000000E+02  0.91188000000E+02 0.  0.
    9900012    2    3    3    0    0 -0.25502165755E+01 -0.58138828803E+01 -0.42933883809E+02  0.47787271692E+02  0.20000002953E+02 0.  0.
         12    1    3    3    0    0  0.25502165755E+01  0.58138828803E+01  0.42933883809E+02  0.43400728308E+02  0.00000000000E+00 0. -1.
         11    1    4    4    0    0 -0.85790739471E+00 -0.28110781326E-02  0.12402316723E+01  0.15080410678E+01  0.51100000000E-03 0. -1.
        -11    1    4    4    0    0 -0.22519753865E+00  0.36333150595E+01 -0.19130956270E+02  0.19474218349E+02  0.51100000000E-03 0.  1.
         12    1    4    4    0    0 -0.14671116421E+01 -0.94443868616E+01 -0.25043159212E+02  0.26805012275E+02  0.00000000000E+00 0. -1.
</event>
<event>
 8    1  0.4042158E-011  0.9118800E+02  0.7816164E-02  0.1184000E+00
        -11   -1    0    0    0    0  0.00000000000E+00  0.00000000000E+00  0.45593999997E+02  0.45594000000E+02  0.51100000000E-03 0.  1.
         11   -1    0    0    0    0 -0.00000000000E+00 -0.00000000000E+00 -0.45593999997E+02  0.45594000000E+02  0.51100000000E-03 0. -1.
         23    2    1    2    0    0 -0.17763568394E-14  0.00000000000E+00  0.00000000000E+00  0.91188000000E+02  0.91188000000E+02 0.  0.
    9900012    2    3    3    0    0  0.97241711305E+01 -0.39790136383E+02  0.14346035100E+02  0.47787272119E+02  0.20000004898E+02 0.  0.
        -12    1    3    3    0    0 -0.97241711305E+01  0.39790136383E+02 -0.14346035100E+02  0.43400727881E+02  0.00000000000E+00 0.  1.
         11    1    4    4    0    0  0.18916489712E+01 -0.12795058164E+02  0.99207976420E+01  0.16300738491E+02  0.51100000000E-03 0. -1.
        -11    1    4    4    0    0 -0.34998365565E+00 -0.24235142789E+01  0.50158444929E+01  0.55816311467E+01  0.51100000000E-03 0.  1.
         12    1    4    4    0    0  0.81825058150E+01 -0.24571563940E+02 -0.59060703458E+00  0.25904902481E+02  0.00000000000E+00 0. -1.
</event>
<event>
 8    1  0.4042158E-011  0.9118800E+02  0.7816164E-02  0.1184000E+00
        -11   -1    0    0    0    0  0.00000000000E+00  0.00000000000E+00  0.45593999997E+02  0.45594000000E+02  0.51100000000E-03 0. -1.
         11   -1    0    0    0    0 -0.00000000000E+00 -0.00000000000E+00 -0.45593999997E+02  0.45594000000E+02  0.51100000000E-03 0.  1.
         23    2    1    2    0    0  0.00000000000E+00  0.88817841970E-15  0.00000000000E+00  0.91188000000E+02  0.91188000000E+02 0.  0.
    9900012    2    3    3    0    0 -0.40084264096E+02  0.61400287467E+01 -0.15465288696E+02  0.47787270334E+02  0.19999996759E+02 0.  0.
         12    1    3    3    0    0  0.40084264096E+02 -0.61400287467E+01  0.15465288696E+02  0.43400729666E+02  0.00000000000E+00 0. -1.
         11    1    4    4    0    0 -0.76589933613E+01  0.92099023420E+01 -0.23031943368E+01  0.12197835254E+02  0.51100000000E-03 0. -1.
        -11    1    4    4    0    0 -0.30522364009E+01 -0.18719382807E+01 -0.64535724639E+00  0.36382394382E+01  0.51100000000E-03 0.  1.
        -12    1    4    4    0    0 -0.29373034334E+02 -0.11979353146E+01 -0.12516737113E+02  0.31951195642E+02  0.00000000000E+00 0.  1.
</event>
<event>
 8    1  0.4042158E-011  0.9118800E+02  0.7816164E-02  0.1184000E+00
        -11   -1    0    0    0    0  0.00000000000E+00  0.00000000000E+00  0.45593999997E+02  0.45594000000E+02  0.51100000000E-03 0. -1.
         11   -1    0    0    0    0 -0.00000000000E+00 -0.00000000000E+00 -0.45593999997E+02  0.45594000000E+02  0.51100000000E-03 0.  1.
         23    2    1    2    0    0 -0.35527136788E-14  0.00000000000E+00  0.00000000000E+00  0.91188000000E+02  0.91188000000E+02 0.  0.
    9900012    2    3    3    0    0 -0.28038753046E+02 -0.12674313090E+02 -0.30607389339E+02  0.47787283799E+02  0.20000058152E+02 0.  0.
         12    1    3    3    0    0  0.28038753046E+02  0.12674313090E+02  0.30607389339E+02  0.43400716201E+02  0.00000000000E+00 0. -1.
         11    1    4    4    0    0  0.56758110899E-01  0.44470618918E+00 -0.63908118037E+01  0.64065170608E+01  0.51100000000E-03 0. -1.
        -11    1    4    4    0    0 -0.29334912267E+00 -0.43673607864E+01 -0.25828563316E+01  0.50824247203E+01  0.51100000000E-03 0.  1.
        -12    1    4    4    0    0 -0.27802162034E+02 -0.87516584925E+01 -0.21633721203E+02  0.36298342018E+02  0.00000000000E+00 0.  1.
</event>
<event>
 8    1  0.4042158E-011  0.9118800E+02  0.7816164E-02  0.1184000E+00
        -11   -1    0    0    0    0  0.00000000000E+00  0.00000000000E+00  0.45593999997E+02  0.45594000000E+02  0.51100000000E-03 0. -1.
         11   -1    0    0    0    0 -0.00000000000E+00 -0.00000000000E+00 -0.45593999997E+02  0.45594000000E+02  0.51100000000E-03 0.  1.
         23    2    1    2    0    0  0.88817841970E-15  0.44408920985E-15 -0.71054273576E-14  0.91188000000E+02  0.91188000000E+02 0.  0.
    9900012    2    3    3    0    0  0.74215944325E+01  0.28599525569E+01  0.42665715713E+02  0.47787277773E+02  0.20000030676E+02 0.  0.
        -12    1    3    3    0    0 -0.74215944325E+01 -0.28599525569E+01 -0.42665715713E+02  0.43400722227E+02  0.00000000000E+00 0.  1.
         11    1    4    4    0    0 -0.16504717964E+01  0.16745808377E+01  0.34943602847E+02  0.35022616383E+02  0.51100000000E-03 0. -1.
        -11    1    4    4    0    0  0.25541572532E+00 -0.90980084952E+00  0.14971207100E+01  0.17704082750E+01  0.51100000000E-03 0.  1.
        -12    1    4    4    0    0  0.88166505037E+01  0.20951725688E+01  0.62249921559E+01  0.10994253114E+02  0.00000000000E+00 0.  1.
</event>
<event>
 8    1  0.4042158E-011  0.9118800E+02  0.7816164E-02  0.1184000E+00
        -11   -1    0    0    0    0  0.00000000000E+00  0.00000000000E+00  0.45593999997E+02  0.45594000000E+02  0.51100000000E-03 0. -1.
         11   -1    0    0    0    0 -0.00000000000E+00 -0.00000000000E+00 -0.45593999997E+02  0.45594000000E+02  0.51100000000E-03 0.  1.
         23    2    1    2    0    0  0.00000000000E+00  0.17763568394E-14  0.00000000000E+00  0.91188000000E+02  0.91188000000E+02 0.  0.
    9900012    2    3    3    0    0 -0.11163961693E+02 -0.10380872175E+02  0.40635286261E+02  0.47787273769E+02  0.20000012424E+02 0.  0.
        -12    1    3    3    0    0  0.11163961693E+02  0.10380872175E+02 -0.40635286261E+02  0.43400726231E+02  0.00000000000E+00 0.  1.
         11    1    4    4    0    0 -0.14260288610E+01 -0.63586526627E+01  0.26046315268E+01  0.70178435184E+01  0.51100000000E-03 0.  1.
        -11    1    4    4    0    0 -0.40320681550E+01 -0.60547017992E+01  0.11911100137E+02  0.13956765177E+02  0.51100000000E-03 0. -1.
         12    1    4    4    0    0 -0.57058646772E+01  0.20324822871E+01  0.26119554598E+02  0.26812665074E+02  0.00000000000E+00 0. -1.
</event>
<event>
 8    1  0.4042158E-011  0.9118800E+02  0.7816164E-02  0.1184000E+00
        -11   -1    0    0    0    0  0.00000000000E+00  0.00000000000E+00  0.45593999997E+02  0.45594000000E+02  0.51100000000E-03 0. -1.
         11   -1    0    0    0    0 -0.00000000000E+00 -0.00000000000E+00 -0.45593999997E+02  0.45594000000E+02  0.51100000000E-03 0.  1.
         23    2    1    2    0    0  0.35527136788E-14  0.00000000000E+00  0.00000000000E+00  0.91188000000E+02  0.91188000000E+02 0.  0.
    9900012    2    3    3    0    0 -0.17772968539E+02 -0.96198104257E+01  0.38408385390E+02  0.47787271532E+02  0.20000002221E+02 0.  0.
        -12    1    3    3    0    0  0.17772968539E+02  0.96198104257E+01 -0.38408385390E+02  0.43400728468E+02  0.00000000000E+00 0.  1.
         11    1    4    4    0    0 -0.14392303899E+01 -0.68791213049E-01  0.18192605367E+01  0.23207381386E+01  0.51100000000E-03 0. -1.
        -11    1    4    4    0    0 -0.15308689229E+02 -0.19716057884E+01  0.11529855156E+02  0.19266051892E+02  0.51100000000E-03 0.  1.
         12    1    4    4    0    0 -0.10250489194E+01 -0.75794134242E+01  0.25059269697E+02  0.26200481501E+02  0.00000000000E+00 0. -1.
</event>
<event>
 8    1  0.4042158E-011  0.9118800E+02  0.7816164E-02  0.1184000E+00
        -11   -1    0    0    0    0  0.00000000000E+00  0.00000000000E+00  0.45593999997E+02  0.45594000000E+02  0.51100000000E-03 0. -1.
         11   -1    0    0    0    0 -0.00000000000E+00 -0.00000000000E+00 -0.45593999997E+02  0.45594000000E+02  0.51100000000E-03 0.  1.
         23    2    1    2    0    0  0.17763568394E-14  0.00000000000E+00  0.00000000000E+00  0.91188000000E+02  0.91188000000E+02 0.  0.
    9900012    2    3    3    0    0  0.12005465032E+02  0.16894248317E+02  0.38132356778E+02  0.47787269013E+02  0.19999990736E+02 0.  0.
        -12    1    3    3    0    0 -0.12005465032E+02 -0.16894248317E+02 -0.38132356778E+02  0.43400730987E+02  0.00000000000E+00 0.  1.
         11    1    4    4    0    0  0.87654624644E+00 -0.23040887754E+00  0.41624765621E+00  0.99733843073E+00  0.51100000000E-03 0. -1.
        -11    1    4    4    0    0  0.93054102184E+01  0.64849915136E+01  0.51040584008E+01  0.12437732377E+02  0.51100000000E-03 0.  1.
         12    1    4    4    0    0  0.18235085675E+01  0.10639665680E+02  0.32612050721E+02  0.34352198205E+02  0.00000000000E+00 0. -1.
</event>
<event>
 8    1  0.4042158E-011  0.9118800E+02  0.7816164E-02  0.1184000E+00
        -11   -1    0    0    0    0  0.00000000000E+00  0.00000000000E+00  0.45593999997E+02  0.45594000000E+02  0.51100000000E-03 0. -1.
         11   -1    0    0    0    0 -0.00000000000E+00 -0.00000000000E+00 -0.45593999997E+02  0.45594000000E+02  0.51100000000E-03 0.  1.
         23    2    1    2    0    0  0.00000000000E+00  0.00000000000E+00  0.00000000000E+00  0.91188000000E+02  0.91188000000E+02 0.  0.
    9900012    2    3    3    0    0 -0.18098426990E+02 -0.28651492886E+01  0.39342868097E+02  0.47787269475E+02  0.19999992846E+02 0.  0.
        -12    1    3    3    0    0  0.18098426990E+02  0.28651492886E+01 -0.39342868097E+02  0.43400730525E+02  0.00000000000E+00 0.  1.
         11    1    4    4    0    0 -0.52018715248E+01  0.36048727576E+00  0.20847288494E+02  0.21489505724E+02  0.51100000000E-03 0. -1.
        -11    1    4    4    0    0 -0.53899964732E+01  0.33879796910E+01  0.13899499245E+02  0.15288117866E+02  0.51100000000E-03 0.  1.
         12    1    4    4    0    0 -0.75065589920E+01 -0.66136162553E+01  0.45960803586E+01  0.11009645886E+02  0.00000000000E+00 0. -1.
</event>
<event>
 8    1  0.4042158E-011  0.9118800E+02  0.7816164E-02  0.1184000E+00
        -11   -1    0    0    0    0  0.00000000000E+00  0.00000000000E+00  0.45593999997E+02  0.45594000000E+02  0.51100000000E-03 0.  1.
         11   -1    0    0    0    0 -0.00000000000E+00 -0.00000000000E+00 -0.45593999997E+02  0.45594000000E+02  0.51100000000E-03 0. -1.
         23    2    1    2    0    0  0.00000000000E+00  0.00000000000E+00 -0.35527136788E-14  0.91188000000E+02  0.91188000000E+02 0.  0.
    9900012    2    3    3    0    0  0.32118107090E+02  0.20149538564E+02  0.21119824495E+02  0.47787266203E+02  0.19999977927E+02 0.  0.
        -12    1    3    3    0    0 -0.32118107090E+02 -0.20149538564E+02 -0.21119824495E+02  0.43400733797E+02  0.00000000000E+00 0.  1.
         11    1    4    4    0    0  0.25926898186E+01  0.10500094291E+01 -0.42781779318E+00  0.28297682983E+01  0.51100000000E-03 0. -1.
        -11    1    4    4    0    0  0.14980960210E+02 -0.20192804168E+00  0.11007139865E+02  0.18591048169E+02  0.51100000000E-03 0.  1.
         12    1    4    4    0    0  0.14544457062E+02  0.19301457177E+02  0.10540502423E+02  0.26366449736E+02  0.00000000000E+00 0. -1.
</event>
<event>
 8    1  0.4042158E-011  0.9118800E+02  0.7816164E-02  0.1184000E+00
        -11   -1    0    0    0    0  0.00000000000E+00  0.00000000000E+00  0.45593999997E+02  0.45594000000E+02  0.51100000000E-03 0. -1.
         11   -1    0    0    0    0 -0.00000000000E+00 -0.00000000000E+00 -0.45593999997E+02  0.45594000000E+02  0.51100000000E-03 0.  1.
         23    2    1    2    0    0  0.88817841970E-15  0.00000000000E+00  0.00000000000E+00  0.91188000000E+02  0.91188000000E+02 0.  0.
    9900012    2    3    3    0    0  0.51178093615E+01 -0.13949143726E+02 -0.40778106297E+02  0.47787256498E+02  0.19999933677E+02 0.  0.
         12    1    3    3    0    0 -0.51178093615E+01  0.13949143726E+02  0.40778106297E+02  0.43400743502E+02  0.00000000000E+00 0. -1.
         11    1    4    4    0    0  0.24343220733E+01  0.12814740437E+01 -0.81877711666E+00  0.28702780195E+01  0.51100000000E-03 0. -1.
        -11    1    4    4    0    0  0.80831786613E+01 -0.79435689634E+01 -0.19859317189E+02  0.22865488068E+02  0.51100000000E-03 0.  1.
        -12    1    4    4    0    0 -0.53996913731E+01 -0.72870488062E+01 -0.20100011992E+02  0.22051490410E+02  0.00000000000E+00 0.  1.
</event>
<event>
 8    1  0.4042158E-011  0.9118800E+02  0.7816164E-02  0.1184000E+00
        -11   -1    0    0    0    0  0.00000000000E+00  0.00000000000E+00  0.45593999997E+02  0.45594000000E+02  0.51100000000E-03 0. -1.
         11   -1    0    0    0    0 -0.00000000000E+00 -0.00000000000E+00 -0.45593999997E+02  0.45594000000E+02  0.51100000000E-03 0.  1.
         23    2    1    2    0    0  0.66613381478E-15  0.00000000000E+00  0.00000000000E+00  0.91188000000E+02  0.91188000000E+02 0.  0.
    9900012    2    3    3    0    0  0.18219918045E+01  0.39552392306E+02 -0.17773907209E+02  0.47787272256E+02  0.20000005524E+02 0.  0.
         12    1    3    3    0    0 -0.18219918045E+01 -0.39552392306E+02  0.17773907209E+02  0.43400727744E+02  0.00000000000E+00 0. -1.
         11    1    4    4    0    0 -0.24352493778E+01  0.52815886496E+01 -0.10602024159E+01  0.59118226986E+01  0.51100000000E-03 0. -1.
        -11    1    4    4    0    0  0.79799030505E+00  0.23874298000E+02 -0.19191343694E+02  0.30641908664E+02  0.51100000000E-03 0.  1.
        -12    1    4    4    0    0  0.34592508773E+01  0.10396505656E+02  0.24776389006E+01  0.11233540893E+02  0.00000000000E+00 0.  1.
</event>
<event>
 8    1  0.4042158E-011  0.9118800E+02  0.7816164E-02  0.1184000E+00
        -11   -1    0    0    0    0  0.00000000000E+00  0.00000000000E+00  0.45593999997E+02  0.45594000000E+02  0.51100000000E-03 0. -1.
         11   -1    0    0    0    0 -0.00000000000E+00 -0.00000000000E+00 -0.45593999997E+02  0.45594000000E+02  0.51100000000E-03 0.  1.
         23    2    1    2    0    0  0.00000000000E+00  0.71054273576E-14  0.00000000000E+00  0.91188000000E+02  0.91188000000E+02 0.  0.
    9900012    2    3    3    0    0 -0.82981266611E+01 -0.41231767323E+02 -0.10710080424E+02  0.47787269990E+02  0.19999995194E+02 0.  0.
         12    1    3    3    0    0  0.82981266611E+01  0.41231767323E+02  0.10710080424E+02  0.43400730010E+02  0.00000000000E+00 0. -1.
         11    1    4    4    0    0 -0.20830102688E+01 -0.16647807219E+02  0.14445766222E+01  0.16839691769E+02  0.51100000000E-03 0. -1.
        -11    1    4    4    0    0 -0.41962431642E+01 -0.23479192762E+02 -0.14293128382E+02  0.27806014973E+02  0.51100000000E-03 0.  1.
         12    1    4    4    0    0 -0.20188732280E+01 -0.11047673422E+01  0.21384713363E+01  0.31415632490E+01  0.00000000000E+00 0. -1.
</event>
<event>
 8    1  0.4042158E-011  0.9118800E+02  0.7816164E-02  0.1184000E+00
        -11   -1    0    0    0    0  0.00000000000E+00  0.00000000000E+00  0.45593999997E+02  0.45594000000E+02  0.51100000000E-03 0. -1.
         11   -1    0    0    0    0 -0.00000000000E+00 -0.00000000000E+00 -0.45593999997E+02  0.45594000000E+02  0.51100000000E-03 0.  1.
         23    2    1    2    0    0  0.88817841970E-15  0.00000000000E+00  0.71054273576E-14  0.91188000000E+02  0.91188000000E+02 0.  0.
    9900012    2    3    3    0    0  0.48420188278E+01  0.19669784148E+02  0.38383302631E+02  0.47787268720E+02  0.19999989401E+02 0.  0.
        -12    1    3    3    0    0 -0.48420188278E+01 -0.19669784148E+02 -0.38383302631E+02  0.43400731280E+02  0.00000000000E+00 0.  1.
         11    1    4    4    0    0 -0.50968564687E+01  0.51432633735E+01  0.17413381285E+02  0.18858869320E+02  0.51100000000E-03 0. -1.
        -11    1    4    4    0    0 -0.66576829927E+00  0.32080698357E+01  0.60852295444E+00  0.33324555430E+01  0.51100000000E-03 0.  1.
        -12    1    4    4    0    0  0.10604643596E+02  0.11318450939E+02  0.20361398392E+02  0.25595943857E+02  0.00000000000E+00 0.  1.
</event>
<event>
 8    1  0.4042158E-011  0.9118800E+02  0.7816164E-02  0.1184000E+00
        -11   -1    0    0    0    0  0.00000000000E+00  0.00000000000E+00  0.45593999997E+02  0.45594000000E+02  0.51100000000E-03 0. -1.
         11   -1    0    0    0    0 -0.00000000000E+00 -0.00000000000E+00 -0.45593999997E+02  0.45594000000E+02  0.51100000000E-03 0.  1.
         23    2    1    2    0    0 -0.35527136788E-14  0.71054273576E-14 -0.88817841970E-15  0.91188000000E+02  0.91188000000E+02 0.  0.
    9900012    2    3    3    0    0 -0.27675397451E+02  0.33064816460E+02 -0.49410244192E+01  0.47787269201E+02  0.19999991594E+02 0.  0.
         12    1    3    3    0    0  0.27675397451E+02 -0.33064816460E+02  0.49410244192E+01  0.43400730799E+02  0.00000000000E+00 0. -1.
         11    1    4    4    0    0 -0.10426333903E+02  0.13317038243E+02 -0.19778339249E+01  0.17028322686E+02  0.51100000000E-03 0. -1.
        -11    1    4    4    0    0 -0.17905039040E+02  0.16357395334E+02 -0.71952565566E+01  0.25296769010E+02  0.51100000000E-03 0.  1.
         12    1    4    4    0    0  0.65597549222E+00  0.33903828831E+01  0.42320660623E+01  0.54621775050E+01  0.00000000000E+00 0. -1.
</event>
<event>
 8    1  0.4042158E-011  0.9118800E+02  0.7816164E-02  0.1184000E+00
        -11   -1    0    0    0    0  0.00000000000E+00  0.00000000000E+00  0.45593999997E+02  0.45594000000E+02  0.51100000000E-03 0. -1.
         11   -1    0    0    0    0 -0.00000000000E+00 -0.00000000000E+00 -0.45593999997E+02  0.45594000000E+02  0.51100000000E-03 0.  1.
         23    2    1    2    0    0 -0.13322676296E-14  0.00000000000E+00  0.00000000000E+00  0.91188000000E+02  0.91188000000E+02 0.  0.
    9900012    2    3    3    0    0 -0.14500052465E+01  0.23898111693E+02  0.36199454821E+02  0.47787276653E+02  0.20000025573E+02 0.  0.
        -12    1    3    3    0    0  0.14500052465E+01 -0.23898111693E+02 -0.36199454821E+02  0.43400723347E+02  0.00000000000E+00 0.  1.
         11    1    4    4    0    0  0.26304622132E+00  0.27200976211E+01  0.99163378732E+00  0.29071398680E+01  0.51100000000E-03 0. -1.
        -11    1    4    4    0    0  0.55525952995E+01  0.64143712504E+01  0.35404942869E+01  0.91929632412E+01  0.51100000000E-03 0.  1.
         12    1    4    4    0    0 -0.72656467673E+01  0.14763642822E+02  0.31667326746E+02  0.35687173544E+02  0.00000000000E+00 0. -1.
</event>
<event>
 8    1  0.4042158E-011  0.9118800E+02  0.7816164E-02  0.1184000E+00
        -11   -1    0    0    0    0  0.00000000000E+00  0.00000000000E+00  0.45593999997E+02  0.45594000000E+02  0.51100000000E-03 0. -1.
         11   -1    0    0    0    0 -0.00000000000E+00 -0.00000000000E+00 -0.45593999997E+02  0.45594000000E+02  0.51100000000E-03 0.  1.
         23    2    1    2    0    0  0.00000000000E+00  0.00000000000E+00  0.17763568394E-14  0.91188000000E+02  0.91188000000E+02 0.  0.
    9900012    2    3    3    0    0 -0.32297311094E+02 -0.24717194663E+02  0.15151472934E+02  0.47787272495E+02  0.20000006611E+02 0.  0.
        -12    1    3    3    0    0  0.32297311094E+02  0.24717194663E+02 -0.15151472934E+02  0.43400727505E+02  0.00000000000E+00 0.  1.
         11    1    4    4    0    0  0.23765179154E+01  0.44425562043E+00  0.60402516644E+00  0.24919966134E+01  0.51100000000E-03 0.  1.
        -11    1    4    4    0    0 -0.82075273907E+01 -0.48693359500E+01  0.30479543816E+01  0.10018181703E+02  0.51100000000E-03 0. -1.
        -12    1    4    4    0    0 -0.26466301619E+02 -0.20292114334E+02  0.11499493386E+02  0.35277094178E+02  0.00000000000E+00 0.  1.
</event>
<event>
 8    1  0.4042158E-011  0.9118800E+02  0.7816164E-02  0.1184000E+00
        -11   -1    0    0    0    0  0.00000000000E+00  0.00000000000E+00  0.45593999997E+02  0.45594000000E+02  0.51100000000E-03 0.  1.
         11   -1    0    0    0    0 -0.00000000000E+00 -0.00000000000E+00 -0.45593999997E+02  0.45594000000E+02  0.51100000000E-03 0. -1.
         23    2    1    2    0    0 -0.83266726847E-15  0.00000000000E+00  0.00000000000E+00  0.91188000000E+02  0.91188000000E+02 0.  0.
    9900012    2    3    3    0    0 -0.38906353024E+00 -0.41077255515E+02 -0.14004674654E+02  0.47787271858E+02  0.20000003709E+02 0.  0.
         12    1    3    3    0    0  0.38906353024E+00  0.41077255515E+02  0.14004674654E+02  0.43400728142E+02  0.00000000000E+00 0. -1.
         11    1    4    4    0    0  0.17518162213E+01 -0.16272405684E+01 -0.20556580985E+01  0.31531733888E+01  0.51100000000E-03 0. -1.
        -11    1    4    4    0    0 -0.85636884662E+01 -0.26165127358E+02 -0.38419830810E+01  0.27797688466E+02  0.51100000000E-03 0.  1.
        -12    1    4    4    0    0  0.64228087146E+01 -0.13284887589E+02 -0.81070334747E+01  0.16836410003E+02  0.00000000000E+00 0.  1.
</event>
<event>
 8    1  0.4207268E-011  0.9118800E+02  0.7816164E-02  0.1184000E+00
        -11   -1    0    0    0    0  0.00000000000E+00  0.00000000000E+00  0.45593999997E+02  0.45594000000E+02  0.51100000000E-03 0. -1.
         11   -1    0    0    0    0 -0.00000000000E+00 -0.00000000000E+00 -0.45593999997E+02  0.45594000000E+02  0.51100000000E-03 0.  1.
         23    2    1    2    0    0 -0.88817841970E-15  0.00000000000E+00 -0.71054273576E-14  0.91188000000E+02  0.91188000000E+02 0.  0.
    9900012    2    3    3    0    0  0.55047415963E+01  0.20732553815E+02  0.37729067602E+02  0.47787268326E+02  0.19999987604E+02 0.  0.
        -12    1    3    3    0    0 -0.55047415963E+01 -0.20732553815E+02 -0.37729067602E+02  0.43400731674E+02  0.00000000000E+00 0.  1.
         11    1    4    4    0    0  0.19832634990E+01  0.13982065429E+02  0.20404184176E+02  0.24814556614E+02  0.51100000000E-03 0. -1.
        -11    1    4    4    0    0 -0.58849998268E+00  0.38456508403E+01  0.17509437890E+02  0.17936437163E+02  0.51100000000E-03 0.  1.
        -12    1    4    4    0    0  0.41099780800E+01  0.29048375458E+01 -0.18455446409E+00  0.50362745492E+01  0.00000000000E+00 0.  1.
</event>
<event>
 8    1  0.4042158E-011  0.9118800E+02  0.7816164E-02  0.1184000E+00
        -11   -1    0    0    0    0  0.00000000000E+00  0.00000000000E+00  0.45593999997E+02  0.45594000000E+02  0.51100000000E-03 0.  1.
         11   -1    0    0    0    0 -0.00000000000E+00 -0.00000000000E+00 -0.45593999997E+02  0.45594000000E+02  0.51100000000E-03 0. -1.
         23    2    1    2    0    0 -0.18041124150E-14  0.00000000000E+00  0.00000000000E+00  0.91188000000E+02  0.91188000000E+02 0.  0.
    9900012    2    3    3    0    0  0.20002660189E+00 -0.38301330028E+02 -0.20410548510E+02  0.47787281308E+02  0.20000046795E+02 0.  0.
         12    1    3    3    0    0 -0.20002660189E+00  0.38301330028E+02  0.20410548510E+02  0.43400718692E+02  0.00000000000E+00 0. -1.
         11    1    4    4    0    0 -0.76012165820E+01 -0.25372355055E+02 -0.10283141168E+02  0.28412636046E+02  0.51100000000E-03 0. -1.
        -11    1    4    4    0    0 -0.81962137207E+00 -0.27043190819E+01 -0.43791510722E+00  0.28595263231E+01  0.51100000000E-03 0.  1.
         12    1    4    4    0    0  0.86208645559E+01 -0.10224655890E+02 -0.96894922352E+01  0.16515118938E+02  0.00000000000E+00 0. -1.
</event>
<event>
 8    1  0.4042158E-011  0.9118800E+02  0.7816164E-02  0.1184000E+00
        -11   -1    0    0    0    0  0.00000000000E+00  0.00000000000E+00  0.45593999997E+02  0.45594000000E+02  0.51100000000E-03 0. -1.
         11   -1    0    0    0    0 -0.00000000000E+00 -0.00000000000E+00 -0.45593999997E+02  0.45594000000E+02  0.51100000000E-03 0.  1.
         23    2    1    2    0    0 -0.35527136788E-14  0.00000000000E+00  0.17763568394E-14  0.91188000000E+02  0.91188000000E+02 0.  0.
    9900012    2    3    3    0    0  0.29075029640E+02  0.31005989696E+02  0.87689505839E+01  0.47787271435E+02  0.20000001782E+02 0.  0.
        -12    1    3    3    0    0 -0.29075029640E+02 -0.31005989696E+02 -0.87689505839E+01  0.43400728565E+02  0.00000000000E+00 0.  1.
         11    1    4    4    0    0  0.19498381678E+02  0.82039283393E+01  0.67927352909E+01  0.22217843758E+02  0.51100000000E-03 0. -1.
        -11    1    4    4    0    0 -0.67858199018E+00  0.55119122526E+00 -0.38545725897E+00  0.95543856098E+00  0.51100000000E-03 0.  1.
         12    1    4    4    0    0  0.10255229952E+02  0.22250870132E+02  0.23616725520E+01  0.24613989117E+02  0.00000000000E+00 0. -1.
</event>
<event>
 8    1  0.4042158E-011  0.9118800E+02  0.7816164E-02  0.1184000E+00
        -11   -1    0    0    0    0  0.00000000000E+00  0.00000000000E+00  0.45593999997E+02  0.45594000000E+02  0.51100000000E-03 0. -1.
         11   -1    0    0    0    0 -0.00000000000E+00 -0.00000000000E+00 -0.45593999997E+02  0.45594000000E+02  0.51100000000E-03 0.  1.
         23    2    1    2    0    0  0.44408920985E-15 -0.35527136788E-14  0.35527136788E-14  0.91188000000E+02  0.91188000000E+02 0.  0.
    9900012    2    3    3    0    0  0.29107941296E+01  0.31623395931E+02 -0.29582281172E+02  0.47787271297E+02  0.20000001150E+02 0.  0.
         12    1    3    3    0    0 -0.29107941296E+01 -0.31623395931E+02  0.29582281172E+02  0.43400728703E+02  0.00000000000E+00 0. -1.
         11    1    4    4    0    0 -0.29074085013E+01  0.34268919477E+01 -0.66630786911E+01  0.80369913848E+01  0.51100000000E-03 0. -1.
        -11    1    4    4    0    0  0.32863272506E+01  0.86813687834E+01  0.33303496714E+00  0.92885425823E+01  0.51100000000E-03 0.  1.
         12    1    4    4    0    0  0.25318753803E+01  0.19515135200E+02 -0.23252237448E+02  0.30461737330E+02  0.00000000000E+00 0. -1.
</event>
<event>
 8    1  0.4042158E-011  0.9118800E+02  0.7816164E-02  0.1184000E+00
        -11   -1    0    0    0    0  0.00000000000E+00  0.00000000000E+00  0.45593999997E+02  0.45594000000E+02  0.51100000000E-03 0. -1.
         11   -1    0    0    0    0 -0.00000000000E+00 -0.00000000000E+00 -0.45593999997E+02  0.45594000000E+02  0.51100000000E-03 0.  1.
         23    2    1    2    0    0  0.00000000000E+00  0.00000000000E+00  0.00000000000E+00  0.91188000000E+02  0.91188000000E+02 0.  0.
    9900012    2    3    3    0    0  0.41948052332E+02 -0.30105427054E+01  0.10720113868E+02  0.47787270707E+02  0.19999998463E+02 0.  0.
        -12    1    3    3    0    0 -0.41948052332E+02  0.30105427054E+01 -0.10720113868E+02  0.43400729293E+02  0.00000000000E+00 0.  1.
         11    1    4    4    0    0  0.24418804066E+02 -0.11151320497E+01  0.68259874452E+01  0.25379432940E+02  0.51100000000E-03 0. -1.
        -11    1    4    4    0    0  0.14457101408E+02  0.17179549584E+01  0.75681609242E+01  0.16408418888E+02  0.51100000000E-03 0.  1.
        -12    1    4    4    0    0  0.30721468579E+01 -0.36133656140E+01 -0.36740345012E+01  0.59994188796E+01  0.00000000000E+00 0.  1.
</event>
<event>
 8    1  0.4042158E-011  0.9118800E+02  0.7816164E-02  0.1184000E+00
        -11   -1    0    0    0    0  0.00000000000E+00  0.00000000000E+00  0.45593999997E+02  0.45594000000E+02  0.51100000000E-03 0. -1.
         11   -1    0    0    0    0 -0.00000000000E+00 -0.00000000000E+00 -0.45593999997E+02  0.45594000000E+02  0.51100000000E-03 0.  1.
         23    2    1    2    0    0 -0.44408920985E-15  0.00000000000E+00  0.00000000000E+00  0.91188000000E+02  0.91188000000E+02 0.  0.
    9900012    2    3    3    0    0  0.34398258621E+01  0.20412407125E+02 -0.38146091628E+02  0.47787273358E+02  0.20000010546E+02 0.  0.
         12    1    3    3    0    0 -0.34398258621E+01 -0.20412407125E+02  0.38146091628E+02  0.43400726642E+02  0.00000000000E+00 0. -1.
         11    1    4    4    0    0  0.10207447536E+01 -0.17876407388E+01 -0.55304090472E+01  0.59011019101E+01  0.51100000000E-03 0. -1.
        -11    1    4    4    0    0  0.74179604093E+01  0.81345664838E+01 -0.10567360043E+02  0.15259960913E+02  0.51100000000E-03 0.  1.
        -12    1    4    4    0    0 -0.49988793008E+01  0.14065481380E+02 -0.22048322538E+02  0.26626210535E+02  0.00000000000E+00 0.  1.
</event>
<event>
 8    1  0.4042158E-011  0.9118800E+02  0.7816164E-02  0.1184000E+00
        -11   -1    0    0    0    0  0.00000000000E+00  0.00000000000E+00  0.45593999997E+02  0.45594000000E+02  0.51100000000E-03 0. -1.
         11   -1    0    0    0    0 -0.00000000000E+00 -0.00000000000E+00 -0.45593999997E+02  0.45594000000E+02  0.51100000000E-03 0.  1.
         23    2    1    2    0    0  0.00000000000E+00  0.88817841970E-15  0.00000000000E+00  0.91188000000E+02  0.91188000000E+02 0.  0.
    9900012    2    3    3    0    0  0.39274962020E+02 -0.74192568373E+01 -0.16913180780E+02  0.47787266161E+02  0.19999977734E+02 0.  0.
         12    1    3    3    0    0 -0.39274962020E+02  0.74192568373E+01  0.16913180780E+02  0.43400733839E+02  0.00000000000E+00 0. -1.
         11    1    4    4    0    0 -0.43795880429E+00 -0.21567087901E+00  0.23170134113E+00  0.54037728941E+00  0.51100000000E-03 0. -1.
        -11    1    4    4    0    0 -0.77313427201E+00 -0.12091135345E+01 -0.40168010457E+01  0.42654874333E+01  0.51100000000E-03 0.  1.
         12    1    4    4    0    0  0.40486055096E+02 -0.59944724238E+01 -0.13128081076E+02  0.42981401438E+02  0.00000000000E+00 0. -1.
</event>
<event>
 8    1  0.4042158E-011  0.9118800E+02  0.7816164E-02  0.1184000E+00
        -11   -1    0    0    0    0  0.00000000000E+00  0.00000000000E+00  0.45593999997E+02  0.45594000000E+02  0.51100000000E-03 0. -1.
         11   -1    0    0    0    0 -0.00000000000E+00 -0.00000000000E+00 -0.45593999997E+02  0.45594000000E+02  0.51100000000E-03 0.  1.
         23    2    1    2    0    0  0.35527136788E-14  0.35527136788E-14  0.71054273576E-14  0.91188000000E+02  0.91188000000E+02 0.  0.
    9900012    2    3    3    0    0 -0.19091409760E+02 -0.18882155986E+02  0.34096993446E+02  0.47787277617E+02  0.20000029968E+02 0.  0.
        -12    1    3    3    0    0  0.19091409760E+02  0.18882155986E+02 -0.34096993446E+02  0.43400722383E+02  0.00000000000E+00 0.  1.
         11    1    4    4    0    0 -0.15788192339E+02 -0.13054749674E+02  0.24195501297E+02  0.31703561151E+02  0.51100000000E-03 0. -1.
        -11    1    4    4    0    0 -0.10977678916E+01 -0.78212930587E+01  0.10410439662E+02  0.13067324656E+02  0.51100000000E-03 0.  1.
        -12    1    4    4    0    0 -0.22054495293E+01  0.19938867465E+01 -0.50894751268E+00  0.30163918106E+01  0.00000000000E+00 0.  1.
</event>
<event>
 8    1  0.4042158E-011  0.9118800E+02  0.7816164E-02  0.1184000E+00
        -11   -1    0    0    0    0  0.00000000000E+00  0.00000000000E+00  0.45593999997E+02  0.45594000000E+02  0.51100000000E-03 0. -1.
         11   -1    0    0    0    0 -0.00000000000E+00 -0.00000000000E+00 -0.45593999997E+02  0.45594000000E+02  0.51100000000E-03 0.  1.
         23    2    1    2    0    0 -0.88817841970E-15  0.00000000000E+00  0.00000000000E+00  0.91188000000E+02  0.91188000000E+02 0.  0.
    9900012    2    3    3    0    0  0.42101784661E+01 -0.27425021633E+02 -0.33373127993E+02  0.47787273205E+02  0.20000009852E+02 0.  0.
         12    1    3    3    0    0 -0.42101784661E+01  0.27425021633E+02  0.33373127993E+02  0.43400726795E+02  0.00000000000E+00 0. -1.
         11    1    4    4    0    0 -0.29476247816E+01 -0.34456426142E+01 -0.36425416491E+01  0.58162749939E+01  0.51100000000E-03 0. -1.
        -11    1    4    4    0    0 -0.32256969380E+01 -0.62639182482E+01 -0.15386344063E+02  0.16922806399E+02  0.51100000000E-03 0.  1.
         12    1    4    4    0    0  0.10383500186E+02 -0.17715460771E+02 -0.14344242281E+02  0.25048191812E+02  0.00000000000E+00 0. -1.
</event>
<event>
 8    1  0.4042158E-011  0.9118800E+02  0.7816164E-02  0.1184000E+00
        -11   -1    0    0    0    0  0.00000000000E+00  0.00000000000E+00  0.45593999997E+02  0.45594000000E+02  0.51100000000E-03 0. -1.
         11   -1    0    0    0    0 -0.00000000000E+00 -0.00000000000E+00 -0.45593999997E+02  0.45594000000E+02  0.51100000000E-03 0.  1.
         23    2    1    2    0    0  0.00000000000E+00  0.35527136788E-14  0.35527136788E-14  0.91188000000E+02  0.91188000000E+02 0.  0.
    9900012    2    3    3    0    0 -0.26848531702E+02 -0.22740405272E+02 -0.25409715079E+02  0.47787270664E+02  0.19999998266E+02 0.  0.
         12    1    3    3    0    0  0.26848531702E+02  0.22740405272E+02  0.25409715079E+02  0.43400729336E+02  0.00000000000E+00 0. -1.
         11    1    4    4    0    0 -0.91661443345E+01 -0.76447839694E+01 -0.41630545117E+01  0.12640883950E+02  0.51100000000E-03 0. -1.
        -11    1    4    4    0    0 -0.10099768807E+02 -0.15319932184E+02 -0.20516913954E+02  0.27525432068E+02  0.51100000000E-03 0.  1.
        -12    1    4    4    0    0 -0.75826185605E+01  0.22431088150E+00 -0.72974661354E+00  0.76209546466E+01  0.00000000000E+00 0.  1.
</event>
<event>
 8    1  0.4042158E-011  0.9118800E+02  0.7816164E-02  0.1184000E+00
        -11   -1    0    0    0    0  0.00000000000E+00  0.00000000000E+00  0.45593999997E+02  0.45594000000E+02  0.51100000000E-03 0. -1.
         11   -1    0    0    0    0 -0.00000000000E+00 -0.00000000000E+00 -0.45593999997E+02  0.45594000000E+02  0.51100000000E-03 0.  1.
         23    2    1    2    0    0 -0.35527136788E-14  0.00000000000E+00  0.71054273576E-14  0.91188000000E+02  0.91188000000E+02 0.  0.
    9900012    2    3    3    0    0  0.16749575082E+02  0.13032951617E+02 -0.37857858878E+02  0.47787267609E+02  0.19999984336E+02 0.  0.
         12    1    3    3    0    0 -0.16749575082E+02 -0.13032951617E+02  0.37857858878E+02  0.43400732391E+02  0.00000000000E+00 0. -1.
         11    1    4    4    0    0  0.53187811590E+00  0.68872858337E+01 -0.16876659910E+02  0.18235658761E+02  0.51100000000E-03 0. -1.
        -11    1    4    4    0    0  0.56040637657E+01 -0.98536710672E+00 -0.13705746970E+02  0.14839945394E+02  0.51100000000E-03 0.  1.
        -12    1    4    4    0    0  0.10613633201E+02  0.71310328899E+01 -0.72754519976E+01  0.14711663453E+02  0.00000000000E+00 0.  1.
</event>
<event>
 8    1  0.4042158E-011  0.9118800E+02  0.7816164E-02  0.1184000E+00
        -11   -1    0    0    0    0  0.00000000000E+00  0.00000000000E+00  0.45593999997E+02  0.45594000000E+02  0.51100000000E-03 0. -1.
         11   -1    0    0    0    0 -0.00000000000E+00 -0.00000000000E+00 -0.45593999997E+02  0.45594000000E+02  0.51100000000E-03 0.  1.
         23    2    1    2    0    0 -0.22204460493E-15  0.00000000000E+00  0.71054273576E-14  0.91188000000E+02  0.91188000000E+02 0.  0.
    9900012    2    3    3    0    0  0.10207138024E+01 -0.18978175132E+02 -0.39018077761E+02  0.47787269820E+02  0.19999994416E+02 0.  0.
         12    1    3    3    0    0 -0.10207138024E+01  0.18978175132E+02  0.39018077761E+02  0.43400730180E+02  0.00000000000E+00 0. -1.
         11    1    4    4    0    0 -0.19009538293E+00  0.21847268444E+01 -0.10796210476E+01  0.24443300732E+01  0.51100000000E-03 0. -1.
        -11    1    4    4    0    0  0.86329818938E+00  0.14825608980E+01 -0.92215077453E+00  0.19477250556E+01  0.51100000000E-03 0.  1.
        -12    1    4    4    0    0  0.34751099599E+00 -0.22645462875E+02 -0.37016305939E+02  0.43395214691E+02  0.00000000000E+00 0.  1.
</event>
<event>
 8    1  0.4042158E-011  0.9118800E+02  0.7816164E-02  0.1184000E+00
        -11   -1    0    0    0    0  0.00000000000E+00  0.00000000000E+00  0.45593999997E+02  0.45594000000E+02  0.51100000000E-03 0.  1.
         11   -1    0    0    0    0 -0.00000000000E+00 -0.00000000000E+00 -0.45593999997E+02  0.45594000000E+02  0.51100000000E-03 0. -1.
         23    2    1    2    0    0  0.35527136788E-14 -0.35527136788E-14  0.00000000000E+00  0.91188000000E+02  0.91188000000E+02 0.  0.
    9900012    2    3    3    0    0 -0.27564223253E+02  0.26071641640E+02 -0.21073816359E+02  0.47787278378E+02  0.20000033438E+02 0.  0.
         12    1    3    3    0    0  0.27564223253E+02 -0.26071641640E+02  0.21073816359E+02  0.43400721622E+02  0.00000000000E+00 0. -1.
         11    1    4    4    0    0 -0.93662713275E+01  0.30013533297E+01 -0.37361125629E+01  0.10521107248E+02  0.51100000000E-03 0. -1.
        -11    1    4    4    0    0 -0.14510966501E+02  0.14950717121E+02 -0.18997329767E+02  0.28195578195E+02  0.51100000000E-03 0.  1.
         12    1    4    4    0    0 -0.36869854251E+01  0.81195711891E+01  0.16596259711E+01  0.90705929345E+01  0.00000000000E+00 0. -1.
</event>
<event>
 8    1  0.4042158E-011  0.9118800E+02  0.7816164E-02  0.1184000E+00
        -11   -1    0    0    0    0  0.00000000000E+00  0.00000000000E+00  0.45593999997E+02  0.45594000000E+02  0.51100000000E-03 0. -1.
         11   -1    0    0    0    0 -0.00000000000E+00 -0.00000000000E+00 -0.45593999997E+02  0.45594000000E+02  0.51100000000E-03 0.  1.
         23    2    1    2    0    0  0.00000000000E+00  0.17763568394E-14  0.35527136788E-14  0.91188000000E+02  0.91188000000E+02 0.  0.
    9900012    2    3    3    0    0 -0.30108273193E+02 -0.11410878444E+02 -0.29101667968E+02  0.47787270282E+02  0.19999996523E+02 0.  0.
         12    1    3    3    0    0  0.30108273193E+02  0.11410878444E+02  0.29101667968E+02  0.43400729718E+02  0.00000000000E+00 0. -1.
         11    1    4    4    0    0 -0.13583961689E+01 -0.29938797230E+01 -0.57410539064E+00  0.33373871829E+01  0.51100000000E-03 0. -1.
        -11    1    4    4    0    0 -0.27971322683E+02 -0.11335462113E+02 -0.22290949857E+02  0.37520315027E+02  0.51100000000E-03 0.  1.
         12    1    4    4    0    0 -0.77855434163E+00  0.29184633924E+01 -0.62366127203E+01  0.69295680716E+01  0.00000000000E+00 0. -1.
</event>
<event>
 8    1  0.4042158E-011  0.9118800E+02  0.7816164E-02  0.1184000E+00
        -11   -1    0    0    0    0  0.00000000000E+00  0.00000000000E+00  0.45593999997E+02  0.45594000000E+02  0.51100000000E-03 0. -1.
         11   -1    0    0    0    0 -0.00000000000E+00 -0.00000000000E+00 -0.45593999997E+02  0.45594000000E+02  0.51100000000E-03 0.  1.
         23    2    1    2    0    0 -0.88817841970E-15  0.00000000000E+00  0.00000000000E+00  0.91188000000E+02  0.91188000000E+02 0.  0.
    9900012    2    3    3    0    0 -0.56202759685E+01 -0.27693781679E+02 -0.32940708428E+02  0.47787270544E+02  0.19999997716E+02 0.  0.
         12    1    3    3    0    0  0.56202759685E+01  0.27693781679E+02  0.32940708428E+02  0.43400729456E+02  0.00000000000E+00 0. -1.
         11    1    4    4    0    0  0.39027957149E+01 -0.32543539727E+01 -0.48527651485E+01  0.70265186273E+01  0.51100000000E-03 0. -1.
        -11    1    4    4    0    0 -0.12420879376E+01 -0.19865397531E+02 -0.16915502078E+02  0.26121083674E+02  0.51100000000E-03 0.  1.
         12    1    4    4    0    0 -0.82809837457E+01 -0.45740301749E+01 -0.11172441201E+02  0.14639668242E+02  0.00000000000E+00 0. -1.
</event>
<event>
 8    1  0.4042158E-011  0.9118800E+02  0.7816164E-02  0.1184000E+00
        -11   -1    0    0    0    0  0.00000000000E+00  0.00000000000E+00  0.45593999997E+02  0.45594000000E+02  0.51100000000E-03 0. -1.
         11   -1    0    0    0    0 -0.00000000000E+00 -0.00000000000E+00 -0.45593999997E+02  0.45594000000E+02  0.51100000000E-03 0.  1.
         23    2    1    2    0    0  0.00000000000E+00  0.00000000000E+00  0.00000000000E+00  0.91188000000E+02  0.91188000000E+02 0.  0.
    9900012    2    3    3    0    0 -0.73219914013E+01  0.12820354305E+02  0.40812378233E+02  0.47787271209E+02  0.20000000749E+02 0.  0.
        -12    1    3    3    0    0  0.73219914013E+01 -0.12820354305E+02 -0.40812378233E+02  0.43400728791E+02  0.00000000000E+00 0.  1.
         11    1    4    4    0    0 -0.45278782997E+01  0.30413314936E+01  0.10918228605E+02  0.12204879978E+02  0.51100000000E-03 0. -1.
        -11    1    4    4    0    0 -0.56603125819E+01  0.52355289234E+00  0.22996997680E+02  0.23689135668E+02  0.51100000000E-03 0.  1.
        -12    1    4    4    0    0  0.28661994803E+01  0.92554699190E+01  0.68971519484E+01  0.11893255563E+02  0.00000000000E+00 0.  1.
</event>
<event>
 8    1  0.4042158E-011  0.9118800E+02  0.7816164E-02  0.1184000E+00
        -11   -1    0    0    0    0  0.00000000000E+00  0.00000000000E+00  0.45593999997E+02  0.45594000000E+02  0.51100000000E-03 0. -1.
         11   -1    0    0    0    0 -0.00000000000E+00 -0.00000000000E+00 -0.45593999997E+02  0.45594000000E+02  0.51100000000E-03 0.  1.
         23    2    1    2    0    0  0.00000000000E+00  0.00000000000E+00  0.00000000000E+00  0.91188000000E+02  0.91188000000E+02 0.  0.
    9900012    2    3    3    0    0  0.21714869661E+02 -0.24868651391E+02 -0.28171581809E+02  0.47787269499E+02  0.19999992953E+02 0.  0.
         12    1    3    3    0    0 -0.21714869661E+02  0.24868651391E+02  0.28171581809E+02  0.43400730501E+02  0.00000000000E+00 0. -1.
         11    1    4    4    0    0  0.16482647372E+00 -0.21430473386E+01  0.54654590596E+00  0.22177764429E+01  0.51100000000E-03 0. -1.
        -11    1    4    4    0    0  0.16354860064E+02 -0.53203233105E+01 -0.14712073728E+02  0.22632551811E+02  0.51100000000E-03 0.  1.
        -12    1    4    4    0    0  0.51951831237E+01 -0.17405280742E+02 -0.14006053987E+02  0.22936941245E+02  0.00000000000E+00 0.  1.
</event>
<event>
 8    1  0.4042158E-011  0.9118800E+02  0.7816164E-02  0.1184000E+00
        -11   -1    0    0    0    0  0.00000000000E+00  0.00000000000E+00  0.45593999997E+02  0.45594000000E+02  0.51100000000E-03 0. -1.
         11   -1    0    0    0    0 -0.00000000000E+00 -0.00000000000E+00 -0.45593999997E+02  0.45594000000E+02  0.51100000000E-03 0.  1.
         23    2    1    2    0    0  0.00000000000E+00 -0.17763568394E-14  0.00000000000E+00  0.91188000000E+02  0.91188000000E+02 0.  0.
    9900012    2    3    3    0    0  0.22035106153E+02  0.11336893827E+02 -0.35630776938E+02  0.47787270398E+02  0.19999997051E+02 0.  0.
         12    1    3    3    0    0 -0.22035106153E+02 -0.11336893827E+02  0.35630776938E+02  0.43400729602E+02  0.00000000000E+00 0. -1.
         11    1    4    4    0    0  0.74640223344E+01  0.51260613038E+01 -0.51773643945E+01  0.10430399620E+02  0.51100000000E-03 0. -1.
        -11    1    4    4    0    0  0.29946225751E+01  0.78165876634E+01 -0.61424276751E+01  0.10382496091E+02  0.51100000000E-03 0.  1.
        -12    1    4    4    0    0  0.11576461244E+02 -0.16057551400E+01 -0.24310984868E+02  0.26974374687E+02  0.00000000000E+00 0.  1.
</event>
<event>
 8    1  0.4042158E-011  0.9118800E+02  0.7816164E-02  0.1184000E+00
        -11   -1    0    0    0    0  0.00000000000E+00  0.00000000000E+00  0.45593999997E+02  0.45594000000E+02  0.51100000000E-03 0. -1.
         11   -1    0    0    0    0 -0.00000000000E+00 -0.00000000000E+00 -0.45593999997E+02  0.45594000000E+02  0.51100000000E-03 0.  1.
         23    2    1    2    0    0  0.35527136788E-14  0.35527136788E-14  0.35527136788E-14  0.91188000000E+02  0.91188000000E+02 0.  0.
    9900012    2    3    3    0    0 -0.24026693963E+02  0.22210759604E+02 -0.28513564518E+02  0.47787271590E+02  0.20000002487E+02 0.  0.
         12    1    3    3    0    0  0.24026693963E+02 -0.22210759604E+02  0.28513564518E+02  0.43400728410E+02  0.00000000000E+00 0. -1.
         11    1    4    4    0    0 -0.10124527200E+02  0.71884920577E+01 -0.28742837025E+01  0.12745272698E+02  0.51100000000E-03 0. -1.
        -11    1    4    4    0    0 -0.68453710557E+01  0.14480722952E+02 -0.13309604910E+02  0.20825369750E+02  0.51100000000E-03 0.  1.
         12    1    4    4    0    0 -0.70567957071E+01  0.54154459398E+00 -0.12329675906E+02  0.14216629142E+02  0.00000000000E+00 0. -1.
</event>
<event>
 8    1  0.4042158E-011  0.9118800E+02  0.7816164E-02  0.1184000E+00
        -11   -1    0    0    0    0  0.00000000000E+00  0.00000000000E+00  0.45593999997E+02  0.45594000000E+02  0.51100000000E-03 0. -1.
         11   -1    0    0    0    0 -0.00000000000E+00 -0.00000000000E+00 -0.45593999997E+02  0.45594000000E+02  0.51100000000E-03 0.  1.
         23    2    1    2    0    0 -0.17763568394E-14 -0.35527136788E-14 -0.71054273576E-14  0.91188000000E+02  0.91188000000E+02 0.  0.
    9900012    2    3    3    0    0  0.12217673748E+02  0.18789408269E+02  0.37165984325E+02  0.47787264917E+02  0.19999972062E+02 0.  0.
        -12    1    3    3    0    0 -0.12217673748E+02 -0.18789408269E+02 -0.37165984325E+02  0.43400735083E+02  0.00000000000E+00 0.  1.
         11    1    4    4    0    0  0.57510396359E+01  0.39894205915E+01 -0.20860101547E-01  0.69993120343E+01  0.51100000000E-03 0.  1.
        -11    1    4    4    0    0  0.46796256230E+01  0.57505241911E+01  0.19008394504E+02  0.20403099920E+02  0.51100000000E-03 0. -1.
        -12    1    4    4    0    0  0.17870084891E+01  0.90494634867E+01  0.18178449922E+02  0.20384852963E+02  0.00000000000E+00 0.  1.
</event>
<event>
 8    1  0.4042158E-011  0.9118800E+02  0.7816164E-02  0.1184000E+00
        -11   -1    0    0    0    0  0.00000000000E+00  0.00000000000E+00  0.45593999997E+02  0.45594000000E+02  0.51100000000E-03 0. -1.
         11   -1    0    0    0    0 -0.00000000000E+00 -0.00000000000E+00 -0.45593999997E+02  0.45594000000E+02  0.51100000000E-03 0.  1.
         23    2    1    2    0    0  0.17763568394E-14  0.00000000000E+00  0.00000000000E+00  0.91188000000E+02  0.91188000000E+02 0.  0.
    9900012    2    3    3    0    0 -0.71457083894E+01  0.30262662233E+02 -0.30277608506E+02  0.47787269008E+02  0.19999990715E+02 0.  0.
         12    1    3    3    0    0  0.71457083894E+01 -0.30262662233E+02  0.30277608506E+02  0.43400730992E+02  0.00000000000E+00 0. -1.
         11    1    4    4    0    0 -0.78826257245E+01  0.23436098879E+02 -0.11754416206E+02  0.27377962298E+02  0.51100000000E-03 0. -1.
        -11    1    4    4    0    0 -0.18788730306E+01  0.47501495363E+01 -0.94723919930E+01  0.10761983777E+02  0.51100000000E-03 0.  1.
        -12    1    4    4    0    0  0.26157903658E+01  0.20764138176E+01 -0.90508003071E+01  0.96473229332E+01  0.00000000000E+00 0.  1.
</event>
<event>
 8    1  0.4042158E-011  0.9118800E+02  0.7816164E-02  0.1184000E+00
        -11   -1    0    0    0    0  0.00000000000E+00  0.00000000000E+00  0.45593999997E+02  0.45594000000E+02  0.51100000000E-03 0. -1.
         11   -1    0    0    0    0 -0.00000000000E+00 -0.00000000000E+00 -0.45593999997E+02  0.45594000000E+02  0.51100000000E-03 0.  1.
         23    2    1    2    0    0  0.00000000000E+00  0.00000000000E+00  0.00000000000E+00  0.91188000000E+02  0.91188000000E+02 0.  0.
    9900012    2    3    3    0    0 -0.29515287586E+02 -0.26696750121E+02  0.17313426705E+02  0.47787269446E+02  0.19999992713E+02 0.  0.
        -12    1    3    3    0    0  0.29515287586E+02  0.26696750121E+02 -0.17313426705E+02  0.43400730554E+02  0.00000000000E+00 0.  1.
         11    1    4    4    0    0 -0.50956013010E+01 -0.44248964409E+01  0.91940274083E+00  0.68110324322E+01  0.51100000000E-03 0. -1.
        -11    1    4    4    0    0  0.23912177822E+01 -0.50089435326E+01  0.36107190215E+01  0.66215353135E+01  0.51100000000E-03 0.  1.
         12    1    4    4    0    0 -0.26810904067E+02 -0.17262910148E+02  0.12783304943E+02  0.34354701701E+02  0.00000000000E+00 0. -1.
</event>
<event>
 8    1  0.4042158E-011  0.9118800E+02  0.7816164E-02  0.1184000E+00
        -11   -1    0    0    0    0  0.00000000000E+00  0.00000000000E+00  0.45593999997E+02  0.45594000000E+02  0.51100000000E-03 0. -1.
         11   -1    0    0    0    0 -0.00000000000E+00 -0.00000000000E+00 -0.45593999997E+02  0.45594000000E+02  0.51100000000E-03 0.  1.
         23    2    1    2    0    0  0.00000000000E+00  0.00000000000E+00  0.00000000000E+00  0.91188000000E+02  0.91188000000E+02 0.  0.
    9900012    2    3    3    0    0 -0.29069122785E+02  0.18854939517E+02  0.26136183049E+02  0.47787277563E+02  0.20000029719E+02 0.  0.
        -12    1    3    3    0    0  0.29069122785E+02 -0.18854939517E+02 -0.26136183049E+02  0.43400722437E+02  0.00000000000E+00 0.  1.
         11    1    4    4    0    0 -0.10020178568E+02  0.10383348532E+02  0.15228668317E+02  0.20979281309E+02  0.51100000000E-03 0. -1.
        -11    1    4    4    0    0 -0.33272334157E+01  0.64708715094E+01  0.77829262871E+01  0.10654417025E+02  0.51100000000E-03 0.  1.
        -12    1    4    4    0    0 -0.15721710801E+02  0.20007194757E+01  0.31245884455E+01  0.16153579228E+02  0.00000000000E+00 0.  1.
</event>
<event>
 8    1  0.4042158E-011  0.9118800E+02  0.7816164E-02  0.1184000E+00
        -11   -1    0    0    0    0  0.00000000000E+00  0.00000000000E+00  0.45593999997E+02  0.45594000000E+02  0.51100000000E-03 0. -1.
         11   -1    0    0    0    0 -0.00000000000E+00 -0.00000000000E+00 -0.45593999997E+02  0.45594000000E+02  0.51100000000E-03 0.  1.
         23    2    1    2    0    0  0.00000000000E+00  0.35527136788E-14 -0.35527136788E-14  0.91188000000E+02  0.91188000000E+02 0.  0.
    9900012    2    3    3    0    0  0.24301978050E+02  0.22098881273E+02 -0.28366824883E+02  0.47787269078E+02  0.19999991034E+02 0.  0.
         12    1    3    3    0    0 -0.24301978050E+02 -0.22098881273E+02  0.28366824883E+02  0.43400730922E+02  0.00000000000E+00 0. -1.
         11    1    4    4    0    0  0.81713271528E+01  0.63090421198E+01 -0.14545987659E+02  0.17837050125E+02  0.51100000000E-03 0. -1.
        -11    1    4    4    0    0  0.44076143614E+01  0.94752788309E+00 -0.95496780910E+01  0.10560361043E+02  0.51100000000E-03 0.  1.
         12    1    4    4    0    0  0.11723036535E+02  0.14842311270E+02 -0.42711591324E+01  0.19389857910E+02  0.00000000000E+00 0. -1.
</event>
<event>
 8    1  0.4042158E-011  0.9118800E+02  0.7816164E-02  0.1184000E+00
        -11   -1    0    0    0    0  0.00000000000E+00  0.00000000000E+00  0.45593999997E+02  0.45594000000E+02  0.51100000000E-03 0. -1.
         11   -1    0    0    0    0 -0.00000000000E+00 -0.00000000000E+00 -0.45593999997E+02  0.45594000000E+02  0.51100000000E-03 0.  1.
         23    2    1    2    0    0  0.00000000000E+00  0.17763568394E-14  0.17763568394E-14  0.91188000000E+02  0.91188000000E+02 0.  0.
    9900012    2    3    3    0    0 -0.37835461958E+02 -0.15030513652E+02 -0.15039459272E+02  0.47787264322E+02  0.19999969349E+02 0.  0.
         12    1    3    3    0    0  0.37835461958E+02  0.15030513652E+02  0.15039459272E+02  0.43400735678E+02  0.00000000000E+00 0. -1.
         11    1    4    4    0    0 -0.20739211676E+01 -0.58838169068E+01 -0.32096179674E+00  0.62468765906E+01  0.51100000000E-03 0. -1.
        -11    1    4    4    0    0 -0.81750142881E+00 -0.30101755807E+01  0.27182623028E-01  0.31193276148E+01  0.51100000000E-03 0.  1.
         12    1    4    4    0    0 -0.34944039362E+02 -0.61365211640E+01 -0.14745680098E+02  0.38421060116E+02  0.00000000000E+00 0. -1.
</event>
<event>
 8    1  0.4042158E-011  0.9118800E+02  0.7816164E-02  0.1184000E+00
        -11   -1    0    0    0    0  0.00000000000E+00  0.00000000000E+00  0.45593999997E+02  0.45594000000E+02  0.51100000000E-03 0. -1.
         11   -1    0    0    0    0 -0.00000000000E+00 -0.00000000000E+00 -0.45593999997E+02  0.45594000000E+02  0.51100000000E-03 0.  1.
         23    2    1    2    0    0  0.17763568394E-14  0.00000000000E+00 -0.71054273576E-14  0.91188000000E+02  0.91188000000E+02 0.  0.
    9900012    2    3    3    0    0  0.53021429235E+01  0.21580515378E+02 -0.37279924434E+02  0.47787261189E+02  0.19999955066E+02 0.  0.
         12    1    3    3    0    0 -0.53021429235E+01 -0.21580515378E+02  0.37279924434E+02  0.43400738811E+02  0.00000000000E+00 0. -1.
         11    1    4    4    0    0  0.33257553085E+00  0.29483246672E+01 -0.12611392481E+01  0.32239257577E+01  0.51100000000E-03 0. -1.
        -11    1    4    4    0    0  0.75130005590E+01  0.19891892050E+02 -0.35897501136E+02  0.41722453604E+02  0.51100000000E-03 0.  1.
         12    1    4    4    0    0 -0.25434331663E+01 -0.12597013389E+01 -0.12128404979E+00  0.28408818271E+01  0.00000000000E+00 0. -1.
</event>
<event>
 8    1  0.4042158E-011  0.9118800E+02  0.7816164E-02  0.1184000E+00
        -11   -1    0    0    0    0  0.00000000000E+00  0.00000000000E+00  0.45593999997E+02  0.45594000000E+02  0.51100000000E-03 0. -1.
         11   -1    0    0    0    0 -0.00000000000E+00 -0.00000000000E+00 -0.45593999997E+02  0.45594000000E+02  0.51100000000E-03 0.  1.
         23    2    1    2    0    0  0.35527136788E-14  0.00000000000E+00  0.35527136788E-14  0.91188000000E+02  0.91188000000E+02 0.  0.
    9900012    2    3    3    0    0 -0.22875925321E+02 -0.28038164596E+02 -0.23961986399E+02  0.47787269299E+02  0.19999992042E+02 0.  0.
         12    1    3    3    0    0  0.22875925321E+02  0.28038164596E+02  0.23961986399E+02  0.43400730701E+02  0.00000000000E+00 0. -1.
         11    1    4    4    0    0 -0.22868940567E+01 -0.47582560330E+01  0.28337034284E+01  0.59917243163E+01  0.51100000000E-03 0. -1.
        -11    1    4    4    0    0 -0.32153870738E+01 -0.90804005981E+01 -0.83820706887E+01  0.12769162006E+02  0.51100000000E-03 0.  1.
         12    1    4    4    0    0 -0.17373644190E+02 -0.14199507965E+02 -0.18413619139E+02  0.29026382976E+02  0.00000000000E+00 0. -1.
</event>
<event>
 8    1  0.4042158E-011  0.9118800E+02  0.7816164E-02  0.1184000E+00
        -11   -1    0    0    0    0  0.00000000000E+00  0.00000000000E+00  0.45593999997E+02  0.45594000000E+02  0.51100000000E-03 0. -1.
         11   -1    0    0    0    0 -0.00000000000E+00 -0.00000000000E+00 -0.45593999997E+02  0.45594000000E+02  0.51100000000E-03 0.  1.
         23    2    1    2    0    0  0.00000000000E+00  0.00000000000E+00 -0.35527136788E-14  0.91188000000E+02  0.91188000000E+02 0.  0.
    9900012    2    3    3    0    0 -0.26626651810E+02  0.20576004474E+02  0.27409372152E+02  0.47787260047E+02  0.19999949857E+02 0.  0.
        -12    1    3    3    0    0  0.26626651810E+02 -0.20576004474E+02 -0.27409372152E+02  0.43400739953E+02  0.00000000000E+00 0.  1.
         11    1    4    4    0    0 -0.12717957519E+01  0.24245424041E+01  0.67314074507E+01  0.72668918275E+01  0.51100000000E-03 0. -1.
        -11    1    4    4    0    0 -0.84655591945E+01  0.55419189441E+01 -0.11425590390E+01  0.10182534040E+02  0.51100000000E-03 0.  1.
        -12    1    4    4    0    0 -0.16889296864E+02  0.12609543126E+02  0.21820523740E+02  0.30337834179E+02  0.00000000000E+00 0.  1.
</event>
<event>
 8    1  0.4042158E-011  0.9118800E+02  0.7816164E-02  0.1184000E+00
        -11   -1    0    0    0    0  0.00000000000E+00  0.00000000000E+00  0.45593999997E+02  0.45594000000E+02  0.51100000000E-03 0. -1.
         11   -1    0    0    0    0 -0.00000000000E+00 -0.00000000000E+00 -0.45593999997E+02  0.45594000000E+02  0.51100000000E-03 0.  1.
         23    2    1    2    0    0  0.00000000000E+00 -0.88817841970E-15  0.71054273576E-14  0.91188000000E+02  0.91188000000E+02 0.  0.
    9900012    2    3    3    0    0  0.20123175262E+02 -0.69657826689E+01  0.37817451705E+02  0.47787263091E+02  0.19999963738E+02 0.  0.
        -12    1    3    3    0    0 -0.20123175262E+02  0.69657826689E+01 -0.37817451705E+02  0.43400736909E+02  0.00000000000E+00 0.  1.
         11    1    4    4    0    0  0.82406000072E+01 -0.15475424030E+01  0.20949727564E+02  0.22565315447E+02  0.51100000000E-03 0. -1.
        -11    1    4    4    0    0  0.12282356720E+02  0.49546895672E+00  0.14021359126E+02  0.18646723253E+02  0.51100000000E-03 0.  1.
        -12    1    4    4    0    0 -0.39978146578E+00 -0.59137092226E+01  0.28463650147E+01  0.65752243906E+01  0.00000000000E+00 0.  1.
</event>
<event>
 8    1  0.4042158E-011  0.9118800E+02  0.7816164E-02  0.1184000E+00
        -11   -1    0    0    0    0  0.00000000000E+00  0.00000000000E+00  0.45593999997E+02  0.45594000000E+02  0.51100000000E-03 0. -1.
         11   -1    0    0    0    0 -0.00000000000E+00 -0.00000000000E+00 -0.45593999997E+02  0.45594000000E+02  0.51100000000E-03 0.  1.
         23    2    1    2    0    0 -0.17763568394E-14  0.00000000000E+00 -0.35527136788E-14  0.91188000000E+02  0.91188000000E+02 0.  0.
    9900012    2    3    3    0    0 -0.42285601891E+01 -0.37913267606E+02  0.20696051282E+02  0.47787272811E+02  0.20000008054E+02 0.  0.
        -12    1    3    3    0    0  0.42285601891E+01  0.37913267606E+02 -0.20696051282E+02  0.43400727189E+02  0.00000000000E+00 0.  1.
         11    1    4    4    0    0 -0.35616633776E+01 -0.91608933018E+01  0.86381564973E+01  0.13085303208E+02  0.51100000000E-03 0. -1.
        -11    1    4    4    0    0 -0.47463113261E+01 -0.23372137620E+02  0.39885449333E+01  0.24180421400E+02  0.51100000000E-03 0.  1.
         12    1    4    4    0    0  0.40794145146E+01 -0.53802366844E+01  0.80693498517E+01  0.10521548203E+02  0.00000000000E+00 0. -1.
</event>
<event>
 8    1  0.4042158E-011  0.9118800E+02  0.7816164E-02  0.1184000E+00
        -11   -1    0    0    0    0  0.00000000000E+00  0.00000000000E+00  0.45593999997E+02  0.45594000000E+02  0.51100000000E-03 0. -1.
         11   -1    0    0    0    0 -0.00000000000E+00 -0.00000000000E+00 -0.45593999997E+02  0.45594000000E+02  0.51100000000E-03 0.  1.
         23    2    1    2    0    0  0.00000000000E+00  0.00000000000E+00 -0.71054273576E-14  0.91188000000E+02  0.91188000000E+02 0.  0.
    9900012    2    3    3    0    0 -0.70741889404E+01  0.18972269925E+02 -0.38387911611E+02  0.47787274970E+02  0.20000017898E+02 0.  0.
         12    1    3    3    0    0  0.70741889404E+01 -0.18972269925E+02  0.38387911611E+02  0.43400725030E+02  0.00000000000E+00 0. -1.
         11    1    4    4    0    0 -0.34535023361E+01  0.20130307058E+02 -0.30322854151E+02  0.36559970252E+02  0.51100000000E-03 0. -1.
        -11    1    4    4    0    0 -0.11212269942E+01  0.23092207332E+01 -0.59037359965E+01  0.64376819854E+01  0.51100000000E-03 0.  1.
         12    1    4    4    0    0 -0.24994596101E+01 -0.34672578667E+01 -0.21613214633E+01  0.47896227330E+01  0.00000000000E+00 0. -1.
</event>
<event>
 8    1  0.4042158E-011  0.9118800E+02  0.7816164E-02  0.1184000E+00
        -11   -1    0    0    0    0  0.00000000000E+00  0.00000000000E+00  0.45593999997E+02  0.45594000000E+02  0.51100000000E-03 0. -1.
         11   -1    0    0    0    0 -0.00000000000E+00 -0.00000000000E+00 -0.45593999997E+02  0.45594000000E+02  0.51100000000E-03 0.  1.
         23    2    1    2    0    0  0.00000000000E+00 -0.35527136788E-14  0.00000000000E+00  0.91188000000E+02  0.91188000000E+02 0.  0.
    9900012    2    3    3    0    0  0.33860657809E+02 -0.21835572432E+02 -0.16133412650E+02  0.47787269886E+02  0.19999994719E+02 0.  0.
         12    1    3    3    0    0 -0.33860657809E+02  0.21835572432E+02  0.16133412650E+02  0.43400730114E+02  0.00000000000E+00 0. -1.
         11    1    4    4    0    0  0.16968106107E+02 -0.13241961729E+02 -0.93919909718E+01  0.23483519114E+02  0.51100000000E-03 0. -1.
        -11    1    4    4    0    0  0.14643986498E+02 -0.49711086844E+01 -0.10440518074E+02  0.18659117879E+02  0.51100000000E-03 0.  1.
         12    1    4    4    0    0  0.22485652039E+01 -0.36225020186E+01  0.36990963964E+01  0.56446328934E+01  0.00000000000E+00 0. -1.
</event>
<event>
 8    1  0.4042158E-011  0.9118800E+02  0.7816164E-02  0.1184000E+00
        -11   -1    0    0    0    0  0.00000000000E+00  0.00000000000E+00  0.45593999997E+02  0.45594000000E+02  0.51100000000E-03 0. -1.
         11   -1    0    0    0    0 -0.00000000000E+00 -0.00000000000E+00 -0.45593999997E+02  0.45594000000E+02  0.51100000000E-03 0.  1.
         23    2    1    2    0    0  0.00000000000E+00  0.35527136788E-14 -0.35527136788E-14  0.91188000000E+02  0.91188000000E+02 0.  0.
    9900012    2    3    3    0    0 -0.23805379798E+02 -0.31973979734E+02 -0.17163681482E+02  0.47787269023E+02  0.19999990782E+02 0.  0.
         12    1    3    3    0    0  0.23805379798E+02  0.31973979734E+02  0.17163681482E+02  0.43400730977E+02  0.00000000000E+00 0. -1.
         11    1    4    4    0    0 -0.51462558795E+01 -0.15465220382E+02 -0.10595438695E+02  0.19440172644E+02  0.51100000000E-03 0. -1.
        -11    1    4    4    0    0 -0.52588254362E+01 -0.10995938162E+02  0.55398419580E+00  0.12201344179E+02  0.51100000000E-03 0.  1.
        -12    1    4    4    0    0 -0.13400298482E+02 -0.55128211907E+01 -0.71222269832E+01  0.16145752200E+02  0.00000000000E+00 0.  1.
</event>
<event>
 8    1  0.4042158E-011  0.9118800E+02  0.7816164E-02  0.1184000E+00
        -11   -1    0    0    0    0  0.00000000000E+00  0.00000000000E+00  0.45593999997E+02  0.45594000000E+02  0.51100000000E-03 0. -1.
         11   -1    0    0    0    0 -0.00000000000E+00 -0.00000000000E+00 -0.45593999997E+02  0.45594000000E+02  0.51100000000E-03 0.  1.
         23    2    1    2    0    0  0.00000000000E+00  0.00000000000E+00 -0.17763568394E-14  0.91188000000E+02  0.91188000000E+02 0.  0.
    9900012    2    3    3    0    0 -0.21547638107E+02  0.35341386706E+02 -0.13050247275E+02  0.47787271017E+02  0.19999999876E+02 0.  0.
         12    1    3    3    0    0  0.21547638107E+02 -0.35341386706E+02  0.13050247275E+02  0.43400728983E+02  0.00000000000E+00 0. -1.
         11    1    4    4    0    0 -0.35576772956E+01  0.35731261465E+01 -0.43403686998E+01  0.66530518493E+01  0.51100000000E-03 0. -1.
        -11    1    4    4    0    0 -0.15058699175E+02  0.29595419418E+02 -0.12858864242E+02  0.35609039038E+02  0.51100000000E-03 0.  1.
         12    1    4    4    0    0 -0.29312616367E+01  0.21728411416E+01  0.41489856664E+01  0.55251801300E+01  0.00000000000E+00 0. -1.
</event>
<event>
 8    1  0.4042158E-011  0.9118800E+02  0.7816164E-02  0.1184000E+00
        -11   -1    0    0    0    0  0.00000000000E+00  0.00000000000E+00  0.45593999997E+02  0.45594000000E+02  0.51100000000E-03 0. -1.
         11   -1    0    0    0    0 -0.00000000000E+00 -0.00000000000E+00 -0.45593999997E+02  0.45594000000E+02  0.51100000000E-03 0.  1.
         23    2    1    2    0    0  0.00000000000E+00  0.17763568394E-14  0.00000000000E+00  0.91188000000E+02  0.91188000000E+02 0.  0.
    9900012    2    3    3    0    0  0.32865152464E+02 -0.93993353132E+01  0.26742410185E+02  0.47787282802E+02  0.20000053608E+02 0.  0.
        -12    1    3    3    0    0 -0.32865152464E+02  0.93993353132E+01 -0.26742410185E+02  0.43400717198E+02  0.00000000000E+00 0.  1.
         11    1    4    4    0    0  0.79565988720E+01  0.17610622164E+01  0.44410764258E+01  0.92807308883E+01  0.51100000000E-03 0. -1.
        -11    1    4    4    0    0 -0.14293269111E+01 -0.35512730354E+01  0.40440677509E+01  0.55685725124E+01  0.51100000000E-03 0.  1.
        -12    1    4    4    0    0  0.26337880503E+02 -0.76091244942E+01  0.18257266008E+02  0.32937979401E+02  0.00000000000E+00 0.  1.
</event>
<event>
 8    1  0.4042158E-011  0.9118800E+02  0.7816164E-02  0.1184000E+00
        -11   -1    0    0    0    0  0.00000000000E+00  0.00000000000E+00  0.45593999997E+02  0.45594000000E+02  0.51100000000E-03 0. -1.
         11   -1    0    0    0    0 -0.00000000000E+00 -0.00000000000E+00 -0.45593999997E+02  0.45594000000E+02  0.51100000000E-03 0.  1.
         23    2    1    2    0    0  0.00000000000E+00  0.00000000000E+00  0.00000000000E+00  0.91188000000E+02  0.91188000000E+02 0.  0.
    9900012    2    3    3    0    0 -0.15747748551E+02 -0.49497649020E+01  0.40138900899E+02  0.47787272790E+02  0.20000007957E+02 0.  0.
        -12    1    3    3    0    0  0.15747748551E+02  0.49497649020E+01 -0.40138900899E+02  0.43400727210E+02  0.00000000000E+00 0.  1.
         11    1    4    4    0    0 -0.41423528199E+01 -0.22624549158E+01  0.51444365315E+01  0.69816199136E+01  0.51100000000E-03 0. -1.
        -11    1    4    4    0    0 -0.33106742689E+01  0.57469677503E+01  0.23087576890E+02  0.24021332381E+02  0.51100000000E-03 0.  1.
        -12    1    4    4    0    0 -0.82947214623E+01 -0.84342777365E+01  0.11906887477E+02  0.16784320495E+02  0.00000000000E+00 0.  1.
</event>
<event>
 8    1  0.4042158E-011  0.9118800E+02  0.7816164E-02  0.1184000E+00
        -11   -1    0    0    0    0  0.00000000000E+00  0.00000000000E+00  0.45593999997E+02  0.45594000000E+02  0.51100000000E-03 0. -1.
         11   -1    0    0    0    0 -0.00000000000E+00 -0.00000000000E+00 -0.45593999997E+02  0.45594000000E+02  0.51100000000E-03 0.  1.
         23    2    1    2    0    0 -0.35527136788E-14 -0.88817841970E-15  0.00000000000E+00  0.91188000000E+02  0.91188000000E+02 0.  0.
    9900012    2    3    3    0    0 -0.21263687452E+02 -0.75648879258E+01 -0.37070895745E+02  0.47787271380E+02  0.20000001532E+02 0.  0.
         12    1    3    3    0    0  0.21263687452E+02  0.75648879258E+01  0.37070895745E+02  0.43400728620E+02  0.00000000000E+00 0. -1.
         11    1    4    4    0    0 -0.67877349340E+01 -0.31099097847E+01 -0.19437895562E+02  0.20822503897E+02  0.51100000000E-03 0.  1.
        -11    1    4    4    0    0  0.22136841837E+01  0.14928210514E+01 -0.26370893235E+01  0.37527526854E+01  0.51100000000E-03 0. -1.
         12    1    4    4    0    0 -0.16689636702E+02 -0.59477991926E+01 -0.14995910859E+02  0.23212014798E+02  0.00000000000E+00 0. -1.
</event>
<event>
 8    1  0.4042158E-011  0.9118800E+02  0.7816164E-02  0.1184000E+00
        -11   -1    0    0    0    0  0.00000000000E+00  0.00000000000E+00  0.45593999997E+02  0.45594000000E+02  0.51100000000E-03 0. -1.
         11   -1    0    0    0    0 -0.00000000000E+00 -0.00000000000E+00 -0.45593999997E+02  0.45594000000E+02  0.51100000000E-03 0.  1.
         23    2    1    2    0    0  0.00000000000E+00  0.00000000000E+00  0.00000000000E+00  0.91188000000E+02  0.91188000000E+02 0.  0.
    9900012    2    3    3    0    0  0.33285212954E+01 -0.25056911484E+02  0.35280240742E+02  0.47787271274E+02  0.20000001048E+02 0.  0.
        -12    1    3    3    0    0 -0.33285212954E+01  0.25056911484E+02 -0.35280240742E+02  0.43400728726E+02  0.00000000000E+00 0.  1.
         11    1    4    4    0    0  0.10601548075E+00 -0.19889009812E+02  0.30311777690E+02  0.36254486862E+02  0.51100000000E-03 0. -1.
        -11    1    4    4    0    0  0.57881728382E+00 -0.38606542853E+01  0.69558424083E+01  0.79764293283E+01  0.51100000000E-03 0.  1.
        -12    1    4    4    0    0  0.26436885308E+01 -0.13072473867E+01 -0.19873793570E+01  0.35563550844E+01  0.00000000000E+00 0.  1.
</event>
<event>
 8    1  0.4042158E-011  0.9118800E+02  0.7816164E-02  0.1184000E+00
        -11   -1    0    0    0    0  0.00000000000E+00  0.00000000000E+00  0.45593999997E+02  0.45594000000E+02  0.51100000000E-03 0. -1.
         11   -1    0    0    0    0 -0.00000000000E+00 -0.00000000000E+00 -0.45593999997E+02  0.45594000000E+02  0.51100000000E-03 0.  1.
         23    2    1    2    0    0 -0.88817841970E-15 -0.44408920985E-15  0.71054273576E-14  0.91188000000E+02  0.91188000000E+02 0.  0.
    9900012    2    3    3    0    0 -0.74959763265E+01 -0.38006574304E+01  0.42579203279E+02  0.47787271782E+02  0.20000003361E+02 0.  0.
        -12    1    3    3    0    0  0.74959763265E+01  0.38006574304E+01 -0.42579203279E+02  0.43400728218E+02  0.00000000000E+00 0.  1.
         11    1    4    4    0    0  0.81647258084E+00  0.27722759746E+01  0.48129696438E+01  0.56139842009E+01  0.51100000000E-03 0.  1.
        -11    1    4    4    0    0 -0.52956706445E+01 -0.31597499740E+01  0.37052800498E+02  0.37562456954E+02  0.51100000000E-03 0. -1.
        -12    1    4    4    0    0 -0.30167782628E+01 -0.34131834311E+01  0.71343313787E+00  0.46108306262E+01  0.00000000000E+00 0.  1.
</event>
<event>
 8    1  0.4042158E-011  0.9118800E+02  0.7816164E-02  0.1184000E+00
        -11   -1    0    0    0    0  0.00000000000E+00  0.00000000000E+00  0.45593999997E+02  0.45594000000E+02  0.51100000000E-03 0. -1.
         11   -1    0    0    0    0 -0.00000000000E+00 -0.00000000000E+00 -0.45593999997E+02  0.45594000000E+02  0.51100000000E-03 0.  1.
         23    2    1    2    0    0  0.88817841970E-15  0.71054273576E-14  0.00000000000E+00  0.91188000000E+02  0.91188000000E+02 0.  0.
    9900012    2    3    3    0    0 -0.41333902877E+01  0.16909363764E+02 -0.39756910057E+02  0.47787269643E+02  0.19999993612E+02 0.  0.
         12    1    3    3    0    0  0.41333902877E+01 -0.16909363764E+02  0.39756910057E+02  0.43400730357E+02  0.00000000000E+00 0. -1.
         11    1    4    4    0    0 -0.79718948409E+01  0.55823931202E+01 -0.11309746371E+02  0.14920609356E+02  0.51100000000E-03 0. -1.
        -11    1    4    4    0    0 -0.14779112923E+01  0.10995060717E+02 -0.20275422033E+02  0.23112081707E+02  0.51100000000E-03 0.  1.
         12    1    4    4    0    0  0.53164158455E+01  0.33190992682E+00 -0.81717416533E+01  0.97545785809E+01  0.00000000000E+00 0. -1.
</event>
<event>
 8    1  0.4042158E-011  0.9118800E+02  0.7816164E-02  0.1184000E+00
        -11   -1    0    0    0    0  0.00000000000E+00  0.00000000000E+00  0.45593999997E+02  0.45594000000E+02  0.51100000000E-03 0. -1.
         11   -1    0    0    0    0 -0.00000000000E+00 -0.00000000000E+00 -0.45593999997E+02  0.45594000000E+02  0.51100000000E-03 0.  1.
         23    2    1    2    0    0  0.00000000000E+00 -0.44408920985E-15 -0.71054273576E-14  0.91188000000E+02  0.91188000000E+02 0.  0.
    9900012    2    3    3    0    0 -0.31726573356E+02 -0.32196679122E+01  0.29439444430E+02  0.47787278731E+02  0.20000035046E+02 0.  0.
        -12    1    3    3    0    0  0.31726573356E+02  0.32196679122E+01 -0.29439444430E+02  0.43400721269E+02  0.00000000000E+00 0.  1.
         11    1    4    4    0    0 -0.16446594304E+02 -0.87570509047E+01  0.24211936278E+02  0.30551501818E+02  0.51100000000E-03 0. -1.
        -11    1    4    4    0    0 -0.17123628006E+00  0.29860182266E+00  0.40858031036E+00  0.53424998197E+00  0.51100000000E-03 0.  1.
        -12    1    4    4    0    0 -0.15108742771E+02  0.52387811698E+01  0.48189278410E+01  0.16701526930E+02  0.00000000000E+00 0.  1.
</event>
<event>
 8    1  0.4042158E-011  0.9118800E+02  0.7816164E-02  0.1184000E+00
        -11   -1    0    0    0    0  0.00000000000E+00  0.00000000000E+00  0.45593999997E+02  0.45594000000E+02  0.51100000000E-03 0. -1.
         11   -1    0    0    0    0 -0.00000000000E+00 -0.00000000000E+00 -0.45593999997E+02  0.45594000000E+02  0.51100000000E-03 0.  1.
         23    2    1    2    0    0  0.00000000000E+00  0.00000000000E+00  0.00000000000E+00  0.91188000000E+02  0.91188000000E+02 0.  0.
    9900012    2    3    3    0    0  0.51116806507E+01  0.35759307267E+02 -0.24057597138E+02  0.47787247526E+02  0.19999892770E+02 0.  0.
         12    1    3    3    0    0 -0.51116806507E+01 -0.35759307267E+02  0.24057597138E+02  0.43400752474E+02  0.00000000000E+00 0. -1.
         11    1    4    4    0    0  0.31211447334E+01  0.26273725016E+01 -0.37176072628E+01  0.55195321115E+01  0.51100000000E-03 0. -1.
        -11    1    4    4    0    0  0.33309063432E+01  0.10812035938E+02 -0.15830127170E+02  0.19457337553E+02  0.51100000000E-03 0.  1.
        -12    1    4    4    0    0 -0.13403704259E+01  0.22319898828E+02 -0.45098627050E+01  0.22810377861E+02  0.00000000000E+00 0.  1.
</event>
